Title
35789
    1GLY      N    1   5.729   4.183   3.360
    1GLY    HT1    2   5.830   4.206   3.374
    1GLY    HT2    3   5.677   4.269   3.334
    1GLY    HT3    4   5.723   4.119   3.279
    1GLY     CA    5   5.667   4.115   3.479
    1GLY    HA1    6   5.668   4.184   3.562
    1GLY    HA2    7   5.720   4.023   3.497
    1GLY      C    8   5.523   4.082   3.451
    1GLY      O    9   5.463   4.145   3.365
    2SER      N   10   5.463   3.984   3.522
    2SER     HN   11   5.510   3.930   3.591
    2SER     CA   12   5.321   3.952   3.506
    2SER     HA   13   5.304   3.922   3.403
    2SER     CB   14   5.272   3.839   3.601
    2SER    HB1   15   5.162   3.826   3.594
    2SER    HB2   16   5.297   3.868   3.705
    2SER     OG   17   5.334   3.713   3.572
    2SER    HG1   18   5.269   3.664   3.521
    2SER      C   19   5.230   4.071   3.534
    2SER      O   20   5.255   4.146   3.628
    3GLY      N   21   5.124   4.090   3.453
    3GLY     HN   22   5.108   4.033   3.373
    3GLY     CA   23   5.020   4.188   3.483
    3GLY    HA1   24   4.948   4.185   3.403
    3GLY    HA2   25   5.066   4.285   3.493
    3GLY      C   26   4.945   4.160   3.611
    3GLY      O   27   4.954   4.050   3.667
    4ASP      N   28   4.867   4.258   3.658
    4ASP     HN   29   4.868   4.349   3.618
    4ASP     CA   30   4.784   4.245   3.777
    4ASP     HA   31   4.853   4.221   3.857
    4ASP     CB   32   4.714   4.380   3.810
    4ASP    HB1   33   4.647   4.370   3.898
    4ASP    HB2   34   4.652   4.412   3.723
    4ASP     CG   35   4.813   4.491   3.841
    4ASP    OD1   36   4.931   4.461   3.874
    4ASP    OD2   37   4.771   4.609   3.836
    4ASP      C   38   4.681   4.130   3.764
    4ASP      O   39   4.629   4.109   3.654
    5PRO      N   40   4.651   4.051   3.868
    5PRO     CD   41   4.701   4.073   4.004
    5PRO    HD1   42   4.650   4.161   4.047
    5PRO    HD2   43   4.811   4.087   4.006
    5PRO     CA   44   4.540   3.956   3.867
    5PRO     HA   45   4.561   3.883   3.790
    5PRO     CB   46   4.536   3.895   4.009
    5PRO    HB1   47   4.535   3.784   4.004
    5PRO    HB2   48   4.447   3.928   4.066
    5PRO     CG   49   4.663   3.945   4.080
    5PRO    HG1   50   4.645   3.965   4.187
    5PRO    HG2   51   4.744   3.871   4.068
    5PRO      C   52   4.408   4.021   3.833
    5PRO      O   53   4.381   4.130   3.884
    6GLY      N   54   4.323   3.956   3.750
    6GLY     HN   55   4.348   3.866   3.714
    6GLY     CA   56   4.189   4.003   3.719
    6GLY    HA1   57   4.140   3.927   3.660
    6GLY    HA2   58   4.198   4.097   3.667
    6GLY      C   59   4.101   4.027   3.840
    6GLY      O   60   4.126   3.977   3.950
    7ASN      N   61   3.991   4.102   3.821
    7ASN     HN   62   3.971   4.139   3.730
    7ASN     CA   63   3.890   4.120   3.924
    7ASN     HA   64   3.940   4.154   4.013
    7ASN     CB   65   3.781   4.223   3.883
    7ASN    HB1   66   3.695   4.220   3.953
    7ASN    HB2   67   3.744   4.199   3.780
    7ASN     CG   68   3.839   4.364   3.888
    7ASN    OD1   69   3.941   4.391   3.949
    7ASN    ND2   70   3.771   4.461   3.821
    7ASN   HD21   71   3.812   4.551   3.818
    7ASN   HD22   72   3.684   4.440   3.776
    7ASN      C   73   3.825   3.987   3.962
    7ASN      O   74   3.806   3.898   3.880
    8GLY      N   75   3.794   3.970   4.092
    8GLY     HN   76   3.814   4.042   4.159
    8GLY     CA   77   3.724   3.852   4.140
    8GLY    HA1   78   3.719   3.857   4.248
    8GLY    HA2   79   3.776   3.765   4.105
    8GLY      C   80   3.583   3.844   4.089
    8GLY      O   81   3.522   3.944   4.052
    9ASP      N   82   3.528   3.721   4.090
    9ASP     HN   83   3.582   3.640   4.111
    9ASP     CA   84   3.398   3.685   4.039
    9ASP     HA   85   3.405   3.704   3.933
    9ASP     CB   86   3.368   3.534   4.064
    9ASP    HB1   87   3.282   3.503   4.001
    9ASP    HB2   88   3.339   3.519   4.170
    9ASP     CG   89   3.481   3.434   4.038
    9ASP    OD1   90   3.602   3.469   4.038
    9ASP    OD2   91   3.448   3.313   4.031
    9ASP      C   92   3.286   3.771   4.100
    9ASP      O   93   3.296   3.807   4.218
   10PRO      N   94   3.181   3.811   4.028
   10PRO     CD   95   3.158   3.774   3.888
   10PRO    HD1   96   3.122   3.669   3.885
   10PRO    HD2   97   3.249   3.787   3.825
   10PRO     CA   98   3.068   3.887   4.082
   10PRO     HA   99   3.107   3.985   4.108
   10PRO     CB  100   2.965   3.893   3.967
   10PRO    HB1  101   2.913   3.991   3.964
   10PRO    HB2  102   2.890   3.811   3.977
   10PRO     CG  103   3.048   3.869   3.841
   10PRO    HG1  104   2.988   3.827   3.757
   10PRO    HG2  105   3.094   3.965   3.808
   10PRO      C  106   3.006   3.830   4.209
   10PRO      O  107   2.987   3.709   4.218
   11GLY      N  108   2.969   3.916   4.306
   11GLY     HN  109   2.991   4.013   4.296
   11GLY     CA  110   2.890   3.876   4.422
   11GLY    HA1  111   2.866   3.966   4.477
   11GLY    HA2  112   2.950   3.807   4.479
   11GLY      C  113   2.759   3.808   4.388
   11GLY      O  114   2.693   3.842   4.290
   12SER      N  115   2.717   3.711   4.470
   12SER     HN  116   2.773   3.681   4.547
   12SER     CA  117   2.587   3.644   4.456
   12SER     HA  118   2.581   3.612   4.353
   12SER     CB  119   2.575   3.517   4.543
   12SER    HB1  120   2.471   3.478   4.542
   12SER    HB2  121   2.600   3.542   4.649
   12SER     OG  122   2.662   3.413   4.496
   12SER    HG1  123   2.713   3.450   4.423
   12SER      C  124   2.466   3.735   4.477
   12SER      O  125   2.472   3.833   4.550
   13GLY      N  126   2.354   3.703   4.409
   13GLY     HN  127   2.352   3.623   4.350
   13GLY     CA  128   2.229   3.778   4.418
   13GLY    HA1  129   2.164   3.743   4.340
   13GLY    HA2  130   2.252   3.883   4.407
   13GLY      C  131   2.152   3.762   4.551
   13GLY    OT1  132   2.167   3.657   4.620
   13GLY    OT2  133   2.072   3.854   4.585
   14LIT    LIT  134   1.587   2.814   2.181
   15LIT    LIT  135   7.165   3.648   5.422
   16LIT    LIT  136   1.548   7.204   2.552
   17LIT    LIT  137   7.177   0.418   3.925
   18LIT    LIT  138   5.574   6.258   1.464
   19LIT    LIT  139   5.498   2.519   3.077
   20LIT    LIT  140   7.618   0.113   4.462
   21LIT    LIT  141   1.794   3.795   3.324
   22LIT    LIT  142   0.424   0.589   0.115
   23LIT    LIT  143   6.092   0.747   4.639
   24LIT    LIT  144   0.867   6.158   5.623
   25LIT    LIT  145   6.873   5.613   4.785
   26LIT    LIT  146   4.877   1.836   5.612
   27LIT    LIT  147   2.247   0.102   4.992
   28LIT    LIT  148   3.378   3.474   4.822
   29LIT    LIT  149   1.782   0.883   6.392
   30LIT    LIT  150   4.637   6.331   1.090
   31LIT    LIT  151   7.531   5.534   2.881
   32LIT    LIT  152   3.037   2.550   2.309
   33LIT    LIT  153   5.459   5.688   4.514
   34LIT    LIT  154   0.294   5.199   4.072
   35LIT    LIT  155   5.608   3.378   1.274
   36LIT    LIT  156   5.993   5.324   4.606
   37LIT    LIT  157   6.236   4.069   4.312
   38LIT    LIT  158   4.650   3.468   2.097
   39LIT    LIT  159   7.400   6.054   6.358
   40LIT    LIT  160   2.109   5.279   3.118
   41LIT    LIT  161   3.920   6.969   4.816
   42LIT    LIT  162   4.683   0.681   1.442
   43LIT    LIT  163   6.564   0.174   3.009
   44LIT    LIT  164   4.277   3.357   4.674
   45LIT    LIT  165   0.825   2.458   1.977
   46LIT    LIT  166   6.709   5.577   5.962
   47LIT    LIT  167   7.751   2.390   3.242
   48LIT    LIT  168   2.131   0.504   5.180
   49LIT    LIT  169   3.887   0.670   0.962
   50CLA    CLA  170   5.823   1.377   0.926
   51CLA    CLA  171   4.213   5.345   1.164
   52CLA    CLA  172   4.478   2.876   1.596
   53CLA    CLA  173   1.432   4.560   1.347
   54CLA    CLA  174   2.966   2.594   1.591
   55CLA    CLA  175   1.177   7.359   4.519
   56CLA    CLA  176   1.908   0.498   5.166
   57CLA    CLA  177   1.638   1.692   4.750
   58CLA    CLA  178   7.484   3.277   3.673
   59CLA    CLA  179   7.182   0.049   4.181
   60CLA    CLA  180   6.136   1.512   5.555
   61CLA    CLA  181   2.466   2.527   0.717
   62CLA    CLA  182   4.281   4.744   2.147
   63CLA    CLA  183   3.308   3.492   6.244
   64CLA    CLA  184   6.545   2.858   2.981
   65CLA    CLA  185   0.095   5.630   3.472
   66CLA    CLA  186   0.013   3.801   5.957
   67CLA    CLA  187   7.569   4.917   2.189
   68CLA    CLA  188   5.660   6.522   4.460
   69CLA    CLA  189   5.635   0.052   5.587
   70CLA    CLA  190   5.167   1.054   2.267
   71CLA    CLA  191   4.726   1.224   6.108
   72CLA    CLA  192   1.564   7.254   3.777
   73CLA    CLA  193   3.434   3.614   5.409
   74CLA    CLA  194   0.960   2.318   2.101
   75CLA    CLA  195   3.258   2.655   2.657
   76CLA    CLA  196   6.675   5.622   5.745
   77CLA    CLA  197   2.325   6.286   2.746
   78CLA    CLA  198   0.146   7.162   3.982
   79CLA    CLA  199   7.632   6.968   1.543
   80CLA    CLA  200   4.288   1.359   0.109
   81CLA    CLA  201   7.782   1.215   0.378
   82CLA    CLA  202   6.655   5.525   4.782
   83CLA    CLA  203   2.342   3.893   2.595
   84TIP3   OH2  204   3.067   0.161   2.018
   84TIP3    H1  205   3.071   0.096   1.948
   84TIP3    H2  206   3.039   0.242   1.975
   85TIP3   OH2  207   3.302   0.507   2.120
   85TIP3    H1  208   3.304   0.412   2.130
   85TIP3    H2  209   3.227   0.535   2.172
   86TIP3   OH2  210   0.474   7.141   2.411
   86TIP3    H1  211   0.425   7.217   2.380
   86TIP3    H2  212   0.524   7.112   2.334
   87TIP3   OH2  213   3.022   0.862   2.218
   87TIP3    H1  214   3.014   0.879   2.124
   87TIP3    H2  215   3.101   0.909   2.245
   88TIP3   OH2  216   2.683   0.312   2.164
   88TIP3    H1  217   2.594   0.276   2.159
   88TIP3    H2  218   2.691   0.344   2.254
   89TIP3   OH2  219   3.313   0.222   2.125
   89TIP3    H1  220   3.219   0.213   2.112
   89TIP3    H2  221   3.351   0.192   2.042
   90TIP3   OH2  222   2.824   0.535   2.088
   90TIP3    H1  223   2.764   0.462   2.103
   90TIP3    H2  224   2.790   0.579   2.009
   91TIP3   OH2  225   2.850   0.537   1.622
   91TIP3    H1  226   2.831   0.545   1.529
   91TIP3    H2  227   2.943   0.561   1.630
   92TIP3   OH2  228   2.128   0.477   2.670
   92TIP3    H1  229   2.220   0.454   2.680
   92TIP3    H2  230   2.093   0.411   2.610
   93TIP3   OH2  231   2.715   0.413   2.416
   93TIP3    H1  232   2.706   0.348   2.485
   93TIP3    H2  233   2.795   0.461   2.438
   94TIP3   OH2  234   2.860   0.093   2.194
   94TIP3    H1  235   2.934   0.115   2.136
   94TIP3    H2  236   2.796   0.163   2.178
   95TIP3   OH2  237   0.119   7.443   2.578
   95TIP3    H1  238   0.182   7.405   2.516
   95TIP3    H2  239   0.110   7.377   2.646
   96TIP3   OH2  240   0.272   7.152   2.609
   96TIP3    H1  241   0.259   7.058   2.597
   96TIP3    H2  242   0.347   7.173   2.554
   97TIP3   OH2  243   0.347   7.390   2.384
   97TIP3    H1  244   0.283   7.434   2.328
   97TIP3    H2  245   0.431   7.410   2.344
   98TIP3   OH2  246   3.113   0.606   1.634
   98TIP3    H1  247   3.123   0.612   1.729
   98TIP3    H2  248   3.181   0.662   1.598
   99TIP3   OH2  249   3.135   0.615   1.909
   99TIP3    H1  250   3.088   0.532   1.913
   99TIP3    H2  251   3.213   0.602   1.963
  100TIP3   OH2  252   3.178   0.320   2.469
  100TIP3    H1  253   3.110   0.324   2.536
  100TIP3    H2  254   3.226   0.402   2.479
  101TIP3   OH2  255   2.973   0.390   1.899
  101TIP3    H1  256   2.921   0.433   1.968
  101TIP3    H2  257   2.913   0.385   1.824
  102TIP3   OH2  258   0.591   7.418   2.264
  102TIP3    H1  259   0.652   7.344   2.260
  102TIP3    H2  260   0.620   7.477   2.194
  103TIP3   OH2  261   0.769   7.213   2.277
  103TIP3    H1  262   0.755   7.121   2.299
  103TIP3    H2  263   0.858   7.231   2.305
  104TIP3   OH2  264   2.379   0.633   2.300
  104TIP3    H1  265   2.403   0.600   2.386
  104TIP3    H2  266   2.463   0.653   2.258
  105TIP3   OH2  267   2.624   0.715   2.196
  105TIP3    H1  268   2.697   0.658   2.171
  105TIP3    H2  269   2.664   0.781   2.252
  106TIP3   OH2  270   2.767   0.658   1.854
  106TIP3    H1  271   2.758   0.751   1.835
  106TIP3    H2  272   2.790   0.618   1.770
  107TIP3   OH2  273   3.059   0.588   2.230
  107TIP3    H1  274   2.979   0.561   2.185
  107TIP3    H2  275   3.053   0.683   2.237
  108TIP3   OH2  276   1.646   7.429   1.356
  108TIP3    H1  277   1.700   7.406   1.432
  108TIP3    H2  278   1.613   7.345   1.324
  109TIP3   OH2  279   1.011   7.392   1.770
  109TIP3    H1  280   0.997   7.298   1.775
  109TIP3    H2  281   1.028   7.409   1.677
  110TIP3   OH2  282   3.565   0.249   1.368
  110TIP3    H1  283   3.609   0.177   1.414
  110TIP3    H2  284   3.623   0.324   1.380
  111TIP3   OH2  285   4.303   0.756   1.093
  111TIP3    H1  286   4.348   0.695   1.034
  111TIP3    H2  287   4.345   0.742   1.178
  112TIP3   OH2  288   4.153   0.189   1.497
  112TIP3    H1  289   4.181   0.120   1.436
  112TIP3    H2  290   4.218   0.259   1.485
  113TIP3   OH2  291   3.987   0.126   1.699
  113TIP3    H1  292   3.921   0.193   1.712
  113TIP3    H2  293   4.040   0.158   1.626
  114TIP3   OH2  294   3.806   0.331   1.712
  114TIP3    H1  295   3.791   0.419   1.678
  114TIP3    H2  296   3.732   0.314   1.769
  115TIP3   OH2  297   4.635   0.589   1.282
  115TIP3    H1  298   4.556   0.536   1.267
  115TIP3    H2  299   4.642   0.644   1.204
  116TIP3   OH2  300   4.394   0.604   0.886
  116TIP3    H1  301   4.400   0.511   0.861
  116TIP3    H2  302   4.464   0.646   0.836
  117TIP3   OH2  303   2.122   7.438   1.679
  117TIP3    H1  304   2.080   7.517   1.712
  117TIP3    H2  305   2.062   7.367   1.702
  118TIP3   OH2  306   3.932   0.238   1.259
  118TIP3    H1  307   3.868   0.248   1.190
  118TIP3    H2  308   4.014   0.272   1.222
  119TIP3   OH2  309   1.293   7.313   1.614
  119TIP3    H1  310   1.298   7.342   1.523
  119TIP3    H2  311   1.299   7.393   1.666
  120TIP3   OH2  312   4.377   0.484   1.292
  120TIP3    H1  313   4.359   0.568   1.333
  120TIP3    H2  314   4.379   0.422   1.364
  121TIP3   OH2  315   4.013   0.433   1.874
  121TIP3    H1  316   3.952   0.489   1.923
  121TIP3    H2  317   3.957   0.383   1.815
  122TIP3   OH2  318   3.772  -0.006   2.006
  122TIP3    H1  319   3.764   0.084   2.040
  122TIP3    H2  320   3.721  -0.006   1.925
  123TIP3   OH2  321   4.104   0.413   0.819
  123TIP3    H1  322   4.113   0.404   0.914
  123TIP3    H2  323   4.013   0.386   0.801
  124TIP3   OH2  324   3.798   0.578   1.967
  124TIP3    H1  325   3.769   0.593   1.877
  124TIP3    H2  326   3.718   0.561   2.016
  125TIP3   OH2  327   3.405   0.114   1.889
  125TIP3    H1  328   3.391   0.093   1.797
  125TIP3    H2  329   3.438   0.032   1.927
  126TIP3   OH2  330   3.267   0.286   1.649
  126TIP3    H1  331   3.248   0.212   1.591
  126TIP3    H2  332   3.186   0.337   1.651
  127TIP3   OH2  333   4.217   0.560   1.743
  127TIP3    H1  334   4.218   0.651   1.773
  127TIP3    H2  335   4.146   0.519   1.792
  128TIP3   OH2  336   3.902   0.661   0.766
  128TIP3    H1  337   3.852   0.626   0.692
  128TIP3    H2  338   3.930   0.748   0.737
  129TIP3   OH2  339   4.204   0.649   0.676
  129TIP3    H1  340   4.125   0.605   0.706
  129TIP3    H2  341   4.264   0.642   0.750
  130TIP3   OH2  342   2.394   7.409   1.719
  130TIP3    H1  343   2.300   7.409   1.700
  130TIP3    H2  344   2.411   7.320   1.750
  131TIP3   OH2  345   3.599   0.311   1.888
  131TIP3    H1  346   3.644   0.300   1.972
  131TIP3    H2  347   3.530   0.245   1.888
  132TIP3   OH2  348   2.247   7.146   1.695
  132TIP3    H1  349   2.276   7.066   1.738
  132TIP3    H2  350   2.159   7.161   1.730
  133TIP3   OH2  351   1.179   7.090   1.718
  133TIP3    H1  352   1.155   7.110   1.808
  133TIP3    H2  353   1.222   7.170   1.687
  134TIP3   OH2  354   1.838   7.437   1.947
  134TIP3    H1  355   1.864   7.356   1.990
  134TIP3    H2  356   1.904   7.501   1.973
  135TIP3   OH2  357   1.089   7.168   1.956
  135TIP3    H1  358   1.086   7.256   1.993
  135TIP3    H2  359   1.043   7.114   2.021
  136TIP3   OH2  360   1.782   7.358   1.586
  136TIP3    H1  361   1.837   7.281   1.573
  136TIP3    H2  362   1.811   7.396   1.669
  137TIP3   OH2  363   4.811   1.118   1.706
  137TIP3    H1  364   4.844   1.172   1.634
  137TIP3    H2  365   4.880   1.122   1.773
  138TIP3   OH2  366   3.743   0.242   2.120
  138TIP3    H1  367   3.824   0.262   2.165
  138TIP3    H2  368   3.675   0.251   2.187
  139TIP3   OH2  369   1.559   6.954   1.766
  139TIP3    H1  370   1.614   7.031   1.777
  139TIP3    H2  371   1.617   6.880   1.784
  140TIP3   OH2  372   4.792   0.301   1.426
  140TIP3    H1  373   4.885   0.285   1.417
  140TIP3    H2  374   4.754   0.273   1.343
  141TIP3   OH2  375   4.370   0.325   1.771
  141TIP3    H1  376   4.394   0.308   1.862
  141TIP3    H2  377   4.317   0.404   1.775
  142TIP3   OH2  378   0.849   7.364   2.062
  142TIP3    H1  379   0.914   7.395   2.124
  142TIP3    H2  380   0.808   7.289   2.105
  143TIP3   OH2  381   4.227   0.060   2.065
  143TIP3    H1  382   4.190  -0.028   2.075
  143TIP3    H2  383   4.307   0.046   2.014
  144TIP3   OH2  384   4.573   0.639   1.593
  144TIP3    H1  385   4.478   0.628   1.589
  144TIP3    H2  386   4.592   0.652   1.686
  145TIP3   OH2  387   5.111   0.426   1.648
  145TIP3    H1  388   5.051   0.500   1.659
  145TIP3    H2  389   5.124   0.420   1.553
  146TIP3   OH2  390   3.729   0.271   1.076
  146TIP3    H1  391   3.682   0.325   1.012
  146TIP3    H2  392   3.674   0.193   1.085
  147TIP3   OH2  393   4.013   0.679   1.578
  147TIP3    H1  394   4.056   0.751   1.532
  147TIP3    H2  395   4.085   0.629   1.617
  148TIP3   OH2  396   3.627   0.452   0.895
  148TIP3    H1  397   3.541   0.431   0.857
  148TIP3    H2  398   3.614   0.538   0.934
  149TIP3   OH2  399   4.408   0.308   1.502
  149TIP3    H1  400   4.390   0.311   1.596
  149TIP3    H2  401   4.460   0.229   1.490
  150TIP3   OH2  402   3.446   0.505   1.724
  150TIP3    H1  403   3.402   0.420   1.727
  150TIP3    H2  404   3.526   0.492   1.776
  151TIP3   OH2  405   1.686   7.175   1.841
  151TIP3    H1  406   1.633   7.253   1.823
  151TIP3    H2  407   1.776   7.207   1.841
  152TIP3   OH2  408   4.664   0.801   1.113
  152TIP3    H1  409   4.613   0.850   1.048
  152TIP3    H2  410   4.755   0.825   1.096
  153TIP3   OH2  411   3.445   0.826   2.110
  153TIP3    H1  412   3.526   0.832   2.161
  153TIP3    H2  413   3.438   0.733   2.087
  154TIP3   OH2  414   3.904   0.749   2.154
  154TIP3    H1  415   3.994   0.719   2.166
  154TIP3    H2  416   3.870   0.694   2.083
  155TIP3   OH2  417   4.611   0.681   1.858
  155TIP3    H1  418   4.576   0.634   1.933
  155TIP3    H2  419   4.674   0.742   1.894
  156TIP3   OH2  420   3.533   0.229   2.299
  156TIP3    H1  421   3.549   0.136   2.316
  156TIP3    H2  422   3.450   0.230   2.251
  157TIP3   OH2  423   4.165   0.332   2.080
  157TIP3    H1  424   4.122   0.353   1.997
  157TIP3    H2  425   4.195   0.241   2.068
  158TIP3   OH2  426   4.660   0.315   1.665
  158TIP3    H1  427   4.707   0.316   1.582
  158TIP3    H2  428   4.592   0.382   1.655
  159TIP3   OH2  429   1.013   7.410   2.290
  159TIP3    H1  430   1.095   7.394   2.241
  159TIP3    H2  431   1.042   7.426   2.380
  160TIP3   OH2  432   1.380   7.319   1.964
  160TIP3    H1  433   1.302   7.374   1.964
  160TIP3    H2  434   1.435   7.355   1.894
  161TIP3   OH2  435   4.512   0.281   2.036
  161TIP3    H1  436   4.598   0.259   2.001
  161TIP3    H2  437   4.506   0.234   2.119
  162TIP3   OH2  438   1.404   7.047   1.975
  162TIP3    H1  439   1.464   7.024   1.904
  162TIP3    H2  440   1.394   7.142   1.969
  163TIP3   OH2  441   1.551   7.394   1.753
  163TIP3    H1  442   1.606   7.394   1.675
  163TIP3    H2  443   1.492   7.469   1.740
  164TIP3   OH2  444   2.132   7.396   2.142
  164TIP3    H1  445   2.191   7.337   2.096
  164TIP3    H2  446   2.177   7.480   2.143
  165TIP3   OH2  447   4.745   0.212   1.896
  165TIP3    H1  448   4.699   0.257   1.825
  165TIP3    H2  449   4.836   0.206   1.866
  166TIP3   OH2  450   1.280   7.258   2.223
  166TIP3    H1  451   1.201   7.206   2.207
  166TIP3    H2  452   1.312   7.281   2.136
  167TIP3   OH2  453   1.613   7.249   2.185
  167TIP3    H1  454   1.653   7.237   2.271
  167TIP3    H2  455   1.626   7.165   2.141
  168TIP3   OH2  456   2.083   6.982   1.864
  168TIP3    H1  457   2.061   6.970   1.957
  168TIP3    H2  458   2.169   6.942   1.855
  169TIP3   OH2  459   4.932   0.874   1.129
  169TIP3    H1  460   4.939   0.967   1.150
  169TIP3    H2  461   5.005   0.857   1.069
  170TIP3   OH2  462   4.841   0.784   1.400
  170TIP3    H1  463   4.867   0.806   1.310
  170TIP3    H2  464   4.909   0.824   1.454
  171TIP3   OH2  465   4.962   0.570   1.918
  171TIP3    H1  466   4.897   0.583   1.986
  171TIP3    H2  467   5.009   0.653   1.914
  172TIP3   OH2  468   5.000   0.220   1.791
  172TIP3    H1  469   5.017   0.136   1.750
  172TIP3    H2  470   5.038   0.285   1.732
  173TIP3   OH2  471   5.253   0.025   1.886
  173TIP3    H1  472   5.185   0.005   1.822
  173TIP3    H2  473   5.304   0.095   1.845
  174TIP3   OH2  474   1.057   7.101   2.242
  174TIP3    H1  475   1.038   7.012   2.214
  174TIP3    H2  476   1.066   7.096   2.337
  175TIP3   OH2  477   4.563   0.744   0.725
  175TIP3    H1  478   4.554   0.752   0.630
  175TIP3    H2  479   4.572   0.835   0.755
  176TIP3   OH2  480   3.575   0.548   2.131
  176TIP3    H1  481   3.483   0.525   2.120
  176TIP3    H2  482   3.589   0.546   2.226
  177TIP3   OH2  483   3.772   0.610   1.690
  177TIP3    H1  484   3.717   0.683   1.662
  177TIP3    H2  485   3.859   0.632   1.659
  178TIP3   OH2  486   4.210   0.827   1.816
  178TIP3    H1  487   4.250   0.815   1.902
  178TIP3    H2  488   4.271   0.883   1.769
  179TIP3   OH2  489   4.388   0.993   1.686
  179TIP3    H1  490   4.446   0.980   1.611
  179TIP3    H2  491   4.440   1.042   1.749
  180TIP3   OH2  492   3.454   0.869   1.737
  180TIP3    H1  493   3.360   0.872   1.717
  180TIP3    H2  494   3.465   0.933   1.807
  181TIP3   OH2  495   3.673   0.847   1.580
  181TIP3    H1  496   3.597   0.854   1.638
  181TIP3    H2  497   3.650   0.900   1.504
  182TIP3   OH2  498   4.138   0.858   1.402
  182TIP3    H1  499   4.076   0.875   1.330
  182TIP3    H2  500   4.148   0.942   1.446
  183TIP3   OH2  501   4.385   0.752   1.371
  183TIP3    H1  502   4.296   0.783   1.387
  183TIP3    H2  503   4.437   0.831   1.362
  184TIP3   OH2  504   4.567   0.954   1.322
  184TIP3    H1  505   4.558   1.043   1.288
  184TIP3    H2  506   4.601   0.904   1.248
  185TIP3   OH2  507   3.359   0.678   1.531
  185TIP3    H1  508   3.396   0.649   1.614
  185TIP3    H2  509   3.336   0.598   1.484
  186TIP3   OH2  510   3.488   0.437   1.168
  186TIP3    H1  511   3.514   0.357   1.212
  186TIP3    H2  512   3.513   0.507   1.228
  187TIP3   OH2  513   4.032   0.537   1.323
  187TIP3    H1  514   4.011   0.575   1.237
  187TIP3    H2  515   4.000   0.602   1.386
  188TIP3   OH2  516   5.802   0.682   1.486
  188TIP3    H1  517   5.726   0.740   1.487
  188TIP3    H2  518   5.781   0.617   1.419
  189TIP3   OH2  519   5.584   0.851   1.474
  189TIP3    H1  520   5.567   0.863   1.381
  189TIP3    H2  521   5.497   0.851   1.514
  190TIP3   OH2  522   5.162   0.378   1.380
  190TIP3    H1  523   5.128   0.430   1.306
  190TIP3    H2  524   5.203   0.302   1.339
  191TIP3   OH2  525   5.082   0.535   1.175
  191TIP3    H1  526   5.148   0.601   1.152
  191TIP3    H2  527   5.003   0.564   1.129
  192TIP3   OH2  528   5.825   0.860   1.232
  192TIP3    H1  529   5.863   0.947   1.242
  192TIP3    H2  530   5.875   0.805   1.292
  193TIP3   OH2  531   5.333   0.597   1.435
  193TIP3    H1  532   5.416   0.570   1.476
  193TIP3    H2  533   5.286   0.515   1.419
  194TIP3   OH2  534   6.634   1.255   1.212
  194TIP3    H1  535   6.589   1.304   1.143
  194TIP3    H2  536   6.727   1.269   1.195
  195TIP3   OH2  537   5.537   0.517   1.601
  195TIP3    H1  538   5.623   0.526   1.642
  195TIP3    H2  539   5.477   0.506   1.674
  196TIP3   OH2  540   5.285   0.756   1.210
  196TIP3    H1  541   5.292   0.707   1.292
  196TIP3    H2  542   5.370   0.799   1.200
  197TIP3   OH2  543   5.258   1.093   1.590
  197TIP3    H1  544   5.328   1.114   1.653
  197TIP3    H2  545   5.265   0.999   1.577
  198TIP3   OH2  546   5.704   1.009   1.667
  198TIP3    H1  547   5.786   1.046   1.635
  198TIP3    H2  548   5.671   0.956   1.594
  199TIP3   OH2  549   6.325   0.957   1.409
  199TIP3    H1  550   6.347   0.886   1.469
  199TIP3    H2  551   6.403   1.012   1.407
  200TIP3   OH2  552   5.343   0.467   1.792
  200TIP3    H1  553   5.368   0.376   1.807
  200TIP3    H2  554   5.257   0.461   1.751
  201TIP3   OH2  555   5.445   0.205   1.799
  201TIP3    H1  556   5.512   0.188   1.733
  201TIP3    H2  557   5.492   0.245   1.872
  202TIP3   OH2  558   5.329   0.823   1.594
  202TIP3    H1  559   5.319   0.742   1.545
  202TIP3    H2  560   5.327   0.796   1.686
  203TIP3   OH2  561   5.550   0.860   1.199
  203TIP3    H1  562   5.525   0.922   1.130
  203TIP3    H2  563   5.645   0.857   1.195
  204TIP3   OH2  564   5.953   1.090   1.321
  204TIP3    H1  565   6.000   1.076   1.403
  204TIP3    H2  566   6.012   1.144   1.268
  205TIP3   OH2  567   6.173   1.230   1.236
  205TIP3    H1  568   6.220   1.186   1.165
  205TIP3    H2  569   6.241   1.274   1.286
  206TIP3   OH2  570   5.242   1.135   1.174
  206TIP3    H1  571   5.146   1.135   1.175
  206TIP3    H2  572   5.266   1.193   1.246
  207TIP3   OH2  573   5.439   1.031   1.015
  207TIP3    H1  574   5.374   1.071   1.073
  207TIP3    H2  575   5.432   1.081   0.933
  208TIP3   OH2  576   5.180   0.882   0.986
  208TIP3    H1  577   5.205   0.845   1.071
  208TIP3    H2  578   5.264   0.907   0.946
  209TIP3   OH2  579   1.170   2.071   2.286
  209TIP3    H1  580   1.154   1.977   2.294
  209TIP3    H2  581   1.086   2.111   2.310
  210TIP3   OH2  582   0.868   2.417   2.378
  210TIP3    H1  583   0.880   2.391   2.287
  210TIP3    H2  584   0.944   2.471   2.398
  211TIP3   OH2  585   1.131   1.794   2.349
  211TIP3    H1  586   1.081   1.827   2.424
  211TIP3    H2  587   1.107   1.702   2.341
  212TIP3   OH2  588   0.566   2.028   2.538
  212TIP3    H1  589   0.557   1.948   2.589
  212TIP3    H2  590   0.650   2.065   2.566
  213TIP3   OH2  591   1.028   1.880   2.590
  213TIP3    H1  592   0.960   1.879   2.658
  213TIP3    H2  593   1.075   1.962   2.604
  214TIP3   OH2  594   1.075   1.521   2.436
  214TIP3    H1  595   1.131   1.445   2.454
  214TIP3    H2  596   0.987   1.483   2.425
  215TIP3   OH2  597   1.217   1.291   2.507
  215TIP3    H1  598   1.194   1.218   2.449
  215TIP3    H2  599   1.312   1.286   2.515
  216TIP3   OH2  600   0.515   2.273   2.297
  216TIP3    H1  601   0.506   2.188   2.340
  216TIP3    H2  602   0.539   2.333   2.368
  217TIP3   OH2  603   0.909   2.141   2.382
  217TIP3    H1  604   0.880   2.126   2.292
  217TIP3    H2  605   0.900   2.236   2.395
  218TIP3   OH2  606   2.132   1.457   1.591
  218TIP3    H1  607   2.185   1.479   1.668
  218TIP3    H2  608   2.101   1.368   1.607
  219TIP3   OH2  609   2.358   1.699   1.152
  219TIP3    H1  610   2.324   1.667   1.235
  219TIP3    H2  611   2.440   1.743   1.175
  220TIP3   OH2  612   2.036   2.302   1.202
  220TIP3    H1  613   2.072   2.245   1.134
  220TIP3    H2  614   2.104   2.307   1.269
  221TIP3   OH2  615   1.968   1.728   1.597
  221TIP3    H1  616   1.989   1.694   1.510
  221TIP3    H2  617   2.051   1.762   1.629
  222TIP3   OH2  618   2.959   1.091   1.661
  222TIP3    H1  619   3.010   1.164   1.694
  222TIP3    H2  620   2.940   1.113   1.570
  223TIP3   OH2  621   2.361   1.238   1.659
  223TIP3    H1  622   2.428   1.172   1.678
  223TIP3    H2  623   2.394   1.283   1.581
  224TIP3   OH2  624   3.076   1.307   1.770
  224TIP3    H1  625   2.996   1.358   1.760
  224TIP3    H2  626   3.121   1.346   1.845
  225TIP3   OH2  627   1.839   1.703   1.842
  225TIP3    H1  628   1.758   1.752   1.852
  225TIP3    H2  629   1.872   1.730   1.756
  226TIP3   OH2  630   2.630   1.076   1.431
  226TIP3    H1  631   2.597   1.053   1.518
  226TIP3    H2  632   2.683   1.154   1.445
  227TIP3   OH2  633   1.634   1.872   1.904
  227TIP3    H1  634   1.625   1.956   1.859
  227TIP3    H2  635   1.547   1.855   1.941
  228TIP3   OH2  636   2.523   2.072   1.378
  228TIP3    H1  637   2.451   2.076   1.442
  228TIP3    H2  638   2.523   2.159   1.337
  229TIP3   OH2  639   2.782   0.918   1.775
  229TIP3    H1  640   2.697   0.956   1.751
  229TIP3    H2  641   2.846   0.972   1.728
  230TIP3   OH2  642   2.192   2.158   1.027
  230TIP3    H1  643   2.226   2.070   1.011
  230TIP3    H2  644   2.261   2.217   0.995
  231TIP3   OH2  645   2.313   1.916   0.998
  231TIP3    H1  646   2.366   1.912   0.918
  231TIP3    H2  647   2.316   1.827   1.033
  232TIP3   OH2  648   2.709   1.994   1.739
  232TIP3    H1  649   2.718   1.919   1.680
  232TIP3    H2  650   2.707   2.070   1.681
  233TIP3   OH2  651   2.924   1.606   1.565
  233TIP3    H1  652   2.853   1.669   1.577
  233TIP3    H2  653   2.959   1.626   1.478
  234TIP3   OH2  654   2.589   1.509   1.874
  234TIP3    H1  655   2.593   1.591   1.923
  234TIP3    H2  656   2.502   1.510   1.833
  235TIP3   OH2  657   1.766   1.863   1.434
  235TIP3    H1  658   1.766   1.787   1.376
  235TIP3    H2  659   1.845   1.852   1.487
  236TIP3   OH2  660   2.307   2.059   1.546
  236TIP3    H1  661   2.272   2.136   1.592
  236TIP3    H2  662   2.268   1.984   1.593
  237TIP3   OH2  663   1.856   1.972   2.038
  237TIP3    H1  664   1.796   2.033   2.081
  237TIP3    H2  665   1.798   1.915   1.986
  238TIP3   OH2  666   1.613   1.538   2.170
  238TIP3    H1  667   1.619   1.630   2.195
  238TIP3    H2  668   1.549   1.536   2.098
  239TIP3   OH2  669   1.654   2.139   2.122
  239TIP3    H1  670   1.630   2.142   2.029
  239TIP3    H2  671   1.570   2.125   2.167
  240TIP3   OH2  672   2.059   2.109   1.920
  240TIP3    H1  673   2.045   2.200   1.947
  240TIP3    H2  674   1.985   2.061   1.959
  241TIP3   OH2  675   2.828   1.449   2.045
  241TIP3    H1  676   2.745   1.458   1.999
  241TIP3    H2  677   2.848   1.355   2.042
  242TIP3   OH2  678   1.409   1.864   2.075
  242TIP3    H1  679   1.482   1.856   2.136
  242TIP3    H2  680   1.334   1.829   2.123
  243TIP3   OH2  681   2.390   0.788   2.060
  243TIP3    H1  682   2.481   0.773   2.086
  243TIP3    H2  683   2.338   0.747   2.129
  244TIP3   OH2  684   2.596   1.244   1.953
  244TIP3    H1  685   2.547   1.234   2.035
  244TIP3    H2  686   2.573   1.332   1.922
  245TIP3   OH2  687   2.328   1.442   2.195
  245TIP3    H1  688   2.296   1.373   2.254
  245TIP3    H2  689   2.422   1.448   2.214
  246TIP3   OH2  690   2.323   1.468   1.795
  246TIP3    H1  691   2.343   1.393   1.739
  246TIP3    H2  692   2.288   1.429   1.875
  247TIP3   OH2  693   2.533   1.021   1.692
  247TIP3    H1  694   2.496   1.033   1.779
  247TIP3    H2  695   2.485   0.948   1.655
  248TIP3   OH2  696   2.654   2.660   1.853
  248TIP3    H1  697   2.644   2.676   1.759
  248TIP3    H2  698   2.738   2.700   1.874
  249TIP3   OH2  699   1.597   1.798   2.270
  249TIP3    H1  700   1.681   1.814   2.312
  249TIP3    H2  701   1.533   1.801   2.341
  250TIP3   OH2  702   2.724   1.789   1.561
  250TIP3    H1  703   2.750   1.831   1.479
  250TIP3    H2  704   2.643   1.743   1.539
  251TIP3   OH2  705   2.174   1.841   1.946
  251TIP3    H1  706   2.222   1.828   2.028
  251TIP3    H2  707   2.137   1.929   1.954
  252TIP3   OH2  708   2.101   1.602   2.200
  252TIP3    H1  709   2.050   1.574   2.123
  252TIP3    H2  710   2.185   1.556   2.190
  253TIP3   OH2  711   2.319   2.129   1.836
  253TIP3    H1  712   2.225   2.116   1.850
  253TIP3    H2  713   2.348   2.178   1.913
  254TIP3   OH2  714   2.973   2.002   1.802
  254TIP3    H1  715   2.881   2.030   1.795
  254TIP3    H2  716   3.003   1.995   1.711
  255TIP3   OH2  717   2.503   1.641   1.504
  255TIP3    H1  718   2.415   1.664   1.473
  255TIP3    H2  719   2.504   1.545   1.504
  256TIP3   OH2  720   1.888   2.205   1.720
  256TIP3    H1  721   1.922   2.278   1.669
  256TIP3    H2  722   1.963   2.171   1.768
  257TIP3   OH2  723   2.229   1.813   1.679
  257TIP3    H1  724   2.202   1.817   1.771
  257TIP3    H2  725   2.323   1.796   1.682
  258TIP3   OH2  726   2.495   2.346   1.681
  258TIP3    H1  727   2.412   2.299   1.691
  258TIP3    H2  728   2.476   2.415   1.617
  259TIP3   OH2  729   2.498   2.153   0.377
  259TIP3    H1  730   2.495   2.149   0.281
  259TIP3    H2  731   2.469   2.241   0.398
  260TIP3   OH2  732   1.296   2.035   1.886
  260TIP3    H1  733   1.346   1.978   1.945
  260TIP3    H2  734   1.221   2.063   1.938
  261TIP3   OH2  735   2.396   1.027   1.931
  261TIP3    H1  736   2.447   1.075   1.997
  261TIP3    H2  737   2.379   0.942   1.971
  262TIP3   OH2  738   2.242   1.286   1.974
  262TIP3    H1  739   2.268   1.315   2.062
  262TIP3    H2  740   2.274   1.196   1.968
  263TIP3   OH2  741   2.858   1.182   1.950
  263TIP3    H1  742   2.762   1.186   1.952
  263TIP3    H2  743   2.880   1.168   1.858
  264TIP3   OH2  744   2.464   1.368   1.453
  264TIP3    H1  745   2.440   1.367   1.360
  264TIP3    H2  746   2.556   1.342   1.454
  265TIP3   OH2  747   2.547   2.333   1.283
  265TIP3    H1  748   2.519   2.394   1.216
  265TIP3    H2  749   2.640   2.352   1.296
  266TIP3   OH2  750   1.267   2.372   2.255
  266TIP3    H1  751   1.352   2.342   2.288
  266TIP3    H2  752   1.220   2.291   2.234
  267TIP3   OH2  753   1.760   2.315   2.300
  267TIP3    H1  754   1.849   2.284   2.314
  267TIP3    H2  755   1.724   2.256   2.233
  268TIP3   OH2  756   2.367   2.247   2.079
  268TIP3    H1  757   2.384   2.173   2.136
  268TIP3    H2  758   2.439   2.308   2.095
  269TIP3   OH2  759   1.388   1.788   2.453
  269TIP3    H1  760   1.411   1.696   2.461
  269TIP3    H2  761   1.301   1.789   2.414
  270TIP3   OH2  762   2.018   1.868   2.231
  270TIP3    H1  763   1.970   1.887   2.150
  270TIP3    H2  764   2.056   1.782   2.216
  271TIP3   OH2  765   2.471   1.898   1.828
  271TIP3    H1  766   2.553   1.935   1.796
  271TIP3    H2  767   2.410   1.971   1.829
  272TIP3   OH2  768   1.489   1.534   2.447
  272TIP3    H1  769   1.552   1.506   2.379
  272TIP3    H2  770   1.542   1.542   2.526
  273TIP3   OH2  771   1.817   1.362   2.095
  273TIP3    H1  772   1.747   1.422   2.121
  273TIP3    H2  773   1.874   1.414   2.039
  274TIP3   OH2  774   2.364   1.787   2.190
  274TIP3    H1  775   2.434   1.751   2.135
  274TIP3    H2  776   2.361   1.728   2.265
  275TIP3   OH2  777   1.970   1.183   2.224
  275TIP3    H1  778   1.960   1.104   2.171
  275TIP3    H2  779   1.921   1.250   2.176
  276TIP3   OH2  780   1.996   1.521   1.960
  276TIP3    H1  781   2.070   1.511   1.900
  276TIP3    H2  782   1.940   1.587   1.919
  277TIP3   OH2  783   2.593   1.468   2.280
  277TIP3    H1  784   2.647   1.390   2.286
  277TIP3    H2  785   2.656   1.540   2.268
  278TIP3   OH2  786   2.604   1.748   2.012
  278TIP3    H1  787   2.548   1.800   1.955
  278TIP3    H2  788   2.692   1.764   1.980
  279TIP3   OH2  789   1.858   1.275   2.468
  279TIP3    H1  790   1.792   1.208   2.489
  279TIP3    H2  791   1.881   1.259   2.377
  280TIP3   OH2  792   2.227   1.220   2.322
  280TIP3    H1  793   2.214   1.207   2.415
  280TIP3    H2  794   2.141   1.208   2.283
  281TIP3   OH2  795   2.467   1.165   2.180
  281TIP3    H1  796   2.391   1.170   2.238
  281TIP3    H2  797   2.541   1.153   2.240
  282TIP3   OH2  798   2.703   1.148   2.336
  282TIP3    H1  799   2.720   1.055   2.343
  282TIP3    H2  800   2.699   1.179   2.427
  283TIP3   OH2  801   1.717   1.042   2.542
  283TIP3    H1  802   1.763   0.964   2.509
  283TIP3    H2  803   1.738   1.045   2.635
  284TIP3   OH2  804   2.139   0.750   2.374
  284TIP3    H1  805   2.222   0.705   2.355
  284TIP3    H2  806   2.079   0.717   2.307
  285TIP3   OH2  807   2.255   0.945   2.532
  285TIP3    H1  808   2.219   0.880   2.472
  285TIP3    H2  809   2.187   1.013   2.537
  286TIP3   OH2  810   2.812   2.413   1.329
  286TIP3    H1  811   2.848   2.433   1.415
  286TIP3    H2  812   2.826   2.493   1.278
  287TIP3   OH2  813   2.849   2.149   2.089
  287TIP3    H1  814   2.775   2.153   2.149
  287TIP3    H2  815   2.822   2.200   2.013
  288TIP3   OH2  816   2.699   1.659   0.675
  288TIP3    H1  817   2.642   1.712   0.619
  288TIP3    H2  818   2.695   1.703   0.760
  289TIP3   OH2  819   2.804   1.506   0.963
  289TIP3    H1  820   2.726   1.451   0.958
  289TIP3    H2  821   2.770   1.595   0.965
  290TIP3   OH2  822   2.844   1.905   1.342
  290TIP3    H1  823   2.856   1.844   1.269
  290TIP3    H2  824   2.852   1.992   1.302
  291TIP3   OH2  825   2.695   2.194   1.560
  291TIP3    H1  826   2.632   2.256   1.598
  291TIP3    H2  827   2.647   2.153   1.488
  292TIP3   OH2  828   2.863   1.778   1.923
  292TIP3    H1  829   2.928   1.709   1.908
  292TIP3    H2  830   2.894   1.852   1.871
  293TIP3   OH2  831   3.037   1.568   1.912
  293TIP3    H1  832   2.966   1.525   1.961
  293TIP3    H2  833   3.117   1.529   1.947
  294TIP3   OH2  834   2.730   1.326   1.480
  294TIP3    H1  835   2.807   1.345   1.426
  294TIP3    H2  836   2.758   1.348   1.569
  295TIP3   OH2  837   2.816   1.416   1.726
  295TIP3    H1  838   2.741   1.450   1.775
  295TIP3    H2  839   2.854   1.492   1.683
  296TIP3   OH2  840   1.463   1.158   2.552
  296TIP3    H1  841   1.546   1.120   2.523
  296TIP3    H2  842   1.431   1.097   2.619
  297TIP3   OH2  843   3.270   0.996   2.229
  297TIP3    H1  844   3.333   0.939   2.186
  297TIP3    H2  845   3.232   1.048   2.157
  298TIP3   OH2  846   3.121   1.121   2.038
  298TIP3    H1  847   3.040   1.162   2.069
  298TIP3    H2  848   3.091   1.050   1.981
  299TIP3   OH2  849   2.397   2.315   0.940
  299TIP3    H1  850   2.420   2.360   0.858
  299TIP3    H2  851   2.404   2.383   1.007
  300TIP3   OH2  852   1.437   2.119   2.294
  300TIP3    H1  853   1.344   2.098   2.283
  300TIP3    H2  854   1.456   2.099   2.385
  301TIP3   OH2  855   1.647   2.145   1.845
  301TIP3    H1  856   1.585   2.208   1.808
  301TIP3    H2  857   1.731   2.167   1.805
  302TIP3   OH2  858   2.033   2.383   1.970
  302TIP3    H1  859   2.070   2.378   2.057
  302TIP3    H2  860   2.097   2.432   1.919
  303TIP3   OH2  861   2.223   2.532   1.839
  303TIP3    H1  862   2.273   2.486   1.772
  303TIP3    H2  863   2.289   2.584   1.886
  304TIP3   OH2  864   3.021   0.872   1.934
  304TIP3    H1  865   2.933   0.876   1.897
  304TIP3    H2  866   3.047   0.780   1.927
  305TIP3   OH2  867   1.193   2.358   1.886
  305TIP3    H1  868   1.170   2.297   1.816
  305TIP3    H2  869   1.141   2.330   1.961
  306TIP3   OH2  870   1.450   2.311   1.754
  306TIP3    H1  871   1.409   2.391   1.787
  306TIP3    H2  872   1.384   2.244   1.767
  307TIP3   OH2  873   1.959   2.414   1.548
  307TIP3    H1  874   1.871   2.425   1.513
  307TIP3    H2  875   1.984   2.501   1.577
  308TIP3   OH2  876   2.220   2.332   1.589
  308TIP3    H1  877   2.128   2.357   1.581
  308TIP3    H2  878   2.249   2.322   1.498
  309TIP3   OH2  879   2.471   2.533   1.476
  309TIP3    H1  880   2.444   2.616   1.438
  309TIP3    H2  881   2.479   2.474   1.401
  310TIP3   OH2  882   1.732   2.122   1.515
  310TIP3    H1  883   1.739   2.029   1.496
  310TIP3    H2  884   1.788   2.135   1.592
  311TIP3   OH2  885   2.513   2.174   0.675
  311TIP3    H1  886   2.503   2.090   0.631
  311TIP3    H2  887   2.425   2.212   0.675
  312TIP3   OH2  888   1.924   0.819   2.576
  312TIP3    H1  889   1.999   0.794   2.522
  312TIP3    H2  890   1.916   0.748   2.640
  313TIP3   OH2  891   2.780   0.882   2.353
  313TIP3    H1  892   2.795   0.851   2.442
  313TIP3    H2  893   2.865   0.875   2.311
  314TIP3   OH2  894   2.673   2.380   1.897
  314TIP3    H1  895   2.619   2.349   1.824
  314TIP3    H2  896   2.685   2.473   1.879
  315TIP3   OH2  897   4.006   1.787   0.615
  315TIP3    H1  898   3.981   1.878   0.600
  315TIP3    H2  899   3.925   1.745   0.646
  316TIP3   OH2  900   3.974   1.774   1.009
  316TIP3    H1  901   4.022   1.771   1.092
  316TIP3    H2  902   3.940   1.685   0.998
  317TIP3   OH2  903   3.306   1.672   1.373
  317TIP3    H1  904   3.325   1.613   1.446
  317TIP3    H2  905   3.391   1.686   1.330
  318TIP3   OH2  906   4.245   2.100   0.674
  318TIP3    H1  907   4.225   2.031   0.737
  318TIP3    H2  908   4.261   2.178   0.727
  319TIP3   OH2  909   3.275   2.086   1.056
  319TIP3    H1  910   3.261   2.000   1.097
  319TIP3    H2  911   3.368   2.088   1.036
  320TIP3   OH2  912   2.979   1.314   0.850
  320TIP3    H1  913   2.924   1.384   0.886
  320TIP3    H2  914   2.946   1.300   0.762
  321TIP3   OH2  915   2.990   1.795   1.041
  321TIP3    H1  916   3.008   1.702   1.036
  321TIP3    H2  917   3.072   1.835   1.070
  322TIP3   OH2  918   3.887   2.517   0.695
  322TIP3    H1  919   3.920   2.445   0.641
  322TIP3    H2  920   3.882   2.480   0.783
  323TIP3   OH2  921   3.789   2.008   1.025
  323TIP3    H1  922   3.826   1.926   0.991
  323TIP3    H2  923   3.864   2.057   1.056
  324TIP3   OH2  924   4.806   1.325   1.048
  324TIP3    H1  925   4.822   1.406   1.095
  324TIP3    H2  926   4.845   1.338   0.961
  325TIP3   OH2  927   4.213   1.505   1.090
  325TIP3    H1  928   4.237   1.417   1.119
  325TIP3    H2  929   4.173   1.491   1.004
  326TIP3   OH2  930   3.525   1.147   1.085
  326TIP3    H1  931   3.581   1.215   1.048
  326TIP3    H2  932   3.471   1.118   1.011
  327TIP3   OH2  933   4.290   1.262   0.676
  327TIP3    H1  934   4.351   1.243   0.748
  327TIP3    H2  935   4.343   1.304   0.609
  328TIP3   OH2  936   3.174   1.323   1.212
  328TIP3    H1  937   3.258   1.306   1.253
  328TIP3    H2  938   3.182   1.286   1.124
  329TIP3   OH2  939   3.614   1.557   0.994
  329TIP3    H1  940   3.709   1.551   1.000
  329TIP3    H2  941   3.587   1.472   0.958
  330TIP3   OH2  942   4.857   1.542   1.211
  330TIP3    H1  943   4.775   1.590   1.200
  330TIP3    H2  944   4.899   1.583   1.287
  331TIP3   OH2  945   3.549   1.177   1.522
  331TIP3    H1  946   3.493   1.203   1.448
  331TIP3    H2  947   3.491   1.181   1.598
  332TIP3   OH2  948   3.906   2.035   0.543
  332TIP3    H1  949   3.872   2.016   0.456
  332TIP3    H2  950   3.841   2.094   0.581
  333TIP3   OH2  951   3.631   1.944   1.241
  333TIP3    H1  952   3.570   2.013   1.267
  333TIP3    H2  953   3.678   1.981   1.166
  334TIP3   OH2  954   4.441   1.248   0.903
  334TIP3    H1  955   4.376   1.249   0.973
  334TIP3    H2  956   4.485   1.333   0.910
  335TIP3   OH2  957   3.422   1.269   1.300
  335TIP3    H1  958   3.481   1.343   1.314
  335TIP3    H2  959   3.460   1.220   1.227
  336TIP3   OH2  960   3.459   2.137   1.326
  336TIP3    H1  961   3.434   2.227   1.305
  336TIP3    H2  962   3.391   2.107   1.386
  337TIP3   OH2  963   2.680   1.946   0.598
  337TIP3    H1  964   2.713   1.936   0.509
  337TIP3    H2  965   2.758   1.965   0.650
  338TIP3   OH2  966   4.270   2.342   0.826
  338TIP3    H1  967   4.183   2.331   0.864
  338TIP3    H2  968   4.266   2.427   0.783
  339TIP3   OH2  969   4.590   1.211   1.199
  339TIP3    H1  970   4.504   1.232   1.163
  339TIP3    H2  971   4.652   1.242   1.132
  340TIP3   OH2  972   3.933   0.917   1.233
  340TIP3    H1  973   3.889   0.835   1.255
  340TIP3    H2  974   3.873   0.985   1.262
  341TIP3   OH2  975   3.983   2.349   0.491
  341TIP3    H1  976   4.035   2.269   0.480
  341TIP3    H2  977   4.043   2.420   0.468
  342TIP3   OH2  978   4.151   2.137   0.414
  342TIP3    H1  979   4.078   2.075   0.420
  342TIP3    H2  980   4.199   2.125   0.496
  343TIP3   OH2  981   4.513   2.220   1.174
  343TIP3    H1  982   4.491   2.147   1.116
  343TIP3    H2  983   4.494   2.298   1.123
  344TIP3   OH2  984   3.765   1.616   0.572
  344TIP3    H1  985   3.673   1.600   0.552
  344TIP3    H2  986   3.798   1.666   0.497
  345TIP3   OH2  987   3.739   1.457   0.218
  345TIP3    H1  988   3.830   1.471   0.194
  345TIP3    H2  989   3.689   1.513   0.158
  346TIP3   OH2  990   4.681   1.880   1.037
  346TIP3    H1  991   4.597   1.926   1.035
  346TIP3    H2  992   4.719   1.897   0.951
  347TIP3   OH2  993   4.167   1.722   0.396
  347TIP3    H1  994   4.104   1.745   0.464
  347TIP3    H2  995   4.246   1.697   0.445
  348TIP3   OH2  996   4.382   1.749   1.350
  348TIP3    H1  997   4.380   1.831   1.398
  348TIP3    H2  998   4.299   1.747   1.302
  349TIP3   OH2  999   3.367   1.664   0.963
  349TIP3    H1 1000   3.324   1.583   0.935
  349TIP3    H2 1001   3.458   1.638   0.978
  350TIP3   OH2 1002   3.540   2.113   0.949
  350TIP3    H1 1003   3.531   2.059   0.871
  350TIP3    H2 1004   3.627   2.092   0.983
  351TIP3   OH2 1005   3.532   1.693   1.223
  351TIP3    H1 1006   3.567   1.657   1.142
  351TIP3    H2 1007   3.567   1.783   1.226
  352TIP3   OH2 1008   4.034   2.324   0.958
  352TIP3    H1 1009   4.019   2.406   1.006
  352TIP3    H2 1010   4.021   2.255   1.023
  353TIP3   OH2 1011   3.649   2.227   1.506
  353TIP3    H1 1012   3.587   2.283   1.552
  353TIP3    H2 1013   3.596   2.178   1.443
  354TIP3   OH2 1014   4.032   1.546   0.224
  354TIP3    H1 1015   4.093   1.608   0.264
  354TIP3    H2 1016   4.071   1.526   0.139
  355TIP3   OH2 1017   3.425   1.786   1.650
  355TIP3    H1 1018   3.426   1.879   1.673
  355TIP3    H2 1019   3.333   1.767   1.634
  356TIP3   OH2 1020   3.720   2.263   0.499
  356TIP3    H1 1021   3.810   2.295   0.503
  356TIP3    H2 1022   3.667   2.341   0.481
  357TIP3   OH2 1023   3.435   2.384   1.583
  357TIP3    H1 1024   3.418   2.399   1.490
  357TIP3    H2 1025   3.348   2.379   1.623
  358TIP3   OH2 1026   3.230   1.532   0.561
  358TIP3    H1 1027   3.158   1.536   0.498
  358TIP3    H2 1028   3.190   1.502   0.643
  359TIP3   OH2 1029   6.903   5.930   6.272
  359TIP3    H1 1030   6.938   6.019   6.273
  359TIP3    H2 1031   6.981   5.874   6.274
  360TIP3   OH2 1032   3.040   1.936   1.545
  360TIP3    H1 1033   2.975   1.919   1.476
  360TIP3    H2 1034   3.078   1.850   1.564
  361TIP3   OH2 1035   2.897   2.157   1.240
  361TIP3    H1 1036   2.993   2.164   1.241
  361TIP3    H2 1037   2.868   2.235   1.287
  362TIP3   OH2 1038   4.745   2.611   1.236
  362TIP3    H1 1039   4.747   2.516   1.249
  362TIP3    H2 1040   4.665   2.640   1.279
  363TIP3   OH2 1041   3.840   2.371   1.369
  363TIP3    H1 1042   3.832   2.461   1.399
  363TIP3    H2 1043   3.772   2.323   1.417
  364TIP3   OH2 1044   3.624   2.482   0.341
  364TIP3    H1 1045   3.585   2.469   0.255
  364TIP3    H2 1046   3.589   2.566   0.372
  365TIP3   OH2 1047   3.104   2.368   0.738
  365TIP3    H1 1048   3.140   2.359   0.826
  365TIP3    H2 1049   3.064   2.282   0.720
  366TIP3   OH2 1050   6.455   6.132   6.426
  366TIP3    H1 1051   6.520   6.083   6.374
  366TIP3    H2 1052   6.492   6.135   6.514
  367TIP3   OH2 1053   3.878   2.447   0.244
  367TIP3    H1 1054   3.791   2.457   0.283
  367TIP3    H2 1055   3.931   2.408   0.313
  368TIP3   OH2 1056   4.626   1.702   1.515
  368TIP3    H1 1057   4.543   1.713   1.468
  368TIP3    H2 1058   4.644   1.608   1.510
  369TIP3   OH2 1059   3.279   2.074   1.516
  369TIP3    H1 1060   3.314   2.079   1.605
  369TIP3    H2 1061   3.189   2.041   1.528
  370TIP3   OH2 1062   3.696   1.007   1.347
  370TIP3    H1 1063   3.648   0.969   1.274
  370TIP3    H2 1064   3.632   1.061   1.392
  371TIP3   OH2 1065   4.162   1.083   1.552
  371TIP3    H1 1066   4.226   1.060   1.619
  371TIP3    H2 1067   4.077   1.066   1.593
  372TIP3   OH2 1068   4.382   1.484   1.440
  372TIP3    H1 1069   4.341   1.479   1.526
  372TIP3    H2 1070   4.364   1.573   1.410
  373TIP3   OH2 1071   6.748   5.442   6.330
  373TIP3    H1 1072   6.694   5.363   6.342
  373TIP3    H2 1073   6.836   5.414   6.354
  374TIP3   OH2 1074   3.673   1.055   0.315
  374TIP3    H1 1075   3.720   1.031   0.395
  374TIP3    H2 1076   3.708   0.995   0.248
  375TIP3   OH2 1077   3.586   1.474   1.372
  375TIP3    H1 1078   3.533   1.484   1.451
  375TIP3    H2 1079   3.571   1.555   1.323
  376TIP3   OH2 1080   3.477   1.337   0.880
  376TIP3    H1 1081   3.383   1.332   0.896
  376TIP3    H2 1082   3.484   1.371   0.791
  377TIP3   OH2 1083   3.987   1.458   0.615
  377TIP3    H1 1084   3.922   1.520   0.582
  377TIP3    H2 1085   4.050   1.450   0.544
  378TIP3   OH2 1086   4.108   1.697   1.666
  378TIP3    H1 1087   4.081   1.629   1.728
  378TIP3    H2 1088   4.202   1.710   1.684
  379TIP3   OH2 1089   4.149   1.444   0.831
  379TIP3    H1 1090   4.079   1.469   0.770
  379TIP3    H2 1091   4.190   1.368   0.791
  380TIP3   OH2 1092   3.396   1.494   1.567
  380TIP3    H1 1093   3.400   1.547   1.647
  380TIP3    H2 1094   3.348   1.416   1.593
  381TIP3   OH2 1095   2.936   1.014   1.127
  381TIP3    H1 1096   2.942   1.048   1.216
  381TIP3    H2 1097   2.955   0.920   1.137
  382TIP3   OH2 1098   4.124   1.709   1.240
  382TIP3    H1 1099   4.157   1.641   1.181
  382TIP3    H2 1100   4.084   1.660   1.312
  383TIP3   OH2 1101   3.843   1.230   1.008
  383TIP3    H1 1102   3.793   1.173   0.949
  383TIP3    H2 1103   3.925   1.183   1.023
  384TIP3   OH2 1104   3.215   1.208   0.971
  384TIP3    H1 1105   3.143   1.237   0.914
  384TIP3    H2 1106   3.264   1.146   0.917
  385TIP3   OH2 1107   3.465   1.163   0.577
  385TIP3    H1 1108   3.553   1.197   0.558
  385TIP3    H2 1109   3.406   1.221   0.528
  386TIP3   OH2 1110   4.274   1.228   1.116
  386TIP3    H1 1111   4.252   1.242   1.208
  386TIP3    H2 1112   4.200   1.178   1.081
  387TIP3   OH2 1113   4.405   2.979   1.315
  387TIP3    H1 1114   4.458   2.926   1.255
  387TIP3    H2 1115   4.440   2.960   1.402
  388TIP3   OH2 1116   3.399   2.035   1.768
  388TIP3    H1 1117   3.480   2.060   1.814
  388TIP3    H2 1118   3.330   2.051   1.832
  389TIP3   OH2 1119   3.881   1.504   1.034
  389TIP3    H1 1120   3.875   1.417   0.994
  389TIP3    H2 1121   3.880   1.488   1.128
  390TIP3   OH2 1122   3.386   1.013   0.890
  390TIP3    H1 1123   3.340   0.935   0.921
  390TIP3    H2 1124   3.414   0.990   0.801
  391TIP3   OH2 1125   3.844   1.432   1.296
  391TIP3    H1 1126   3.756   1.455   1.325
  391TIP3    H2 1127   3.902   1.484   1.351
  392TIP3   OH2 1128   3.633   1.879   0.480
  392TIP3    H1 1129   3.586   1.797   0.465
  392TIP3    H2 1130   3.623   1.896   0.574
  393TIP3   OH2 1131   4.449   2.023   0.992
  393TIP3    H1 1132   4.484   2.074   0.919
  393TIP3    H2 1133   4.369   1.984   0.957
  394TIP3   OH2 1134   4.142   1.100   0.174
  394TIP3    H1 1135   4.063   1.153   0.185
  394TIP3    H2 1136   4.207   1.161   0.140
  395TIP3   OH2 1137   3.968   2.105   1.407
  395TIP3    H1 1138   4.012   2.093   1.491
  395TIP3    H2 1139   3.923   2.189   1.416
  396TIP3   OH2 1140   4.162   1.388   0.416
  396TIP3    H1 1141   4.257   1.375   0.418
  396TIP3    H2 1142   4.144   1.425   0.329
  397TIP3   OH2 1143   3.241   1.826   1.144
  397TIP3    H1 1144   3.291   1.774   1.082
  397TIP3    H2 1145   3.266   1.793   1.230
  398TIP3   OH2 1146   3.802   2.000   0.292
  398TIP3    H1 1147   3.736   2.065   0.271
  398TIP3    H2 1148   3.755   1.932   0.341
  399TIP3   OH2 1149   3.158   1.712   1.679
  399TIP3    H1 1150   3.171   1.713   1.774
  399TIP3    H2 1151   3.081   1.656   1.666
  400TIP3   OH2 1152   3.874   1.853   1.697
  400TIP3    H1 1153   3.805   1.793   1.667
  400TIP3    H2 1154   3.956   1.812   1.668
  401TIP3   OH2 1155   4.114   2.395   1.292
  401TIP3    H1 1156   4.020   2.380   1.303
  401TIP3    H2 1157   4.143   2.429   1.377
  402TIP3   OH2 1158   4.558   1.448   0.207
  402TIP3    H1 1159   4.473   1.410   0.185
  402TIP3    H2 1160   4.562   1.530   0.158
  403TIP3   OH2 1161   4.754   2.332   1.258
  403TIP3    H1 1162   4.662   2.305   1.263
  403TIP3    H2 1163   4.785   2.296   1.175
  404TIP3   OH2 1164   4.252   2.236   0.149
  404TIP3    H1 1165   4.222   2.199   0.232
  404TIP3    H2 1166   4.207   2.184   0.083
  405TIP3   OH2 1167   4.221   1.894   0.884
  405TIP3    H1 1168   4.133   1.869   0.910
  405TIP3    H2 1169   4.261   1.813   0.853
  406TIP3   OH2 1170   3.313   2.118   0.659
  406TIP3    H1 1171   3.322   2.211   0.637
  406TIP3    H2 1172   3.219   2.104   0.664
  407TIP3   OH2 1173   3.516   1.950   0.725
  407TIP3    H1 1174   3.447   2.013   0.704
  407TIP3    H2 1175   3.472   1.865   0.725
  408TIP3   OH2 1176   3.664   2.442   1.155
  408TIP3    H1 1177   3.700   2.517   1.109
  408TIP3    H2 1178   3.735   2.411   1.210
  409TIP3   OH2 1179   3.312   2.373   0.559
  409TIP3    H1 1180   3.226   2.380   0.600
  409TIP3    H2 1181   3.349   2.461   0.566
  410TIP3   OH2 1182   4.021   2.106   1.136
  410TIP3    H1 1183   4.002   2.104   1.230
  410TIP3    H2 1184   4.104   2.060   1.128
  411TIP3   OH2 1185   3.994   2.044   0.038
  411TIP3    H1 1186   4.059   1.995   0.088
  411TIP3    H2 1187   3.910   2.013   0.069
  412TIP3   OH2 1188   4.260   2.614   1.181
  412TIP3    H1 1189   4.193   2.548   1.197
  412TIP3    H2 1190   4.227   2.664   1.106
  413TIP3   OH2 1191   6.985   6.194   6.288
  413TIP3    H1 1192   7.029   6.278   6.274
  413TIP3    H2 1193   6.897   6.217   6.317
  414TIP3   OH2 1194   3.330   1.222   1.692
  414TIP3    H1 1195   3.240   1.250   1.703
  414TIP3    H2 1196   3.350   1.171   1.770
  415TIP3   OH2 1197   4.178   1.893   0.178
  415TIP3    H1 1198   4.162   1.843   0.258
  415TIP3    H2 1199   4.272   1.910   0.179
  416TIP3   OH2 1200   5.968   5.690   6.365
  416TIP3    H1 1201   5.975   5.595   6.373
  416TIP3    H2 1202   5.890   5.713   6.415
  417TIP3   OH2 1203   3.284   2.066   0.187
  417TIP3    H1 1204   3.318   2.045   0.274
  417TIP3    H2 1205   3.288   2.162   0.182
  418TIP3   OH2 1206   2.996   1.560   0.415
  418TIP3    H1 1207   2.971   1.601   0.498
  418TIP3    H2 1208   3.020   1.634   0.358
  419TIP3   OH2 1209   4.208   1.281   1.370
  419TIP3    H1 1210   4.276   1.338   1.407
  419TIP3    H2 1211   4.191   1.217   1.439
  420TIP3   OH2 1212   4.155   1.077   0.523
  420TIP3    H1 1213   4.071   1.116   0.498
  420TIP3    H2 1214   4.193   1.140   0.583
  421TIP3   OH2 1215   3.600   2.178   0.226
  421TIP3    H1 1216   3.507   2.179   0.249
  421TIP3    H2 1217   3.639   2.246   0.281
  422TIP3   OH2 1218   3.726   1.232   0.556
  422TIP3    H1 1219   3.801   1.239   0.497
  422TIP3    H2 1220   3.742   1.297   0.624
  423TIP3   OH2 1221   4.045   1.543   1.445
  423TIP3    H1 1222   4.064   1.592   1.525
  423TIP3    H2 1223   4.088   1.459   1.458
  424TIP3   OH2 1224   3.991   0.923   0.738
  424TIP3    H1 1225   3.987   1.018   0.730
  424TIP3    H2 1226   4.077   0.906   0.778
  425TIP3   OH2 1227   3.350   2.309   0.294
  425TIP3    H1 1228   3.319   2.389   0.251
  425TIP3    H2 1229   3.336   2.326   0.388
  426TIP3   OH2 1230   4.646   1.436   1.414
  426TIP3    H1 1231   4.551   1.435   1.426
  426TIP3    H2 1232   4.658   1.437   1.319
  427TIP3   OH2 1233   4.336   1.644   0.816
  427TIP3    H1 1234   4.262   1.584   0.829
  427TIP3    H2 1235   4.407   1.604   0.866
  428TIP3   OH2 1236   3.083   1.772   0.257
  428TIP3    H1 1237   3.088   1.863   0.287
  428TIP3    H2 1238   3.031   1.776   0.177
  429TIP3   OH2 1239   4.291   2.609   0.740
  429TIP3    H1 1240   4.249   2.659   0.670
  429TIP3    H2 1241   4.385   2.622   0.726
  430TIP3   OH2 1242   3.422   0.921   1.417
  430TIP3    H1 1243   3.417   0.885   1.329
  430TIP3    H2 1244   3.397   0.849   1.474
  431TIP3   OH2 1245   3.015   2.126   0.641
  431TIP3    H1 1246   2.926   2.140   0.674
  431TIP3    H2 1247   3.020   2.179   0.562
  432TIP3   OH2 1248   3.552   2.533   1.786
  432TIP3    H1 1249   3.642   2.502   1.786
  432TIP3    H2 1250   3.509   2.485   1.716
  433TIP3   OH2 1251   6.106   5.930   6.383
  433TIP3    H1 1252   6.061   5.846   6.393
  433TIP3    H2 1253   6.186   5.909   6.335
  434TIP3   OH2 1254   4.198   2.483   1.539
  434TIP3    H1 1255   4.180   2.411   1.600
  434TIP3    H2 1256   4.283   2.516   1.566
  435TIP3   OH2 1257   6.628   5.953   6.291
  435TIP3    H1 1258   6.619   5.889   6.362
  435TIP3    H2 1259   6.721   5.953   6.271
  436TIP3   OH2 1260   3.195   2.033   1.955
  436TIP3    H1 1261   3.213   1.940   1.965
  436TIP3    H2 1262   3.110   2.037   1.910
  437TIP3   OH2 1263   3.807   2.127   1.709
  437TIP3    H1 1264   3.758   2.147   1.630
  437TIP3    H2 1265   3.839   2.038   1.696
  438TIP3   OH2 1266   6.197   5.491   6.367
  438TIP3    H1 1267   6.211   5.579   6.402
  438TIP3    H2 1268   6.282   5.466   6.331
  439TIP3   OH2 1269   4.281   2.164   1.319
  439TIP3    H1 1270   4.360   2.195   1.275
  439TIP3    H2 1271   4.217   2.235   1.307
  440TIP3   OH2 1272   3.304   1.768   1.934
  440TIP3    H1 1273   3.378   1.777   1.874
  440TIP3    H2 1274   3.339   1.792   2.019
  441TIP3   OH2 1275   3.487   1.652   0.436
  441TIP3    H1 1276   3.391   1.657   0.435
  441TIP3    H2 1277   3.508   1.577   0.381
  442TIP3   OH2 1278   3.676   1.679   1.598
  442TIP3    H1 1279   3.589   1.718   1.607
  442TIP3    H2 1280   3.706   1.708   1.512
  443TIP3   OH2 1281   3.526   1.385   0.365
  443TIP3    H1 1282   3.467   1.382   0.290
  443TIP3    H2 1283   3.613   1.395   0.327
  444TIP3   OH2 1284   4.157   2.035   1.676
  444TIP3    H1 1285   4.228   2.000   1.623
  444TIP3    H2 1286   4.156   1.979   1.755
  445TIP3   OH2 1287   7.007   5.550   6.250
  445TIP3    H1 1288   7.026   5.457   6.264
  445TIP3    H2 1289   6.914   5.552   6.228
  446TIP3   OH2 1290   3.771   1.450   1.712
  446TIP3    H1 1291   3.782   1.381   1.647
  446TIP3    H2 1292   3.738   1.525   1.662
  447TIP3   OH2 1293   3.809   1.255   1.516
  447TIP3    H1 1294   3.829   1.289   1.429
  447TIP3    H2 1295   3.717   1.230   1.512
  448TIP3   OH2 1296   3.800   1.776   1.376
  448TIP3    H1 1297   3.889   1.809   1.361
  448TIP3    H2 1298   3.743   1.840   1.332
  449TIP3   OH2 1299   4.377   1.726   1.754
  449TIP3    H1 1300   4.426   1.643   1.759
  449TIP3    H2 1301   4.445   1.793   1.744
  450TIP3   OH2 1302   4.400   1.990   1.491
  450TIP3    H1 1303   4.346   2.051   1.440
  450TIP3    H2 1304   4.490   2.007   1.462
  451TIP3   OH2 1305   3.653   1.525   1.952
  451TIP3    H1 1306   3.583   1.462   1.971
  451TIP3    H2 1307   3.680   1.504   1.863
  452TIP3   OH2 1308   3.900   1.015   1.616
  452TIP3    H1 1309   3.870   1.098   1.580
  452TIP3    H2 1310   3.825   0.955   1.604
  453TIP3   OH2 1311   4.027   1.481   1.813
  453TIP3    H1 1312   4.018   1.465   1.907
  453TIP3    H2 1313   3.939   1.464   1.778
  454TIP3   OH2 1314   4.265   1.431   1.676
  454TIP3    H1 1315   4.187   1.434   1.732
  454TIP3    H2 1316   4.337   1.409   1.736
  455TIP3   OH2 1317   4.504   1.399   1.825
  455TIP3    H1 1318   4.520   1.305   1.833
  455TIP3    H2 1319   4.499   1.430   1.915
  456TIP3   OH2 1320   3.489   1.310   2.021
  456TIP3    H1 1321   3.489   1.221   1.984
  456TIP3    H2 1322   3.530   1.301   2.107
  457TIP3   OH2 1323   3.972   0.974   1.876
  457TIP3    H1 1324   4.043   0.911   1.868
  457TIP3    H2 1325   3.941   0.988   1.787
  458TIP3   OH2 1326   4.059   1.197   2.013
  458TIP3    H1 1327   4.029   1.122   1.961
  458TIP3    H2 1328   3.985   1.258   2.014
  459TIP3   OH2 1329   3.308   2.515   0.117
  459TIP3    H1 1330   3.402   2.501   0.107
  459TIP3    H2 1331   3.273   2.507   0.028
  460TIP3   OH2 1332   2.759   2.485   0.818
  460TIP3    H1 1333   2.668   2.501   0.794
  460TIP3    H2 1334   2.755   2.435   0.900
  461TIP3   OH2 1335   2.800   2.289   1.015
  461TIP3    H1 1336   2.812   2.224   1.084
  461TIP3    H2 1337   2.864   2.357   1.035
  462TIP3   OH2 1338   4.564   2.667   0.736
  462TIP3    H1 1339   4.578   2.667   0.831
  462TIP3    H2 1340   4.591   2.754   0.707
  463TIP3   OH2 1341   4.586   2.670   1.010
  463TIP3    H1 1342   4.533   2.591   1.017
  463TIP3    H2 1343   4.652   2.662   1.079
  464TIP3   OH2 1344   4.610   2.391   1.607
  464TIP3    H1 1345   4.537   2.401   1.668
  464TIP3    H2 1346   4.654   2.476   1.608
  465TIP3   OH2 1347   4.461   1.909   0.201
  465TIP3    H1 1348   4.531   1.972   0.179
  465TIP3    H2 1349   4.489   1.869   0.283
  466TIP3   OH2 1350   4.579   1.781   0.412
  466TIP3    H1 1351   4.514   1.737   0.467
  466TIP3    H2 1352   4.645   1.812   0.474
  467TIP3   OH2 1353   4.627   2.168   0.831
  467TIP3    H1 1354   4.681   2.100   0.792
  467TIP3    H2 1355   4.629   2.240   0.768
  468TIP3   OH2 1356   4.431   2.442   1.032
  468TIP3    H1 1357   4.365   2.489   1.083
  468TIP3    H2 1358   4.382   2.404   0.959
  469TIP3   OH2 1359   4.531   1.680   0.065
  469TIP3    H1 1360   4.460   1.653   0.007
  469TIP3    H2 1361   4.498   1.758   0.109
  470TIP3   OH2 1362   4.387   1.632   0.545
  470TIP3    H1 1363   4.404   1.539   0.535
  470TIP3    H2 1364   4.368   1.644   0.638
  471TIP3   OH2 1365   3.040   1.665   1.331
  471TIP3    H1 1366   3.032   1.692   1.239
  471TIP3    H2 1367   3.134   1.671   1.349
  472TIP3   OH2 1368   4.657   2.038   1.394
  472TIP3    H1 1369   4.724   1.972   1.379
  472TIP3    H2 1370   4.653   2.087   1.311
  473TIP3   OH2 1371   4.834   1.825   1.385
  473TIP3    H1 1372   4.763   1.784   1.433
  473TIP3    H2 1373   4.911   1.772   1.406
  474TIP3   OH2 1374   4.447   1.366   0.461
  474TIP3    H1 1375   4.500   1.289   0.480
  474TIP3    H2 1376   4.484   1.401   0.380
  475TIP3   OH2 1377   4.541   1.504   0.946
  475TIP3    H1 1378   4.621   1.529   0.900
  475TIP3    H2 1379   4.550   1.544   1.033
  476TIP3   OH2 1380   4.600   1.655   1.177
  476TIP3    H1 1381   4.525   1.683   1.229
  476TIP3    H2 1382   4.629   1.734   1.131
  477TIP3   OH2 1383   3.227   1.379   1.991
  477TIP3    H1 1384   3.322   1.370   1.999
  477TIP3    H2 1385   3.192   1.296   2.024
  478TIP3   OH2 1386   5.083   1.273   1.705
  478TIP3    H1 1387   5.140   1.206   1.667
  478TIP3    H2 1388   5.037   1.310   1.630
  479TIP3   OH2 1389   4.566   1.118   0.495
  479TIP3    H1 1390   4.563   1.071   0.579
  479TIP3    H2 1391   4.491   1.084   0.446
  480TIP3   OH2 1392   3.207   1.088   1.435
  480TIP3    H1 1393   3.286   1.037   1.447
  480TIP3    H2 1394   3.227   1.173   1.474
  481TIP3   OH2 1395   3.127   1.376   1.480
  481TIP3    H1 1396   3.138   1.380   1.385
  481TIP3    H2 1397   3.071   1.451   1.501
  482TIP3   OH2 1398   4.908   1.377   1.523
  482TIP3    H1 1399   4.842   1.419   1.579
  482TIP3    H2 1400   4.857   1.322   1.463
  483TIP3   OH2 1401   4.132   2.549   0.392
  483TIP3    H1 1402   4.186   2.548   0.314
  483TIP3    H2 1403   4.162   2.626   0.441
  484TIP3   OH2 1404   3.183   0.908   1.706
  484TIP3    H1 1405   3.133   0.898   1.787
  484TIP3    H2 1406   3.127   0.961   1.649
  485TIP3   OH2 1407   3.185   2.393   1.698
  485TIP3    H1 1408   3.119   2.450   1.658
  485TIP3    H2 1409   3.157   2.384   1.789
  486TIP3   OH2 1410   3.431   2.412   1.302
  486TIP3    H1 1411   3.382   2.490   1.275
  486TIP3    H2 1412   3.515   2.419   1.256
  487TIP3   OH2 1413   3.826   2.635   1.450
  487TIP3    H1 1414   3.866   2.627   1.536
  487TIP3    H2 1415   3.888   2.689   1.400
  488TIP3   OH2 1416   4.018   2.787   1.324
  488TIP3    H1 1417   4.088   2.737   1.281
  488TIP3    H2 1418   4.065   2.842   1.387
  489TIP3   OH2 1419   4.784   1.155   1.395
  489TIP3    H1 1420   4.712   1.194   1.345
  489TIP3    H2 1421   4.746   1.078   1.437
  490TIP3   OH2 1422   3.074   2.619   1.303
  490TIP3    H1 1423   2.994   2.670   1.287
  490TIP3    H2 1424   3.070   2.596   1.396
  491TIP3   OH2 1425   3.327   2.648   1.203
  491TIP3    H1 1426   3.241   2.645   1.246
  491TIP3    H2 1427   3.307   2.673   1.113
  492TIP3   OH2 1428   3.738   2.658   0.995
  492TIP3    H1 1429   3.662   2.668   0.939
  492TIP3    H2 1430   3.747   2.743   1.038
  493TIP3   OH2 1431   4.000   2.588   1.037
  493TIP3    H1 1432   3.909   2.611   1.022
  493TIP3    H2 1433   4.050   2.659   0.997
  494TIP3   OH2 1434   4.200   2.766   0.950
  494TIP3    H1 1435   4.201   2.855   0.913
  494TIP3    H2 1436   4.231   2.711   0.878
  495TIP3   OH2 1437   3.002   2.464   1.086
  495TIP3    H1 1438   3.032   2.507   1.166
  495TIP3    H2 1439   3.080   2.419   1.053
  496TIP3   OH2 1440   3.219   2.338   0.982
  496TIP3    H1 1441   3.228   2.248   1.012
  496TIP3    H2 1442   3.308   2.370   0.972
  497TIP3   OH2 1443   3.488   2.393   0.946
  497TIP3    H1 1444   3.503   2.300   0.926
  497TIP3    H2 1445   3.543   2.411   1.022
  498TIP3   OH2 1446   4.064   1.067   1.039
  498TIP3    H1 1447   4.025   1.004   1.100
  498TIP3    H2 1448   4.115   1.012   0.978
  499TIP3   OH2 1449   4.530   0.977   0.952
  499TIP3    H1 1450   4.590   0.997   0.880
  499TIP3    H2 1451   4.471   1.053   0.956
  500TIP3   OH2 1452   4.686   1.014   0.734
  500TIP3    H1 1453   4.756   0.965   0.690
  500TIP3    H2 1454   4.709   1.106   0.722
  501TIP3   OH2 1455   3.221   0.800   0.943
  501TIP3    H1 1456   3.154   0.832   1.003
  501TIP3    H2 1457   3.241   0.712   0.975
  502TIP3   OH2 1458   3.816   0.849   0.965
  502TIP3    H1 1459   3.830   0.921   0.904
  502TIP3    H2 1460   3.743   0.878   1.019
  503TIP3   OH2 1461   4.230   0.917   0.879
  503TIP3    H1 1462   4.292   0.919   0.806
  503TIP3    H2 1463   4.276   0.871   0.949
  504TIP3   OH2 1464   4.332   0.898   0.620
  504TIP3    H1 1465   4.268   0.955   0.578
  504TIP3    H2 1466   4.292   0.812   0.619
  505TIP3   OH2 1467   2.781   2.160   0.385
  505TIP3    H1 1468   2.693   2.122   0.385
  505TIP3    H2 1469   2.774   2.237   0.442
  506TIP3   OH2 1470   3.768   0.961   0.569
  506TIP3    H1 1471   3.850   0.937   0.612
  506TIP3    H2 1472   3.761   1.055   0.582
  507TIP3   OH2 1473   3.567   2.433   0.072
  507TIP3    H1 1474   3.654   2.439   0.033
  507TIP3    H2 1475   3.541   2.342   0.058
  508TIP3   OH2 1476   4.272   2.512   0.151
  508TIP3    H1 1477   4.268   2.416   0.151
  508TIP3    H2 1478   4.219   2.539   0.077
  509TIP3   OH2 1479   3.495   1.044   1.946
  509TIP3    H1 1480   3.463   0.973   2.002
  509TIP3    H2 1481   3.589   1.048   1.964
  510TIP3   OH2 1482   3.751   1.032   2.048
  510TIP3    H1 1483   3.828   1.009   1.996
  510TIP3    H2 1484   3.745   0.963   2.114
  511TIP3   OH2 1485   2.845   2.216   0.117
  511TIP3    H1 1486   2.827   2.229   0.210
  511TIP3    H2 1487   2.928   2.259   0.101
  512TIP3   OH2 1488   4.570   1.129   1.840
  512TIP3    H1 1489   4.587   1.100   1.929
  512TIP3    H2 1490   4.654   1.123   1.796
  513TIP3   OH2 1491   4.500   2.692   1.325
  513TIP3    H1 1492   4.414   2.664   1.294
  513TIP3    H2 1493   4.484   2.728   1.412
  514TIP3   OH2 1494   5.820   2.032   0.103
  514TIP3    H1 1495   5.774   2.108   0.067
  514TIP3    H2 1496   5.752   1.974   0.136
  515TIP3   OH2 1497   5.710   2.029   0.482
  515TIP3    H1 1498   5.745   2.025   0.571
  515TIP3    H2 1499   5.683   1.939   0.463
  516TIP3   OH2 1500   5.053   1.890   0.847
  516TIP3    H1 1501   5.082   1.839   0.922
  516TIP3    H2 1502   5.133   1.910   0.799
  517TIP3   OH2 1503   5.993   2.399   0.165
  517TIP3    H1 1504   5.958   2.310   0.174
  517TIP3    H2 1505   6.014   2.426   0.255
  518TIP3   OH2 1506   5.051   2.331   0.507
  518TIP3    H1 1507   5.023   2.243   0.528
  518TIP3    H2 1508   5.145   2.333   0.527
  519TIP3   OH2 1509   4.768   1.602   0.304
  519TIP3    H1 1510   4.712   1.671   0.339
  519TIP3    H2 1511   4.707   1.535   0.273
  520TIP3   OH2 1512   4.818   1.847   0.542
  520TIP3    H1 1513   4.866   1.768   0.565
  520TIP3    H2 1514   4.886   1.913   0.527
  521TIP3   OH2 1515   5.673   2.762   0.210
  521TIP3    H1 1516   5.756   2.726   0.177
  521TIP3    H2 1517   5.669   2.733   0.301
  522TIP3   OH2 1518   5.562   2.262   0.512
  522TIP3    H1 1519   5.598   2.177   0.485
  522TIP3    H2 1520   5.638   2.312   0.541
  523TIP3   OH2 1521   5.914   1.799   0.551
  523TIP3    H1 1522   5.965   1.725   0.584
  523TIP3    H2 1523   5.945   1.812   0.462
  524TIP3   OH2 1524   5.316   1.422   0.509
  524TIP3    H1 1525   5.285   1.479   0.438
  524TIP3    H2 1526   5.308   1.333   0.474
  525TIP3   OH2 1527   4.948   1.615   0.623
  525TIP3    H1 1528   5.028   1.600   0.672
  525TIP3    H2 1529   4.953   1.555   0.548
  526TIP3   OH2 1530   5.347   1.811   0.445
  526TIP3    H1 1531   5.442   1.798   0.454
  526TIP3    H2 1532   5.314   1.724   0.420
  527TIP3   OH2 1533   6.685   1.804   0.627
  527TIP3    H1 1534   6.642   1.861   0.563
  527TIP3    H2 1535   6.699   1.860   0.703
  528TIP3   OH2 1536   5.310   1.412   0.963
  528TIP3    H1 1537   5.265   1.465   0.897
  528TIP3    H2 1538   5.259   1.426   1.043
  529TIP3   OH2 1539   0.392   5.965   6.461
  529TIP3    H1 1540   0.333   5.949   6.387
  529TIP3    H2 1541   0.368   6.052   6.492
  530TIP3   OH2 1542   5.411   2.181   0.729
  530TIP3    H1 1543   5.356   2.252   0.760
  530TIP3    H2 1544   5.462   2.220   0.658
  531TIP3   OH2 1545   5.183   1.516   0.732
  531TIP3    H1 1546   5.233   1.593   0.760
  531TIP3    H2 1547   5.235   1.478   0.661
  532TIP3   OH2 1548   5.248   2.387   0.818
  532TIP3    H1 1549   5.235   2.479   0.794
  532TIP3    H2 1550   5.172   2.365   0.872
  533TIP3   OH2 1551   4.634   2.114   0.048
  533TIP3    H1 1552   4.588   2.087  -0.031
  533TIP3    H2 1553   4.569   2.164   0.098
  534TIP3   OH2 1554   6.017   2.612   0.355
  534TIP3    H1 1555   5.930   2.593   0.390
  534TIP3    H2 1556   6.000   2.664   0.277
  535TIP3   OH2 1557   5.898   2.648   0.092
  535TIP3    H1 1558   5.923   2.558   0.115
  535TIP3    H2 1559   5.884   2.645  -0.003
  536TIP3   OH2 1560   6.250   2.499   0.719
  536TIP3    H1 1561   6.294   2.496   0.634
  536TIP3    H2 1562   6.262   2.589   0.749
  537TIP3   OH2 1563   6.411   2.205   0.466
  537TIP3    H1 1564   6.325   2.245   0.451
  537TIP3    H2 1565   6.437   2.173   0.380
  538TIP3   OH2 1566   6.088   2.028   0.829
  538TIP3    H1 1567   6.133   2.108   0.801
  538TIP3    H2 1568   5.999   2.038   0.796
  539TIP3   OH2 1569   5.164   1.957   0.306
  539TIP3    H1 1570   5.111   1.889   0.263
  539TIP3    H2 1571   5.234   1.908   0.349
  540TIP3   OH2 1572   5.330   2.375   0.418
  540TIP3    H1 1573   5.320   2.328   0.335
  540TIP3    H2 1574   5.412   2.343   0.454
  541TIP3   OH2 1575   5.267   1.954   0.670
  541TIP3    H1 1576   5.306   1.915   0.592
  541TIP3    H2 1577   5.323   2.029   0.690
  542TIP3   OH2 1578   5.762   2.587   0.447
  542TIP3    H1 1579   5.772   2.665   0.502
  542TIP3    H2 1580   5.765   2.514   0.508
  543TIP3   OH2 1581   5.444   2.491   0.990
  543TIP3    H1 1582   5.381   2.545   1.037
  543TIP3    H2 1583   5.391   2.436   0.933
  544TIP3   OH2 1584   5.193   2.057   1.126
  544TIP3    H1 1585   5.190   2.150   1.151
  544TIP3    H2 1586   5.102   2.030   1.123
  545TIP3   OH2 1587   5.569   2.504   0.066
  545TIP3    H1 1588   5.606   2.561   0.134
  545TIP3    H2 1589   5.490   2.550   0.038
  546TIP3   OH2 1590   5.235   2.646   1.082
  546TIP3    H1 1591   5.203   2.654   0.992
  546TIP3    H2 1592   5.156   2.627   1.133
  547TIP3   OH2 1593   5.002   1.761   0.184
  547TIP3    H1 1594   4.962   1.814   0.116
  547TIP3    H2 1595   4.931   1.706   0.218
  548TIP3   OH2 1596   4.829   2.211   1.024
  548TIP3    H1 1597   4.758   2.190   0.964
  548TIP3    H2 1598   4.860   2.127   1.056
  549TIP3   OH2 1599   4.671   2.411   0.681
  549TIP3    H1 1600   4.759   2.436   0.711
  549TIP3    H2 1601   4.616   2.486   0.701
  550TIP3   OH2 1602   6.525   2.898   0.735
  550TIP3    H1 1603   6.531   2.803   0.747
  550TIP3    H2 1604   6.443   2.923   0.778
  551TIP3   OH2 1605   5.623   2.647   0.851
  551TIP3    H1 1606   5.618   2.735   0.889
  551TIP3    H2 1607   5.560   2.595   0.901
  552TIP3   OH2 1608   6.403   1.969   0.923
  552TIP3    H1 1609   6.312   1.959   0.951
  552TIP3    H2 1610   6.443   1.883   0.937
  553TIP3   OH2 1611   5.031   2.394   0.989
  553TIP3    H1 1612   5.080   2.385   1.071
  553TIP3    H2 1613   4.959   2.331   0.997
  554TIP3   OH2 1614   5.361   1.191   0.808
  554TIP3    H1 1615   5.268   1.171   0.798
  554TIP3    H2 1616   5.362   1.272   0.859
  555TIP3   OH2 1617   6.174   1.867   1.030
  555TIP3    H1 1618   6.125   1.795   1.071
  555TIP3    H2 1619   6.114   1.903   0.965
  556TIP3   OH2 1620   5.330   1.723   0.816
  556TIP3    H1 1621   5.362   1.753   0.901
  556TIP3    H2 1622   5.327   1.802   0.762
  557TIP3   OH2 1623   5.192   1.597   0.331
  557TIP3    H1 1624   5.118   1.543   0.358
  557TIP3    H2 1625   5.160   1.650   0.259
  558TIP3   OH2 1626   5.879   1.953   1.170
  558TIP3    H1 1627   5.843   1.879   1.219
  558TIP3    H2 1628   5.965   1.968   1.210
  559TIP3   OH2 1629   5.145   1.738   1.062
  559TIP3    H1 1630   5.231   1.777   1.079
  559TIP3    H2 1631   5.150   1.651   1.101
  560TIP3   OH2 1632   4.774   1.261   0.669
  560TIP3    H1 1633   4.839   1.307   0.722
  560TIP3    H2 1634   4.794   1.287   0.579
  561TIP3   OH2 1635   5.829   1.979   0.731
  561TIP3    H1 1636   5.861   1.919   0.664
  561TIP3    H2 1637   5.827   1.926   0.811
  562TIP3   OH2 1638   5.588   1.486   0.470
  562TIP3    H1 1639   5.501   1.461   0.500
  562TIP3    H2 1640   5.648   1.434   0.523
  563TIP3   OH2 1641   4.969   1.449   0.400
  563TIP3    H1 1642   4.900   1.504   0.362
  563TIP3    H2 1643   4.934   1.360   0.395
  564TIP3   OH2 1644   6.240   3.201   0.831
  564TIP3    H1 1645   6.235   3.217   0.736
  564TIP3    H2 1646   6.323   3.240   0.858
  565TIP3   OH2 1647   5.182   2.318   1.227
  565TIP3    H1 1648   5.263   2.332   1.276
  565TIP3    H2 1649   5.113   2.320   1.293
  566TIP3   OH2 1650   5.612   1.763   0.486
  566TIP3    H1 1651   5.622   1.672   0.458
  566TIP3    H2 1652   5.629   1.760   0.580
  567TIP3   OH2 1653   5.625   1.740   0.761
  567TIP3    H1 1654   5.570   1.676   0.805
  567TIP3    H2 1655   5.702   1.748   0.817
  568TIP3   OH2 1656   0.035   5.807   6.343
  568TIP3    H1 1657   0.082   5.723   6.342
  568TIP3    H2 1658   0.036   5.834   6.435
  569TIP3   OH2 1659   6.159   2.319   0.393
  569TIP3    H1 1660   6.213   2.340   0.317
  569TIP3    H2 1661   6.094   2.256   0.359
  570TIP3   OH2 1662   5.737   2.363   0.885
  570TIP3    H1 1663   5.798   2.330   0.951
  570TIP3    H2 1664   5.701   2.443   0.923
  571TIP3   OH2 1665   5.033   2.042   0.533
  571TIP3    H1 1666   5.074   2.023   0.449
  571TIP3    H2 1667   5.097   2.014   0.598
  572TIP3   OH2 1668   4.917   1.987   1.161
  572TIP3    H1 1669   4.934   1.956   1.250
  572TIP3    H2 1670   4.852   1.925   1.126
  573TIP3   OH2 1671   5.669   2.126   1.154
  573TIP3    H1 1672   5.626   2.101   1.072
  573TIP3    H2 1673   5.751   2.076   1.154
  574TIP3   OH2 1674   5.891   2.652   0.773
  574TIP3    H1 1675   5.797   2.642   0.782
  574TIP3    H2 1676   5.920   2.687   0.857
  575TIP3   OH2 1677   6.526   2.633   0.799
  575TIP3    H1 1678   6.475   2.634   0.880
  575TIP3    H2 1679   6.511   2.546   0.762
  576TIP3   OH2 1680   5.928   2.150   0.345
  576TIP3    H1 1681   5.848   2.123   0.389
  576TIP3    H2 1682   5.932   2.095   0.267
  577TIP3   OH2 1683   5.121   2.371   0.180
  577TIP3    H1 1684   5.105   2.450   0.127
  577TIP3    H2 1685   5.084   2.392   0.266
  578TIP3   OH2 1686   7.358   5.439   6.318
  578TIP3    H1 1687   7.415   5.499   6.367
  578TIP3    H2 1688   7.293   5.410   6.382
  579TIP3   OH2 1689   5.280   2.154   0.154
  579TIP3    H1 1690   5.221   2.229   0.159
  579TIP3    H2 1691   5.241   2.088   0.211
  580TIP3   OH2 1692   5.449   2.705   0.642
  580TIP3    H1 1693   5.488   2.776   0.590
  580TIP3    H2 1694   5.520   2.676   0.699
  581TIP3   OH2 1695   5.021   2.619   0.087
  581TIP3    H1 1696   5.011   2.619   0.182
  581TIP3    H2 1697   5.070   2.699   0.068
  582TIP3   OH2 1698   5.795   2.367   0.616
  582TIP3    H1 1699   5.771   2.361   0.709
  582TIP3    H2 1700   5.883   2.331   0.612
  583TIP3   OH2 1701   6.042   2.876   0.676
  583TIP3    H1 1702   5.975   2.808   0.682
  583TIP3    H2 1703   6.016   2.928   0.600
  584TIP3   OH2 1704   5.140   1.479   1.174
  584TIP3    H1 1705   5.045   1.487   1.186
  584TIP3    H2 1706   5.170   1.432   1.253
  585TIP3   OH2 1707   4.887   2.571   0.796
  585TIP3    H1 1708   4.940   2.514   0.851
  585TIP3    H2 1709   4.881   2.653   0.845
  586TIP3   OH2 1710   7.741   5.951   6.214
  586TIP3    H1 1711   7.800   5.898   6.268
  586TIP3    H2 1712   7.797   5.985   6.145
  587TIP3   OH2 1713   7.484   5.649   6.459
  587TIP3    H1 1714   7.412   5.703   6.493
  587TIP3    H2 1715   7.526   5.703   6.393
  588TIP3   OH2 1716   6.029   1.597   0.872
  588TIP3    H1 1717   6.101   1.572   0.930
  588TIP3    H2 1718   5.963   1.529   0.885
  589TIP3   OH2 1719   5.841   1.798   0.931
  589TIP3    H1 1720   5.858   1.832   1.019
  589TIP3    H2 1721   5.900   1.723   0.923
  590TIP3   OH2 1722   6.453   1.708   0.950
  590TIP3    H1 1723   6.371   1.673   0.986
  590TIP3    H2 1724   6.452   1.682   0.858
  591TIP3   OH2 1725   6.063   1.855   0.331
  591TIP3    H1 1726   6.140   1.822   0.284
  591TIP3    H2 1727   6.097   1.925   0.387
  592TIP3   OH2 1728   7.474   5.916   6.244
  592TIP3    H1 1729   7.568   5.924   6.232
  592TIP3    H2 1730   7.446   5.851   6.180
  593TIP3   OH2 1731   6.024   2.896   0.215
  593TIP3    H1 1732   6.014   2.829   0.147
  593TIP3    H2 1733   6.115   2.923   0.209
  594TIP3   OH2 1734   5.099   1.093   0.812
  594TIP3    H1 1735   5.084   1.034   0.738
  594TIP3    H2 1736   5.113   1.035   0.886
  595TIP3   OH2 1737   4.869   2.891   1.222
  595TIP3    H1 1738   4.952   2.883   1.269
  595TIP3    H2 1739   4.831   2.803   1.225
  596TIP3   OH2 1740   5.347   2.799   1.281
  596TIP3    H1 1741   5.437   2.766   1.285
  596TIP3    H2 1742   5.308   2.751   1.208
  597TIP3   OH2 1743   5.960   2.751   1.018
  597TIP3    H1 1744   5.970   2.680   1.081
  597TIP3    H2 1745   6.033   2.811   1.038
  598TIP3   OH2 1746   4.981   2.295   1.416
  598TIP3    H1 1747   4.997   2.201   1.423
  598TIP3    H2 1748   4.894   2.301   1.375
  599TIP3   OH2 1749   5.596   2.390   1.197
  599TIP3    H1 1750   5.549   2.409   1.116
  599TIP3    H2 1751   5.636   2.304   1.182
  600TIP3   OH2 1752   6.024   2.400   0.825
  600TIP3    H1 1753   6.104   2.433   0.784
  600TIP3    H2 1754   5.959   2.469   0.809
  601TIP3   OH2 1755   5.095   2.040   1.420
  601TIP3    H1 1756   5.171   2.017   1.366
  601TIP3    H2 1757   5.132   2.060   1.506
  602TIP3   OH2 1758   5.390   1.889   1.040
  602TIP3    H1 1759   5.327   1.955   1.070
  602TIP3    H2 1760   5.459   1.940   0.996
  603TIP3   OH2 1761   5.947   2.307   1.178
  603TIP3    H1 1762   6.027   2.282   1.131
  603TIP3    H2 1763   5.948   2.254   1.257
  604TIP3   OH2 1764   5.532   1.706   1.187
  604TIP3    H1 1765   5.549   1.638   1.123
  604TIP3    H2 1766   5.488   1.775   1.137
  605TIP3   OH2 1767   5.562   1.543   0.970
  605TIP3    H1 1768   5.643   1.493   0.956
  605TIP3    H2 1769   5.493   1.476   0.968
  606TIP3   OH2 1770   5.575   2.044   0.906
  606TIP3    H1 1771   5.646   2.010   0.851
  606TIP3    H2 1772   5.522   2.098   0.847
  607TIP3   OH2 1773   6.099   1.941   1.343
  607TIP3    H1 1774   6.095   1.848   1.320
  607TIP3    H2 1775   6.184   1.970   1.310
  608TIP3   OH2 1776   6.177   2.279   1.022
  608TIP3    H1 1777   6.115   2.311   0.956
  608TIP3    H2 1778   6.263   2.291   0.982
  609TIP3   OH2 1779   5.438   1.779   1.439
  609TIP3    H1 1780   5.370   1.716   1.460
  609TIP3    H2 1781   5.464   1.758   1.350
  610TIP3   OH2 1782   5.631   1.228   1.122
  610TIP3    H1 1783   5.694   1.271   1.064
  610TIP3    H2 1784   5.587   1.164   1.066
  611TIP3   OH2 1785   5.785   1.731   1.295
  611TIP3    H1 1786   5.768   1.713   1.387
  611TIP3    H2 1787   5.701   1.713   1.252
  612TIP3   OH2 1788   6.044   1.696   1.205
  612TIP3    H1 1789   5.953   1.684   1.231
  612TIP3    H2 1790   6.094   1.641   1.265
  613TIP3   OH2 1791   6.248   1.588   1.350
  613TIP3    H1 1792   6.293   1.504   1.358
  613TIP3    H2 1793   6.258   1.629   1.436
  614TIP3   OH2 1794   5.273   1.562   1.505
  614TIP3    H1 1795   5.280   1.474   1.467
  614TIP3    H2 1796   5.311   1.554   1.592
  615TIP3   OH2 1797   5.730   1.241   1.373
  615TIP3    H1 1798   5.807   1.186   1.358
  615TIP3    H2 1799   5.686   1.246   1.288
  616TIP3   OH2 1800   5.843   1.459   1.500
  616TIP3    H1 1801   5.811   1.388   1.444
  616TIP3    H2 1802   5.771   1.522   1.503
  617TIP3   OH2 1803   7.146   5.779   6.259
  617TIP3    H1 1804   7.168   5.780   6.166
  617TIP3    H2 1805   7.102   5.695   6.272
  618TIP3   OH2 1806   4.484   2.666   0.222
  618TIP3    H1 1807   4.411   2.612   0.193
  618TIP3    H2 1808   4.523   2.617   0.294
  619TIP3   OH2 1809   4.617   2.539   0.422
  619TIP3    H1 1810   4.608   2.463   0.480
  619TIP3    H2 1811   4.678   2.597   0.468
  620TIP3   OH2 1812   6.287   2.990   0.238
  620TIP3    H1 1813   6.325   2.987   0.326
  620TIP3    H2 1814   6.332   3.063   0.195
  621TIP3   OH2 1815   6.352   2.963   0.512
  621TIP3    H1 1816   6.311   2.876   0.504
  621TIP3    H2 1817   6.431   2.947   0.565
  622TIP3   OH2 1818   6.415   2.662   1.045
  622TIP3    H1 1819   6.348   2.653   1.113
  622TIP3    H2 1820   6.463   2.741   1.069
  623TIP3   OH2 1821   6.373   2.381   0.233
  623TIP3    H1 1822   6.423   2.302   0.214
  623TIP3    H2 1823   6.434   2.453   0.218
  624TIP3   OH2 1824   6.208   2.726   0.504
  624TIP3    H1 1825   6.161   2.770   0.575
  624TIP3    H2 1826   6.142   2.673   0.460
  625TIP3   OH2 1827   4.794   1.949   0.796
  625TIP3    H1 1828   4.785   1.912   0.708
  625TIP3    H2 1829   4.887   1.939   0.816
  626TIP3   OH2 1830   6.427   2.331   0.918
  626TIP3    H1 1831   6.480   2.256   0.946
  626TIP3    H2 1832   6.456   2.348   0.828
  627TIP3   OH2 1833   6.588   2.144   1.014
  627TIP3    H1 1834   6.526   2.073   0.999
  627TIP3    H2 1835   6.670   2.113   0.975
  628TIP3   OH2 1836   6.256   1.877   0.665
  628TIP3    H1 1837   6.226   1.912   0.749
  628TIP3    H2 1838   6.213   1.931   0.600
  629TIP3   OH2 1839   5.012   1.619   1.437
  629TIP3    H1 1840   5.106   1.616   1.455
  629TIP3    H2 1841   4.977   1.538   1.477
  630TIP3   OH2 1842   6.825   1.541   1.266
  630TIP3    H1 1843   6.912   1.510   1.240
  630TIP3    H2 1844   6.790   1.583   1.188
  631TIP3   OH2 1845   4.982   1.345   0.825
  631TIP3    H1 1846   5.028   1.261   0.828
  631TIP3    H2 1847   5.050   1.409   0.802
  632TIP3   OH2 1848   4.772   1.609   0.843
  632TIP3    H1 1849   4.824   1.601   0.763
  632TIP3    H2 1850   4.814   1.679   0.892
  633TIP3   OH2 1851   6.701   1.684   1.066
  633TIP3    H1 1852   6.611   1.711   1.047
  633TIP3    H2 1853   6.734   1.650   0.983
  634TIP3   OH2 1854   4.790   1.235   0.381
  634TIP3    H1 1855   4.719   1.187   0.424
  634TIP3    H2 1856   4.772   1.224   0.287
  635TIP3   OH2 1857   4.961   1.141   1.185
  635TIP3    H1 1858   4.915   1.151   1.268
  635TIP3    H2 1859   4.916   1.202   1.125
  636TIP3   OH2 1860   5.022   2.610   1.257
  636TIP3    H1 1861   4.928   2.604   1.239
  636TIP3    H2 1862   5.029   2.595   1.351
  637TIP3   OH2 1863   5.224   2.662   0.795
  637TIP3    H1 1864   5.171   2.737   0.766
  637TIP3    H2 1865   5.308   2.674   0.750
  638TIP3   OH2 1866   5.630   2.906   0.948
  638TIP3    H1 1867   5.669   2.894   1.034
  638TIP3    H2 1868   5.696   2.952   0.897
  639TIP3   OH2 1869   5.824   3.046   0.812
  639TIP3    H1 1870   5.890   2.990   0.771
  639TIP3    H2 1871   5.874   3.108   0.864
  640TIP3   OH2 1872   4.880   2.911   0.834
  640TIP3    H1 1873   4.789   2.922   0.807
  640TIP3    H2 1874   4.893   2.976   0.903
  641TIP3   OH2 1875   5.116   2.895   0.696
  641TIP3    H1 1876   5.033   2.901   0.744
  641TIP3    H2 1877   5.094   2.922   0.607
  642TIP3   OH2 1878   5.526   2.912   0.473
  642TIP3    H1 1879   5.451   2.924   0.415
  642TIP3    H2 1880   5.534   2.995   0.520
  643TIP3   OH2 1881   5.786   2.848   0.531
  643TIP3    H1 1882   5.696   2.873   0.510
  643TIP3    H2 1883   5.840   2.919   0.496
  644TIP3   OH2 1884   5.979   3.029   0.449
  644TIP3    H1 1885   5.976   3.120   0.420
  644TIP3    H2 1886   5.995   2.979   0.369
  645TIP3   OH2 1887   4.824   2.684   0.541
  645TIP3    H1 1888   4.841   2.652   0.629
  645TIP3    H2 1889   4.892   2.645   0.487
  646TIP3   OH2 1890   5.017   2.568   0.376
  646TIP3    H1 1891   5.012   2.487   0.427
  646TIP3    H2 1892   5.101   2.606   0.400
  647TIP3   OH2 1893   5.274   2.646   0.438
  647TIP3    H1 1894   5.297   2.554   0.422
  647TIP3    H2 1895   5.325   2.670   0.515
  648TIP3   OH2 1896   7.236   6.146   6.394
  648TIP3    H1 1897   7.150   6.136   6.353
  648TIP3    H2 1898   7.228   6.224   6.449
  649TIP3   OH2 1899   5.286   1.298   1.403
  649TIP3    H1 1900   5.256   1.228   1.461
  649TIP3    H2 1901   5.379   1.308   1.424
  650TIP3   OH2 1902   5.525   1.303   1.550
  650TIP3    H1 1903   5.600   1.280   1.495
  650TIP3    H2 1904   5.523   1.235   1.617
  651TIP3   OH2 1905   6.395   1.343   1.354
  651TIP3    H1 1906   6.396   1.321   1.447
  651TIP3    H2 1907   6.464   1.289   1.316
  652TIP3   OH2 1908   6.268   2.928   0.831
  652TIP3    H1 1909   6.189   2.901   0.784
  652TIP3    H2 1910   6.256   3.022   0.845
  653TIP3   OH2 1911   6.781   2.138   0.257
  653TIP3    H1 1912   6.749   2.124   0.346
  653TIP3    H2 1913   6.852   2.203   0.267
  654TIP3   OH2 1914   6.930   2.627   0.407
  654TIP3    H1 1915   6.937   2.696   0.341
  654TIP3    H2 1916   6.839   2.630   0.435
  655TIP3   OH2 1917   7.028   2.336   0.609
  655TIP3    H1 1918   7.107   2.336   0.664
  655TIP3    H2 1919   7.015   2.244   0.586
  656TIP3   OH2 1920   7.038   3.035   0.643
  656TIP3    H1 1921   7.043   2.939   0.640
  656TIP3    H2 1922   6.949   3.054   0.672
  657TIP3   OH2 1923   6.539   2.389   0.679
  657TIP3    H1 1924   6.499   2.403   0.593
  657TIP3    H2 1925   6.632   2.404   0.666
  658TIP3   OH2 1926   6.541   2.595   0.229
  658TIP3    H1 1927   6.514   2.609   0.138
  658TIP3    H2 1928   6.547   2.683   0.266
  659TIP3   OH2 1929   6.684   2.684   0.544
  659TIP3    H1 1930   6.715   2.774   0.555
  659TIP3    H2 1931   6.660   2.657   0.633
  660TIP3   OH2 1932   7.026   2.657   0.868
  660TIP3    H1 1933   7.027   2.696   0.781
  660TIP3    H2 1934   6.933   2.646   0.889
  661TIP3   OH2 1935   6.762   2.172   0.783
  661TIP3    H1 1936   6.793   2.243   0.840
  661TIP3    H2 1937   6.757   2.212   0.696
  662TIP3   OH2 1938   6.567   2.852   0.320
  662TIP3    H1 1939   6.627   2.821   0.388
  662TIP3    H2 1940   6.586   2.945   0.312
  663TIP3   OH2 1941   6.653   3.151   0.692
  663TIP3    H1 1942   6.718   3.155   0.762
  663TIP3    H2 1943   6.622   3.061   0.693
  664TIP3   OH2 1944   7.079   3.197   0.862
  664TIP3    H1 1945   7.156   3.205   0.918
  664TIP3    H2 1946   7.105   3.135   0.794
  665TIP3   OH2 1947   6.760   2.619   0.951
  665TIP3    H1 1948   6.776   2.526   0.969
  665TIP3    H2 1949   6.680   2.620   0.899
  666TIP3   OH2 1950   6.885   2.371   0.942
  666TIP3    H1 1951   6.953   2.313   0.908
  666TIP3    H2 1952   6.902   2.377   1.036
  667TIP3   OH2 1953   6.736   1.916   0.866
  667TIP3    H1 1954   6.774   2.000   0.842
  667TIP3    H2 1955   6.802   1.875   0.922
  668TIP3   OH2 1956   6.801   2.902   0.800
  668TIP3    H1 1957   6.706   2.900   0.788
  668TIP3    H2 1958   6.813   2.918   0.894
  669TIP3   OH2 1959   6.935   2.866   0.265
  669TIP3    H1 1960   6.991   2.942   0.285
  669TIP3    H2 1961   6.920   2.872   0.171
  670TIP3   OH2 1962   6.643   3.125   0.346
  670TIP3    H1 1963   6.559   3.168   0.332
  670TIP3    H2 1964   6.706   3.198   0.348
  671TIP3   OH2 1965   7.749   3.862   1.373
  671TIP3    H1 1966   7.812   3.790   1.373
  671TIP3    H2 1967   7.738   3.884   1.465
  672TIP3   OH2 1968   0.804   2.733   1.736
  672TIP3    H1 1969   0.891   2.773   1.736
  672TIP3    H2 1970   0.801   2.682   1.655
  673TIP3   OH2 1971   0.950   2.915   1.911
  673TIP3    H1 1972   0.860   2.899   1.884
  673TIP3    H2 1973   0.947   2.993   1.965
  674TIP3   OH2 1974   0.339   3.657   1.518
  674TIP3    H1 1975   0.251   3.627   1.538
  674TIP3    H2 1976   0.326   3.733   1.460
  675TIP3   OH2 1977   0.566   3.522   1.853
  675TIP3    H1 1978   0.547   3.456   1.786
  675TIP3    H2 1979   0.549   3.605   1.810
  676TIP3   OH2 1980   0.734   3.194   1.728
  676TIP3    H1 1981   0.657   3.244   1.704
  676TIP3    H2 1982   0.746   3.131   1.656
  677TIP3   OH2 1983   0.442   3.051   2.027
  677TIP3    H1 1984   0.429   3.133   2.075
  677TIP3    H2 1985   0.363   3.042   1.973
  678TIP3   OH2 1986   0.086   3.599   1.605
  678TIP3    H1 1987   0.067   3.682   1.648
  678TIP3    H2 1988   0.073   3.533   1.673
  679TIP3   OH2 1989   7.571   3.603   2.141
  679TIP3    H1 1990   7.599   3.630   2.228
  679TIP3    H2 1991   7.495   3.547   2.156
  680TIP3   OH2 1992   0.786   3.903   1.903
  680TIP3    H1 1993   0.793   3.807   1.910
  680TIP3    H2 1994   0.705   3.924   1.948
  681TIP3   OH2 1995   7.834   3.659   2.058
  681TIP3    H1 1996   7.835   3.754   2.075
  681TIP3    H2 1997   7.743   3.633   2.070
  682TIP3   OH2 1998   0.672   3.016   2.201
  682TIP3    H1 1999   0.607   3.027   2.132
  682TIP3    H2 2000   0.681   2.921   2.209
  683TIP3   OH2 2001   0.501   2.783   2.103
  683TIP3    H1 2002   0.441   2.762   2.175
  683TIP3    H2 2003   0.462   2.861   2.062
  684TIP3   OH2 2004   0.160   2.998   2.326
  684TIP3    H1 2005   0.141   2.928   2.388
  684TIP3    H2 2006   0.253   3.019   2.341
  685TIP3   OH2 2007   0.204   3.020   1.898
  685TIP3    H1 2008   0.157   3.004   1.816
  685TIP3    H2 2009   0.158   2.968   1.963
  686TIP3   OH2 2010   0.503   4.232   1.995
  686TIP3    H1 2011   0.493   4.250   1.901
  686TIP3    H2 2012   0.582   4.279   2.020
  687TIP3   OH2 2013   7.392   3.295   2.488
  687TIP3    H1 2014   7.460   3.344   2.534
  687TIP3    H2 2015   7.310   3.324   2.529
  688TIP3   OH2 2016   0.513   3.347   1.651
  688TIP3    H1 2017   0.562   3.395   1.585
  688TIP3    H2 2018   0.425   3.338   1.614
  689TIP3   OH2 2019   0.022   3.398   2.074
  689TIP3    H1 2020   0.077   3.386   2.152
  689TIP3    H2 2021  -0.006   3.490   2.078
  690TIP3   OH2 2022   7.829   3.135   2.365
  690TIP3    H1 2023   7.764   3.122   2.296
  690TIP3    H2 2024   7.908   3.093   2.331
  691TIP3   OH2 2025   0.179   3.688   1.924
  691TIP3    H1 2026   0.086   3.668   1.938
  691TIP3    H2 2027   0.209   3.722   2.008
  692TIP3   OH2 2028   0.811   3.626   1.925
  692TIP3    H1 2029   0.719   3.601   1.933
  692TIP3    H2 2030   0.840   3.585   1.843
  693TIP3   OH2 2031   7.617   3.745   1.725
  693TIP3    H1 2032   7.658   3.824   1.691
  693TIP3    H2 2033   7.631   3.749   1.820
  694TIP3   OH2 2034   0.079   3.396   1.803
  694TIP3    H1 2035   0.047   3.395   1.892
  694TIP3    H2 2036   0.149   3.330   1.801
  695TIP3   OH2 2037   0.308   3.918   1.838
  695TIP3    H1 2038   0.247   3.845   1.845
  695TIP3    H2 2039   0.282   3.964   1.758
  696TIP3   OH2 2040   0.093   2.868   2.095
  696TIP3    H1 2041   0.116   2.919   2.173
  696TIP3    H2 2042   0.078   2.780   2.128
  697TIP3   OH2 2043   0.744   2.675   2.004
  697TIP3    H1 2044   0.663   2.712   2.038
  697TIP3    H2 2045   0.751   2.709   1.915
  698TIP3   OH2 2046   0.327   3.907   1.389
  698TIP3    H1 2047   0.290   3.956   1.316
  698TIP3    H2 2048   0.422   3.921   1.381
  699TIP3   OH2 2049   7.450   3.887   2.458
  699TIP3    H1 2050   7.545   3.880   2.468
  699TIP3    H2 2051   7.435   3.975   2.426
  700TIP3   OH2 2052   0.253   3.778   2.166
  700TIP3    H1 2053   0.248   3.710   2.233
  700TIP3    H2 2054   0.316   3.841   2.201
  701TIP3   OH2 2055   7.791   3.412   2.371
  701TIP3    H1 2056   7.716   3.379   2.322
  701TIP3    H2 2057   7.857   3.343   2.362
  702TIP3   OH2 2058   0.332   3.461   1.989
  702TIP3    H1 2059   0.413   3.491   1.946
  702TIP3    H2 2060   0.265   3.522   1.958
  703TIP3   OH2 2061   0.206   3.338   2.340
  703TIP3    H1 2062   0.279   3.310   2.285
  703TIP3    H2 2063   0.213   3.284   2.419
  704TIP3   OH2 2064   0.425   3.028   2.408
  704TIP3    H1 2065   0.438   2.936   2.383
  704TIP3    H2 2066   0.506   3.071   2.380
  705TIP3   OH2 2067   0.444   3.296   2.169
  705TIP3    H1 2068   0.391   3.353   2.114
  705TIP3    H2 2069   0.533   3.306   2.136
  706TIP3   OH2 2070   7.597   2.790   2.532
  706TIP3    H1 2071   7.551   2.856   2.584
  706TIP3    H2 2072   7.538   2.770   2.460
  707TIP3   OH2 2073   0.110   2.786   2.490
  707TIP3    H1 2074   0.158   2.775   2.572
  707TIP3    H2 2075   0.019   2.766   2.512
  708TIP3   OH2 2076   0.352   2.758   2.336
  708TIP3    H1 2077   0.270   2.746   2.384
  708TIP3    H2 2078   0.418   2.719   2.392
  709TIP3   OH2 2079   0.563   2.691   2.496
  709TIP3    H1 2080   0.577   2.596   2.505
  709TIP3    H2 2081   0.553   2.722   2.586
  710TIP3   OH2 2082   0.084   2.492   2.674
  710TIP3    H1 2083   0.066   2.438   2.597
  710TIP3    H2 2084   0.013   2.556   2.675
  711TIP3   OH2 2085   0.595   3.967   1.398
  711TIP3    H1 2086   0.625   3.991   1.485
  711TIP3    H2 2087   0.657   4.008   1.338
  712TIP3   OH2 2088   0.626   3.995   1.680
  712TIP3    H1 2089   0.584   3.909   1.681
  712TIP3    H2 2090   0.704   3.984   1.735
  713TIP3   OH2 2091   0.674   3.678   2.262
  713TIP3    H1 2092   0.602   3.691   2.324
  713TIP3    H2 2093   0.720   3.762   2.261
  714TIP3   OH2 2094   0.692   3.468   1.488
  714TIP3    H1 2095   0.733   3.395   1.442
  714TIP3    H2 2096   0.696   3.541   1.425
  715TIP3   OH2 2097   0.497   3.751   1.717
  715TIP3    H1 2098   0.429   3.799   1.763
  715TIP3    H2 2099   0.453   3.713   1.641
  716TIP3   OH2 2100   0.692   3.331   2.050
  716TIP3    H1 2101   0.756   3.267   2.021
  716TIP3    H2 2102   0.673   3.383   1.972
  717TIP3   OH2 2103   0.898   3.134   2.071
  717TIP3    H1 2104   0.829   3.092   2.123
  717TIP3    H2 2105   0.960   3.166   2.136
  718TIP3   OH2 2106   0.571   2.831   1.613
  718TIP3    H1 2107   0.621   2.900   1.569
  718TIP3    H2 2108   0.631   2.796   1.678
  719TIP3   OH2 2109   0.677   2.977   1.893
  719TIP3    H1 2110   0.586   2.990   1.918
  719TIP3    H2 2111   0.695   3.048   1.830
  720TIP3   OH2 2112   1.106   2.566   2.359
  720TIP3    H1 2113   1.163   2.497   2.324
  720TIP3    H2 2114   1.071   2.610   2.281
  721TIP3   OH2 2115   0.960   2.730   2.179
  721TIP3    H1 2116   0.899   2.747   2.251
  721TIP3    H2 2117   0.903   2.711   2.104
  722TIP3   OH2 2118   0.271   3.879   0.986
  722TIP3    H1 2119   0.276   3.801   1.041
  722TIP3    H2 2120   0.238   3.947   1.044
  723TIP3   OH2 2121   7.304   3.759   2.047
  723TIP3    H1 2122   7.255   3.818   1.989
  723TIP3    H2 2123   7.350   3.700   1.988
  724TIP3   OH2 2124   7.857   3.931   2.136
  724TIP3    H1 2125   7.920   3.907   2.204
  724TIP3    H2 2126   7.908   3.982   2.073
  725TIP3   OH2 2127   0.115   4.082   1.969
  725TIP3    H1 2128   0.187   4.031   1.933
  725TIP3    H2 2129   0.157   4.145   2.028
  726TIP3   OH2 2130   7.697   3.989   1.624
  726TIP3    H1 2131   7.617   4.036   1.598
  726TIP3    H2 2132   7.742   4.049   1.683
  727TIP3   OH2 2133   0.049   3.870   1.671
  727TIP3    H1 2134  -0.038   3.909   1.664
  727TIP3    H2 2135   0.109   3.940   1.645
  728TIP3   OH2 2136   0.246   4.055   1.604
  728TIP3    H1 2137   0.244   4.145   1.571
  728TIP3    H2 2138   0.276   4.003   1.530
  729TIP3   OH2 2139   0.624   2.425   2.507
  729TIP3    H1 2140   0.637   2.391   2.595
  729TIP3    H2 2141   0.710   2.419   2.465
  730TIP3   OH2 2142   0.534   3.959   2.005
  730TIP3    H1 2143   0.458   3.931   1.954
  730TIP3    H2 2144   0.526   4.054   2.010
  731TIP3   OH2 2145   1.832   3.370   0.788
  731TIP3    H1 2146   1.795   3.458   0.793
  731TIP3    H2 2147   1.760   3.315   0.756
  732TIP3   OH2 2148   1.820   3.363   1.175
  732TIP3    H1 2149   1.868   3.363   1.258
  732TIP3    H2 2150   1.791   3.272   1.164
  733TIP3   OH2 2151   1.092   3.297   1.538
  733TIP3    H1 2152   1.095   3.240   1.615
  733TIP3    H2 2153   1.181   3.294   1.502
  734TIP3   OH2 2154   2.050   3.660   0.866
  734TIP3    H1 2155   2.046   3.596   0.937
  734TIP3    H2 2156   2.082   3.740   0.908
  735TIP3   OH2 2157   1.079   3.658   1.224
  735TIP3    H1 2158   1.056   3.566   1.237
  735TIP3    H2 2159   1.175   3.658   1.218
  736TIP3   OH2 2160   0.819   3.277   1.101
  736TIP3    H1 2161   0.856   3.196   1.136
  736TIP3    H2 2162   0.879   3.346   1.130
  737TIP3   OH2 2163   1.736   4.094   0.872
  737TIP3    H1 2164   1.767   4.022   0.817
  737TIP3    H2 2165   1.748   4.063   0.961
  738TIP3   OH2 2166   1.612   3.568   1.174
  738TIP3    H1 2167   1.661   3.493   1.141
  738TIP3    H2 2168   1.680   3.629   1.204
  739TIP3   OH2 2169   2.641   2.896   1.194
  739TIP3    H1 2170   2.665   2.977   1.241
  739TIP3    H2 2171   2.679   2.908   1.106
  740TIP3   OH2 2172   2.062   3.084   1.235
  740TIP3    H1 2173   2.105   3.000   1.251
  740TIP3    H2 2174   2.042   3.083   1.141
  741TIP3   OH2 2175   1.261   2.705   1.233
  741TIP3    H1 2176   1.275   2.784   1.181
  741TIP3    H2 2177   1.343   2.656   1.226
  742TIP3   OH2 2178   2.121   2.873   0.851
  742TIP3    H1 2179   2.170   2.845   0.928
  742TIP3    H2 2180   2.182   2.864   0.778
  743TIP3   OH2 2181   0.958   2.829   1.433
  743TIP3    H1 2182   1.034   2.886   1.421
  743TIP3    H2 2183   0.924   2.816   1.344
  744TIP3   OH2 2184   1.447   3.209   1.174
  744TIP3    H1 2185   1.540   3.228   1.175
  744TIP3    H2 2186   1.436   3.145   1.103
  745TIP3   OH2 2187   2.712   3.109   1.355
  745TIP3    H1 2188   2.622   3.141   1.358
  745TIP3    H2 2189   2.751   3.141   1.436
  746TIP3   OH2 2190   1.386   2.675   1.711
  746TIP3    H1 2191   1.344   2.715   1.635
  746TIP3    H2 2192   1.327   2.694   1.784
  747TIP3   OH2 2193   1.668   3.588   0.737
  747TIP3    H1 2194   1.673   3.566   0.644
  747TIP3    H2 2195   1.630   3.676   0.739
  748TIP3   OH2 2196   1.477   3.509   1.409
  748TIP3    H1 2197   1.413   3.578   1.431
  748TIP3    H2 2198   1.518   3.540   1.328
  749TIP3   OH2 2199   2.278   2.823   1.058
  749TIP3    H1 2200   2.241   2.810   1.145
  749TIP3    H2 2201   2.332   2.901   1.066
  750TIP3   OH2 2202   1.275   2.791   1.496
  750TIP3    H1 2203   1.326   2.868   1.469
  750TIP3    H2 2204   1.272   2.737   1.417
  751TIP3   OH2 2205   1.288   3.687   1.491
  751TIP3    H1 2206   1.277   3.777   1.461
  751TIP3    H2 2207   1.211   3.671   1.546
  752TIP3   OH2 2208   2.110   3.906   0.987
  752TIP3    H1 2209   2.022   3.899   1.024
  752TIP3    H2 2210   2.109   3.988   0.938
  753TIP3   OH2 2211   2.437   2.782   1.359
  753TIP3    H1 2212   2.348   2.806   1.330
  753TIP3    H2 2213   2.494   2.814   1.289
  754TIP3   OH2 2214   1.693   2.476   1.506
  754TIP3    H1 2215   1.637   2.403   1.480
  754TIP3    H2 2216   1.658   2.551   1.458
  755TIP3   OH2 2217   1.822   3.936   0.657
  755TIP3    H1 2218   1.855   3.847   0.645
  755TIP3    H2 2219   1.895   3.992   0.627
  756TIP3   OH2 2220   1.941   3.700   0.622
  756TIP3    H1 2221   2.009   3.655   0.571
  756TIP3    H2 2222   1.965   3.682   0.713
  757TIP3   OH2 2223   2.348   3.789   1.332
  757TIP3    H1 2224   2.332   3.715   1.274
  757TIP3    H2 2225   2.329   3.866   1.278
  758TIP3   OH2 2226   1.618   3.230   0.676
  758TIP3    H1 2227   1.537   3.276   0.653
  758TIP3    H2 2228   1.607   3.143   0.637
  759TIP3   OH2 2229   2.527   3.444   1.193
  759TIP3    H1 2230   2.443   3.489   1.193
  759TIP3    H2 2231   2.561   3.455   1.104
  760TIP3   OH2 2232   2.020   3.288   0.605
  760TIP3    H1 2233   1.955   3.316   0.670
  760TIP3    H2 2234   2.098   3.268   0.656
  761TIP3   OH2 2235   2.226   3.314   1.501
  761TIP3    H1 2236   2.226   3.396   1.551
  761TIP3    H2 2237   2.142   3.314   1.455
  762TIP3   OH2 2238   1.212   3.314   1.064
  762TIP3    H1 2239   1.178   3.244   1.008
  762TIP3    H2 2240   1.297   3.282   1.094
  763TIP3   OH2 2241   1.350   3.678   1.133
  763TIP3    H1 2242   1.316   3.664   1.044
  763TIP3    H2 2243   1.438   3.640   1.131
  764TIP3   OH2 2244   1.338   3.277   1.416
  764TIP3    H1 2245   1.362   3.256   1.325
  764TIP3    H2 2246   1.384   3.359   1.434
  765TIP3   OH2 2247   1.869   3.900   1.110
  765TIP3    H1 2248   1.842   3.980   1.154
  765TIP3    H2 2249   1.853   3.830   1.173
  766TIP3   OH2 2250   1.492   3.788   1.654
  766TIP3    H1 2251   1.433   3.847   1.700
  766TIP3    H2 2252   1.435   3.736   1.597
  767TIP3   OH2 2253   1.907   3.159   0.385
  767TIP3    H1 2254   1.918   3.206   0.468
  767TIP3    H2 2255   1.991   3.170   0.340
  768TIP3   OH2 2256   1.251   3.337   1.823
  768TIP3    H1 2257   1.253   3.433   1.832
  768TIP3    H2 2258   1.158   3.316   1.813
  769TIP3   OH2 2259   1.559   3.849   0.671
  769TIP3    H1 2260   1.650   3.878   0.673
  769TIP3    H2 2261   1.515   3.913   0.614
  770TIP3   OH2 2262   1.283   3.946   1.738
  770TIP3    H1 2263   1.257   3.956   1.647
  770TIP3    H2 2264   1.200   3.928   1.784
  771TIP3   OH2 2265   2.399   2.411   0.389
  771TIP3    H1 2266   2.382   2.503   0.408
  771TIP3    H2 2267   2.331   2.385   0.328
  772TIP3   OH2 2268   2.198   3.748   0.039
  772TIP3    H1 2269   2.182   3.831  -0.007
  772TIP3    H2 2270   2.271   3.709  -0.009
  773TIP3   OH2 2271   0.876   3.493   1.695
  773TIP3    H1 2272   0.808   3.491   1.628
  773TIP3    H2 2273   0.917   3.407   1.690
  774TIP3   OH2 2274   0.745   3.691   1.330
  774TIP3    H1 2275   0.839   3.703   1.312
  774TIP3    H2 2276   0.720   3.769   1.379
  775TIP3   OH2 2277   2.575   4.149   1.392
  775TIP3    H1 2278   2.582   4.055   1.402
  775TIP3    H2 2279   2.494   4.173   1.438
  776TIP3   OH2 2280   1.683   3.931   1.516
  776TIP3    H1 2281   1.674   4.023   1.542
  776TIP3    H2 2282   1.614   3.885   1.565
  777TIP3   OH2 2283   1.432   4.047   0.498
  777TIP3    H1 2284   1.425   4.032   0.403
  777TIP3    H2 2285   1.410   4.140   0.509
  778TIP3   OH2 2286   0.910   3.916   0.861
  778TIP3    H1 2287   0.951   3.911   0.947
  778TIP3    H2 2288   0.862   3.833   0.852
  779TIP3   OH2 2289   1.654   3.879  -0.005
  779TIP3    H1 2290   1.735   3.848   0.036
  779TIP3    H2 2291   1.659   3.974   0.000
  780TIP3   OH2 2292   1.699   4.113   0.486
  780TIP3    H1 2293   1.608   4.086   0.486
  780TIP3    H2 2294   1.744   4.048   0.540
  781TIP3   OH2 2295   2.469   3.260   1.661
  781TIP3    H1 2296   2.387   3.270   1.612
  781TIP3    H2 2297   2.489   3.167   1.656
  782TIP3   OH2 2298   1.076   3.682   1.665
  782TIP3    H1 2299   1.124   3.674   1.748
  782TIP3    H2 2300   1.004   3.620   1.673
  783TIP3   OH2 2301   1.399   2.520   1.448
  783TIP3    H1 2302   1.418   2.427   1.456
  783TIP3    H2 2303   1.403   2.554   1.538
  784TIP3   OH2 2304   2.012   2.638   1.698
  784TIP3    H1 2305   2.082   2.607   1.755
  784TIP3    H2 2306   1.932   2.613   1.742
  785TIP3   OH2 2307   2.236   3.050   1.579
  785TIP3    H1 2308   2.198   3.046   1.667
  785TIP3    H2 2309   2.218   3.139   1.549
  786TIP3   OH2 2310   1.948   3.223   0.059
  786TIP3    H1 2311   1.903   3.251  -0.021
  786TIP3    H2 2312   2.024   3.280   0.065
  787TIP3   OH2 2313   1.439   3.062   1.578
  787TIP3    H1 2314   1.361   3.049   1.631
  787TIP3    H2 2315   1.421   3.142   1.528
  788TIP3   OH2 2316   1.248   2.977   1.025
  788TIP3    H1 2317   1.156   2.961   1.007
  788TIP3    H2 2318   1.293   2.900   0.990
  789TIP3   OH2 2319   1.572   2.988   0.553
  789TIP3    H1 2320   1.491   2.954   0.590
  789TIP3    H2 2321   1.622   2.910   0.529
  790TIP3   OH2 2322   1.962   3.248   1.801
  790TIP3    H1 2323   1.944   3.176   1.862
  790TIP3    H2 2324   2.052   3.274   1.821
  791TIP3   OH2 2325   2.012   3.096   0.964
  791TIP3    H1 2326   1.943   3.126   0.904
  791TIP3    H2 2327   2.049   3.019   0.921
  792TIP3   OH2 2328   1.187   3.042   1.695
  792TIP3    H1 2329   1.153   3.099   1.764
  792TIP3    H2 2330   1.182   2.954   1.732
  793TIP3   OH2 2331   1.966   3.275   1.398
  793TIP3    H1 2332   2.001   3.213   1.334
  793TIP3    H2 2333   1.926   3.220   1.466
  794TIP3   OH2 2334   1.615   2.692   1.008
  794TIP3    H1 2335   1.580   2.629   1.071
  794TIP3    H2 2336   1.641   2.767   1.061
  795TIP3   OH2 2337   2.154   2.824   1.303
  795TIP3    H1 2338   2.124   2.847   1.391
  795TIP3    H2 2339   2.087   2.766   1.268
  796TIP3   OH2 2340   2.293   4.486   1.483
  796TIP3    H1 2341   2.287   4.502   1.389
  796TIP3    H2 2342   2.372   4.533   1.510
  797TIP3   OH2 2343   1.227   3.600   1.902
  797TIP3    H1 2344   1.310   3.623   1.944
  797TIP3    H2 2345   1.161   3.615   1.969
  798TIP3   OH2 2346   1.740   3.103   1.212
  798TIP3    H1 2347   1.799   3.040   1.170
  798TIP3    H2 2348   1.728   3.068   1.300
  799TIP3   OH2 2349   1.669   2.977   1.452
  799TIP3    H1 2350   1.589   3.009   1.492
  799TIP3    H2 2351   1.739   3.018   1.502
  800TIP3   OH2 2352   1.373   3.341   0.611
  800TIP3    H1 2353   1.296   3.284   0.616
  800TIP3    H2 2354   1.365   3.399   0.686
  801TIP3   OH2 2355   2.298   3.590   1.154
  801TIP3    H1 2356   2.333   3.636   1.077
  801TIP3    H2 2357   2.214   3.555   1.125
  802TIP3   OH2 2358   1.810   3.663   1.557
  802TIP3    H1 2359   1.863   3.652   1.635
  802TIP3    H2 2360   1.771   3.750   1.567
  803TIP3   OH2 2361   2.054   2.793   0.367
  803TIP3    H1 2362   2.076   2.870   0.420
  803TIP3    H2 2363   1.976   2.819   0.318
  804TIP3   OH2 2364   1.035   3.383   1.255
  804TIP3    H1 2365   1.100   3.360   1.189
  804TIP3    H2 2366   1.076   3.361   1.339
  805TIP3   OH2 2367   1.588   3.515   0.481
  805TIP3    H1 2368   1.564   3.601   0.448
  805TIP3    H2 2369   1.509   3.481   0.523
  806TIP3   OH2 2370   0.993   3.232   1.820
  806TIP3    H1 2371   0.984   3.221   1.915
  806TIP3    H2 2372   0.906   3.213   1.786
  807TIP3   OH2 2373   1.735   3.420   1.844
  807TIP3    H1 2374   1.663   3.362   1.821
  807TIP3    H2 2375   1.814   3.376   1.811
  808TIP3   OH2 2376   1.950   3.950   1.435
  808TIP3    H1 2377   1.856   3.935   1.440
  808TIP3    H2 2378   1.972   3.990   1.519
  809TIP3   OH2 2379   2.307   2.992   0.317
  809TIP3    H1 2380   2.245   2.948   0.259
  809TIP3    H2 2381   2.276   3.083   0.319
  810TIP3   OH2 2382   2.595   3.873   1.410
  810TIP3    H1 2383   2.501   3.854   1.409
  810TIP3    H2 2384   2.628   3.839   1.327
  811TIP3   OH2 2385   2.122   3.812   0.295
  811TIP3    H1 2386   2.095   3.735   0.346
  811TIP3    H2 2387   2.142   3.777   0.208
  812TIP3   OH2 2388   2.061   3.472   1.069
  812TIP3    H1 2389   1.973   3.436   1.083
  812TIP3    H2 2390   2.113   3.398   1.038
  813TIP3   OH2 2391   1.191   3.686   0.902
  813TIP3    H1 2392   1.188   3.769   0.853
  813TIP3    H2 2393   1.099   3.663   0.914
  814TIP3   OH2 2394   1.349   3.460   0.860
  814TIP3    H1 2395   1.326   3.552   0.850
  814TIP3    H2 2396   1.291   3.428   0.929
  815TIP3   OH2 2397   1.494   4.023   1.319
  815TIP3    H1 2398   1.520   4.111   1.294
  815TIP3    H2 2399   1.571   3.987   1.363
  816TIP3   OH2 2400   1.142   3.915   0.720
  816TIP3    H1 2401   1.057   3.923   0.763
  816TIP3    H2 2402   1.184   3.999   0.734
  817TIP3   OH2 2403   1.845   3.677   1.282
  817TIP3    H1 2404   1.835   3.668   1.377
  817TIP3    H2 2405   1.925   3.627   1.262
  818TIP3   OH2 2406   1.924   3.527   0.070
  818TIP3    H1 2407   1.963   3.524   0.157
  818TIP3    H2 2408   1.841   3.480   0.079
  819TIP3   OH2 2409   2.093   4.166   1.328
  819TIP3    H1 2410   2.027   4.098   1.343
  819TIP3    H2 2411   2.058   4.218   1.256
  820TIP3   OH2 2412   7.431   0.294   6.414
  820TIP3    H1 2413   7.478   0.376   6.395
  820TIP3    H2 2414   7.343   0.322   6.439
  821TIP3   OH2 2415   1.197   2.786   1.900
  821TIP3    H1 2416   1.103   2.804   1.900
  821TIP3    H2 2417   1.208   2.714   1.963
  822TIP3   OH2 2418   2.130   3.541   0.507
  822TIP3    H1 2419   2.127   3.468   0.569
  822TIP3    H2 2420   2.208   3.524   0.454
  823TIP3   OH2 2421   0.902   3.911   1.482
  823TIP3    H1 2422   0.965   3.856   1.530
  823TIP3    H2 2423   0.922   4.000   1.510
  824TIP3   OH2 2424   1.217   3.594   0.401
  824TIP3    H1 2425   1.277   3.639   0.459
  824TIP3    H2 2426   1.140   3.651   0.395
  825TIP3   OH2 2427   2.032   2.863   1.547
  825TIP3    H1 2428   2.112   2.903   1.582
  825TIP3    H2 2429   2.021   2.783   1.598
  826TIP3   OH2 2430   2.001   2.704   0.678
  826TIP3    H1 2431   1.957   2.759   0.614
  826TIP3    H2 2432   2.034   2.766   0.744
  827TIP3   OH2 2433   1.474   3.754   0.389
  827TIP3    H1 2434   1.427   3.710   0.318
  827TIP3    H2 2435   1.495   3.840   0.354
  828TIP3   OH2 2436   1.544   2.701   0.665
  828TIP3    H1 2437   1.629   2.721   0.703
  828TIP3    H2 2438   1.494   2.661   0.736
  829TIP3   OH2 2439   1.879   3.092   1.584
  829TIP3    H1 2440   1.909   3.137   1.663
  829TIP3    H2 2441   1.933   3.012   1.580
  830TIP3   OH2 2442   1.880   2.538   0.914
  830TIP3    H1 2443   1.801   2.485   0.916
  830TIP3    H2 2444   1.933   2.500   0.844
  831TIP3   OH2 2445   1.035   3.792   0.488
  831TIP3    H1 2446   1.076   3.840   0.416
  831TIP3    H2 2447   1.070   3.833   0.567
  832TIP3   OH2 2448   2.497   2.984   1.574
  832TIP3    H1 2449   2.403   2.998   1.572
  832TIP3    H2 2450   2.513   2.912   1.513
  833TIP3   OH2 2451   2.224   3.257   0.995
  833TIP3    H1 2452   2.145   3.204   0.990
  833TIP3    H2 2453   2.287   3.202   1.040
  834TIP3   OH2 2454   2.129   4.167   0.895
  834TIP3    H1 2455   2.086   4.217   0.826
  834TIP3    H2 2456   2.222   4.179   0.879
  835TIP3   OH2 2457   0.795   3.674   0.831
  835TIP3    H1 2458   0.708   3.642   0.855
  835TIP3    H2 2459   0.803   3.651   0.738
  836TIP3   OH2 2460   0.923   4.198   1.887
  836TIP3    H1 2461   1.006   4.200   1.936
  836TIP3    H2 2462   0.905   4.105   1.874
  837TIP3   OH2 2463   1.385   4.118   1.927
  837TIP3    H1 2464   1.476   4.091   1.939
  837TIP3    H2 2465   1.353   4.061   1.857
  838TIP3   OH2 2466   1.402   3.798   0.043
  838TIP3    H1 2467   1.398   3.712   0.084
  838TIP3    H2 2468   1.495   3.810   0.021
  839TIP3   OH2 2469   2.005   4.058   1.679
  839TIP3    H1 2470   2.005   3.983   1.738
  839TIP3    H2 2471   2.081   4.110   1.705
  840TIP3   OH2 2472   1.911   3.824   0.067
  840TIP3    H1 2473   1.936   3.732   0.080
  840TIP3    H2 2474   1.931   3.842  -0.025
  841TIP3   OH2 2475   1.026   3.594   2.094
  841TIP3    H1 2476   1.032   3.500   2.105
  841TIP3    H2 2477   0.944   3.607   2.045
  842TIP3   OH2 2478   1.645   3.686   1.860
  842TIP3    H1 2479   1.603   3.707   1.776
  842TIP3    H2 2480   1.689   3.603   1.845
  843TIP3   OH2 2481   1.487   3.323   0.086
  843TIP3    H1 2482   1.576   3.340   0.117
  843TIP3    H2 2483   1.436   3.308   0.165
  844TIP3   OH2 2484   2.119   3.726   1.475
  844TIP3    H1 2485   2.198   3.756   1.429
  844TIP3    H2 2486   2.054   3.793   1.458
  845TIP3   OH2 2487   1.128   3.323   2.093
  845TIP3    H1 2488   1.197   3.330   2.027
  845TIP3    H2 2489   1.171   3.350   2.175
  846TIP3   OH2 2490   1.519   3.257   1.785
  846TIP3    H1 2491   1.427   3.284   1.791
  846TIP3    H2 2492   1.541   3.270   1.693
  847TIP3   OH2 2493   2.008   3.590   1.823
  847TIP3    H1 2494   2.082   3.558   1.771
  847TIP3    H2 2495   2.011   3.539   1.903
  848TIP3   OH2 2496   2.177   3.375   0.070
  848TIP3    H1 2497   2.222   3.308   0.019
  848TIP3    H2 2498   2.199   3.457   0.027
  849TIP3   OH2 2499   1.632   3.018   1.863
  849TIP3    H1 2500   1.631   2.949   1.797
  849TIP3    H2 2501   1.591   3.093   1.820
  850TIP3   OH2 2502   1.629   2.803   1.684
  850TIP3    H1 2503   1.640   2.828   1.592
  850TIP3    H2 2504   1.544   2.759   1.687
  851TIP3   OH2 2505   1.628   3.323   1.541
  851TIP3    H1 2506   1.721   3.339   1.526
  851TIP3    H2 2507   1.584   3.396   1.497
  852TIP3   OH2 2508   2.230   3.290   1.898
  852TIP3    H1 2509   2.282   3.209   1.899
  852TIP3    H2 2510   2.294   3.360   1.889
  853TIP3   OH2 2511   2.242   3.554   1.645
  853TIP3    H1 2512   2.189   3.614   1.593
  853TIP3    H2 2513   2.332   3.568   1.614
  854TIP3   OH2 2514   1.563   3.004   2.123
  854TIP3    H1 2515   1.484   3.055   2.138
  854TIP3    H2 2516   1.586   3.021   2.032
  855TIP3   OH2 2517   1.751   2.570   1.763
  855TIP3    H1 2518   1.713   2.655   1.743
  855TIP3    H2 2519   1.730   2.516   1.687
  856TIP3   OH2 2520   1.891   3.026   1.956
  856TIP3    H1 2521   1.898   3.054   2.048
  856TIP3    H2 2522   1.798   3.035   1.936
  857TIP3   OH2 2523   2.125   2.989   1.815
  857TIP3    H1 2524   2.046   2.986   1.869
  857TIP3    H2 2525   2.197   2.968   1.876
  858TIP3   OH2 2526   2.340   2.949   1.984
  858TIP3    H1 2527   2.361   2.856   1.991
  858TIP3    H2 2528   2.336   2.980   2.074
  859TIP3   OH2 2529   1.390   2.809   2.221
  859TIP3    H1 2530   1.354   2.728   2.186
  859TIP3    H2 2531   1.315   2.868   2.226
  860TIP3   OH2 2532   1.811   2.548   2.027
  860TIP3    H1 2533   1.880   2.481   2.029
  860TIP3    H2 2534   1.780   2.548   1.936
  861TIP3   OH2 2535   1.774   2.807   2.104
  861TIP3    H1 2536   1.798   2.719   2.078
  861TIP3    H2 2537   1.826   2.864   2.048
  862TIP3   OH2 2538   1.151   3.878   0.255
  862TIP3    H1 2539   1.167   3.972   0.247
  862TIP3    H2 2540   1.061   3.867   0.223
  863TIP3   OH2 2541   0.517   3.964   0.886
  863TIP3    H1 2542   0.426   3.933   0.888
  863TIP3    H2 2543   0.563   3.910   0.951
  864TIP3   OH2 2544   0.637   3.831   1.095
  864TIP3    H1 2545   0.642   3.756   1.154
  864TIP3    H2 2546   0.696   3.896   1.133
  865TIP3   OH2 2547   2.402   4.211   0.887
  865TIP3    H1 2548   2.421   4.231   0.979
  865TIP3    H2 2549   2.453   4.275   0.838
  866TIP3   OH2 2550   2.427   4.234   1.165
  866TIP3    H1 2551   2.375   4.154   1.165
  866TIP3    H2 2552   2.495   4.219   1.231
  867TIP3   OH2 2553   2.463   3.940   1.752
  867TIP3    H1 2554   2.393   3.950   1.817
  867TIP3    H2 2555   2.508   4.025   1.753
  868TIP3   OH2 2556   2.335   3.465   0.340
  868TIP3    H1 2557   2.388   3.536   0.305
  868TIP3    H2 2558   2.384   3.434   0.416
  869TIP3   OH2 2559   2.430   3.362   0.564
  869TIP3    H1 2560   2.375   3.317   0.628
  869TIP3    H2 2561   2.512   3.378   0.610
  870TIP3   OH2 2562   2.470   3.722   0.981
  870TIP3    H1 2563   2.523   3.653   0.941
  870TIP3    H2 2564   2.472   3.793   0.918
  871TIP3   OH2 2565   2.273   4.008   1.183
  871TIP3    H1 2566   2.205   4.053   1.232
  871TIP3    H2 2567   2.227   3.966   1.110
  872TIP3   OH2 2568   2.429   3.249   0.192
  872TIP3    H1 2569   2.365   3.210   0.133
  872TIP3    H2 2570   2.384   3.324   0.230
  873TIP3   OH2 2571   2.128   2.905   0.114
  873TIP3    H1 2572   2.034   2.917   0.100
  873TIP3    H2 2573   2.138   2.811   0.130
  874TIP3   OH2 2574   2.255   3.221   0.724
  874TIP3    H1 2575   2.303   3.140   0.709
  874TIP3    H2 2576   2.257   3.234   0.818
  875TIP3   OH2 2577   0.848   3.247   1.421
  875TIP3    H1 2578   0.867   3.269   1.330
  875TIP3    H2 2579   0.930   3.264   1.468
  876TIP3   OH2 2580   2.498   3.593   1.545
  876TIP3    H1 2581   2.566   3.527   1.531
  876TIP3    H2 2582   2.504   3.651   1.469
  877TIP3   OH2 2583   2.679   3.385   1.539
  877TIP3    H1 2584   2.605   3.342   1.581
  877TIP3    H2 2585   2.755   3.330   1.560
  878TIP3   OH2 2586   2.371   3.005   0.589
  878TIP3    H1 2587   2.364   2.917   0.627
  878TIP3    H2 2588   2.370   2.991   0.495
  879TIP3   OH2 2589   2.391   3.068   1.107
  879TIP3    H1 2590   2.472   3.087   1.060
  879TIP3    H2 2591   2.406   3.102   1.195
  880TIP3   OH2 2592   2.449   3.219   1.333
  880TIP3    H1 2593   2.372   3.248   1.382
  880TIP3    H2 2594   2.479   3.297   1.287
  881TIP3   OH2 2595   1.145   2.939   2.164
  881TIP3    H1 2596   1.154   2.935   2.069
  881TIP3    H2 2597   1.079   2.872   2.184
  882TIP3   OH2 2598   2.906   2.781   1.846
  882TIP3    H1 2599   2.950   2.716   1.791
  882TIP3    H2 2600   2.872   2.845   1.784
  883TIP3   OH2 2601   2.284   2.757   0.653
  883TIP3    H1 2602   2.341   2.693   0.695
  883TIP3    H2 2603   2.220   2.704   0.605
  884TIP3   OH2 2604   1.096   2.592   1.617
  884TIP3    H1 2605   1.114   2.521   1.555
  884TIP3    H2 2606   1.131   2.671   1.574
  885TIP3   OH2 2607   0.776   3.006   1.535
  885TIP3    H1 2608   0.833   2.934   1.508
  885TIP3    H2 2609   0.795   3.077   1.474
  886TIP3   OH2 2610   2.756   2.937   1.674
  886TIP3    H1 2611   2.670   2.976   1.691
  886TIP3    H2 2612   2.737   2.857   1.625
  887TIP3   OH2 2613   2.426   2.479   0.109
  887TIP3    H1 2614   2.487   2.468   0.182
  887TIP3    H2 2615   2.356   2.534   0.144
  888TIP3   OH2 2616   1.998   4.104   0.539
  888TIP3    H1 2617   2.051   4.105   0.459
  888TIP3    H2 2618   2.023   4.185   0.585
  889TIP3   OH2 2619   0.959   2.506   1.842
  889TIP3    H1 2620   1.044   2.471   1.868
  889TIP3    H2 2621   0.974   2.544   1.756
  890TIP3   OH2 2622   1.063   3.912   1.905
  890TIP3    H1 2623   0.968   3.900   1.900
  890TIP3    H2 2624   1.080   3.923   1.999
  891TIP3   OH2 2625   1.264   3.957   1.458
  891TIP3    H1 2626   1.198   4.008   1.411
  891TIP3    H2 2627   1.347   3.983   1.419
  892TIP3   OH2 2628   1.663   4.202   1.578
  892TIP3    H1 2629   1.693   4.199   1.669
  892TIP3    H2 2630   1.732   4.249   1.532
  893TIP3   OH2 2631   1.896   4.323   1.490
  893TIP3    H1 2632   1.970   4.273   1.455
  893TIP3    H2 2633   1.936   4.396   1.536
  894TIP3   OH2 2634   2.677   2.693   1.574
  894TIP3    H1 2635   2.614   2.631   1.538
  894TIP3    H2 2636   2.759   2.643   1.579
  895TIP3   OH2 2637   0.917   4.195   1.516
  895TIP3    H1 2638   0.829   4.226   1.492
  895TIP3    H2 2639   0.953   4.266   1.569
  896TIP3   OH2 2640   1.097   4.116   1.320
  896TIP3    H1 2641   1.034   4.158   1.378
  896TIP3    H2 2642   1.110   4.179   1.249
  897TIP3   OH2 2643   1.545   4.275   1.208
  897TIP3    H1 2644   1.485   4.273   1.134
  897TIP3    H2 2645   1.520   4.354   1.256
  898TIP3   OH2 2646   1.803   4.159   1.180
  898TIP3    H1 2647   1.719   4.202   1.196
  898TIP3    H2 2648   1.861   4.230   1.152
  899TIP3   OH2 2649   2.037   4.324   1.104
  899TIP3    H1 2650   2.032   4.410   1.064
  899TIP3    H2 2651   2.064   4.266   1.032
  900TIP3   OH2 2652   0.829   3.989   1.226
  900TIP3    H1 2653   0.855   3.971   1.317
  900TIP3    H2 2654   0.906   3.966   1.174
  901TIP3   OH2 2655   1.048   3.895   1.093
  901TIP3    H1 2656   1.056   3.811   1.139
  901TIP3    H2 2657   1.132   3.937   1.105
  902TIP3   OH2 2658   1.322   3.959   1.111
  902TIP3    H1 2659   1.335   3.864   1.108
  902TIP3    H2 2660   1.377   3.988   1.185
  903TIP3   OH2 2661   1.957   2.672   1.196
  903TIP3    H1 2662   1.885   2.609   1.202
  903TIP3    H2 2663   2.025   2.626   1.146
  904TIP3   OH2 2664   2.417   2.513   1.130
  904TIP3    H1 2665   2.465   2.584   1.087
  904TIP3    H2 2666   2.325   2.537   1.122
  905TIP3   OH2 2667   2.554   2.680   0.971
  905TIP3    H1 2668   2.526   2.633   0.893
  905TIP3    H2 2669   2.564   2.771   0.942
  906TIP3   OH2 2670   1.464   2.531   1.166
  906TIP3    H1 2671   1.482   2.444   1.130
  906TIP3    H2 2672   1.504   2.530   1.253
  907TIP3   OH2 2673   2.148   2.521   1.079
  907TIP3    H1 2674   2.133   2.514   0.985
  907TIP3    H2 2675   2.101   2.446   1.116
  908TIP3   OH2 2676   1.957   2.412   0.591
  908TIP3    H1 2677   2.009   2.385   0.667
  908TIP3    H2 2678   1.971   2.343   0.527
  909TIP3   OH2 2679   1.455   3.998   0.231
  909TIP3    H1 2680   1.526   4.035   0.177
  909TIP3    H2 2681   1.411   3.936   0.173
  910TIP3   OH2 2682   2.126   4.083   0.291
  910TIP3    H1 2683   2.126   3.987   0.296
  910TIP3    H2 2684   2.075   4.102   0.212
  911TIP3   OH2 2685   1.299   2.590   2.085
  911TIP3    H1 2686   1.269   2.514   2.136
  911TIP3    H2 2687   1.373   2.557   2.035
  912TIP3   OH2 2688   1.600   2.617   2.209
  912TIP3    H1 2689   1.670   2.567   2.165
  912TIP3    H2 2690   1.566   2.557   2.275
  913TIP3   OH2 2691   2.412   2.681   1.988
  913TIP3    H1 2692   2.428   2.655   2.079
  913TIP3    H2 2693   2.498   2.671   1.945
  914TIP3   OH2 2694   2.322   4.211   1.488
  914TIP3    H1 2695   2.246   4.182   1.439
  914TIP3    H2 2696   2.311   4.306   1.497
  915TIP3   OH2 2697   3.601   3.589   0.239
  915TIP3    H1 2698   3.573   3.679   0.224
  915TIP3    H2 2699   3.525   3.536   0.214
  916TIP3   OH2 2700   3.606   3.594   0.651
  916TIP3    H1 2701   3.656   3.576   0.730
  916TIP3    H2 2702   3.559   3.512   0.634
  917TIP3   OH2 2703   2.902   3.461   1.004
  917TIP3    H1 2704   2.939   3.402   1.070
  917TIP3    H2 2705   2.975   3.482   0.946
  918TIP3   OH2 2706   3.882   3.893   0.327
  918TIP3    H1 2707   3.861   3.828   0.394
  918TIP3    H2 2708   3.895   3.975   0.375
  919TIP3   OH2 2709   2.896   3.882   0.675
  919TIP3    H1 2710   2.876   3.789   0.685
  919TIP3    H2 2711   2.991   3.886   0.672
  920TIP3   OH2 2712   2.628   3.112   0.580
  920TIP3    H1 2713   2.540   3.086   0.608
  920TIP3    H2 2714   2.621   3.122   0.485
  921TIP3   OH2 2715   2.667   3.419   0.693
  921TIP3    H1 2716   2.714   3.340   0.718
  921TIP3    H2 2717   2.735   3.483   0.675
  922TIP3   OH2 2718   3.523   4.324   0.343
  922TIP3    H1 2719   3.550   4.254   0.284
  922TIP3    H2 2720   3.526   4.284   0.430
  923TIP3   OH2 2721   3.410   3.816   0.654
  923TIP3    H1 2722   3.453   3.736   0.624
  923TIP3    H2 2723   3.481   3.870   0.688
  924TIP3   OH2 2724   4.438   3.142   0.675
  924TIP3    H1 2725   4.455   3.222   0.724
  924TIP3    H2 2726   4.461   3.164   0.585
  925TIP3   OH2 2727   3.821   3.305   0.690
  925TIP3    H1 2728   3.849   3.218   0.719
  925TIP3    H2 2729   3.777   3.290   0.607
  926TIP3   OH2 2730   3.188   2.973   0.644
  926TIP3    H1 2731   3.161   3.049   0.593
  926TIP3    H2 2732   3.137   2.901   0.608
  927TIP3   OH2 2733   3.860   3.061   0.299
  927TIP3    H1 2734   3.925   3.054   0.369
  927TIP3    H2 2735   3.909   3.101   0.226
  928TIP3   OH2 2736   2.797   3.196   0.793
  928TIP3    H1 2737   2.883   3.156   0.808
  928TIP3    H2 2738   2.762   3.148   0.717
  929TIP3   OH2 2739   3.222   3.389   0.601
  929TIP3    H1 2740   3.316   3.372   0.607
  929TIP3    H2 2741   3.185   3.308   0.566
  930TIP3   OH2 2742   4.495   3.361   0.837
  930TIP3    H1 2743   4.404   3.392   0.835
  930TIP3    H2 2744   4.527   3.387   0.923
  931TIP3   OH2 2745   3.160   2.972   1.104
  931TIP3    H1 2746   3.103   3.000   1.032
  931TIP3    H2 2747   3.107   2.983   1.183
  932TIP3   OH2 2748   3.470   3.808   0.135
  932TIP3    H1 2749   3.456   3.789   0.042
  932TIP3    H2 2750   3.423   3.890   0.151
  933TIP3   OH2 2751   3.245   3.743   0.865
  933TIP3    H1 2752   3.191   3.815   0.899
  933TIP3    H2 2753   3.293   3.782   0.792
  934TIP3   OH2 2754   4.032   3.078   0.511
  934TIP3    H1 2755   3.984   3.059   0.592
  934TIP3    H2 2756   4.082   3.157   0.532
  935TIP3   OH2 2757   3.046   3.072   0.869
  935TIP3    H1 2758   3.101   3.146   0.892
  935TIP3    H2 2759   3.092   3.030   0.796
  936TIP3   OH2 2760   3.089   3.946   0.971
  936TIP3    H1 2761   3.074   4.036   0.942
  936TIP3    H2 2762   3.011   3.924   1.022
  937TIP3   OH2 2763   2.490   3.659   0.225
  937TIP3    H1 2764   2.448   3.679   0.142
  937TIP3    H2 2765   2.507   3.745   0.264
  938TIP3   OH2 2766   3.899   4.137   0.471
  938TIP3    H1 2767   3.813   4.127   0.510
  938TIP3    H2 2768   3.895   4.219   0.422
  939TIP3   OH2 2769   4.236   3.029   0.841
  939TIP3    H1 2770   4.152   3.053   0.804
  939TIP3    H2 2771   4.300   3.058   0.776
  940TIP3   OH2 2772   3.503   2.662   0.838
  940TIP3    H1 2773   3.494   2.569   0.859
  940TIP3    H2 2774   3.426   2.703   0.878
  941TIP3   OH2 2775   3.604   4.170   0.126
  941TIP3    H1 2776   3.650   4.086   0.119
  941TIP3    H2 2777   3.667   4.235   0.096
  942TIP3   OH2 2778   3.769   3.963   0.084
  942TIP3    H1 2779   3.767   3.888   0.024
  942TIP3    H2 2780   3.811   3.929   0.163
  943TIP3   OH2 2781   4.149   4.025   0.816
  943TIP3    H1 2782   4.125   3.954   0.757
  943TIP3    H2 2783   4.134   4.105   0.765
  944TIP3   OH2 2784   3.417   3.442   0.086
  944TIP3    H1 2785   3.337   3.494   0.075
  944TIP3    H2 2786   3.455   3.439  -0.002
  945TIP3   OH2 2787   6.022   6.932   6.267
  945TIP3    H1 2788   6.091   6.996   6.287
  945TIP3    H2 2789   6.069   6.854   6.239
  946TIP3   OH2 2790   4.321   3.701   0.676
  946TIP3    H1 2791   4.235   3.743   0.676
  946TIP3    H2 2792   4.351   3.709   0.586
  947TIP3   OH2 2793   3.778   3.499   0.053
  947TIP3    H1 2794   3.724   3.529   0.126
  947TIP3    H2 2795   3.863   3.480   0.092
  948TIP3   OH2 2796   4.020   3.558   0.987
  948TIP3    H1 2797   4.014   3.641   1.034
  948TIP3    H2 2798   3.938   3.553   0.937
  949TIP3   OH2 2799   3.018   3.508   0.447
  949TIP3    H1 2800   2.984   3.444   0.384
  949TIP3    H2 2801   3.092   3.464   0.489
  950TIP3   OH2 2802   3.161   3.936   0.584
  950TIP3    H1 2803   3.135   3.918   0.494
  950TIP3    H2 2804   3.247   3.896   0.594
  951TIP3   OH2 2805   3.113   3.507   0.824
  951TIP3    H1 2806   3.153   3.471   0.745
  951TIP3    H2 2807   3.160   3.589   0.840
  952TIP3   OH2 2808   3.660   4.134   0.598
  952TIP3    H1 2809   3.647   4.215   0.648
  952TIP3    H2 2810   3.646   4.064   0.662
  953TIP3   OH2 2811   3.287   4.041   1.141
  953TIP3    H1 2812   3.226   4.097   1.188
  953TIP3    H2 2813   3.232   3.990   1.082
  954TIP3   OH2 2814   6.233   7.128   6.319
  954TIP3    H1 2815   6.293   7.168   6.381
  954TIP3    H2 2816   6.221   7.194   6.250
  955TIP3   OH2 2817   3.043   3.589   1.283
  955TIP3    H1 2818   3.046   3.682   1.302
  955TIP3    H2 2819   2.950   3.568   1.275
  956TIP3   OH2 2820   3.350   4.062   0.133
  956TIP3    H1 2821   3.438   4.099   0.140
  956TIP3    H2 2822   3.297   4.132   0.094
  957TIP3   OH2 2823   3.076   4.198   1.227
  957TIP3    H1 2824   3.051   4.209   1.135
  957TIP3    H2 2825   2.994   4.184   1.273
  958TIP3   OH2 2826   6.759   6.325   6.381
  958TIP3    H1 2827   6.682   6.346   6.435
  958TIP3    H2 2828   6.757   6.390   6.311
  959TIP3   OH2 2829   2.896   3.352   0.243
  959TIP3    H1 2830   2.829   3.414   0.213
  959TIP3    H2 2831   2.847   3.274   0.268
  960TIP3   OH2 2832   2.672   3.757   1.176
  960TIP3    H1 2833   2.603   3.739   1.113
  960TIP3    H2 2834   2.707   3.671   1.200
  961TIP3   OH2 2835   2.513   3.958   0.831
  961TIP3    H1 2836   2.602   3.982   0.856
  961TIP3    H2 2837   2.459   4.032   0.857
  962TIP3   OH2 2838   4.384   4.427   0.886
  962TIP3    H1 2839   4.394   4.332   0.889
  962TIP3    H2 2840   4.300   4.444   0.929
  963TIP3   OH2 2841   3.476   4.187   1.004
  963TIP3    H1 2842   3.468   4.277   1.034
  963TIP3    H2 2843   3.408   4.140   1.053
  964TIP3   OH2 2844   0.594   0.549   6.438
  964TIP3    H1 2845   0.511   0.511   6.409
  964TIP3    H2 2846   0.574   0.640   6.459
  965TIP3   OH2 2847   2.696   4.140   0.337
  965TIP3    H1 2848   2.740   4.136   0.422
  965TIP3    H2 2849   2.645   4.059   0.332
  966TIP3   OH2 2850   0.850   0.545   6.329
  966TIP3    H1 2851   0.761   0.539   6.364
  966TIP3    H2 2852   0.902   0.492   6.389
  967TIP3   OH2 2853   4.261   3.506   1.150
  967TIP3    H1 2854   4.179   3.521   1.103
  967TIP3    H2 2855   4.282   3.414   1.133
  968TIP3   OH2 2856   2.871   3.945   1.141
  968TIP3    H1 2857   2.922   3.933   1.221
  968TIP3    H2 2858   2.799   3.881   1.148
  969TIP3   OH2 2859   3.271   2.762   0.959
  969TIP3    H1 2860   3.185   2.730   0.931
  969TIP3    H2 2861   3.252   2.842   1.006
  970TIP3   OH2 2862   3.805   2.872   1.160
  970TIP3    H1 2863   3.872   2.845   1.223
  970TIP3    H2 2864   3.722   2.858   1.206
  971TIP3   OH2 2865   4.018   3.292   1.076
  971TIP3    H1 2866   3.980   3.288   1.164
  971TIP3    H2 2867   4.002   3.382   1.047
  972TIP3   OH2 2868   6.067   6.538   6.367
  972TIP3    H1 2869   6.050   6.528   6.460
  972TIP3    H2 2870   5.980   6.546   6.327
  973TIP3   OH2 2871   3.197   3.284   0.969
  973TIP3    H1 2872   3.149   3.286   1.052
  973TIP3    H2 2873   3.172   3.365   0.925
  974TIP3   OH2 2874   3.087   3.180   0.490
  974TIP3    H1 2875   3.005   3.145   0.525
  974TIP3    H2 2876   3.094   3.143   0.403
  975TIP3   OH2 2877   3.561   3.247   0.213
  975TIP3    H1 2878   3.506   3.316   0.174
  975TIP3    H2 2879   3.613   3.214   0.140
  976TIP3   OH2 2880   3.736   3.502   1.290
  976TIP3    H1 2881   3.710   3.434   1.351
  976TIP3    H2 2882   3.828   3.519   1.310
  977TIP3   OH2 2883   3.717   3.253   0.443
  977TIP3    H1 2884   3.652   3.280   0.377
  977TIP3    H2 2885   3.760   3.177   0.405
  978TIP3   OH2 2886   3.033   3.292   1.190
  978TIP3    H1 2887   3.042   3.355   1.262
  978TIP3    H2 2888   3.017   3.209   1.234
  979TIP3   OH2 2889   5.795   6.576   6.304
  979TIP3    H1 2890   5.781   6.662   6.343
  979TIP3    H2 2891   5.718   6.525   6.329
  980TIP3   OH2 2892   2.608   2.900   0.812
  980TIP3    H1 2893   2.686   2.918   0.865
  980TIP3    H2 2894   2.642   2.855   0.735
  981TIP3   OH2 2895   2.629   2.818   0.341
  981TIP3    H1 2896   2.666   2.776   0.264
  981TIP3    H2 2897   2.638   2.912   0.323
  982TIP3   OH2 2898   3.770   3.505   0.865
  982TIP3    H1 2899   3.794   3.438   0.801
  982TIP3    H2 2900   3.725   3.457   0.934
  983TIP3   OH2 2901   3.450   2.963   0.542
  983TIP3    H1 2902   3.368   2.962   0.592
  983TIP3    H2 2903   3.518   2.948   0.607
  984TIP3   OH2 2904   2.884   3.025   0.573
  984TIP3    H1 2905   2.789   3.030   0.564
  984TIP3    H2 2906   2.906   2.935   0.550
  985TIP3   OH2 2907   3.108   3.039   0.258
  985TIP3    H1 2908   3.202   3.054   0.248
  985TIP3    H2 2909   3.073   3.049   0.169
  986TIP3   OH2 2910   3.882   3.040   0.744
  986TIP3    H1 2911   3.867   3.056   0.837
  986TIP3    H2 2912   3.812   2.979   0.718
  987TIP3   OH2 2913   5.625   6.757   6.463
  987TIP3    H1 2914   5.531   6.746   6.475
  987TIP3    H2 2915   5.633   6.820   6.391
  988TIP3   OH2 2916   4.075   4.733   0.994
  988TIP3    H1 2917   4.070   4.750   0.900
  988TIP3    H2 2918   4.147   4.788   1.025
  989TIP3   OH2 2919   3.026   3.857   1.374
  989TIP3    H1 2920   3.107   3.876   1.423
  989TIP3    H2 2921   2.957   3.864   1.440
  990TIP3   OH2 2922   3.492   3.328   0.646
  990TIP3    H1 2923   3.554   3.274   0.597
  990TIP3    H2 2924   3.487   3.287   0.732
  991TIP3   OH2 2925   3.021   2.793   0.512
  991TIP3    H1 2926   3.001   2.721   0.572
  991TIP3    H2 2927   3.032   2.750   0.427
  992TIP3   OH2 2928   3.462   3.232   0.908
  992TIP3    H1 2929   3.374   3.260   0.932
  992TIP3    H2 2930   3.521   3.284   0.963
  993TIP3   OH2 2931   3.192   3.593   0.027
  993TIP3    H1 2932   3.124   3.528   0.006
  993TIP3    H2 2933   3.164   3.631   0.110
  994TIP3   OH2 2934   4.082   3.831   0.632
  994TIP3    H1 2935   4.114   3.881   0.557
  994TIP3    H2 2936   4.001   3.790   0.601
  995TIP3   OH2 2937   6.333   6.624   6.376
  995TIP3    H1 2938   6.245   6.592   6.356
  995TIP3    H2 2939   6.322   6.718   6.386
  996TIP3   OH2 2940   3.602   3.918   1.047
  996TIP3    H1 2941   3.650   3.908   1.129
  996TIP3    H2 2942   3.561   4.004   1.055
  997TIP3   OH2 2943   6.351   6.894   6.442
  997TIP3    H1 2944   6.445   6.899   6.462
  997TIP3    H2 2945   6.334   6.972   6.390
  998TIP3   OH2 2946   2.887   3.596   0.674
  998TIP3    H1 2947   2.924   3.574   0.588
  998TIP3    H2 2948   2.952   3.564   0.737
  999TIP3   OH2 2949   0.733   0.021   6.333
  999TIP3    H1 2950   0.679   0.090   6.295
  999TIP3    H2 2951   0.671  -0.036   6.379
 1000TIP3   OH2 2952   2.769   3.525   1.308
 1000TIP3    H1 2953   2.772   3.501   1.401
 1000TIP3    H2 2954   2.694   3.477   1.273
 1001TIP3   OH2 2955   3.506   3.660   1.329
 1001TIP3    H1 2956   3.435   3.601   1.303
 1001TIP3    H2 2957   3.586   3.615   1.300
 1002TIP3   OH2 2958   3.748   4.202   0.931
 1002TIP3    H1 2959   3.653   4.191   0.933
 1002TIP3    H2 2960   3.769   4.239   1.017
 1003TIP3   OH2 2961   6.765   6.923   6.283
 1003TIP3    H1 2962   6.719   6.848   6.244
 1003TIP3    H2 2963   6.747   6.996   6.223
 1004TIP3   OH2 2964   4.394   4.149   0.898
 1004TIP3    H1 2965   4.304   4.127   0.921
 1004TIP3    H2 2966   4.409   4.103   0.816
 1005TIP3   OH2 2967   3.853   3.697   0.532
 1005TIP3    H1 2968   3.763   3.676   0.558
 1005TIP3    H2 2969   3.887   3.617   0.492
 1006TIP3   OH2 2970   3.004   3.936   0.348
 1006TIP3    H1 2971   2.996   4.011   0.289
 1006TIP3    H2 2972   2.918   3.931   0.391
 1007TIP3   OH2 2973   2.661   3.244   0.059
 1007TIP3    H1 2974   2.693   3.334   0.062
 1007TIP3    H2 2975   2.575   3.247   0.101
 1008TIP3   OH2 2976   3.084   3.693   0.251
 1008TIP3    H1 2977   3.066   3.781   0.285
 1008TIP3    H2 2978   3.062   3.634   0.323
 1009TIP3   OH2 2979   3.293   4.259   0.798
 1009TIP3    H1 2980   3.329   4.332   0.748
 1009TIP3    H2 2981   3.367   4.226   0.849
 1010TIP3   OH2 2982   2.923   4.155   0.186
 1010TIP3    H1 2983   2.837   4.156   0.228
 1010TIP3    H2 2984   2.959   4.242   0.201
 1011TIP3   OH2 2985   3.641   3.917   0.774
 1011TIP3    H1 2986   3.628   3.915   0.869
 1011TIP3    H2 2987   3.720   3.864   0.760
 1012TIP3   OH2 2988   3.901   4.405   0.813
 1012TIP3    H1 2989   3.833   4.342   0.838
 1012TIP3    H2 2990   3.861   4.455   0.742
 1013TIP3   OH2 2991   2.996   3.039   1.319
 1013TIP3    H1 2992   2.901   3.041   1.330
 1013TIP3    H2 2993   3.027   2.986   1.392
 1014TIP3   OH2 2994   6.421   7.465   6.369
 1014TIP3    H1 2995   6.413   7.383   6.419
 1014TIP3    H2 2996   6.490   7.447   6.305
 1015TIP3   OH2 2997   2.722   4.141   0.956
 1015TIP3    H1 2998   2.774   4.080   1.008
 1015TIP3    H2 2999   2.734   4.226   1.000
 1016TIP3   OH2 3000   0.376   0.007   6.138
 1016TIP3    H1 3001   0.455   0.060   6.124
 1016TIP3    H2 3002   0.340   0.038   6.221
 1017TIP3   OH2 3003   0.307   0.082   6.398
 1017TIP3    H1 3004   0.368   0.036   6.456
 1017TIP3    H2 3005   0.331   0.174   6.405
 1018TIP3   OH2 3006   2.700   3.508   0.129
 1018TIP3    H1 3007   2.629   3.546   0.182
 1018TIP3    H2 3008   2.707   3.566   0.053
 1019TIP3   OH2 3009   3.833   3.098   1.006
 1019TIP3    H1 3010   3.909   3.147   1.040
 1019TIP3    H2 3011   3.825   3.023   1.064
 1020TIP3   OH2 3012   3.727   2.843   0.195
 1020TIP3    H1 3013   3.713   2.862   0.102
 1020TIP3    H2 3014   3.766   2.923   0.230
 1021TIP3   OH2 3015   0.556   0.220   6.237
 1021TIP3    H1 3016   0.495   0.269   6.293
 1021TIP3    H2 3017   0.612   0.287   6.199
 1022TIP3   OH2 3018   3.382   3.056   0.291
 1022TIP3    H1 3019   3.443   3.126   0.266
 1022TIP3    H2 3020   3.403   3.037   0.382
 1023TIP3   OH2 3021   3.670   3.342   1.062
 1023TIP3    H1 3022   3.689   3.385   1.145
 1023TIP3    H2 3023   3.716   3.258   1.066
 1024TIP3   OH2 3024   3.546   2.755   0.380
 1024TIP3    H1 3025   3.525   2.834   0.429
 1024TIP3    H2 3026   3.614   2.781   0.318
 1025TIP3   OH2 3027   0.360   0.362   6.384
 1025TIP3    H1 3028   0.282   0.393   6.337
 1025TIP3    H2 3029   0.341   0.380   6.476
 1026TIP3   OH2 3030   3.091   2.763   0.220
 1026TIP3    H1 3031   3.073   2.854   0.246
 1026TIP3    H2 3032   3.185   2.762   0.202
 1027TIP3   OH2 3033   4.283   3.242   1.046
 1027TIP3    H1 3034   4.188   3.248   1.059
 1027TIP3    H2 3035   4.294   3.171   0.984
 1028TIP3   OH2 3036   3.945   3.440   0.440
 1028TIP3    H1 3037   3.866   3.389   0.454
 1028TIP3    H2 3038   4.010   3.401   0.498
 1029TIP3   OH2 3039   5.327   7.406   6.360
 1029TIP3    H1 3040   5.399   7.465   6.381
 1029TIP3    H2 3041   5.363   7.345   6.296
 1030TIP3   OH2 3042   2.718   2.973   0.075
 1030TIP3    H1 3043   2.681   3.050   0.033
 1030TIP3    H2 3044   2.689   2.900   0.020
 1031TIP3   OH2 3045   3.909   4.398   0.377
 1031TIP3    H1 3046   3.872   4.451   0.307
 1031TIP3    H2 3047   4.003   4.393   0.356
 1032TIP3   OH2 3048   3.004   2.695   0.933
 1032TIP3    H1 3049   2.987   2.668   0.843
 1032TIP3    H2 3050   2.986   2.618   0.985
 1033TIP3   OH2 3051   2.525   3.920   0.324
 1033TIP3    H1 3052   2.481   3.952   0.402
 1033TIP3    H2 3053   2.478   3.960   0.251
 1034TIP3   OH2 3054   2.718   4.455   1.380
 1034TIP3    H1 3055   2.801   4.459   1.428
 1034TIP3    H2 3056   2.701   4.362   1.369
 1035TIP3   OH2 3057   3.182   4.364   1.420
 1035TIP3    H1 3058   3.274   4.338   1.429
 1035TIP3    H2 3059   3.149   4.309   1.349
 1036TIP3   OH2 3060   3.804   4.307   1.178
 1036TIP3    H1 3061   3.816   4.237   1.243
 1036TIP3    H2 3062   3.878   4.366   1.192
 1037TIP3   OH2 3063   2.822   3.857   1.566
 1037TIP3    H1 3064   2.842   3.764   1.577
 1037TIP3    H2 3065   2.736   3.859   1.525
 1038TIP3   OH2 3066   5.496   7.239   6.224
 1038TIP3    H1 3067   5.556   7.211   6.293
 1038TIP3    H2 3068   5.547   7.300   6.171
 1039TIP3   OH2 3069   3.442   3.936   1.344
 1039TIP3    H1 3070   3.396   3.957   1.263
 1039TIP3    H2 3071   3.474   3.847   1.331
 1040TIP3   OH2 3072   3.915   3.976   0.961
 1040TIP3    H1 3073   3.993   4.006   0.915
 1040TIP3    H2 3074   3.851   4.046   0.947
 1041TIP3   OH2 3075   2.937   3.603   1.573
 1041TIP3    H1 3076   3.013   3.580   1.521
 1041TIP3    H2 3077   2.972   3.619   1.661
 1042TIP3   OH2 3078   5.638   7.125   6.433
 1042TIP3    H1 3079   5.608   7.095   6.518
 1042TIP3    H2 3080   5.671   7.046   6.390
 1043TIP3   OH2 3081   3.301   3.486   1.233
 1043TIP3    H1 3082   3.214   3.524   1.242
 1043TIP3    H2 3083   3.330   3.514   1.146
 1044TIP3   OH2 3084   5.745   6.922   6.274
 1044TIP3    H1 3085   5.724   6.922   6.181
 1044TIP3    H2 3086   5.840   6.929   6.278
 1045TIP3   OH2 3087   3.794   3.860   1.313
 1045TIP3    H1 3088   3.863   3.821   1.259
 1045TIP3    H2 3089   3.790   3.804   1.391
 1046TIP3   OH2 3090   3.406   3.255   1.339
 1046TIP3    H1 3091   3.406   3.184   1.275
 1046TIP3    H2 3092   3.369   3.329   1.291
 1047TIP3   OH2 3093   3.418   3.057   1.136
 1047TIP3    H1 3094   3.441   3.094   1.051
 1047TIP3    H2 3095   3.326   3.030   1.126
 1048TIP3   OH2 3096   3.415   3.580   1.004
 1048TIP3    H1 3097   3.502   3.619   0.997
 1048TIP3    H2 3098   3.358   3.639   0.955
 1049TIP3   OH2 3099   4.005   3.541   1.387
 1049TIP3    H1 3100   4.044   3.453   1.382
 1049TIP3    H2 3101   4.079   3.601   1.376
 1050TIP3   OH2 3102   4.035   3.802   1.130
 1050TIP3    H1 3103   3.981   3.862   1.079
 1050TIP3    H2 3104   4.124   3.817   1.099
 1051TIP3   OH2 3105   3.292   3.339   1.583
 1051TIP3    H1 3106   3.223   3.277   1.606
 1051TIP3    H2 3107   3.318   3.314   1.494
 1052TIP3   OH2 3108   3.540   2.825   1.235
 1052TIP3    H1 3109   3.499   2.906   1.205
 1052TIP3    H2 3110   3.472   2.759   1.227
 1053TIP3   OH2 3111   3.660   3.288   1.443
 1053TIP3    H1 3112   3.647   3.274   1.537
 1053TIP3    H2 3113   3.574   3.269   1.405
 1054TIP3   OH2 3114   3.910   3.254   1.320
 1054TIP3    H1 3115   3.829   3.249   1.371
 1054TIP3    H2 3116   3.978   3.222   1.379
 1055TIP3   OH2 3117   4.143   3.208   1.469
 1055TIP3    H1 3118   4.151   3.114   1.485
 1055TIP3    H2 3119   4.136   3.247   1.556
 1056TIP3   OH2 3120   3.119   3.133   1.653
 1056TIP3    H1 3121   3.118   3.047   1.610
 1056TIP3    H2 3122   3.156   3.116   1.740
 1057TIP3   OH2 3123   3.598   2.798   1.503
 1057TIP3    H1 3124   3.663   2.728   1.500
 1057TIP3    H2 3125   3.572   2.810   1.411
 1058TIP3   OH2 3126   3.692   3.007   1.654
 1058TIP3    H1 3127   3.660   2.934   1.600
 1058TIP3    H2 3128   3.620   3.069   1.654
 1059TIP3   OH2 3129   5.057   7.356   6.388
 1059TIP3    H1 3130   5.147   7.384   6.373
 1059TIP3    H2 3131   5.056   7.263   6.366
 1060TIP3   OH2 3132   2.325   4.235   0.399
 1060TIP3    H1 3133   2.261   4.183   0.351
 1060TIP3    H2 3134   2.367   4.172   0.458
 1061TIP3   OH2 3135   2.463   4.063   0.566
 1061TIP3    H1 3136   2.452   3.995   0.632
 1061TIP3    H2 3137   2.516   4.130   0.610
 1062TIP3   OH2 3138   4.183   4.415   0.355
 1062TIP3    H1 3139   4.204   4.406   0.448
 1062TIP3    H2 3140   4.168   4.509   0.343
 1063TIP3   OH2 3141   4.217   4.474   0.647
 1063TIP3    H1 3142   4.173   4.390   0.658
 1063TIP3    H2 3143   4.289   4.472   0.710
 1064TIP3   OH2 3144   4.261   4.192   1.211
 1064TIP3    H1 3145   4.192   4.201   1.277
 1064TIP3    H2 3146   4.308   4.276   1.214
 1065TIP3   OH2 3147   5.474   6.019   1.127
 1065TIP3    H1 3148   5.451   6.009   1.034
 1065TIP3    H2 3149   5.448   5.936   1.167
 1066TIP3   OH2 3150   4.255   3.500   0.041
 1066TIP3    H1 3151   4.171   3.498   0.087
 1066TIP3    H2 3152   4.303   3.572   0.082
 1067TIP3   OH2 3153   4.255   3.967   0.461
 1067TIP3    H1 3154   4.308   3.894   0.428
 1067TIP3    H2 3155   4.248   4.027   0.387
 1068TIP3   OH2 3156   4.070   4.242   0.665
 1068TIP3    H1 3157   4.005   4.290   0.715
 1068TIP3    H2 3158   4.021   4.201   0.594
 1069TIP3   OH2 3159   4.016   3.426   0.173
 1069TIP3    H1 3160   4.021   3.330   0.165
 1069TIP3    H2 3161   3.998   3.441   0.266
 1070TIP3   OH2 3162   2.639   3.503   0.951
 1070TIP3    H1 3163   2.631   3.471   0.862
 1070TIP3    H2 3164   2.733   3.497   0.970
 1071TIP3   OH2 3165   4.288   3.847   1.025
 1071TIP3    H1 3166   4.357   3.783   1.007
 1071TIP3    H2 3167   4.279   3.895   0.943
 1072TIP3   OH2 3168   4.468   3.635   1.025
 1072TIP3    H1 3169   4.396   3.595   1.073
 1072TIP3    H2 3170   4.544   3.580   1.046
 1073TIP3   OH2 3171   6.619   6.714   6.183
 1073TIP3    H1 3172   6.678   6.639   6.171
 1073TIP3    H2 3173   6.533   6.676   6.196
 1074TIP3   OH2 3174   4.005   3.149   0.075
 1074TIP3    H1 3175   4.042   3.062   0.090
 1074TIP3    H2 3176   4.048   3.181  -0.004
 1075TIP3   OH2 3177   4.161   3.317   0.579
 1075TIP3    H1 3178   4.242   3.335   0.531
 1075TIP3    H2 3179   4.173   3.357   0.665
 1076TIP3   OH2 3180   4.233   3.469   0.804
 1076TIP3    H1 3181   4.162   3.496   0.863
 1076TIP3    H2 3182   4.264   3.551   0.765
 1077TIP3   OH2 3183   2.856   3.179   1.588
 1077TIP3    H1 3184   2.950   3.177   1.605
 1077TIP3    H2 3185   2.823   3.098   1.627
 1078TIP3   OH2 3186   4.742   3.098   1.354
 1078TIP3    H1 3187   4.786   3.027   1.307
 1078TIP3    H2 3188   4.678   3.132   1.292
 1079TIP3   OH2 3189   4.118   2.900   0.118
 1079TIP3    H1 3190   4.169   2.886   0.198
 1079TIP3    H2 3191   4.057   2.826   0.115
 1080TIP3   OH2 3192   2.834   2.912   0.968
 1080TIP3    H1 3193   2.882   2.830   0.968
 1080TIP3    H2 3194   2.898   2.977   0.937
 1081TIP3   OH2 3195   2.621   3.171   1.007
 1081TIP3    H1 3196   2.672   3.165   0.926
 1081TIP3    H2 3197   2.660   3.245   1.054
 1082TIP3   OH2 3198   4.558   3.183   1.167
 1082TIP3    H1 3199   4.484   3.205   1.223
 1082TIP3    H2 3200   4.529   3.108   1.116
 1083TIP3   OH2 3201   6.820   6.523   6.191
 1083TIP3    H1 3202   6.887   6.483   6.136
 1083TIP3    H2 3203   6.869   6.577   6.253
 1084TIP3   OH2 3204   2.680   2.739   0.597
 1084TIP3    H1 3205   2.614   2.675   0.624
 1084TIP3    H2 3206   2.654   2.766   0.509
 1085TIP3   OH2 3207   3.790   4.341   0.033
 1085TIP3    H1 3208   3.872   4.313  -0.008
 1085TIP3    H2 3209   3.812   4.424   0.076
 1086TIP3   OH2 3210   2.815   2.709   1.296
 1086TIP3    H1 3211   2.797   2.722   1.389
 1086TIP3    H2 3212   2.752   2.765   1.250
 1087TIP3   OH2 3213   2.851   4.174   1.392
 1087TIP3    H1 3214   2.758   4.155   1.385
 1087TIP3    H2 3215   2.871   4.161   1.484
 1088TIP3   OH2 3216   3.063   4.222   0.944
 1088TIP3    H1 3217   3.012   4.296   0.913
 1088TIP3    H2 3218   3.148   4.231   0.902
 1089TIP3   OH2 3219   3.463   4.453   1.083
 1089TIP3    H1 3220   3.499   4.447   1.171
 1089TIP3    H2 3221   3.526   4.507   1.035
 1090TIP3   OH2 3222   3.655   4.610   0.961
 1090TIP3    H1 3223   3.723   4.558   0.918
 1090TIP3    H2 3224   3.704   4.671   1.017
 1091TIP3   OH2 3225   4.485   2.932   1.029
 1091TIP3    H1 3226   4.390   2.925   1.024
 1091TIP3    H2 3227   4.516   2.841   1.031
 1092TIP3   OH2 3228   2.723   4.466   0.989
 1092TIP3    H1 3229   2.631   4.481   0.967
 1092TIP3    H2 3230   2.743   4.532   1.055
 1093TIP3   OH2 3231   2.954   4.452   0.841
 1093TIP3    H1 3232   2.871   4.457   0.889
 1093TIP3    H2 3233   2.930   4.476   0.751
 1094TIP3   OH2 3234   3.367   4.469   0.633
 1094TIP3    H1 3235   3.293   4.483   0.574
 1094TIP3    H2 3236   3.379   4.553   0.677
 1095TIP3   OH2 3237   3.625   4.392   0.687
 1095TIP3    H1 3238   3.535   4.418   0.667
 1095TIP3    H2 3239   3.679   4.458   0.645
 1096TIP3   OH2 3240   3.827   4.555   0.589
 1096TIP3    H1 3241   3.813   4.641   0.548
 1096TIP3    H2 3242   3.856   4.499   0.517
 1097TIP3   OH2 3243   2.640   4.240   0.706
 1097TIP3    H1 3244   2.660   4.213   0.795
 1097TIP3    H2 3245   2.713   4.206   0.654
 1098TIP3   OH2 3246   2.844   4.126   0.568
 1098TIP3    H1 3247   2.853   4.041   0.611
 1098TIP3    H2 3248   2.931   4.166   0.575
 1099TIP3   OH2 3249   3.111   4.211   0.593
 1099TIP3    H1 3250   3.130   4.119   0.577
 1099TIP3    H2 3251   3.163   4.234   0.670
 1100TIP3   OH2 3252   3.668   2.858   0.683
 1100TIP3    H1 3253   3.630   2.789   0.737
 1100TIP3    H2 3254   3.736   2.814   0.632
 1101TIP3   OH2 3255   4.173   2.773   0.552
 1101TIP3    H1 3256   4.210   2.829   0.484
 1101TIP3    H2 3257   4.083   2.802   0.561
 1102TIP3   OH2 3258   4.302   2.859   0.318
 1102TIP3    H1 3259   4.365   2.792   0.293
 1102TIP3    H2 3260   4.345   2.942   0.299
 1103TIP3   OH2 3261   2.965   2.592   0.683
 1103TIP3    H1 3262   2.882   2.562   0.719
 1103TIP3    H2 3263   3.022   2.515   0.688
 1104TIP3   OH2 3264   2.657   2.414   0.258
 1104TIP3    H1 3265   2.708   2.494   0.268
 1104TIP3    H2 3266   2.628   2.392   0.346
 1105TIP3   OH2 3267   3.398   2.626   0.578
 1105TIP3    H1 3268   3.445   2.678   0.513
 1105TIP3    H2 3269   3.434   2.654   0.662
 1106TIP3   OH2 3270   3.881   2.744   0.546
 1106TIP3    H1 3271   3.887   2.709   0.457
 1106TIP3    H2 3272   3.887   2.667   0.603
 1107TIP3   OH2 3273   3.946   2.685   0.125
 1107TIP3    H1 3274   3.863   2.731   0.138
 1107TIP3    H2 3275   3.932   2.600   0.168
 1108TIP3   OH2 3276   2.404   4.032   0.110
 1108TIP3    H1 3277   2.323   3.990   0.082
 1108TIP3    H2 3278   2.397   4.122   0.076
 1109TIP3   OH2 3279   2.719   2.662   0.130
 1109TIP3    H1 3280   2.687   2.584   0.084
 1109TIP3    H2 3281   2.801   2.683   0.087
 1110TIP3   OH2 3282   3.359   2.811   0.179
 1110TIP3    H1 3283   3.410   2.759   0.241
 1110TIP3    H2 3284   3.366   2.901   0.211
 1111TIP3   OH2 3285   3.104   2.881   1.536
 1111TIP3    H1 3286   3.060   2.798   1.552
 1111TIP3    H2 3287   3.193   2.867   1.566
 1112TIP3   OH2 3288   3.358   2.862   1.653
 1112TIP3    H1 3289   3.438   2.837   1.606
 1112TIP3    H2 3290   3.356   2.803   1.729
 1113TIP3   OH2 3291   7.719   0.301   6.182
 1113TIP3    H1 3292   7.698   0.361   6.254
 1113TIP3    H2 3293   7.790   0.247   6.216
 1114TIP3   OH2 3294   4.193   2.935   1.482
 1114TIP3    H1 3295   4.254   2.907   1.549
 1114TIP3    H2 3296   4.248   2.955   1.406
 1115TIP3   OH2 3297   4.125   4.465   0.971
 1115TIP3    H1 3298   4.048   4.435   0.922
 1115TIP3    H2 3299   4.106   4.558   0.989
 1116TIP3   OH2 3300   5.338   3.777   0.110
 1116TIP3    H1 3301   5.389   3.767   0.190
 1116TIP3    H2 3302   5.298   3.692   0.097
 1117TIP3   OH2 3303   4.676   3.696   0.486
 1117TIP3    H1 3304   4.721   3.651   0.557
 1117TIP3    H2 3305   4.746   3.720   0.425
 1118TIP3   OH2 3306   4.580   4.057   0.257
 1118TIP3    H1 3307   4.613   3.978   0.213
 1118TIP3    H2 3308   4.655   4.118   0.254
 1119TIP3   OH2 3309   7.000   6.984   6.422
 1119TIP3    H1 3310   6.974   7.072   6.450
 1119TIP3    H2 3311   6.927   6.954   6.366
 1120TIP3   OH2 3312   4.453   3.658   0.169
 1120TIP3    H1 3313   4.500   3.579   0.197
 1120TIP3    H2 3314   4.521   3.719   0.143
 1121TIP3   OH2 3315   5.287   4.048   0.092
 1121TIP3    H1 3316   5.284   3.954   0.107
 1121TIP3    H2 3317   5.317   4.085   0.175
 1122TIP3   OH2 3318   5.618   3.530   0.185
 1122TIP3    H1 3319   5.664   3.450   0.210
 1122TIP3    H2 3320   5.648   3.548   0.095
 1123TIP3   OH2 3321   4.941   3.229   0.162
 1123TIP3    H1 3322   4.934   3.301   0.099
 1123TIP3    H2 3323   4.884   3.161   0.126
 1124TIP3   OH2 3324   4.587   3.432   0.260
 1124TIP3    H1 3325   4.667   3.418   0.311
 1124TIP3    H2 3326   4.604   3.386   0.178
 1125TIP3   OH2 3327   5.026   3.612   0.128
 1125TIP3    H1 3328   5.113   3.573   0.127
 1125TIP3    H2 3329   4.973   3.555   0.072
 1126TIP3   OH2 3330   6.287   3.554   0.353
 1126TIP3    H1 3331   6.229   3.616   0.309
 1126TIP3    H2 3332   6.336   3.608   0.415
 1127TIP3   OH2 3333   4.944   3.221   0.599
 1127TIP3    H1 3334   4.896   3.261   0.527
 1127TIP3    H2 3335   4.890   3.236   0.676
 1128TIP3   OH2 3336   5.002   3.914   0.490
 1128TIP3    H1 3337   4.925   3.959   0.526
 1128TIP3    H2 3338   5.062   3.985   0.467
 1129TIP3   OH2 3339   4.825   3.341   0.380
 1129TIP3    H1 3340   4.882   3.415   0.403
 1129TIP3    H2 3341   4.870   3.298   0.307
 1130TIP3   OH2 3342   4.875   4.176   0.476
 1130TIP3    H1 3343   4.838   4.195   0.390
 1130TIP3    H2 3344   4.799   4.150   0.529
 1131TIP3   OH2 3345   5.997   3.282   0.341
 1131TIP3    H1 3346   5.905   3.295   0.317
 1131TIP3    H2 3347   6.046   3.328   0.274
 1132TIP3   OH2 3348   5.281   2.907   0.328
 1132TIP3    H1 3349   5.277   2.817   0.359
 1132TIP3    H2 3350   5.205   2.949   0.368
 1133TIP3   OH2 3351   5.783   3.747   0.426
 1133TIP3    H1 3352   5.805   3.832   0.463
 1133TIP3    H2 3353   5.700   3.762   0.379
 1134TIP3   OH2 3354   4.883   3.750   0.309
 1134TIP3    H1 3355   4.939   3.715   0.240
 1134TIP3    H2 3356   4.936   3.817   0.352
 1135TIP3   OH2 3357   5.065   4.278   0.645
 1135TIP3    H1 3358   5.009   4.344   0.685
 1135TIP3    H2 3359   5.009   4.234   0.581
 1136TIP3   OH2 3360   4.842   3.823   0.784
 1136TIP3    H1 3361   4.851   3.914   0.814
 1136TIP3    H2 3362   4.747   3.811   0.775
 1137TIP3   OH2 3363   4.873   4.460   0.735
 1137TIP3    H1 3364   4.828   4.473   0.651
 1137TIP3    H2 3365   4.804   4.441   0.798
 1138TIP3   OH2 3366   4.439   3.996   0.674
 1138TIP3    H1 3367   4.374   3.994   0.604
 1138TIP3    H2 3368   4.461   3.905   0.689
 1139TIP3   OH2 3369   4.317   4.152   0.256
 1139TIP3    H1 3370   4.406   4.118   0.272
 1139TIP3    H2 3371   4.314   4.234   0.305
 1140TIP3   OH2 3372   5.270   4.363   0.473
 1140TIP3    H1 3373   5.270   4.438   0.533
 1140TIP3    H2 3374   5.203   4.304   0.508
 1141TIP3   OH2 3375   6.043   3.779   0.650
 1141TIP3    H1 3376   5.959   3.802   0.611
 1141TIP3    H2 3377   6.053   3.685   0.634
 1142TIP3   OH2 3378   4.692   4.102   0.660
 1142TIP3    H1 3379   4.733   4.089   0.746
 1142TIP3    H2 3380   4.607   4.059   0.668
 1143TIP3   OH2 3381   5.050   3.007   0.452
 1143TIP3    H1 3382   4.965   2.977   0.422
 1143TIP3    H2 3383   5.032   3.089   0.498
 1144TIP3   OH2 3384   5.595   3.107   0.656
 1144TIP3    H1 3385   5.668   3.085   0.714
 1144TIP3    H2 3386   5.517   3.091   0.708
 1145TIP3   OH2 3387   5.819   3.506   0.547
 1145TIP3    H1 3388   5.773   3.514   0.631
 1145TIP3    H2 3389   5.800   3.588   0.501
 1146TIP3   OH2 3390   4.991   3.544   0.466
 1146TIP3    H1 3391   4.945   3.552   0.550
 1146TIP3    H2 3392   4.961   3.619   0.414
 1147TIP3   OH2 3393   7.512   7.147   6.430
 1147TIP3    H1 3394   7.421   7.121   6.438
 1147TIP3    H2 3395   7.523   7.168   6.337
 1148TIP3   OH2 3396   5.526   3.742   0.786
 1148TIP3    H1 3397   5.515   3.678   0.857
 1148TIP3    H2 3398   5.616   3.771   0.794
 1149TIP3   OH2 3399   4.824   3.555   0.681
 1149TIP3    H1 3400   4.832   3.623   0.747
 1149TIP3    H2 3401   4.805   3.475   0.730
 1150TIP3   OH2 3402   4.444   3.077   0.233
 1150TIP3    H1 3403   4.500   3.106   0.304
 1150TIP3    H2 3404   4.433   3.155   0.178
 1151TIP3   OH2 3405   5.439   3.665   0.342
 1151TIP3    H1 3406   5.502   3.620   0.286
 1151TIP3    H2 3407   5.452   3.625   0.428
 1152TIP3   OH2 3408   5.161   3.124   0.023
 1152TIP3    H1 3409   5.103   3.173   0.082
 1152TIP3    H2 3410   5.249   3.137   0.059
 1153TIP3   OH2 3411   4.638   3.290   0.026
 1153TIP3    H1 3412   4.548   3.280  -0.007
 1153TIP3    H2 3413   4.674   3.201   0.025
 1154TIP3   OH2 3414   5.728   3.284   0.258
 1154TIP3    H1 3415   5.673   3.294   0.336
 1154TIP3    H2 3416   5.701   3.200   0.221
 1155TIP3   OH2 3417   4.830   4.076   0.899
 1155TIP3    H1 3418   4.908   4.108   0.944
 1155TIP3    H2 3419   4.758   4.097   0.958
 1156TIP3   OH2 3420   5.273   3.496   0.143
 1156TIP3    H1 3421   5.335   3.432   0.109
 1156TIP3    H2 3422   5.274   3.482   0.238
 1157TIP3   OH2 3423   4.775   3.045   0.034
 1157TIP3    H1 3424   4.743   2.970   0.084
 1157TIP3    H2 3425   4.838   3.007  -0.028
 1158TIP3   OH2 3426   5.243   3.447   0.419
 1158TIP3    H1 3427   5.158   3.489   0.434
 1158TIP3    H2 3428   5.304   3.497   0.473
 1159TIP3   OH2 3429   5.441   4.055   0.577
 1159TIP3    H1 3430   5.489   4.037   0.658
 1159TIP3    H2 3431   5.374   3.987   0.573
 1160TIP3   OH2 3432   4.682   3.815   0.130
 1160TIP3    H1 3433   4.725   3.791   0.048
 1160TIP3    H2 3434   4.746   3.793   0.198
 1161TIP3   OH2 3435   4.569   3.766   0.798
 1161TIP3    H1 3436   4.565   3.744   0.891
 1161TIP3    H2 3437   4.496   3.718   0.759
 1162TIP3   OH2 3438   5.303   3.909   0.822
 1162TIP3    H1 3439   5.233   3.852   0.791
 1162TIP3    H2 3440   5.384   3.864   0.794
 1163TIP3   OH2 3441   5.540   4.384   0.397
 1163TIP3    H1 3442   5.446   4.382   0.416
 1163TIP3    H2 3443   5.576   4.447   0.458
 1164TIP3   OH2 3444   5.009   4.521   0.308
 1164TIP3    H1 3445   5.001   4.570   0.226
 1164TIP3    H2 3446   5.088   4.556   0.350
 1165TIP3   OH2 3447   5.428   4.149   0.307
 1165TIP3    H1 3448   5.443   4.130   0.400
 1165TIP3    H2 3449   5.474   4.232   0.293
 1166TIP3   OH2 3450   4.770   3.302   0.801
 1166TIP3    H1 3451   4.675   3.315   0.804
 1166TIP3    H2 3452   4.790   3.255   0.882
 1167TIP3   OH2 3453   4.480   4.352   0.387
 1167TIP3    H1 3454   4.508   4.337   0.477
 1167TIP3    H2 3455   4.443   4.440   0.387
 1168TIP3   OH2 3456   5.611   3.332   0.502
 1168TIP3    H1 3457   5.693   3.375   0.524
 1168TIP3    H2 3458   5.606   3.256   0.559
 1169TIP3   OH2 3459   5.443   3.553   0.589
 1169TIP3    H1 3460   5.476   3.617   0.652
 1169TIP3    H2 3461   5.507   3.482   0.590
 1170TIP3   OH2 3462   6.090   3.520   0.564
 1170TIP3    H1 3463   5.998   3.494   0.553
 1170TIP3    H2 3464   6.128   3.511   0.477
 1171TIP3   OH2 3465   4.789   2.926   0.410
 1171TIP3    H1 3466   4.758   2.892   0.326
 1171TIP3    H2 3467   4.791   2.850   0.467
 1172TIP3   OH2 3468   4.508   4.689   0.889
 1172TIP3    H1 3469   4.590   4.689   0.939
 1172TIP3    H2 3470   4.473   4.601   0.899
 1173TIP3   OH2 3471   5.007   4.636   0.897
 1173TIP3    H1 3472   5.071   4.573   0.930
 1173TIP3    H2 3473   4.953   4.585   0.837
 1174TIP3   OH2 3474   5.659   4.540   0.582
 1174TIP3    H1 3475   5.704   4.461   0.612
 1174TIP3    H2 3476   5.728   4.606   0.574
 1175TIP3   OH2 3477   4.612   4.105   1.065
 1175TIP3    H1 3478   4.614   4.011   1.079
 1175TIP3    H2 3479   4.529   4.120   1.018
 1176TIP3   OH2 3480   5.222   4.180   0.848
 1176TIP3    H1 3481   5.175   4.203   0.768
 1176TIP3    H2 3482   5.261   4.095   0.829
 1177TIP3   OH2 3483   5.740   4.191   0.346
 1177TIP3    H1 3484   5.773   4.210   0.258
 1177TIP3    H2 3485   5.675   4.260   0.362
 1178TIP3   OH2 3486   4.724   3.840   1.070
 1178TIP3    H1 3487   4.797   3.831   1.009
 1178TIP3    H2 3488   4.765   3.872   1.151
 1179TIP3   OH2 3489   5.108   3.738   0.717
 1179TIP3    H1 3490   5.018   3.770   0.726
 1179TIP3    H2 3491   5.137   3.770   0.632
 1180TIP3   OH2 3492   5.589   4.041   0.818
 1180TIP3    H1 3493   5.612   4.129   0.848
 1180TIP3    H2 3494   5.589   3.988   0.898
 1181TIP3   OH2 3495   5.214   3.506   0.824
 1181TIP3    H1 3496   5.210   3.433   0.762
 1181TIP3    H2 3497   5.181   3.581   0.775
 1182TIP3   OH2 3498   5.206   3.289   0.643
 1182TIP3    H1 3499   5.232   3.326   0.559
 1182TIP3    H2 3500   5.114   3.266   0.632
 1183TIP3   OH2 3501   5.283   3.831   0.507
 1183TIP3    H1 3502   5.338   3.783   0.446
 1183TIP3    H2 3503   5.215   3.871   0.452
 1184TIP3   OH2 3504   5.794   3.746   0.920
 1184TIP3    H1 3505   5.844   3.667   0.900
 1184TIP3    H2 3506   5.860   3.816   0.921
 1185TIP3   OH2 3507   5.842   3.992   0.515
 1185TIP3    H1 3508   5.796   4.056   0.462
 1185TIP3    H2 3509   5.923   4.036   0.542
 1186TIP3   OH2 3510   5.096   3.577   1.071
 1186TIP3    H1 3511   5.018   3.524   1.087
 1186TIP3    H2 3512   5.119   3.557   0.980
 1187TIP3   OH2 3513   5.333   3.067   0.748
 1187TIP3    H1 3514   5.293   3.147   0.713
 1187TIP3    H2 3515   5.267   3.000   0.733
 1188TIP3   OH2 3516   5.459   3.521   0.950
 1188TIP3    H1 3517   5.415   3.507   1.034
 1188TIP3    H2 3518   5.389   3.514   0.885
 1189TIP3   OH2 3519   5.687   3.479   0.783
 1189TIP3    H1 3520   5.610   3.475   0.841
 1189TIP3    H2 3521   5.761   3.464   0.842
 1190TIP3   OH2 3522   5.903   3.463   0.955
 1190TIP3    H1 3523   5.931   3.372   0.956
 1190TIP3    H2 3524   5.924   3.496   1.043
 1191TIP3   OH2 3525   4.910   3.369   1.128
 1191TIP3    H1 3526   4.911   3.279   1.096
 1191TIP3    H2 3527   4.948   3.363   1.216
 1192TIP3   OH2 3528   5.408   3.058   1.013
 1192TIP3    H1 3529   5.477   2.993   1.003
 1192TIP3    H2 3530   5.372   3.069   0.924
 1193TIP3   OH2 3531   5.490   3.263   1.179
 1193TIP3    H1 3532   5.476   3.182   1.130
 1193TIP3    H2 3533   5.408   3.312   1.168
 1194TIP3   OH2 3534   4.176   4.365   0.027
 1194TIP3    H1 3535   4.175   4.279   0.069
 1194TIP3    H2 3536   4.230   4.419   0.084
 1195TIP3   OH2 3537   6.010   4.399   0.841
 1195TIP3    H1 3538   5.950   4.442   0.902
 1195TIP3    H2 3539   6.047   4.471   0.790
 1196TIP3   OH2 3540   4.417   3.746   0.425
 1196TIP3    H1 3541   4.410   3.718   0.334
 1196TIP3    H2 3542   4.511   3.739   0.445
 1197TIP3   OH2 3543   6.095   4.096   0.551
 1197TIP3    H1 3544   6.154   4.023   0.535
 1197TIP3    H2 3545   6.088   4.140   0.466
 1198TIP3   OH2 3546   6.268   3.877   0.533
 1198TIP3    H1 3547   6.189   3.833   0.563
 1198TIP3    H2 3548   6.335   3.808   0.533
 1199TIP3   OH2 3549   6.042   3.731   0.294
 1199TIP3    H1 3550   5.954   3.731   0.332
 1199TIP3    H2 3551   6.037   3.793   0.221
 1200TIP3   OH2 3552   4.644   3.427   1.074
 1200TIP3    H1 3553   4.738   3.423   1.091
 1200TIP3    H2 3554   4.610   3.347   1.115
 1201TIP3   OH2 3555   6.498   3.321   0.839
 1201TIP3    H1 3556   6.560   3.268   0.790
 1201TIP3    H2 3557   6.455   3.376   0.774
 1202TIP3   OH2 3558   4.622   3.148   0.432
 1202TIP3    H1 3559   4.679   3.071   0.439
 1202TIP3    H2 3560   4.683   3.222   0.425
 1203TIP3   OH2 3561   4.406   3.402   0.478
 1203TIP3    H1 3562   4.458   3.403   0.397
 1203TIP3    H2 3563   4.432   3.481   0.524
 1204TIP3   OH2 3564   6.339   3.442   0.656
 1204TIP3    H1 3565   6.255   3.487   0.669
 1204TIP3    H2 3566   6.318   3.367   0.601
 1205TIP3   OH2 3567   6.961   6.656   6.390
 1205TIP3    H1 3568   6.891   6.641   6.454
 1205TIP3    H2 3569   6.993   6.744   6.409
 1206TIP3   OH2 3570   4.612   2.953   0.781
 1206TIP3    H1 3571   4.573   2.953   0.868
 1206TIP3    H2 3572   4.558   3.014   0.730
 1207TIP3   OH2 3573   4.672   4.424   0.917
 1207TIP3    H1 3574   4.585   4.411   0.878
 1207TIP3    H2 3575   4.658   4.409   1.011
 1208TIP3   OH2 3576   4.788   4.481   0.457
 1208TIP3    H1 3577   4.722   4.472   0.387
 1208TIP3    H2 3578   4.872   4.475   0.411
 1209TIP3   OH2 3579   5.384   4.803   0.618
 1209TIP3    H1 3580   5.360   4.795   0.710
 1209TIP3    H2 3581   5.343   4.885   0.589
 1210TIP3   OH2 3582   5.607   4.803   0.447
 1210TIP3    H1 3583   5.528   4.770   0.490
 1210TIP3    H2 3584   5.656   4.847   0.517
 1211TIP3   OH2 3585   6.240   3.210   0.543
 1211TIP3    H1 3586   6.153   3.206   0.502
 1211TIP3    H2 3587   6.276   3.122   0.533
 1212TIP3   OH2 3588   4.540   4.692   0.611
 1212TIP3    H1 3589   4.456   4.736   0.622
 1212TIP3    H2 3590   4.559   4.655   0.698
 1213TIP3   OH2 3591   4.693   4.872   0.468
 1213TIP3    H1 3592   4.659   4.813   0.535
 1213TIP3    H2 3593   4.625   4.872   0.400
 1214TIP3   OH2 3594   4.383   4.541   0.122
 1214TIP3    H1 3595   4.384   4.574   0.212
 1214TIP3    H2 3596   4.430   4.458   0.127
 1215TIP3   OH2 3597   5.398   3.110   0.160
 1215TIP3    H1 3598   5.369   3.045   0.223
 1215TIP3    H2 3599   5.491   3.091   0.147
 1216TIP3   OH2 3600   4.712   2.809   0.168
 1216TIP3    H1 3601   4.622   2.779   0.179
 1216TIP3    H2 3602   4.765   2.729   0.170
 1217TIP3   OH2 3603   7.105   6.442   6.283
 1217TIP3    H1 3604   7.177   6.490   6.242
 1217TIP3    H2 3605   7.059   6.507   6.336
 1218TIP3   OH2 3606   5.159   2.855   0.073
 1218TIP3    H1 3607   5.155   2.941   0.032
 1218TIP3    H2 3608   5.212   2.869   0.152
 1219TIP3   OH2 3609   5.666   3.034   0.142
 1219TIP3    H1 3610   5.733   3.034   0.073
 1219TIP3    H2 3611   5.661   2.943   0.171
 1220TIP3   OH2 3612   4.926   3.099   1.046
 1220TIP3    H1 3613   4.890   3.031   1.104
 1220TIP3    H2 3614   5.018   3.105   1.072
 1221TIP3   OH2 3615   5.178   3.108   1.172
 1221TIP3    H1 3616   5.255   3.080   1.123
 1221TIP3    H2 3617   5.162   3.038   1.235
 1222TIP3   OH2 3618   5.996   3.206   0.962
 1222TIP3    H1 3619   6.009   3.172   1.051
 1222TIP3    H2 3620   6.083   3.200   0.921
 1223TIP3   OH2 3621   5.804   4.824   0.266
 1223TIP3    H1 3622   5.843   4.736   0.271
 1223TIP3    H2 3623   5.728   4.820   0.324
 1224TIP3   OH2 3624   6.594   3.480   0.311
 1224TIP3    H1 3625   6.520   3.528   0.347
 1224TIP3    H2 3626   6.642   3.449   0.387
 1225TIP3   OH2 3627   6.338   4.353   0.530
 1225TIP3    H1 3628   6.375   4.268   0.556
 1225TIP3    H2 3629   6.369   4.366   0.441
 1226TIP3   OH2 3630   6.669   4.051   0.542
 1226TIP3    H1 3631   6.574   4.057   0.528
 1226TIP3    H2 3632   6.683   4.088   0.628
 1227TIP3   OH2 3633   6.865   3.859   0.564
 1227TIP3    H1 3634   6.816   3.777   0.571
 1227TIP3    H2 3635   6.801   3.923   0.534
 1228TIP3   OH2 3636   6.711   3.633   0.618
 1228TIP3    H1 3637   6.723   3.547   0.579
 1228TIP3    H2 3638   6.742   3.624   0.708
 1229TIP3   OH2 3639   7.189   3.474   0.566
 1229TIP3    H1 3640   7.282   3.479   0.546
 1229TIP3    H2 3641   7.164   3.565   0.585
 1230TIP3   OH2 3642   6.448   3.670   0.551
 1230TIP3    H1 3643   6.542   3.674   0.568
 1230TIP3    H2 3644   6.417   3.597   0.604
 1231TIP3   OH2 3645   6.400   3.252   0.309
 1231TIP3    H1 3646   6.343   3.259   0.386
 1231TIP3    H2 3647   6.408   3.341   0.277
 1232TIP3   OH2 3648   6.727   3.366   0.534
 1232TIP3    H1 3649   6.686   3.291   0.576
 1232TIP3    H2 3650   6.817   3.367   0.567
 1233TIP3   OH2 3651   6.964   3.369   0.676
 1233TIP3    H1 3652   7.040   3.403   0.629
 1233TIP3    H2 3653   7.000   3.309   0.741
 1234TIP3   OH2 3654   0.476   4.458   1.327
 1234TIP3    H1 3655   0.509   4.534   1.374
 1234TIP3    H2 3656   0.530   4.453   1.248
 1235TIP3   OH2 3657   0.541   4.651   1.523
 1235TIP3    H1 3658   0.449   4.676   1.533
 1235TIP3    H2 3659   0.585   4.691   1.598
 1236TIP3   OH2 3660   0.114   4.327   1.182
 1236TIP3    H1 3661   0.081   4.347   1.270
 1236TIP3    H2 3662   0.143   4.411   1.147
 1237TIP3   OH2 3663   0.294   4.322   1.510
 1237TIP3    H1 3664   0.203   4.331   1.482
 1237TIP3    H2 3665   0.345   4.356   1.436
 1238TIP3   OH2 3666   0.429   4.939   1.367
 1238TIP3    H1 3667   0.409   5.000   1.297
 1238TIP3    H2 3668   0.471   4.865   1.324
 1239TIP3   OH2 3669   0.049   4.860   1.667
 1239TIP3    H1 3670   0.065   4.932   1.727
 1239TIP3    H2 3671  -0.042   4.871   1.640
 1240TIP3   OH2 3672   0.446   5.718   1.580
 1240TIP3    H1 3673   0.411   5.661   1.511
 1240TIP3    H2 3674   0.369   5.742   1.632
 1241TIP3   OH2 3675   0.297   4.804   1.838
 1241TIP3    H1 3676   0.238   4.795   1.764
 1241TIP3    H2 3677   0.332   4.716   1.852
 1242TIP3   OH2 3678   7.813   4.159   1.800
 1242TIP3    H1 3679   7.884   4.137   1.860
 1242TIP3    H2 3680   7.739   4.179   1.857
 1243TIP3   OH2 3681   0.068   4.590   1.721
 1243TIP3    H1 3682   0.048   4.592   1.814
 1243TIP3    H2 3683   0.053   4.680   1.691
 1244TIP3   OH2 3684   7.736   4.874   1.929
 1244TIP3    H1 3685   7.682   4.882   2.007
 1244TIP3    H2 3686   7.826   4.867   1.962
 1245TIP3   OH2 3687   7.920   4.313   1.440
 1245TIP3    H1 3688   7.861   4.354   1.503
 1245TIP3    H2 3689   7.867   4.246   1.397
 1246TIP3   OH2 3690   0.458   5.356   1.626
 1246TIP3    H1 3691   0.399   5.428   1.647
 1246TIP3    H2 3692   0.477   5.366   1.533
 1247TIP3   OH2 3693   7.785   4.397   1.664
 1247TIP3    H1 3694   7.863   4.450   1.681
 1247TIP3    H2 3695   7.801   4.315   1.711
 1248TIP3   OH2 3696   7.655   4.613   1.789
 1248TIP3    H1 3697   7.720   4.663   1.839
 1248TIP3    H2 3698   7.707   4.550   1.739
 1249TIP3   OH2 3699   0.332   4.526   1.722
 1249TIP3    H1 3700   0.238   4.544   1.721
 1249TIP3    H2 3701   0.345   4.463   1.652
 1250TIP3   OH2 3702   7.699   5.144   1.894
 1250TIP3    H1 3703   7.765   5.167   1.960
 1250TIP3    H2 3704   7.698   5.049   1.893
 1251TIP3   OH2 3705   0.091   4.840   2.037
 1251TIP3    H1 3706   0.074   4.746   2.029
 1251TIP3    H2 3707   0.173   4.854   1.990
 1252TIP3   OH2 3708   0.097   5.092   1.812
 1252TIP3    H1 3709   0.029   5.156   1.792
 1252TIP3    H2 3710   0.169   5.114   1.753
 1253TIP3   OH2 3711   7.555   4.214   1.899
 1253TIP3    H1 3712   7.501   4.292   1.886
 1253TIP3    H2 3713   7.503   4.142   1.863
 1254TIP3   OH2 3714   7.652   4.631   2.087
 1254TIP3    H1 3715   7.648   4.699   2.154
 1254TIP3    H2 3716   7.597   4.664   2.016
 1255TIP3   OH2 3717   7.902   4.587   1.980
 1255TIP3    H1 3718   7.819   4.578   2.028
 1255TIP3    H2 3719   7.964   4.534   2.029
 1256TIP3   OH2 3720   0.221   4.501   2.122
 1256TIP3    H1 3721   0.223   4.406   2.136
 1256TIP3    H2 3722   0.203   4.538   2.208
 1257TIP3   OH2 3723   7.601   4.078   2.133
 1257TIP3    H1 3724   7.652   4.000   2.112
 1257TIP3    H2 3725   7.584   4.119   2.048
 1258TIP3   OH2 3726   7.583   4.353   2.295
 1258TIP3    H1 3727   7.553   4.264   2.315
 1258TIP3    H2 3728   7.540   4.375   2.212
 1259TIP3   OH2 3729   0.315   5.484   1.860
 1259TIP3    H1 3730   0.238   5.492   1.917
 1259TIP3    H2 3731   0.363   5.566   1.874
 1260TIP3   OH2 3732   0.317   5.126   1.657
 1260TIP3    H1 3733   0.383   5.056   1.664
 1260TIP3    H2 3734   0.368   5.204   1.637
 1261TIP3   OH2 3735   0.509   4.940   1.722
 1261TIP3    H1 3736   0.441   4.893   1.770
 1261TIP3    H2 3737   0.587   4.885   1.733
 1262TIP3   OH2 3738   0.221   4.606   1.285
 1262TIP3    H1 3739   0.302   4.556   1.277
 1262TIP3    H2 3740   0.231   4.654   1.367
 1263TIP3   OH2 3741   0.270   4.766   1.511
 1263TIP3    H1 3742   0.190   4.806   1.547
 1263TIP3    H2 3743   0.316   4.839   1.470
 1264TIP3   OH2 3744   0.751   4.369   2.007
 1264TIP3    H1 3745   0.815   4.313   1.964
 1264TIP3    H2 3746   0.711   4.419   1.936
 1265TIP3   OH2 3747   0.598   4.483   1.813
 1265TIP3    H1 3748   0.515   4.522   1.839
 1265TIP3    H2 3749   0.574   4.408   1.758
 1266TIP3   OH2 3750   0.503   4.242   1.704
 1266TIP3    H1 3751   0.420   4.239   1.657
 1266TIP3    H2 3752   0.538   4.154   1.697
 1267TIP3   OH2 3753   0.225   4.073   1.191
 1267TIP3    H1 3754   0.306   4.101   1.149
 1267TIP3    H2 3755   0.171   4.152   1.195
 1268TIP3   OH2 3756   0.430   4.170   1.049
 1268TIP3    H1 3757   0.466   4.109   0.985
 1268TIP3    H2 3758   0.431   4.255   1.005
 1269TIP3   OH2 3759   7.775   4.127   1.292
 1269TIP3    H1 3760   7.824   4.130   1.210
 1269TIP3    H2 3761   7.767   4.033   1.312
 1270TIP3   OH2 3762   0.267   4.232   2.140
 1270TIP3    H1 3763   0.281   4.203   2.230
 1270TIP3    H2 3764   0.354   4.230   2.100
 1271TIP3   OH2 3765   1.412   5.136   0.398
 1271TIP3    H1 3766   1.433   5.222   0.433
 1271TIP3    H2 3767   1.318   5.138   0.383
 1272TIP3   OH2 3768   1.470   5.144   0.795
 1272TIP3    H1 3769   1.514   5.124   0.878
 1272TIP3    H2 3770   1.424   5.063   0.773
 1273TIP3   OH2 3771   0.703   5.046   1.124
 1273TIP3    H1 3772   0.718   4.985   1.196
 1273TIP3    H2 3773   0.786   5.048   1.076
 1274TIP3   OH2 3774   1.625   5.477   0.497
 1274TIP3    H1 3775   1.649   5.402   0.552
 1274TIP3    H2 3776   1.682   5.548   0.526
 1275TIP3   OH2 3777   1.281   5.342   0.804
 1275TIP3    H1 3778   1.342   5.270   0.793
 1275TIP3    H2 3779   1.336   5.418   0.823
 1276TIP3   OH2 3780   2.281   4.695   0.823
 1276TIP3    H1 3781   2.298   4.777   0.868
 1276TIP3    H2 3782   2.303   4.713   0.731
 1277TIP3   OH2 3783   1.663   4.852   0.845
 1277TIP3    H1 3784   1.693   4.768   0.879
 1277TIP3    H2 3785   1.621   4.831   0.762
 1278TIP3   OH2 3786   1.028   4.514   0.799
 1278TIP3    H1 3787   1.020   4.584   0.734
 1278TIP3    H2 3788   0.972   4.444   0.767
 1279TIP3   OH2 3789   1.713   4.613   0.442
 1279TIP3    H1 3790   1.772   4.607   0.518
 1279TIP3    H2 3791   1.767   4.652   0.373
 1280TIP3   OH2 3792   0.652   4.715   0.962
 1280TIP3    H1 3793   0.742   4.684   0.970
 1280TIP3    H2 3794   0.620   4.675   0.882
 1281TIP3   OH2 3795   1.069   4.936   0.769
 1281TIP3    H1 3796   1.165   4.928   0.771
 1281TIP3    H2 3797   1.039   4.858   0.723
 1282TIP3   OH2 3798   2.338   4.916   0.986
 1282TIP3    H1 3799   2.248   4.949   0.981
 1282TIP3    H2 3800   2.369   4.945   1.071
 1283TIP3   OH2 3801   0.976   4.490   1.266
 1283TIP3    H1 3802   0.946   4.537   1.188
 1283TIP3    H2 3803   0.927   4.530   1.338
 1284TIP3   OH2 3804   1.133   5.252   1.023
 1284TIP3    H1 3805   1.084   5.327   1.058
 1284TIP3    H2 3806   1.177   5.287   0.946
 1285TIP3   OH2 3807   1.865   4.644   0.667
 1285TIP3    H1 3808   1.826   4.618   0.750
 1285TIP3    H2 3809   1.921   4.718   0.688
 1286TIP3   OH2 3810   0.897   4.608   1.025
 1286TIP3    H1 3811   0.952   4.682   1.052
 1286TIP3    H2 3812   0.947   4.567   0.955
 1287TIP3   OH2 3813   0.986   5.458   1.125
 1287TIP3    H1 3814   0.949   5.522   1.065
 1287TIP3    H2 3815   0.917   5.443   1.189
 1288TIP3   OH2 3816   1.754   5.706   0.624
 1288TIP3    H1 3817   1.667   5.706   0.664
 1288TIP3    H2 3818   1.761   5.791   0.580
 1289TIP3   OH2 3819   2.076   4.587   0.993
 1289TIP3    H1 3820   1.990   4.607   0.957
 1289TIP3    H2 3821   2.138   4.615   0.925
 1290TIP3   OH2 3822   1.345   4.223   0.997
 1290TIP3    H1 3823   1.343   4.131   1.024
 1290TIP3    H2 3824   1.267   4.262   1.036
 1291TIP3   OH2 3825   1.983   5.597   0.960
 1291TIP3    H1 3826   1.964   5.523   0.902
 1291TIP3    H2 3827   1.973   5.674   0.904
 1292TIP3   OH2 3828   2.164   5.257   0.823
 1292TIP3    H1 3829   2.079   5.301   0.822
 1292TIP3    H2 3830   2.199   5.272   0.735
 1293TIP3   OH2 3831   1.614   5.033   0.240
 1293TIP3    H1 3832   1.558   5.068   0.309
 1293TIP3    H2 3833   1.703   5.035   0.278
 1294TIP3   OH2 3834   1.863   5.133   1.112
 1294TIP3    H1 3835   1.856   5.211   1.167
 1294TIP3    H2 3836   1.776   5.126   1.071
 1295TIP3   OH2 3837   0.947   5.049   0.989
 1295TIP3    H1 3838   0.974   5.016   0.903
 1295TIP3    H2 3839   1.005   5.124   1.004
 1296TIP3   OH2 3840   1.513   5.715   0.750
 1296TIP3    H1 3841   1.508   5.778   0.822
 1296TIP3    H2 3842   1.503   5.630   0.793
 1297TIP3   OH2 3843   1.137   5.603   1.302
 1297TIP3    H1 3844   1.066   5.657   1.336
 1297TIP3    H2 3845   1.094   5.544   1.240
 1298TIP3   OH2 3846   0.900   5.146   1.458
 1298TIP3    H1 3847   0.905   5.239   1.479
 1298TIP3    H2 3848   0.806   5.127   1.456
 1299TIP3   OH2 3849   0.925   5.755   1.385
 1299TIP3    H1 3850   0.875   5.828   1.346
 1299TIP3    H2 3851   0.863   5.711   1.443
 1300TIP3   OH2 3852   1.964   4.189   0.081
 1300TIP3    H1 3853   1.916   4.225   0.156
 1300TIP3    H2 3854   1.990   4.266   0.030
 1301TIP3   OH2 3855   0.550   5.318   1.356
 1301TIP3    H1 3856   0.514   5.277   1.277
 1301TIP3    H2 3857   0.587   5.245   1.406
 1302TIP3   OH2 3858   2.216   5.962   1.025
 1302TIP3    H1 3859   2.221   5.867   1.035
 1302TIP3    H2 3860   2.136   5.987   1.071
 1303TIP3   OH2 3861   1.325   5.743   1.167
 1303TIP3    H1 3862   1.328   5.833   1.201
 1303TIP3    H2 3863   1.260   5.699   1.223
 1304TIP3   OH2 3864   2.111   5.073   1.307
 1304TIP3    H1 3865   2.029   5.059   1.259
 1304TIP3    H2 3866   2.134   4.986   1.339
 1305TIP3   OH2 3867   0.791   5.457   1.313
 1305TIP3    H1 3868   0.826   5.447   1.402
 1305TIP3    H2 3869   0.703   5.419   1.317
 1306TIP3   OH2 3870   1.104   4.300   1.112
 1306TIP3    H1 3871   1.017   4.279   1.079
 1306TIP3    H2 3872   1.090   4.375   1.171
 1307TIP3   OH2 3873   1.895   4.889   1.243
 1307TIP3    H1 3874   1.830   4.858   1.306
 1307TIP3    H2 3875   1.849   4.956   1.192
 1308TIP3   OH2 3876   1.300   4.439   0.155
 1308TIP3    H1 3877   1.241   4.504   0.192
 1308TIP3    H2 3878   1.301   4.367   0.219
 1309TIP3   OH2 3879   1.043   4.822   1.114
 1309TIP3    H1 3880   1.053   4.856   1.203
 1309TIP3    H2 3881   1.011   4.896   1.064
 1310TIP3   OH2 3882   0.991   4.715   0.617
 1310TIP3    H1 3883   0.895   4.711   0.613
 1310TIP3    H2 3884   1.016   4.760   0.537
 1311TIP3   OH2 3885   1.403   4.815   0.370
 1311TIP3    H1 3886   1.369   4.901   0.345
 1311TIP3    H2 3887   1.460   4.789   0.298
 1312TIP3   OH2 3888   1.590   5.066   1.453
 1312TIP3    H1 3889   1.559   4.995   1.510
 1312TIP3    H2 3890   1.683   5.073   1.472
 1313TIP3   OH2 3891   1.568   4.802   0.592
 1313TIP3    H1 3892   1.502   4.825   0.527
 1313TIP3    H2 3893   1.615   4.727   0.555
 1314TIP3   OH2 3894   0.800   4.848   1.332
 1314TIP3    H1 3895   0.882   4.897   1.343
 1314TIP3    H2 3896   0.814   4.768   1.382
 1315TIP3   OH2 3897   0.479   4.409   0.922
 1315TIP3    H1 3898   0.544   4.430   0.990
 1315TIP3    H2 3899   0.530   4.401   0.842
 1316TIP3   OH2 3900   1.613   5.055   1.016
 1316TIP3    H1 3901   1.637   4.986   0.955
 1316TIP3    H2 3902   1.572   5.010   1.090
 1317TIP3   OH2 3903   1.295   4.519   0.700
 1317TIP3    H1 3904   1.215   4.516   0.752
 1317TIP3    H2 3905   1.366   4.505   0.763
 1318TIP3   OH2 3906   1.736   4.595   0.915
 1318TIP3    H1 3907   1.722   4.609   1.009
 1318TIP3    H2 3908   1.665   4.536   0.890
 1319TIP3   OH2 3909   1.937   6.301   1.130
 1319TIP3    H1 3910   1.932   6.309   1.034
 1319TIP3    H2 3911   2.016   6.350   1.153
 1320TIP3   OH2 3912   0.886   5.405   1.565
 1320TIP3    H1 3913   0.968   5.425   1.609
 1320TIP3    H2 3914   0.820   5.409   1.634
 1321TIP3   OH2 3915   1.344   4.897   0.773
 1321TIP3    H1 3916   1.398   4.831   0.729
 1321TIP3    H2 3917   1.339   4.866   0.864
 1322TIP3   OH2 3918   0.850   4.337   0.689
 1322TIP3    H1 3919   0.807   4.263   0.730
 1322TIP3    H2 3920   0.848   4.317   0.595
 1323TIP3   OH2 3921   1.313   4.820   1.031
 1323TIP3    H1 3922   1.225   4.798   1.063
 1323TIP3    H2 3923   1.370   4.807   1.106
 1324TIP3   OH2 3924   1.926   5.394   0.781
 1324TIP3    H1 3925   1.964   5.444   0.708
 1324TIP3    H2 3926   1.847   5.354   0.744
 1325TIP3   OH2 3927   1.537   4.525   0.066
 1325TIP3    H1 3928   1.448   4.505   0.093
 1325TIP3    H2 3929   1.550   4.616   0.092
 1326TIP3   OH2 3930   1.457   5.489   1.168
 1326TIP3    H1 3931   1.497   5.467   1.253
 1326TIP3    H2 3932   1.410   5.571   1.184
 1327TIP3   OH2 3933   1.595   4.771   0.171
 1327TIP3    H1 3934   1.687   4.746   0.181
 1327TIP3    H2 3935   1.596   4.866   0.171
 1328TIP3   OH2 3936   0.627   5.097   1.496
 1328TIP3    H1 3937   0.645   5.077   1.588
 1328TIP3    H2 3938   0.567   5.028   1.468
 1329TIP3   OH2 3939   1.370   5.235   1.458
 1329TIP3    H1 3940   1.321   5.202   1.382
 1329TIP3    H2 3941   1.454   5.188   1.454
 1330TIP3   OH2 3942   1.579   5.773   1.054
 1330TIP3    H1 3943   1.488   5.751   1.072
 1330TIP3    H2 3944   1.614   5.803   1.138
 1331TIP3   OH2 3945   7.241   1.052   6.426
 1331TIP3    H1 3946   7.160   1.013   6.392
 1331TIP3    H2 3947   7.256   1.128   6.370
 1332TIP3   OH2 3948   2.229   5.685   1.049
 1332TIP3    H1 3949   2.135   5.667   1.049
 1332TIP3    H2 3950   2.260   5.650   0.965
 1333TIP3   OH2 3951   1.697   5.259   0.675
 1333TIP3    H1 3952   1.614   5.230   0.713
 1333TIP3    H2 3953   1.739   5.178   0.645
 1334TIP3   OH2 3954   1.097   5.867   1.024
 1334TIP3    H1 3955   1.132   5.863   0.935
 1334TIP3    H2 3956   1.160   5.818   1.077
 1335TIP3   OH2 3957   1.507   5.480   0.899
 1335TIP3    H1 3958   1.488   5.479   0.992
 1335TIP3    H2 3959   1.582   5.420   0.889
 1336TIP3   OH2 3960   1.744   5.981   0.965
 1336TIP3    H1 3961   1.673   5.916   0.970
 1336TIP3    H2 3962   1.720   6.037   0.891
 1337TIP3   OH2 3963   0.816   4.602   1.468
 1337TIP3    H1 3964   0.722   4.600   1.483
 1337TIP3    H2 3965   0.853   4.545   1.535
 1338TIP3   OH2 3966   1.676   4.644   1.180
 1338TIP3    H1 3967   1.727   4.667   1.257
 1338TIP3    H2 3968   1.595   4.606   1.215
 1339TIP3   OH2 3969   1.561   4.411   0.331
 1339TIP3    H1 3970   1.552   4.444   0.242
 1339TIP3    H2 3971   1.607   4.482   0.377
 1340TIP3   OH2 3972   1.248   4.591   0.434
 1340TIP3    H1 3973   1.293   4.672   0.410
 1340TIP3    H2 3974   1.255   4.586   0.529
 1341TIP3   OH2 3975   1.515   4.911   1.229
 1341TIP3    H1 3976   1.537   4.960   1.309
 1341TIP3    H2 3977   1.541   4.821   1.248
 1342TIP3   OH2 3978   1.383   4.317   0.528
 1342TIP3    H1 3979   1.358   4.395   0.578
 1342TIP3    H2 3980   1.444   4.348   0.462
 1343TIP3   OH2 3981   0.869   4.286   0.417
 1343TIP3    H1 3982   0.830   4.288   0.329
 1343TIP3    H2 3983   0.962   4.303   0.401
 1344TIP3   OH2 3984   2.136   4.774   1.202
 1344TIP3    H1 3985   2.050   4.812   1.219
 1344TIP3    H2 3986   2.121   4.711   1.132
 1345TIP3   OH2 3987   1.788   4.998   0.612
 1345TIP3    H1 3988   1.711   4.943   0.625
 1345TIP3    H2 3989   1.856   4.959   0.665
 1346TIP3   OH2 3990   1.788   5.973   0.549
 1346TIP3    H1 3991   1.743   5.962   0.466
 1346TIP3    H2 3992   1.874   6.007   0.525
 1347TIP3   OH2 3993   0.833   4.222   1.067
 1347TIP3    H1 3994   0.802   4.192   0.982
 1347TIP3    H2 3995   0.825   4.147   1.124
 1348TIP3   OH2 3996   0.537   6.005   1.648
 1348TIP3    H1 3997   0.631   6.023   1.649
 1348TIP3    H2 3998   0.529   5.924   1.599
 1349TIP3   OH2 3999   1.029   5.910   1.593
 1349TIP3    H1 4000   1.122   5.887   1.602
 1349TIP3    H2 4001   0.999   5.860   1.517
 1350TIP3   OH2 4002   1.657   5.854   1.304
 1350TIP3    H1 4003   1.664   5.785   1.370
 1350TIP3    H2 4004   1.727   5.915   1.326
 1351TIP3   OH2 4005   0.693   5.386   1.762
 1351TIP3    H1 4006   0.723   5.296   1.776
 1351TIP3    H2 4007   0.606   5.377   1.722
 1352TIP3   OH2 4008   1.290   5.500   1.505
 1352TIP3    H1 4009   1.243   5.522   1.425
 1352TIP3    H2 4010   1.329   5.414   1.487
 1353TIP3   OH2 4011   1.762   5.541   1.117
 1353TIP3    H1 4012   1.838   5.570   1.067
 1353TIP3    H2 4013   1.692   5.599   1.090
 1354TIP3   OH2 4014   0.802   5.126   1.735
 1354TIP3    H1 4015   0.874   5.111   1.674
 1354TIP3    H2 4016   0.845   5.149   1.817
 1355TIP3   OH2 4017   1.075   4.969   1.346
 1355TIP3    H1 4018   1.022   5.033   1.393
 1355TIP3    H2 4019   1.146   5.019   1.308
 1356TIP3   OH2 4020   1.649   5.420   1.469
 1356TIP3    H1 4021   1.715   5.382   1.412
 1356TIP3    H2 4022   1.645   5.361   1.545
 1357TIP3   OH2 4023   1.248   4.782   1.490
 1357TIP3    H1 4024   1.286   4.706   1.446
 1357TIP3    H2 4025   1.195   4.824   1.423
 1358TIP3   OH2 4026   1.270   5.119   1.224
 1358TIP3    H1 4027   1.339   5.068   1.181
 1358TIP3    H2 4028   1.228   5.168   1.153
 1359TIP3   OH2 4029   1.855   5.078   1.546
 1359TIP3    H1 4030   1.888   4.989   1.552
 1359TIP3    H2 4031   1.931   5.130   1.518
 1360TIP3   OH2 4032   1.880   5.363   1.285
 1360TIP3    H1 4033   1.830   5.426   1.233
 1360TIP3    H2 4034   1.970   5.371   1.253
 1361TIP3   OH2 4035   1.130   4.888   1.726
 1361TIP3    H1 4036   1.063   4.824   1.746
 1361TIP3    H2 4037   1.163   4.862   1.640
 1362TIP3   OH2 4038   1.502   4.849   1.591
 1362TIP3    H1 4039   1.487   4.834   1.685
 1362TIP3    H2 4040   1.422   4.816   1.549
 1363TIP3   OH2 4041   1.738   4.788   1.442
 1363TIP3    H1 4042   1.657   4.784   1.492
 1363TIP3    H2 4043   1.807   4.768   1.505
 1364TIP3   OH2 4044   1.972   4.777   1.610
 1364TIP3    H1 4045   1.990   4.683   1.614
 1364TIP3    H2 4046   1.968   4.805   1.701
 1365TIP3   OH2 4047   0.960   4.675   1.799
 1365TIP3    H1 4048   0.966   4.589   1.758
 1365TIP3    H2 4049   1.002   4.663   1.885
 1366TIP3   OH2 4050   1.439   4.386   1.615
 1366TIP3    H1 4051   1.502   4.316   1.595
 1366TIP3    H2 4052   1.429   4.434   1.532
 1367TIP3   OH2 4053   1.534   4.569   1.799
 1367TIP3    H1 4054   1.510   4.506   1.731
 1367TIP3    H2 4055   1.463   4.633   1.798
 1368TIP3   OH2 4056   2.032   6.086   0.508
 1368TIP3    H1 4057   2.062   6.090   0.599
 1368TIP3    H2 4058   2.111   6.096   0.456
 1369TIP3   OH2 4059   2.085   6.055   0.789
 1369TIP3    H1 4060   2.032   5.976   0.782
 1369TIP3    H2 4061   2.149   6.035   0.858
 1370TIP3   OH2 4062   2.109   5.757   1.374
 1370TIP3    H1 4063   2.037   5.764   1.437
 1370TIP3    H2 4064   2.155   5.840   1.381
 1371TIP3   OH2 4065   2.000   5.198  -0.028
 1371TIP3    H1 4066   2.051   5.278  -0.031
 1371TIP3    H2 4067   2.009   5.167   0.062
 1372TIP3   OH2 4068   2.068   5.099   0.215
 1372TIP3    H1 4069   1.998   5.069   0.273
 1372TIP3    H2 4070   2.129   5.145   0.273
 1373TIP3   OH2 4071   2.106   5.528   0.618
 1373TIP3    H1 4072   2.161   5.460   0.580
 1373TIP3    H2 4073   2.123   5.606   0.565
 1374TIP3   OH2 4074   1.928   5.824   0.813
 1374TIP3    H1 4075   1.860   5.871   0.862
 1374TIP3    H2 4076   1.880   5.783   0.741
 1375TIP3   OH2 4077   7.267   1.263   6.260
 1375TIP3    H1 4078   7.197   1.288   6.200
 1375TIP3    H2 4079   7.278   1.338   6.317
 1376TIP3   OH2 4080   7.192   0.977   6.102
 1376TIP3    H1 4081   7.111   1.025   6.085
 1376TIP3    H2 4082   7.164   0.900   6.152
 1377TIP3   OH2 4083   1.864   4.977   0.351
 1377TIP3    H1 4084   1.872   4.883   0.335
 1377TIP3    H2 4085   1.845   4.984   0.444
 1378TIP3   OH2 4086   2.137   5.403   1.183
 1378TIP3    H1 4087   2.203   5.336   1.168
 1378TIP3    H2 4088   2.142   5.460   1.106
 1379TIP3   OH2 4089   2.317   5.193   1.173
 1379TIP3    H1 4090   2.242   5.152   1.217
 1379TIP3    H2 4091   2.391   5.136   1.195
 1380TIP3   OH2 4092   7.105   0.761   6.262
 1380TIP3    H1 4093   7.183   0.723   6.301
 1380TIP3    H2 4094   7.045   0.687   6.253
 1381TIP3   OH2 4095   1.869   4.714   0.229
 1381TIP3    H1 4096   1.916   4.631   0.241
 1381TIP3    H2 4097   1.907   4.752   0.150
 1382TIP3   OH2 4098   2.007   4.874   0.736
 1382TIP3    H1 4099   2.087   4.891   0.687
 1382TIP3    H2 4100   2.022   4.915   0.821
 1383TIP3   OH2 4101   2.079   5.029   0.957
 1383TIP3    H1 4102   2.007   5.058   1.012
 1383TIP3    H2 4103   2.111   5.110   0.915
 1384TIP3   OH2 4104   0.694   4.733   1.746
 1384TIP3    H1 4105   0.789   4.730   1.757
 1384TIP3    H2 4106   0.664   4.650   1.782
 1385TIP3   OH2 4107   2.540   4.627   1.495
 1385TIP3    H1 4108   2.605   4.571   1.454
 1385TIP3    H2 4109   2.500   4.675   1.423
 1386TIP3   OH2 4110   1.991   4.469   0.264
 1386TIP3    H1 4111   2.037   4.460   0.348
 1386TIP3    H2 4112   1.920   4.404   0.269
 1387TIP3   OH2 4113   0.675   4.444   1.116
 1387TIP3    H1 4114   0.724   4.361   1.114
 1387TIP3    H2 4115   0.741   4.510   1.095
 1388TIP3   OH2 4116   0.565   4.746   1.222
 1388TIP3    H1 4117   0.592   4.728   1.131
 1388TIP3    H2 4118   0.647   4.770   1.266
 1389TIP3   OH2 4119   2.393   4.732   1.289
 1389TIP3    H1 4120   2.304   4.769   1.291
 1389TIP3    H2 4121   2.383   4.650   1.239
 1390TIP3   OH2 4122   7.340   0.652   6.350
 1390TIP3    H1 4123   7.415   0.593   6.346
 1390TIP3    H2 4124   7.379   0.740   6.356
 1391TIP3   OH2 4125   0.664   4.295   1.477
 1391TIP3    H1 4126   0.611   4.283   1.556
 1391TIP3    H2 4127   0.604   4.335   1.413
 1392TIP3   OH2 4128   0.719   5.740   1.581
 1392TIP3    H1 4129   0.625   5.719   1.582
 1392TIP3    H2 4130   0.747   5.728   1.672
 1393TIP3   OH2 4131   1.342   6.006   1.246
 1393TIP3    H1 4132   1.382   5.994   1.332
 1393TIP3    H2 4133   1.410   6.049   1.194
 1394TIP3   OH2 4134   1.544   6.140   1.114
 1394TIP3    H1 4135   1.614   6.088   1.076
 1394TIP3    H2 4136   1.589   6.206   1.167
 1395TIP3   OH2 4137   2.308   4.482   1.191
 1395TIP3    H1 4138   2.217   4.472   1.162
 1395TIP3    H2 4139   2.344   4.394   1.187
 1396TIP3   OH2 4140   1.449   6.000   0.839
 1396TIP3    H1 4141   1.369   5.951   0.824
 1396TIP3    H2 4142   1.424   6.071   0.899
 1397TIP3   OH2 4143   1.735   6.155   0.747
 1397TIP3    H1 4144   1.652   6.191   0.716
 1397TIP3    H2 4145   1.761   6.092   0.681
 1398TIP3   OH2 4146   1.517   4.421   0.841
 1398TIP3    H1 4147   1.481   4.351   0.896
 1398TIP3    H2 4148   1.582   4.376   0.786
 1399TIP3   OH2 4149   2.006   4.329   0.712
 1399TIP3    H1 4150   2.042   4.385   0.643
 1399TIP3    H2 4151   1.912   4.346   0.709
 1400TIP3   OH2 4152   2.139   4.419   0.489
 1400TIP3    H1 4153   2.207   4.357   0.464
 1400TIP3    H2 4154   2.178   4.505   0.474
 1401TIP3   OH2 4155   0.735   4.122   0.824
 1401TIP3    H1 4156   0.651   4.077   0.828
 1401TIP3    H2 4157   0.800   4.052   0.823
 1402TIP3   OH2 4158   1.249   4.164   0.738
 1402TIP3    H1 4159   1.293   4.223   0.676
 1402TIP3    H2 4160   1.280   4.193   0.824
 1403TIP3   OH2 4161   1.722   4.301   0.697
 1403TIP3    H1 4162   1.713   4.254   0.614
 1403TIP3    H2 4163   1.730   4.232   0.763
 1404TIP3   OH2 4164   1.803   4.272   0.289
 1404TIP3    H1 4165   1.716   4.309   0.277
 1404TIP3    H2 4166   1.796   4.215   0.366
 1405TIP3   OH2 4167   1.133   4.349   0.366
 1405TIP3    H1 4168   1.173   4.288   0.428
 1405TIP3    H2 4169   1.162   4.436   0.395
 1406TIP3   OH2 4170   0.976   4.407   1.709
 1406TIP3    H1 4171   0.944   4.338   1.766
 1406TIP3    H2 4172   1.070   4.412   1.727
 1407TIP3   OH2 4173   1.234   4.406   1.813
 1407TIP3    H1 4174   1.302   4.403   1.745
 1407TIP3    H2 4175   1.252   4.330   1.868
 1408TIP3   OH2 4176   2.056   4.513   1.627
 1408TIP3    H1 4177   2.071   4.479   1.715
 1408TIP3    H2 4178   2.140   4.501   1.583
 1409TIP3   OH2 4179   1.969   6.027   1.127
 1409TIP3    H1 4180   1.894   6.000   1.074
 1409TIP3    H2 4181   1.958   6.122   1.137
 1410TIP3   OH2 4182   3.189   5.405   0.298
 1410TIP3    H1 4183   3.230   5.405   0.385
 1410TIP3    H2 4184   3.153   5.317   0.289
 1411TIP3   OH2 4185   2.539   5.276   0.639
 1411TIP3    H1 4186   2.575   5.222   0.709
 1411TIP3    H2 4187   2.616   5.298   0.586
 1412TIP3   OH2 4188   2.536   5.707   0.336
 1412TIP3    H1 4189   2.518   5.613   0.341
 1412TIP3    H2 4190   2.630   5.712   0.317
 1413TIP3   OH2 4191   2.217   4.899   0.100
 1413TIP3    H1 4192   2.173   4.973   0.142
 1413TIP3    H2 4193   2.145   4.848   0.062
 1414TIP3   OH2 4194   2.294   5.208   0.331
 1414TIP3    H1 4195   2.346   5.132   0.358
 1414TIP3    H2 4196   2.353   5.260   0.277
 1415TIP3   OH2 4197   3.051   5.650   0.331
 1415TIP3    H1 4198   3.101   5.572   0.307
 1415TIP3    H2 4199   3.117   5.713   0.359
 1416TIP3   OH2 4200   4.070   4.921   0.344
 1416TIP3    H1 4201   4.104   4.980   0.412
 1416TIP3    H2 4202   4.012   4.976   0.292
 1417TIP3   OH2 4203   3.418   5.104   0.324
 1417TIP3    H1 4204   3.439   5.011   0.331
 1417TIP3    H2 4205   3.501   5.149   0.338
 1418TIP3   OH2 4206   2.797   4.772   0.291
 1418TIP3    H1 4207   2.777   4.846   0.233
 1418TIP3    H2 4208   2.741   4.701   0.259
 1419TIP3   OH2 4209   2.433   4.987   0.418
 1419TIP3    H1 4210   2.516   4.969   0.463
 1419TIP3    H2 4211   2.438   4.936   0.337
 1420TIP3   OH2 4212   2.848   5.183   0.237
 1420TIP3    H1 4213   2.942   5.166   0.245
 1420TIP3    H2 4214   2.812   5.103   0.199
 1421TIP3   OH2 4215   4.127   5.100   0.543
 1421TIP3    H1 4216   4.044   5.145   0.526
 1421TIP3    H2 4217   4.154   5.131   0.630
 1422TIP3   OH2 4218   2.787   4.779   0.743
 1422TIP3    H1 4219   2.737   4.816   0.670
 1422TIP3    H2 4220   2.732   4.794   0.820
 1423TIP3   OH2 4221   2.879   5.552   0.519
 1423TIP3    H1 4222   2.821   5.621   0.551
 1423TIP3    H2 4223   2.932   5.595   0.451
 1424TIP3   OH2 4224   3.728   4.824   0.165
 1424TIP3    H1 4225   3.644   4.828   0.210
 1424TIP3    H2 4226   3.774   4.903   0.193
 1425TIP3   OH2 4227   2.678   4.886   0.513
 1425TIP3    H1 4228   2.733   4.961   0.535
 1425TIP3    H2 4229   2.723   4.843   0.440
 1426TIP3   OH2 4230   2.717   5.752   0.618
 1426TIP3    H1 4231   2.699   5.839   0.583
 1426TIP3    H2 4232   2.641   5.730   0.670
 1427TIP3   OH2 4233   7.446   1.677   6.357
 1427TIP3    H1 4234   7.371   1.693   6.299
 1427TIP3    H2 4235   7.476   1.764   6.381
 1428TIP3   OH2 4236   3.814   4.798   0.469
 1428TIP3    H1 4237   3.730   4.831   0.435
 1428TIP3    H2 4238   3.879   4.857   0.431
 1429TIP3   OH2 4239   3.128   4.471   0.476
 1429TIP3    H1 4240   3.123   4.380   0.505
 1429TIP3    H2 4241   3.051   4.513   0.516
 1430TIP3   OH2 4242   3.713   5.862   0.438
 1430TIP3    H1 4243   3.675   5.863   0.350
 1430TIP3    H2 4244   3.750   5.949   0.450
 1431TIP3   OH2 4245   3.940   5.477   0.255
 1431TIP3    H1 4246   3.894   5.552   0.292
 1431TIP3    H2 4247   4.021   5.514   0.219
 1432TIP3   OH2 4248   3.567   5.333   0.701
 1432TIP3    H1 4249   3.576   5.420   0.740
 1432TIP3    H2 4250   3.497   5.343   0.637
 1433TIP3   OH2 4251   2.646   5.335   0.104
 1433TIP3    H1 4252   2.579   5.278   0.065
 1433TIP3    H2 4253   2.714   5.274   0.133
 1434TIP3   OH2 4254   2.805   5.733   0.239
 1434TIP3    H1 4255   2.795   5.680   0.160
 1434TIP3    H2 4256   2.893   5.713   0.271
 1435TIP3   OH2 4257   2.753   5.316   0.462
 1435TIP3    H1 4258   2.789   5.282   0.380
 1435TIP3    H2 4259   2.801   5.398   0.477
 1436TIP3   OH2 4260   3.330   6.014   0.114
 1436TIP3    H1 4261   3.290   6.050   0.193
 1436TIP3    H2 4262   3.420   5.994   0.140
 1437TIP3   OH2 4263   2.914   5.849   0.788
 1437TIP3    H1 4264   2.852   5.907   0.833
 1437TIP3    H2 4265   2.859   5.799   0.727
 1438TIP3   OH2 4266   2.680   5.403   0.918
 1438TIP3    H1 4267   2.683   5.497   0.938
 1438TIP3    H2 4268   2.586   5.383   0.912
 1439TIP3   OH2 4269   2.708   6.014   0.869
 1439TIP3    H1 4270   2.677   6.020   0.778
 1439TIP3    H2 4271   2.628   6.000   0.920
 1440TIP3   OH2 4272   7.682   1.476   6.466
 1440TIP3    H1 4273   7.618   1.534   6.426
 1440TIP3    H2 4274   7.641   1.389   6.462
 1441TIP3   OH2 4275   2.306   5.568   0.816
 1441TIP3    H1 4276   2.238   5.549   0.751
 1441TIP3    H2 4277   2.342   5.482   0.838
 1442TIP3   OH2 4278   2.218   5.743   0.480
 1442TIP3    H1 4279   2.294   5.727   0.424
 1442TIP3    H2 4280   2.243   5.818   0.534
 1443TIP3   OH2 4281   4.013   6.241   0.582
 1443TIP3    H1 4282   4.003   6.148   0.563
 1443TIP3    H2 4283   3.938   6.261   0.640
 1444TIP3   OH2 4284   3.095   6.007   0.653
 1444TIP3    H1 4285   3.087   6.095   0.690
 1444TIP3    H2 4286   3.030   5.956   0.701
 1445TIP3   OH2 4287   2.345   5.877   0.026
 1445TIP3    H1 4288   2.407   5.907   0.093
 1445TIP3    H2 4289   2.260   5.906   0.058
 1446TIP3   OH2 4290   3.826   5.284   0.838
 1446TIP3    H1 4291   3.762   5.295   0.767
 1446TIP3    H2 4292   3.860   5.195   0.826
 1447TIP3   OH2 4293   2.500   5.760   0.788
 1447TIP3    H1 4294   2.552   5.746   0.866
 1447TIP3    H2 4295   2.430   5.695   0.793
 1448TIP3   OH2 4296   2.892   4.566   0.596
 1448TIP3    H1 4297   2.808   4.532   0.564
 1448TIP3    H2 4298   2.869   4.645   0.645
 1449TIP3   OH2 4299   3.433   4.678   0.799
 1449TIP3    H1 4300   3.503   4.661   0.861
 1449TIP3    H2 4301   3.353   4.666   0.849
 1450TIP3   OH2 4302   3.623   5.068   0.721
 1450TIP3    H1 4303   3.589   5.052   0.809
 1450TIP3    H2 4304   3.603   5.161   0.704
 1451TIP3   OH2 4305   2.831   5.095   0.608
 1451TIP3    H1 4306   2.784   5.103   0.691
 1451TIP3    H2 4307   2.809   5.176   0.561
 1452TIP3   OH2 4308   2.712   4.971   0.122
 1452TIP3    H1 4309   2.621   4.949   0.143
 1452TIP3    H2 4310   2.724   4.942   0.032
 1453TIP3   OH2 4311   3.367   5.320   0.940
 1453TIP3    H1 4312   3.341   5.255   1.005
 1453TIP3    H2 4313   3.462   5.329   0.953
 1454TIP3   OH2 4314   3.279   5.008  -0.002
 1454TIP3    H1 4315   3.295   5.102   0.006
 1454TIP3    H2 4316   3.364   4.967   0.015
 1455TIP3   OH2 4317   2.668   5.112   0.828
 1455TIP3    H1 4318   2.681   5.175   0.899
 1455TIP3    H2 4319   2.648   5.029   0.873
 1456TIP3   OH2 4320   2.267   4.637   0.396
 1456TIP3    H1 4321   2.334   4.672   0.454
 1456TIP3    H2 4322   2.314   4.610   0.318
 1457TIP3   OH2 4323   7.462   0.895   6.375
 1457TIP3    H1 4324   7.494   0.929   6.291
 1457TIP3    H2 4325   7.389   0.953   6.398
 1458TIP3   OH2 4326   3.344   5.289   0.519
 1458TIP3    H1 4327   3.360   5.222   0.452
 1458TIP3    H2 4328   3.316   5.240   0.596
 1459TIP3   OH2 4329   3.061   4.752   0.194
 1459TIP3    H1 4330   2.979   4.756   0.244
 1459TIP3    H2 4331   3.130   4.752   0.260
 1460TIP3   OH2 4332   2.473   4.850   0.184
 1460TIP3    H1 4333   2.385   4.853   0.147
 1460TIP3    H2 4334   2.502   4.759   0.171
 1461TIP3   OH2 4335   0.132   1.143   6.322
 1461TIP3    H1 4336   0.226   1.144   6.338
 1461TIP3    H2 4337   0.121   1.193   6.241
 1462TIP3   OH2 4338   3.508   4.842   0.341
 1462TIP3    H1 4339   3.505   4.849   0.436
 1462TIP3    H2 4340   3.440   4.779   0.319
 1463TIP3   OH2 4341   3.715   6.522   0.641
 1463TIP3    H1 4342   3.640   6.521   0.581
 1463TIP3    H2 4343   3.731   6.615   0.657
 1464TIP3   OH2 4344   2.661   5.670   1.014
 1464TIP3    H1 4345   2.742   5.688   1.063
 1464TIP3    H2 4346   2.591   5.677   1.079
 1465TIP3   OH2 4347   3.118   5.130   0.303
 1465TIP3    H1 4348   3.202   5.094   0.274
 1465TIP3    H2 4349   3.107   5.095   0.392
 1466TIP3   OH2 4350   2.608   4.605   0.165
 1466TIP3    H1 4351   2.587   4.522   0.208
 1466TIP3    H2 4352   2.630   4.580   0.075
 1467TIP3   OH2 4353   3.097   5.042   0.565
 1467TIP3    H1 4354   3.009   5.072   0.586
 1467TIP3    H2 4355   3.154   5.087   0.627
 1468TIP3   OH2 4356   3.703   5.636   0.251
 1468TIP3    H1 4357   3.687   5.670   0.163
 1468TIP3    H2 4358   3.625   5.586   0.272
 1469TIP3   OH2 4359   3.228   5.690   0.739
 1469TIP3    H1 4360   3.279   5.674   0.818
 1469TIP3    H2 4361   3.184   5.773   0.756
 1470TIP3   OH2 4362   2.525   5.430   0.330
 1470TIP3    H1 4363   2.562   5.410   0.244
 1470TIP3    H2 4364   2.585   5.389   0.393
 1471TIP3   OH2 4365   2.406   5.335   0.944
 1471TIP3    H1 4366   2.408   5.310   1.036
 1471TIP3    H2 4367   2.331   5.288   0.908
 1472TIP3   OH2 4368   3.135   5.474   0.972
 1472TIP3    H1 4369   3.068   5.413   0.941
 1472TIP3    H2 4370   3.218   5.435   0.943
 1473TIP3   OH2 4371   3.360   5.951   0.638
 1473TIP3    H1 4372   3.265   5.962   0.644
 1473TIP3    H2 4373   3.395   6.012   0.705
 1474TIP3   OH2 4374   3.959   5.976   0.560
 1474TIP3    H1 4375   3.942   5.889   0.594
 1474TIP3    H2 4376   3.962   5.965   0.465
 1475TIP3   OH2 4377   3.475   5.476   0.266
 1475TIP3    H1 4378   3.410   5.508   0.329
 1475TIP3    H2 4379   3.437   5.395   0.232
 1476TIP3   OH2 4380   7.849   2.024   6.378
 1476TIP3    H1 4381   7.869   2.072   6.298
 1476TIP3    H2 4382   7.765   2.061   6.407
 1477TIP3   OH2 4383   2.771   5.572   0.023
 1477TIP3    H1 4384   2.703   5.624  -0.018
 1477TIP3    H2 4385   2.730   5.487   0.041
 1478TIP3   OH2 4386   2.896   6.067   0.460
 1478TIP3    H1 4387   2.909   6.154   0.421
 1478TIP3    H2 4388   2.978   6.048   0.505
 1479TIP3   OH2 4389   3.302   5.590   0.496
 1479TIP3    H1 4390   3.255   5.620   0.574
 1479TIP3    H2 4391   3.389   5.630   0.504
 1480TIP3   OH2 4392   3.495   6.461   0.461
 1480TIP3    H1 4393   3.568   6.402   0.445
 1480TIP3    H2 4394   3.441   6.456   0.383
 1481TIP3   OH2 4395   2.612   4.859   0.946
 1481TIP3    H1 4396   2.517   4.870   0.949
 1481TIP3    H2 4397   2.634   4.809   1.024
 1482TIP3   OH2 4398   2.348   5.955   0.617
 1482TIP3    H1 4399   2.407   5.899   0.667
 1482TIP3    H2 4400   2.358   6.042   0.657
 1483TIP3   OH2 4401   3.486   4.865   0.605
 1483TIP3    H1 4402   3.537   4.933   0.648
 1483TIP3    H2 4403   3.465   4.803   0.675
 1484TIP3   OH2 4404   0.402   1.137   6.392
 1484TIP3    H1 4405   0.478   1.195   6.386
 1484TIP3    H2 4406   0.403   1.106   6.482
 1485TIP3   OH2 4407   3.291   5.141   0.742
 1485TIP3    H1 4408   3.310   5.209   0.806
 1485TIP3    H2 4409   3.341   5.065   0.773
 1486TIP3   OH2 4410   3.180   4.553   0.042
 1486TIP3    H1 4411   3.143   4.629   0.088
 1486TIP3    H2 4412   3.273   4.574   0.033
 1487TIP3   OH2 4413   0.052   0.866   6.341
 1487TIP3    H1 4414   0.050   0.961   6.332
 1487TIP3    H2 4415   0.144   0.843   6.329
 1488TIP3   OH2 4416   3.894   5.025   0.718
 1488TIP3    H1 4417   3.802   5.002   0.730
 1488TIP3    H2 4418   3.895   5.086   0.645
 1489TIP3   OH2 4419   3.410   5.252   0.092
 1489TIP3    H1 4420   3.394   5.201   0.172
 1489TIP3    H2 4421   3.497   5.224   0.064
 1490TIP3   OH2 4422   7.465   1.019   6.131
 1490TIP3    H1 4423   7.484   1.103   6.090
 1490TIP3    H2 4424   7.371   1.008   6.121
 1491TIP3   OH2 4425   2.633   4.476   0.552
 1491TIP3    H1 4426   2.605   4.443   0.466
 1491TIP3    H2 4427   2.624   4.401   0.610
 1492TIP3   OH2 4428   7.448   1.952   6.393
 1492TIP3    H1 4429   7.379   1.960   6.459
 1492TIP3    H2 4430   7.517   2.010   6.424
 1493TIP3   OH2 4431   2.359   6.274   1.016
 1493TIP3    H1 4432   2.441   6.276   1.065
 1493TIP3    H2 4433   2.341   6.181   1.004
 1494TIP3   OH2 4434   2.822   6.173   1.062
 1494TIP3    H1 4435   2.912   6.142   1.070
 1494TIP3    H2 4436   2.786   6.123   0.989
 1495TIP3   OH2 4437   3.449   6.115   0.840
 1495TIP3    H1 4438   3.455   6.044   0.904
 1495TIP3    H2 4439   3.517   6.177   0.866
 1496TIP3   OH2 4440   2.457   5.670   1.204
 1496TIP3    H1 4441   2.476   5.577   1.216
 1496TIP3    H2 4442   2.371   5.673   1.164
 1497TIP3   OH2 4443   3.071   5.748   0.989
 1497TIP3    H1 4444   3.019   5.766   0.910
 1497TIP3    H2 4445   3.103   5.659   0.976
 1498TIP3   OH2 4446   3.525   5.729   0.580
 1498TIP3    H1 4447   3.591   5.776   0.529
 1498TIP3    H2 4448   3.461   5.795   0.604
 1499TIP3   OH2 4449   2.575   5.416   1.212
 1499TIP3    H1 4450   2.651   5.396   1.158
 1499TIP3    H2 4451   2.610   5.434   1.299
 1500TIP3   OH2 4452   2.939   5.298   0.865
 1500TIP3    H1 4453   2.852   5.339   0.872
 1500TIP3    H2 4454   2.972   5.326   0.779
 1501TIP3   OH2 4455   3.406   5.652   0.957
 1501TIP3    H1 4456   3.483   5.627   0.906
 1501TIP3    H2 4457   3.413   5.600   1.038
 1502TIP3   OH2 4458   3.033   5.067   0.980
 1502TIP3    H1 4459   3.038   4.995   0.917
 1502TIP3    H2 4460   3.001   5.142   0.930
 1503TIP3   OH2 4461   3.046   4.863   0.782
 1503TIP3    H1 4462   3.072   4.902   0.698
 1503TIP3    H2 4463   2.955   4.837   0.768
 1504TIP3   OH2 4464   3.062   5.386   0.638
 1504TIP3    H1 4465   3.150   5.416   0.614
 1504TIP3    H2 4466   3.004   5.449   0.597
 1505TIP3   OH2 4467   3.637   5.316   1.039
 1505TIP3    H1 4468   3.660   5.231   1.078
 1505TIP3    H2 4469   3.705   5.332   0.975
 1506TIP3   OH2 4470   3.625   5.595   0.794
 1506TIP3    H1 4471   3.583   5.647   0.726
 1506TIP3    H2 4472   3.719   5.599   0.774
 1507TIP3   OH2 4473   2.922   5.150   1.224
 1507TIP3    H1 4474   2.852   5.088   1.245
 1507TIP3    H2 4475   2.950   5.126   1.136
 1508TIP3   OH2 4476   3.167   4.632   0.879
 1508TIP3    H1 4477   3.127   4.713   0.848
 1508TIP3    H2 4478   3.100   4.565   0.866
 1509TIP3   OH2 4479   3.283   5.110   1.091
 1509TIP3    H1 4480   3.272   5.094   1.185
 1509TIP3    H2 4481   3.197   5.089   1.053
 1510TIP3   OH2 4482   3.512   5.026   0.960
 1510TIP3    H1 4483   3.438   5.045   1.018
 1510TIP3    H2 4484   3.587   5.019   1.018
 1511TIP3   OH2 4485   3.757   5.033   1.098
 1511TIP3    H1 4486   3.782   4.941   1.101
 1511TIP3    H2 4487   3.761   5.063   1.189
 1512TIP3   OH2 4488   2.757   4.928   1.286
 1512TIP3    H1 4489   2.763   4.840   1.249
 1512TIP3    H2 4490   2.797   4.921   1.372
 1513TIP3   OH2 4491   3.236   4.611   1.144
 1513TIP3    H1 4492   3.305   4.545   1.138
 1513TIP3    H2 4493   3.205   4.622   1.054
 1514TIP3   OH2 4494   3.331   4.827   1.287
 1514TIP3    H1 4495   3.301   4.755   1.232
 1514TIP3    H2 4496   3.256   4.887   1.290
 1515TIP3   OH2 4497   2.111   5.933   0.159
 1515TIP3    H1 4498   2.031   5.882   0.173
 1515TIP3    H2 4499   2.140   5.958   0.247
 1516TIP3   OH2 4500   3.871   5.993   0.890
 1516TIP3    H1 4501   3.804   5.990   0.959
 1516TIP3    H2 4502   3.923   6.071   0.910
 1517TIP3   OH2 4503   3.658   6.175   0.211
 1517TIP3    H1 4504   3.662   6.223   0.294
 1517TIP3    H2 4505   3.615   6.093   0.233
 1518TIP3   OH2 4506   2.278   5.316   0.581
 1518TIP3    H1 4507   2.271   5.284   0.491
 1518TIP3    H2 4508   2.371   5.312   0.601
 1519TIP3   OH2 4509   3.886   5.630   0.730
 1519TIP3    H1 4510   3.945   5.560   0.758
 1519TIP3    H2 4511   3.919   5.657   0.645
 1520TIP3   OH2 4512   4.052   5.440   0.824
 1520TIP3    H1 4513   3.981   5.382   0.850
 1520TIP3    H2 4514   4.130   5.403   0.865
 1521TIP3   OH2 4515   3.819   5.051   0.287
 1521TIP3    H1 4516   3.893   5.109   0.268
 1521TIP3    H2 4517   3.763   5.101   0.346
 1522TIP3   OH2 4518   3.879   5.230   0.534
 1522TIP3    H1 4519   3.794   5.266   0.510
 1522TIP3    H2 4520   3.940   5.304   0.528
 1523TIP3   OH2 4521   2.492   4.985   1.228
 1523TIP3    H1 4522   2.586   4.983   1.246
 1523TIP3    H2 4523   2.458   4.903   1.264
 1524TIP3   OH2 4524   4.337   4.874   0.999
 1524TIP3    H1 4525   4.398   4.815   0.956
 1524TIP3    H2 4526   4.283   4.909   0.928
 1525TIP3   OH2 4527   2.470   4.701   0.571
 1525TIP3    H1 4528   2.524   4.622   0.577
 1525TIP3    H2 4529   2.533   4.771   0.557
 1526TIP3   OH2 4530   2.250   4.960   0.633
 1526TIP3    H1 4531   2.301   4.955   0.552
 1526TIP3    H2 4532   2.278   5.042   0.674
 1527TIP3   OH2 4533   4.139   4.966   0.831
 1527TIP3    H1 4534   4.106   5.014   0.908
 1527TIP3    H2 4535   4.064   4.959   0.773
 1528TIP3   OH2 4536   2.251   4.464   0.144
 1528TIP3    H1 4537   2.165   4.467   0.187
 1528TIP3    H2 4538   2.244   4.529   0.073
 1529TIP3   OH2 4539   2.457   4.526   0.954
 1529TIP3    H1 4540   2.407   4.517   1.035
 1529TIP3    H2 4541   2.402   4.578   0.897
 1530TIP3   OH2 4542   2.489   5.990   1.039
 1530TIP3    H1 4543   2.397   5.971   1.027
 1530TIP3    H2 4544   2.505   5.976   1.132
 1531TIP3   OH2 4545   2.666   6.025   0.593
 1531TIP3    H1 4546   2.615   6.097   0.556
 1531TIP3    H2 4547   2.752   6.034   0.552
 1532TIP3   OH2 4548   3.100   6.264   0.750
 1532TIP3    H1 4549   3.129   6.250   0.841
 1532TIP3    H2 4550   3.173   6.310   0.709
 1533TIP3   OH2 4551   3.333   6.398   0.677
 1533TIP3    H1 4552   3.394   6.411   0.604
 1533TIP3    H2 4553   3.375   6.440   0.752
 1534TIP3   OH2 4554   4.053   4.698   0.713
 1534TIP3    H1 4555   3.966   4.681   0.678
 1534TIP3    H2 4556   4.101   4.616   0.699
 1535TIP3   OH2 4557   2.352   6.262   0.641
 1535TIP3    H1 4558   2.264   6.293   0.619
 1535TIP3    H2 4559   2.386   6.326   0.704
 1536TIP3   OH2 4560   2.571   6.252   0.472
 1536TIP3    H1 4561   2.486   6.259   0.516
 1536TIP3    H2 4562   2.552   6.278   0.382
 1537TIP3   OH2 4563   2.912   6.280   0.284
 1537TIP3    H1 4564   2.853   6.287   0.210
 1537TIP3    H2 4565   2.930   6.370   0.310
 1538TIP3   OH2 4566   3.130   6.120   0.282
 1538TIP3    H1 4567   3.041   6.152   0.264
 1538TIP3    H2 4568   3.169   6.188   0.338
 1539TIP3   OH2 4569   2.276   6.056   0.368
 1539TIP3    H1 4570   2.294   6.029   0.458
 1539TIP3    H2 4571   2.352   6.028   0.318
 1540TIP3   OH2 4572   2.491   5.957   0.240
 1540TIP3    H1 4573   2.500   5.870   0.279
 1540TIP3    H2 4574   2.581   5.989   0.231
 1541TIP3   OH2 4575   2.759   6.004   0.224
 1541TIP3    H1 4576   2.777   5.911   0.214
 1541TIP3    H2 4577   2.803   6.029   0.305
 1542TIP3   OH2 4578   3.303   4.652   0.311
 1542TIP3    H1 4579   3.261   4.589   0.369
 1542TIP3    H2 4580   3.367   4.601   0.262
 1543TIP3   OH2 4581   3.792   4.563   0.192
 1543TIP3    H1 4582   3.799   4.657   0.174
 1543TIP3    H2 4583   3.698   4.549   0.205
 1544TIP3   OH2 4584   2.549   4.373   0.307
 1544TIP3    H1 4585   2.460   4.340   0.323
 1544TIP3    H2 4586   2.603   4.294   0.304
 1545TIP3   OH2 4587   7.588   0.537   6.418
 1545TIP3    H1 4588   7.650   0.583   6.362
 1545TIP3    H2 4589   7.572   0.597   6.490
 1546TIP3   OH2 4590   3.023   4.404   0.222
 1546TIP3    H1 4591   3.069   4.460   0.159
 1546TIP3    H2 4592   3.056   4.432   0.307
 1547TIP3   OH2 4593   3.497   4.519   0.158
 1547TIP3    H1 4594   3.527   4.478   0.078
 1547TIP3    H2 4595   3.503   4.450   0.224
 1548TIP3   OH2 4596   7.760   0.678   6.260
 1548TIP3    H1 4597   7.757   0.691   6.166
 1548TIP3    H2 4598   7.823   0.743   6.292
 1549TIP3   OH2 4599   0.328   0.870   6.318
 1549TIP3    H1 4600   0.402   0.830   6.363
 1549TIP3    H2 4601   0.350   0.964   6.315
 1550TIP3   OH2 4602   2.771   4.658   1.197
 1550TIP3    H1 4603   2.736   4.591   1.256
 1550TIP3    H2 4604   2.863   4.666   1.220
 1551TIP3   OH2 4605   3.019   4.664   1.319
 1551TIP3    H1 4606   3.097   4.641   1.268
 1551TIP3    H2 4607   3.012   4.594   1.385
 1552TIP3   OH2 4608   3.831   4.762   1.119
 1552TIP3    H1 4609   3.845   4.734   1.210
 1552TIP3    H2 4610   3.917   4.752   1.077
 1553TIP3   OH2 4611   3.719   6.306   0.441
 1553TIP3    H1 4612   3.712   6.238   0.508
 1553TIP3    H2 4613   3.783   6.368   0.476
 1554TIP3   OH2 4614   4.505   4.873   0.258
 1554TIP3    H1 4615   4.560   4.927   0.201
 1554TIP3    H2 4616   4.470   4.934   0.323
 1555TIP3   OH2 4617   4.491   5.710   0.302
 1555TIP3    H1 4618   4.512   5.792   0.347
 1555TIP3    H2 4619   4.405   5.685   0.336
 1556TIP3   OH2 4620   4.085   5.782   0.270
 1556TIP3    H1 4621   4.084   5.811   0.179
 1556TIP3    H2 4622   4.151   5.713   0.272
 1557TIP3   OH2 4623   4.315   5.948   0.241
 1557TIP3    H1 4624   4.303   6.040   0.263
 1557TIP3    H2 4625   4.239   5.904   0.281
 1558TIP3   OH2 4626   5.121   4.890   0.357
 1558TIP3    H1 4627   5.195   4.950   0.358
 1558TIP3    H2 4628   5.158   4.807   0.389
 1559TIP3   OH2 4629   5.275   5.653   0.544
 1559TIP3    H1 4630   5.211   5.648   0.473
 1559TIP3    H2 4631   5.356   5.619   0.506
 1560TIP3   OH2 4632   4.374   5.381   0.236
 1560TIP3    H1 4633   4.469   5.385   0.224
 1560TIP3    H2 4634   4.361   5.330   0.316
 1561TIP3   OH2 4635   4.518   5.937   0.472
 1561TIP3    H1 4636   4.558   6.015   0.432
 1561TIP3    H2 4637   4.577   5.915   0.544
 1562TIP3   OH2 4638   4.258   5.597   0.402
 1562TIP3    H1 4639   4.225   5.643   0.479
 1562TIP3    H2 4640   4.217   5.511   0.406
 1563TIP3   OH2 4641   4.892   5.793   0.558
 1563TIP3    H1 4642   4.922   5.705   0.535
 1563TIP3    H2 4643   4.966   5.850   0.536
 1564TIP3   OH2 4644   4.430   5.014   0.476
 1564TIP3    H1 4645   4.401   5.105   0.477
 1564TIP3    H2 4646   4.485   5.006   0.555
 1565TIP3   OH2 4647   4.163   6.518   0.604
 1565TIP3    H1 4648   4.243   6.505   0.654
 1565TIP3    H2 4649   4.191   6.515   0.512
 1566TIP3   OH2 4650   4.675   6.488   0.472
 1566TIP3    H1 4651   4.753   6.434   0.486
 1566TIP3    H2 4652   4.602   6.425   0.471
 1567TIP3   OH2 4653   4.189   5.949   0.797
 1567TIP3    H1 4654   4.264   5.892   0.788
 1567TIP3    H2 4655   4.164   5.971   0.707
 1568TIP3   OH2 4656   4.906   6.059   0.447
 1568TIP3    H1 4657   4.856   5.995   0.396
 1568TIP3    H2 4658   4.996   6.027   0.443
 1569TIP3   OH2 4659   4.425   5.801   0.750
 1569TIP3    H1 4660   4.490   5.768   0.687
 1569TIP3    H2 4661   4.443   5.753   0.831
 1570TIP3   OH2 4662   4.872   5.325   0.386
 1570TIP3    H1 4663   4.792   5.281   0.415
 1570TIP3    H2 4664   4.872   5.316   0.291
 1571TIP3   OH2 4665   5.527   5.564   0.489
 1571TIP3    H1 4666   5.515   5.515   0.570
 1571TIP3    H2 4667   5.577   5.505   0.432
 1572TIP3   OH2 4668   4.659   5.449   0.720
 1572TIP3    H1 4669   4.609   5.382   0.768
 1572TIP3    H2 4670   4.638   5.433   0.628
 1573TIP3   OH2 4671   4.878   4.803   0.265
 1573TIP3    H1 4672   4.966   4.838   0.250
 1573TIP3    H2 4673   4.871   4.798   0.361
 1574TIP3   OH2 4674   5.037   5.286   0.609
 1574TIP3    H1 4675   4.981   5.310   0.683
 1574TIP3    H2 4676   4.979   5.293   0.533
 1575TIP3   OH2 4677   5.426   5.271   0.332
 1575TIP3    H1 4678   5.350   5.329   0.335
 1575TIP3    H2 4679   5.429   5.230   0.419
 1576TIP3   OH2 4680   5.536   5.123   0.567
 1576TIP3    H1 4681   5.588   5.045   0.588
 1576TIP3    H2 4682   5.582   5.195   0.610
 1577TIP3   OH2 4683   4.524   5.226   0.813
 1577TIP3    H1 4684   4.529   5.140   0.772
 1577TIP3    H2 4685   4.570   5.215   0.897
 1578TIP3   OH2 4686   5.042   4.859   0.735
 1578TIP3    H1 4687   5.052   4.787   0.798
 1578TIP3    H2 4688   5.002   4.818   0.658
 1579TIP3   OH2 4689   5.196   5.084   0.771
 1579TIP3    H1 4690   5.165   4.997   0.744
 1579TIP3    H2 4691   5.121   5.125   0.812
 1580TIP3   OH2 4692   4.248   5.217   0.768
 1580TIP3    H1 4693   4.335   5.242   0.799
 1580TIP3    H2 4694   4.221   5.145   0.826
 1581TIP3   OH2 4695   4.148   4.677   0.421
 1581TIP3    H1 4696   4.154   4.687   0.516
 1581TIP3    H2 4697   4.103   4.756   0.391
 1582TIP3   OH2 4698   4.278   6.245   0.654
 1582TIP3    H1 4699   4.186   6.243   0.628
 1582TIP3    H2 4700   4.284   6.319   0.715
 1583TIP3   OH2 4701   4.546   4.967   0.730
 1583TIP3    H1 4702   4.505   4.889   0.766
 1583TIP3    H2 4703   4.638   4.959   0.753
 1584TIP3   OH2 4704   4.795   4.930   0.847
 1584TIP3    H1 4705   4.884   4.913   0.817
 1584TIP3    H2 4706   4.777   4.861   0.911
 1585TIP3   OH2 4707   5.712   4.938   0.654
 1585TIP3    H1 4708   5.692   4.914   0.745
 1585TIP3    H2 4709   5.803   4.968   0.657
 1586TIP3   OH2 4710   2.020   6.755   0.625
 1586TIP3    H1 4711   1.955   6.824   0.613
 1586TIP3    H2 4712   2.060   6.775   0.710
 1587TIP3   OH2 4713   1.728   6.855   0.931
 1587TIP3    H1 4714   1.639   6.886   0.950
 1587TIP3    H2 4715   1.727   6.763   0.956
 1588TIP3   OH2 4716   1.305   6.216   0.995
 1588TIP3    H1 4717   1.383   6.213   1.050
 1588TIP3    H2 4718   1.232   6.206   1.055
 1589TIP3   OH2 4719   1.726   6.576   0.926
 1589TIP3    H1 4720   1.638   6.558   0.958
 1589TIP3    H2 4721   1.716   6.591   0.832
 1590TIP3   OH2 4722   1.549   6.833   1.233
 1590TIP3    H1 4723   1.597   6.750   1.232
 1590TIP3    H2 4724   1.600   6.889   1.292
 1591TIP3   OH2 4725   1.478   6.589   1.042
 1591TIP3    H1 4726   1.430   6.671   1.046
 1591TIP3    H2 4727   1.516   6.579   1.130
 1592TIP3   OH2 4728   1.646   6.574   1.271
 1592TIP3    H1 4729   1.658   6.480   1.264
 1592TIP3    H2 4730   1.641   6.591   1.365
 1593TIP3   OH2 4731   1.115   6.139   1.343
 1593TIP3    H1 4732   1.188   6.079   1.329
 1593TIP3    H2 4733   1.070   6.143   1.258
 1594TIP3   OH2 4734   1.212   6.384   1.416
 1594TIP3    H1 4735   1.189   6.297   1.385
 1594TIP3    H2 4736   1.129   6.432   1.418
 1595TIP3   OH2 4737   1.944   7.007   0.908
 1595TIP3    H1 4738   1.871   6.946   0.910
 1595TIP3    H2 4739   2.021   6.953   0.892
 1596TIP3   OH2 4740   2.179   6.448   1.127
 1596TIP3    H1 4741   2.242   6.390   1.085
 1596TIP3    H2 4742   2.135   6.492   1.055
 1597TIP3   OH2 4743   2.009   6.556   0.936
 1597TIP3    H1 4744   1.921   6.583   0.961
 1597TIP3    H2 4745   1.995   6.474   0.887
 1598TIP3   OH2 4746   1.951   6.296   0.851
 1598TIP3    H1 4747   1.866   6.264   0.819
 1598TIP3    H2 4748   2.013   6.228   0.825
 1599TIP3   OH2 4749   0.924   6.250   1.515
 1599TIP3    H1 4750   0.984   6.195   1.465
 1599TIP3    H2 4751   0.880   6.188   1.574
 1600TIP3   OH2 4752   1.699   6.308   1.266
 1600TIP3    H1 4753   1.714   6.276   1.355
 1600TIP3    H2 4754   1.785   6.302   1.224
 1601TIP3   OH2 4755   2.405   6.565   0.371
 1601TIP3    H1 4756   2.375   6.623   0.302
 1601TIP3    H2 4757   2.348   6.585   0.446
 1602TIP3   OH2 4758   2.385   6.720   0.142
 1602TIP3    H1 4759   2.420   6.803   0.174
 1602TIP3    H2 4760   2.448   6.690   0.077
 1603TIP3   OH2 4761   2.730   6.249   0.086
 1603TIP3    H1 4762   2.726   6.159   0.118
 1603TIP3    H2 4763   2.652   6.291   0.121
 1604TIP3   OH2 4764   2.512   6.358   0.223
 1604TIP3    H1 4765   2.431   6.325   0.184
 1604TIP3    H2 4766   2.485   6.438   0.268
 1605TIP3   OH2 4767   2.988   6.509   0.409
 1605TIP3    H1 4768   3.049   6.567   0.454
 1605TIP3    H2 4769   2.916   6.497   0.471
 1606TIP3   OH2 4770   3.331   6.890   0.277
 1606TIP3    H1 4771   3.255   6.852   0.321
 1606TIP3    H2 4772   3.326   6.984   0.297
 1607TIP3   OH2 4773   2.445   6.967   0.255
 1607TIP3    H1 4774   2.399   6.938   0.333
 1607TIP3    H2 4775   2.438   7.063   0.257
 1608TIP3   OH2 4776   3.036   7.210   0.567
 1608TIP3    H1 4777   3.026   7.161   0.648
 1608TIP3    H2 4778   3.060   7.299   0.595
 1609TIP3   OH2 4779   2.310   6.880   0.479
 1609TIP3    H1 4780   2.320   6.949   0.545
 1609TIP3    H2 4781   2.309   6.799   0.530
 1610TIP3   OH2 4782   2.685   6.818   0.256
 1610TIP3    H1 4783   2.621   6.888   0.248
 1610TIP3    H2 4784   2.763   6.851   0.210
 1611TIP3   OH2 4785   2.284   6.638   0.614
 1611TIP3    H1 4786   2.189   6.631   0.614
 1611TIP3    H2 4787   2.313   6.574   0.679
 1612TIP3   OH2 4788   3.025   6.663   0.146
 1612TIP3    H1 4789   3.102   6.695   0.099
 1612TIP3    H2 4790   3.039   6.569   0.154
 1613TIP3   OH2 4791   2.868   6.988   0.487
 1613TIP3    H1 4792   2.915   7.071   0.494
 1613TIP3    H2 4793   2.930   6.929   0.443
 1614TIP3   OH2 4794   2.275   6.238   0.145
 1614TIP3    H1 4795   2.285   6.180   0.070
 1614TIP3    H2 4796   2.261   6.179   0.219
 1615TIP3   OH2 4797   2.631   6.906   0.603
 1615TIP3    H1 4798   2.620   6.822   0.558
 1615TIP3    H2 4799   2.703   6.949   0.556
 1616TIP3   OH2 4800   2.642   6.661   0.471
 1616TIP3    H1 4801   2.674   6.707   0.394
 1616TIP3    H2 4802   2.559   6.622   0.444
 1617TIP3   OH2 4803   3.291   7.156   0.770
 1617TIP3    H1 4804   3.340   7.074   0.769
 1617TIP3    H2 4805   3.339   7.213   0.710
 1618TIP3   OH2 4806   2.530   6.976   0.848
 1618TIP3    H1 4807   2.480   6.896   0.864
 1618TIP3    H2 4808   2.563   6.965   0.759
 1619TIP3   OH2 4809   2.766   6.432   0.555
 1619TIP3    H1 4810   2.719   6.512   0.531
 1619TIP3    H2 4811   2.709   6.361   0.525
 1620TIP3   OH2 4812   2.879   6.785   0.723
 1620TIP3    H1 4813   2.821   6.803   0.798
 1620TIP3    H2 4814   2.821   6.787   0.647
 1621TIP3   OH2 4815   3.218   6.893   0.621
 1621TIP3    H1 4816   3.130   6.925   0.644
 1621TIP3    H2 4817   3.251   6.854   0.702
 1622TIP3   OH2 4818   3.337   6.764   0.822
 1622TIP3    H1 4819   3.400   6.692   0.822
 1622TIP3    H2 4820   3.364   6.820   0.894
 1623TIP3   OH2 4821   2.393   6.746   0.936
 1623TIP3    H1 4822   2.398   6.664   0.887
 1623TIP3    H2 4823   2.439   6.729   1.018
 1624TIP3   OH2 4824   2.872   6.411   0.804
 1624TIP3    H1 4825   2.943   6.349   0.791
 1624TIP3    H2 4826   2.832   6.420   0.718
 1625TIP3   OH2 4827   2.990   6.629   0.922
 1625TIP3    H1 4828   2.959   6.543   0.894
 1625TIP3    H2 4829   2.955   6.690   0.857
 1626TIP3   OH2 4830   2.128   6.800   0.877
 1626TIP3    H1 4831   2.221   6.786   0.892
 1626TIP3    H2 4832   2.086   6.720   0.908
 1627TIP3   OH2 4833   4.011   6.736   0.631
 1627TIP3    H1 4834   4.074   6.665   0.618
 1627TIP3    H2 4835   3.992   6.768   0.543
 1628TIP3   OH2 4836   2.124   6.402   0.310
 1628TIP3    H1 4837   2.186   6.369   0.244
 1628TIP3    H2 4838   2.130   6.498   0.302
 1629TIP3   OH2 4839   3.850   6.773   0.409
 1629TIP3    H1 4840   3.782   6.836   0.384
 1629TIP3    H2 4841   3.894   6.752   0.326
 1630TIP3   OH2 4842   2.114   6.385   0.584
 1630TIP3    H1 4843   2.022   6.400   0.607
 1630TIP3    H2 4844   2.115   6.387   0.488
 1631TIP3   OH2 4845   2.406   6.477   0.831
 1631TIP3    H1 4846   2.372   6.411   0.890
 1631TIP3    H2 4847   2.499   6.485   0.855
 1632TIP3   OH2 4848   2.650   6.479   0.962
 1632TIP3    H1 4849   2.730   6.459   0.915
 1632TIP3    H2 4850   2.643   6.410   1.028
 1633TIP3   OH2 4851   3.510   6.557   0.818
 1633TIP3    H1 4852   3.521   6.533   0.910
 1633TIP3    H2 4853   3.593   6.533   0.777
 1634TIP3   OH2 4854   1.321   0.151   3.720
 1634TIP3    H1 4855   1.351   0.089   3.786
 1634TIP3    H2 4856   1.372   0.230   3.736
 1635TIP3   OH2 4857   1.115   0.666   3.998
 1635TIP3    H1 4858   1.165   0.651   3.918
 1635TIP3    H2 4859   1.033   0.619   3.984
 1636TIP3   OH2 4860   7.383   7.102   4.452
 1636TIP3    H1 4861   7.318   7.158   4.410
 1636TIP3    H2 4862   7.425   7.055   4.380
 1637TIP3   OH2 4863   1.541   0.500   3.993
 1637TIP3    H1 4864   1.463   0.497   4.050
 1637TIP3    H2 4865   1.530   0.581   3.943
 1638TIP3   OH2 4866   1.236   0.572   3.753
 1638TIP3    H1 4867   1.276   0.485   3.744
 1638TIP3    H2 4868   1.288   0.628   3.696
 1639TIP3   OH2 4869   1.274   0.152   3.445
 1639TIP3    H1 4870   1.305   0.081   3.390
 1639TIP3    H2 4871   1.337   0.156   3.517
 1640TIP3   OH2 4872   1.741   0.367   4.376
 1640TIP3    H1 4873   1.682   0.306   4.332
 1640TIP3    H2 4874   1.741   0.445   4.320
 1641TIP3   OH2 4875   1.973   0.004   4.177
 1641TIP3    H1 4876   1.887   0.044   4.195
 1641TIP3    H2 4877   1.987   0.021   4.084
 1642TIP3   OH2 4878   6.917   7.324   4.540
 1642TIP3    H1 4879   6.898   7.406   4.587
 1642TIP3    H2 4880   6.832   7.295   4.506
 1643TIP3   OH2 4881   1.346   0.482   4.177
 1643TIP3    H1 4882   1.316   0.560   4.223
 1643TIP3    H2 4883   1.296   0.410   4.216
 1644TIP3   OH2 4884   0.927   0.448   3.535
 1644TIP3    H1 4885   0.978   0.372   3.564
 1644TIP3    H2 4886   0.839   0.433   3.569
 1645TIP3   OH2 4887   1.966   0.724   4.415
 1645TIP3    H1 4888   1.973   0.630   4.427
 1645TIP3    H2 4889   1.886   0.748   4.462
 1646TIP3   OH2 4890   1.017   0.505   4.610
 1646TIP3    H1 4891   1.030   0.600   4.616
 1646TIP3    H2 4892   0.951   0.486   4.677
 1647TIP3   OH2 4893   1.074   0.676   3.438
 1647TIP3    H1 4894   1.029   0.639   3.361
 1647TIP3    H2 4895   1.030   0.634   3.512
 1648TIP3   OH2 4896   7.152   7.306   4.736
 1648TIP3    H1 4897   7.069   7.346   4.709
 1648TIP3    H2 4898   7.143   7.214   4.712
 1649TIP3   OH2 4899   1.666   1.053   4.501
 1649TIP3    H1 4900   1.661   1.068   4.407
 1649TIP3    H2 4901   1.739   1.108   4.530
 1650TIP3   OH2 4902   1.721   0.057   4.289
 1650TIP3    H1 4903   1.707   0.102   4.206
 1650TIP3    H2 4904   1.642   0.074   4.339
 1651TIP3   OH2 4905   1.220   0.319   4.604
 1651TIP3    H1 4906   1.274   0.322   4.683
 1651TIP3    H2 4907   1.149   0.382   4.621
 1652TIP3   OH2 4908   1.345   0.547   4.467
 1652TIP3    H1 4909   1.278   0.480   4.478
 1652TIP3    H2 4910   1.357   0.584   4.555
 1653TIP3   OH2 4911   1.990   0.449   4.449
 1653TIP3    H1 4912   1.897   0.427   4.452
 1653TIP3    H2 4913   2.020   0.415   4.365
 1654TIP3   OH2 4914   1.491   0.364   3.293
 1654TIP3    H1 4915   1.408   0.386   3.335
 1654TIP3    H2 4916   1.467   0.301   3.225
 1655TIP3   OH2 4917   6.711   7.389   4.188
 1655TIP3    H1 4918   6.756   7.308   4.212
 1655TIP3    H2 4919   6.707   7.386   4.092
 1656TIP3   OH2 4920   0.912   0.523   4.354
 1656TIP3    H1 4921   0.940   0.609   4.324
 1656TIP3    H2 4922   0.961   0.508   4.435
 1657TIP3   OH2 4923   1.265   0.255   4.333
 1657TIP3    H1 4924   1.243   0.258   4.426
 1657TIP3    H2 4925   1.226   0.173   4.302
 1658TIP3   OH2 4926   1.518   0.724   4.343
 1658TIP3    H1 4927   1.451   0.665   4.378
 1658TIP3    H2 4928   1.470   0.780   4.281
 1659TIP3   OH2 4929   1.547   0.600   2.974
 1659TIP3    H1 4930   1.599   0.678   2.952
 1659TIP3    H2 4931   1.464   0.636   3.006
 1660TIP3   OH2 4932   7.143   7.065   4.597
 1660TIP3    H1 4933   7.137   7.128   4.525
 1660TIP3    H2 4934   7.230   7.026   4.588
 1661TIP3   OH2 4935   6.740   7.150   4.019
 1661TIP3    H1 4936   6.654   7.125   4.054
 1661TIP3    H2 4937   6.802   7.097   4.068
 1662TIP3   OH2 4938   1.513   0.757   3.909
 1662TIP3    H1 4939   1.468   0.808   3.842
 1662TIP3    H2 4940   1.606   0.770   3.890
 1663TIP3   OH2 4941   1.383   0.636   4.720
 1663TIP3    H1 4942   1.385   0.559   4.777
 1663TIP3    H2 4943   1.464   0.683   4.740
 1664TIP3   OH2 4944   1.527   0.318   4.551
 1664TIP3    H1 4945   1.604   0.347   4.502
 1664TIP3    H2 4946   1.455   0.367   4.512
 1665TIP3   OH2 4947   1.427   0.172   4.891
 1665TIP3    H1 4948   1.522   0.171   4.901
 1665TIP3    H2 4949   1.398   0.089   4.929
 1666TIP3   OH2 4950   1.657   0.113   4.674
 1666TIP3    H1 4951   1.595   0.180   4.645
 1666TIP3    H2 4952   1.741   0.141   4.638
 1667TIP3   OH2 4953   1.784   0.792   3.901
 1667TIP3    H1 4954   1.810   0.812   3.991
 1667TIP3    H2 4955   1.832   0.855   3.848
 1668TIP3   OH2 4956   1.830   0.810   4.180
 1668TIP3    H1 4957   1.785   0.726   4.179
 1668TIP3    H2 4958   1.899   0.799   4.245
 1669TIP3   OH2 4959   1.865   0.481   4.785
 1669TIP3    H1 4960   1.786   0.493   4.837
 1669TIP3    H2 4961   1.900   0.570   4.774
 1670TIP3   OH2 4962   1.656   0.062   3.313
 1670TIP3    H1 4963   1.726   0.120   3.285
 1670TIP3    H2 4964   1.690   0.017   3.390
 1671TIP3   OH2 4965   7.178   7.303   3.503
 1671TIP3    H1 4966   7.094   7.343   3.529
 1671TIP3    H2 4967   7.243   7.351   3.554
 1672TIP3   OH2 4968   1.919   0.318   3.982
 1672TIP3    H1 4969   1.969   0.253   3.932
 1672TIP3    H2 4970   1.911   0.393   3.922
 1673TIP3   OH2 4971   1.698   0.573   4.204
 1673TIP3    H1 4972   1.627   0.618   4.249
 1673TIP3    H2 4973   1.658   0.540   4.124
 1674TIP3   OH2 4974   6.770   7.180   3.746
 1674TIP3    H1 4975   6.753   7.100   3.696
 1674TIP3    H2 4976   6.740   7.159   3.835
 1675TIP3   OH2 4977   1.904   0.173   4.576
 1675TIP3    H1 4978   1.971   0.107   4.558
 1675TIP3    H2 4979   1.902   0.228   4.497
 1676TIP3   OH2 4980   7.352   7.418   4.578
 1676TIP3    H1 4981   7.287   7.371   4.631
 1676TIP3    H2 4982   7.431   7.364   4.585
 1677TIP3   OH2 4983   6.983   7.005   4.055
 1677TIP3    H1 4984   6.969   6.997   3.961
 1677TIP3    H2 4985   7.013   7.095   4.068
 1678TIP3   OH2 4986   7.146   7.262   4.397
 1678TIP3    H1 4987   7.066   7.292   4.439
 1678TIP3    H2 4988   7.175   7.337   4.345
 1679TIP3   OH2 4989   1.424   0.670   3.570
 1679TIP3    H1 4990   1.440   0.651   3.478
 1679TIP3    H2 4991   1.440   0.763   3.579
 1680TIP3   OH2 4992   1.039   0.776   4.632
 1680TIP3    H1 4993   1.078   0.771   4.719
 1680TIP3    H2 4994   1.104   0.824   4.580
 1681TIP3   OH2 4995   1.232   0.912   4.491
 1681TIP3    H1 4996   1.285   0.855   4.435
 1681TIP3    H2 4997   1.295   0.963   4.541
 1682TIP3   OH2 4998   0.961   0.758   4.220
 1682TIP3    H1 4999   1.006   0.736   4.139
 1682TIP3    H2 5000   1.004   0.838   4.251
 1683TIP3   OH2 5001   1.258   0.750   4.218
 1683TIP3    H1 5002   1.209   0.713   4.145
 1683TIP3    H2 5003   1.307   0.823   4.180
 1684TIP3   OH2 5004   1.448   0.920   4.119
 1684TIP3    H1 5005   1.432   1.004   4.076
 1684TIP3    H2 5006   1.470   0.861   4.048
 1685TIP3   OH2 5007   0.707   0.440   4.184
 1685TIP3    H1 5008   0.693   0.349   4.160
 1685TIP3    H2 5009   0.779   0.437   4.248
 1686TIP3   OH2 5010   1.500   0.643   3.300
 1686TIP3    H1 5011   1.506   0.549   3.288
 1686TIP3    H2 5012   1.447   0.673   3.226
 1687TIP3   OH2 5013   1.720   0.784   4.522
 1687TIP3    H1 5014   1.652   0.752   4.464
 1687TIP3    H2 5015   1.705   0.879   4.528
 1688TIP3   OH2 5016   2.971   0.149   3.256
 1688TIP3    H1 5017   2.955   0.243   3.247
 1688TIP3    H2 5018   2.896   0.107   3.212
 1689TIP3   OH2 5019   2.942   0.179   3.603
 1689TIP3    H1 5020   2.973   0.167   3.693
 1689TIP3    H2 5021   2.943   0.092   3.565
 1690TIP3   OH2 5022   2.290   0.066   4.030
 1690TIP3    H1 5023   2.294  -0.024   4.062
 1690TIP3    H2 5024   2.372   0.079   3.984
 1691TIP3   OH2 5025   3.238   0.474   3.339
 1691TIP3    H1 5026   3.220   0.412   3.410
 1691TIP3    H2 5027   3.265   0.554   3.383
 1692TIP3   OH2 5028   2.273   0.458   3.707
 1692TIP3    H1 5029   2.258   0.364   3.708
 1692TIP3    H2 5030   2.367   0.468   3.693
 1693TIP3   OH2 5031   7.329   7.134   3.344
 1693TIP3    H1 5032   7.273   7.191   3.397
 1693TIP3    H2 5033   7.278   7.116   3.265
 1694TIP3   OH2 5034   7.368   7.427   3.657
 1694TIP3    H1 5035   7.431   7.361   3.685
 1694TIP3    H2 5036   7.420   7.504   3.634
 1695TIP3   OH2 5037   2.905   0.887   3.355
 1695TIP3    H1 5038   2.931   0.823   3.289
 1695TIP3    H2 5039   2.912   0.840   3.438
 1696TIP3   OH2 5040   2.773   0.388   3.670
 1696TIP3    H1 5041   2.812   0.311   3.629
 1696TIP3    H2 5042   2.848   0.439   3.702
 1697TIP3   OH2 5043   0.495   7.353   3.716
 1697TIP3    H1 5044   0.518   7.284   3.779
 1697TIP3    H2 5045   0.479   7.307   3.634
 1698TIP3   OH2 5046   7.823   6.978   3.627
 1698TIP3    H1 5047   7.800   7.060   3.583
 1698TIP3    H2 5048   7.774   6.911   3.579
 1699TIP3   OH2 5049   0.692   6.971   3.336
 1699TIP3    H1 5050   0.738   6.993   3.417
 1699TIP3    H2 5051   0.613   7.025   3.338
 1700TIP3   OH2 5052   7.555   7.264   3.770
 1700TIP3    H1 5053   7.608   7.295   3.843
 1700TIP3    H2 5054   7.593   7.180   3.745
 1701TIP3   OH2 5055   7.851   7.395   3.607
 1701TIP3    H1 5056   7.939   7.372   3.637
 1701TIP3    H2 5057   7.820   7.316   3.563
 1702TIP3   OH2 5058   1.180   7.389   3.844
 1702TIP3    H1 5059   1.100   7.440   3.842
 1702TIP3    H2 5060   1.217   7.405   3.931
 1703TIP3   OH2 5061   2.879   0.380   3.111
 1703TIP3    H1 5062   2.844   0.352   3.027
 1703TIP3    H2 5063   2.825   0.454   3.137
 1704TIP3   OH2 5064   2.647   0.298   3.901
 1704TIP3    H1 5065   2.587   0.367   3.930
 1704TIP3    H2 5066   2.692   0.335   3.826
 1705TIP3   OH2 5067   7.734   7.072   3.905
 1705TIP3    H1 5068   7.745   7.144   3.968
 1705TIP3    H2 5069   7.823   7.052   3.876
 1706TIP3   OH2 5070   2.471   0.500   3.986
 1706TIP3    H1 5071   2.456   0.587   3.949
 1706TIP3    H2 5072   2.393   0.482   4.038
 1707TIP3   OH2 5073   1.857   0.231   3.236
 1707TIP3    H1 5074   1.859   0.257   3.144
 1707TIP3    H2 5075   1.877   0.312   3.284
 1708TIP3   OH2 5076   3.281   0.714   3.483
 1708TIP3    H1 5077   3.193   0.704   3.521
 1708TIP3    H2 5078   3.279   0.799   3.439
 1709TIP3   OH2 5079   2.989   0.738   3.135
 1709TIP3    H1 5080   3.042   0.660   3.123
 1709TIP3    H2 5081   3.046   0.810   3.107
 1710TIP3   OH2 5082   3.127   0.507   3.090
 1710TIP3    H1 5083   3.052   0.448   3.095
 1710TIP3    H2 5084   3.178   0.489   3.169
 1711TIP3   OH2 5085   3.523   0.585   3.826
 1711TIP3    H1 5086   3.501   0.516   3.763
 1711TIP3    H2 5087   3.511   0.667   3.777
 1712TIP3   OH2 5088   2.787   0.037   3.081
 1712TIP3    H1 5089   2.704   0.081   3.062
 1712TIP3    H2 5090   2.836   0.041   2.999
 1713TIP3   OH2 5091   0.137   7.272   2.809
 1713TIP3    H1 5092   0.202   7.333   2.843
 1713TIP3    H2 5093   0.183   7.222   2.742
 1714TIP3   OH2 5094   3.701   0.290   3.674
 1714TIP3    H1 5095   3.613   0.325   3.662
 1714TIP3    H2 5096   3.732   0.272   3.585
 1715TIP3   OH2 5097   3.161   0.101   3.062
 1715TIP3    H1 5098   3.104   0.121   3.136
 1715TIP3    H2 5099   3.245   0.076   3.101
 1716TIP3   OH2 5100   3.386   0.222   3.952
 1716TIP3    H1 5101   3.329   0.297   3.934
 1716TIP3    H2 5102   3.326   0.151   3.975
 1717TIP3   OH2 5103   2.391   0.074   3.453
 1717TIP3    H1 5104   2.352   0.010   3.394
 1717TIP3    H2 5105   2.463   0.027   3.496
 1718TIP3   OH2 5106   2.527   0.500   3.601
 1718TIP3    H1 5107   2.507   0.479   3.510
 1718TIP3    H2 5108   2.613   0.461   3.616
 1719TIP3   OH2 5109   2.498   0.079   3.833
 1719TIP3    H1 5110   2.535   0.038   3.755
 1719TIP3    H2 5111   2.557   0.152   3.852
 1720TIP3   OH2 5112   3.039   0.702   3.610
 1720TIP3    H1 5113   3.028   0.779   3.665
 1720TIP3    H2 5114   3.028   0.628   3.669
 1721TIP3   OH2 5115   2.662   0.608   4.154
 1721TIP3    H1 5116   2.599   0.666   4.197
 1721TIP3    H2 5117   2.609   0.554   4.096
 1722TIP3   OH2 5118   2.981  -0.010   2.885
 1722TIP3    H1 5119   3.045   0.035   2.941
 1722TIP3    H2 5120   3.018  -0.002   2.797
 1723TIP3   OH2 5121   2.421   0.184   4.343
 1723TIP3    H1 5122   2.417   0.279   4.335
 1723TIP3    H2 5123   2.334   0.154   4.318
 1724TIP3   OH2 5124   2.740   0.620   3.135
 1724TIP3    H1 5125   2.822   0.669   3.144
 1724TIP3    H2 5126   2.680   0.681   3.092
 1725TIP3   OH2 5127   2.455   0.768   4.238
 1725TIP3    H1 5128   2.429   0.774   4.146
 1725TIP3    H2 5129   2.374   0.751   4.285
 1726TIP3   OH2 5130   7.526   7.352   3.268
 1726TIP3    H1 5131   7.458   7.413   3.238
 1726TIP3    H2 5132   7.479   7.271   3.289
 1727TIP3   OH2 5133   3.322   0.550   2.509
 1727TIP3    H1 5134   3.315   0.643   2.488
 1727TIP3    H2 5135   3.410   0.526   2.483
 1728TIP3   OH2 5136   2.064   0.337   4.215
 1728TIP3    H1 5137   2.009   0.325   4.137
 1728TIP3    H2 5138   2.096   0.250   4.235
 1729TIP3   OH2 5139   1.908   0.549   3.836
 1729TIP3    H1 5140   1.993   0.583   3.864
 1729TIP3    H2 5141   1.846   0.618   3.860
 1730TIP3   OH2 5142   3.747   0.981   3.890
 1730TIP3    H1 5143   3.753   0.886   3.895
 1730TIP3    H2 5144   3.667   1.002   3.938
 1731TIP3   OH2 5145   2.852   0.750   4.018
 1731TIP3    H1 5146   2.843   0.841   4.047
 1731TIP3    H2 5147   2.784   0.703   4.066
 1732TIP3   OH2 5148   2.630   0.846   2.972
 1732TIP3    H1 5149   2.580   0.828   2.892
 1732TIP3    H2 5150   2.595   0.929   3.005
 1733TIP3   OH2 5151   2.070   0.708   3.351
 1733TIP3    H1 5152   2.116   0.700   3.434
 1733TIP3    H2 5153   2.021   0.626   3.343
 1734TIP3   OH2 5154   2.835   0.775   2.600
 1734TIP3    H1 5155   2.880   0.697   2.568
 1734TIP3    H2 5156   2.869   0.788   2.689
 1735TIP3   OH2 5157   2.884   0.819   2.870
 1735TIP3    H1 5158   2.797   0.822   2.910
 1735TIP3    H2 5159   2.941   0.784   2.939
 1736TIP3   OH2 5160   3.599   0.156   4.176
 1736TIP3    H1 5161   3.515   0.197   4.161
 1736TIP3    H2 5162   3.636   0.142   4.089
 1737TIP3   OH2 5163   2.255   0.526   4.159
 1737TIP3    H1 5164   2.305   0.523   4.241
 1737TIP3    H2 5165   2.184   0.463   4.173
 1738TIP3   OH2 5166   0.758   7.218   4.053
 1738TIP3    H1 5167   0.715   7.248   4.133
 1738TIP3    H2 5168   0.686   7.191   3.996
 1739TIP3   OH2 5169   0.458   7.426   2.639
 1739TIP3    H1 5170   0.407   7.417   2.558
 1739TIP3    H2 5171   0.538   7.470   2.612
 1740TIP3   OH2 5172   7.787   7.322   4.018
 1740TIP3    H1 5173   7.872   7.279   4.018
 1740TIP3    H2 5174   7.797   7.395   3.956
 1741TIP3   OH2 5175   7.734   7.189   3.470
 1741TIP3    H1 5176   7.646   7.159   3.490
 1741TIP3    H2 5177   7.744   7.172   3.376
 1742TIP3   OH2 5178   0.264   7.273   3.212
 1742TIP3    H1 5179   0.217   7.347   3.173
 1742TIP3    H2 5180   0.326   7.246   3.144
 1743TIP3   OH2 5181   3.120   0.141   4.343
 1743TIP3    H1 5182   3.090   0.052   4.363
 1743TIP3    H2 5183   3.216   0.134   4.344
 1744TIP3   OH2 5184   0.377   7.394   3.448
 1744TIP3    H1 5185   0.386   7.470   3.389
 1744TIP3    H2 5186   0.327   7.331   3.397
 1745TIP3   OH2 5187   7.660   7.291   4.314
 1745TIP3    H1 5188   7.740   7.332   4.282
 1745TIP3    H2 5189   7.612   7.267   4.235
 1746TIP3   OH2 5190   3.071   0.148   3.839
 1746TIP3    H1 5191   3.102   0.067   3.800
 1746TIP3    H2 5192   3.093   0.141   3.931
 1747TIP3   OH2 5193   0.187   7.014   3.553
 1747TIP3    H1 5194   0.103   7.002   3.597
 1747TIP3    H2 5195   0.253   6.998   3.621
 1748TIP3   OH2 5196   7.509   7.043   3.530
 1748TIP3    H1 5197   7.450   7.060   3.457
 1748TIP3    H2 5198   7.542   6.955   3.515
 1749TIP3   OH2 5199   7.774   7.105   3.208
 1749TIP3    H1 5200   7.860   7.070   3.229
 1749TIP3    H2 5201   7.779   7.127   3.115
 1750TIP3   OH2 5202   3.457   1.307   3.983
 1750TIP3    H1 5203   3.454   1.321   3.889
 1750TIP3    H2 5204   3.536   1.352   4.012
 1751TIP3   OH2 5205   2.395   0.454   4.401
 1751TIP3    H1 5206   2.478   0.464   4.446
 1751TIP3    H2 5207   2.329   0.455   4.470
 1752TIP3   OH2 5208   0.186   7.315   3.716
 1752TIP3    H1 5209   0.281   7.313   3.705
 1752TIP3    H2 5210   0.170   7.264   3.795
 1753TIP3   OH2 5211   2.552   0.173   3.022
 1753TIP3    H1 5212   2.489   0.101   3.012
 1753TIP3    H2 5213   2.537   0.206   3.110
 1754TIP3   OH2 5214   3.450   0.403   3.637
 1754TIP3    H1 5215   3.481   0.455   3.562
 1754TIP3    H2 5216   3.364   0.371   3.610
 1755TIP3   OH2 5217   0.463   6.912   2.877
 1755TIP3    H1 5218   0.374   6.887   2.904
 1755TIP3    H2 5219   0.466   7.007   2.889
 1756TIP3   OH2 5220   2.981   0.489   4.053
 1756TIP3    H1 5221   3.028   0.476   4.135
 1756TIP3    H2 5222   2.939   0.575   4.061
 1757TIP3   OH2 5223   0.432   7.181   2.945
 1757TIP3    H1 5224   0.527   7.187   2.958
 1757TIP3    H2 5225   0.406   7.268   2.915
 1758TIP3   OH2 5226   2.286   0.182   3.682
 1758TIP3    H1 5227   2.323   0.160   3.596
 1758TIP3    H2 5228   2.350   0.149   3.745
 1759TIP3   OH2 5229   2.737   0.315   2.874
 1759TIP3    H1 5230   2.694   0.400   2.868
 1759TIP3    H2 5231   2.676   0.261   2.924
 1760TIP3   OH2 5232   2.157   0.106   4.347
 1760TIP3    H1 5233   2.146   0.058   4.429
 1760TIP3    H2 5234   2.110   0.053   4.282
 1761TIP3   OH2 5235   2.872   0.248   4.336
 1761TIP3    H1 5236   2.823   0.215   4.261
 1761TIP3    H2 5237   2.959   0.211   4.327
 1762TIP3   OH2 5238   3.123   0.767   3.939
 1762TIP3    H1 5239   3.028   0.754   3.943
 1762TIP3    H2 5240   3.146   0.800   4.026
 1763TIP3   OH2 5241   0.900   7.280   2.809
 1763TIP3    H1 5242   0.845   7.233   2.747
 1763TIP3    H2 5243   0.896   7.372   2.781
 1764TIP3   OH2 5244   3.765   0.708   3.905
 1764TIP3    H1 5245   3.677   0.673   3.922
 1764TIP3    H2 5246   3.790   0.670   3.821
 1765TIP3   OH2 5247   3.241   0.625   2.773
 1765TIP3    H1 5248   3.220   0.557   2.837
 1765TIP3    H2 5249   3.264   0.577   2.694
 1766TIP3   OH2 5250   3.198   0.298   3.551
 1766TIP3    H1 5251   3.106   0.276   3.565
 1766TIP3    H2 5252   3.239   0.216   3.523
 1767TIP3   OH2 5253   2.380   0.494   3.357
 1767TIP3    H1 5254   2.375   0.570   3.300
 1767TIP3    H2 5255   2.290   0.481   3.386
 1768TIP3   OH2 5256   2.485   0.257   3.266
 1768TIP3    H1 5257   2.458   0.343   3.296
 1768TIP3    H2 5258   2.455   0.197   3.335
 1769TIP3   OH2 5259   2.669   0.819   3.811
 1769TIP3    H1 5260   2.705   0.892   3.761
 1769TIP3    H2 5261   2.743   0.786   3.861
 1770TIP3   OH2 5262   2.302   0.717   3.205
 1770TIP3    H1 5263   2.215   0.725   3.244
 1770TIP3    H2 5264   2.338   0.806   3.210
 1771TIP3   OH2 5265   3.016   0.475   3.778
 1771TIP3    H1 5266   3.005   0.474   3.873
 1771TIP3    H2 5267   3.077   0.404   3.760
 1772TIP3   OH2 5268   2.997   0.355   2.681
 1772TIP3    H1 5269   3.068   0.326   2.738
 1772TIP3    H2 5270   2.918   0.343   2.733
 1773TIP3   OH2 5271   3.276   0.975   3.825
 1773TIP3    H1 5272   3.207   0.912   3.845
 1773TIP3    H2 5273   3.240   1.028   3.753
 1774TIP3   OH2 5274   3.321   0.822   2.462
 1774TIP3    H1 5275   3.341   0.882   2.390
 1774TIP3    H2 5276   3.250   0.866   2.510
 1775TIP3   OH2 5277   3.196   0.267   2.841
 1775TIP3    H1 5278   3.180   0.220   2.923
 1775TIP3    H2 5279   3.291   0.280   2.839
 1776TIP3   OH2 5280   2.103   0.717   3.967
 1776TIP3    H1 5281   2.160   0.659   4.018
 1776TIP3    H2 5282   2.114   0.803   4.008
 1777TIP3   OH2 5283   2.386   0.337   2.659
 1777TIP3    H1 5284   2.469   0.291   2.646
 1777TIP3    H2 5285   2.370   0.331   2.754
 1778TIP3   OH2 5286   2.322   0.341   2.925
 1778TIP3    H1 5287   2.389   0.308   2.986
 1778TIP3    H2 5288   2.320   0.435   2.942
 1779TIP3   OH2 5289   2.070   0.069   3.171
 1779TIP3    H1 5290   1.994   0.103   3.217
 1779TIP3    H2 5291   2.074   0.120   3.090
 1780TIP3   OH2 5292   2.582   0.535   2.856
 1780TIP3    H1 5293   2.501   0.553   2.904
 1780TIP3    H2 5294   2.597   0.612   2.802
 1781TIP3   OH2 5295   0.133   7.048   3.288
 1781TIP3    H1 5296   0.166   7.137   3.274
 1781TIP3    H2 5297   0.144   7.034   3.382
 1782TIP3   OH2 5298   0.335   7.385   4.081
 1782TIP3    H1 5299   0.337   7.356   4.172
 1782TIP3    H2 5300   0.285   7.317   4.036
 1783TIP3   OH2 5301   2.336   0.612   2.955
 1783TIP3    H1 5302   2.311   0.683   2.896
 1783TIP3    H2 5303   2.323   0.648   3.043
 1784TIP3   OH2 5304   1.016   7.308   4.086
 1784TIP3    H1 5305   0.927   7.273   4.093
 1784TIP3    H2 5306   1.064   7.242   4.037
 1785TIP3   OH2 5307   3.295   0.056   3.475
 1785TIP3    H1 5308   3.228  -0.006   3.506
 1785TIP3    H2 5309   3.376   0.024   3.513
 1786TIP3   OH2 5310   2.057   0.237   2.951
 1786TIP3    H1 5311   2.133   0.296   2.946
 1786TIP3    H2 5312   2.078   0.167   2.889
 1787TIP3   OH2 5313   3.301   0.978   3.396
 1787TIP3    H1 5314   3.259   1.029   3.327
 1787TIP3    H2 5315   3.395   0.989   3.381
 1788TIP3   OH2 5316   1.900   0.488   3.335
 1788TIP3    H1 5317   1.854   0.525   3.410
 1788TIP3    H2 5318   1.856   0.525   3.259
 1789TIP3   OH2 5319   2.082   1.020   4.396
 1789TIP3    H1 5320   2.166   1.023   4.442
 1789TIP3    H2 5321   2.061   0.927   4.390
 1790TIP3   OH2 5322   2.554   0.924   4.442
 1790TIP3    H1 5323   2.646   0.900   4.449
 1790TIP3    H2 5324   2.522   0.874   4.367
 1791TIP3   OH2 5325   2.502   0.550   2.529
 1791TIP3    H1 5326   2.457   0.481   2.578
 1791TIP3    H2 5327   2.576   0.505   2.487
 1792TIP3   OH2 5328   3.177   0.862   4.193
 1792TIP3    H1 5329   3.192   0.793   4.258
 1792TIP3    H2 5330   3.250   0.923   4.204
 1793TIP3   OH2 5331   2.946   0.549   2.490
 1793TIP3    H1 5332   2.981   0.488   2.555
 1793TIP3    H2 5333   3.011   0.548   2.419
 1794TIP3   OH2 5334   2.212   0.411   4.609
 1794TIP3    H1 5335   2.229   0.317   4.613
 1794TIP3    H2 5336   2.127   0.418   4.565
 1795TIP3   OH2 5337   2.207   0.052   2.811
 1795TIP3    H1 5338   2.259   0.016   2.883
 1795TIP3    H2 5339   2.270   0.095   2.754
 1796TIP3   OH2 5340   2.808   0.514   4.365
 1796TIP3    H1 5341   2.764   0.535   4.282
 1796TIP3    H2 5342   2.841   0.425   4.353
 1797TIP3   OH2 5343   2.649   0.243   2.621
 1797TIP3    H1 5344   2.687   0.261   2.707
 1797TIP3    H2 5345   2.680   0.155   2.599
 1798TIP3   OH2 5346   3.285   0.528   3.961
 1798TIP3    H1 5347   3.364   0.558   3.916
 1798TIP3    H2 5348   3.220   0.596   3.944
 1799TIP3   OH2 5349   2.360   0.147   4.612
 1799TIP3    H1 5350   2.389   0.171   4.524
 1799TIP3    H2 5351   2.372   0.053   4.617
 1800TIP3   OH2 5352   7.647   7.405   3.015
 1800TIP3    H1 5353   7.607   7.390   3.101
 1800TIP3    H2 5354   7.697   7.326   2.997
 1801TIP3   OH2 5355   2.625   0.007   4.301
 1801TIP3    H1 5356   2.555   0.070   4.319
 1801TIP3    H2 5357   2.673   0.046   4.227
 1802TIP3   OH2 5358   7.803   7.186   2.931
 1802TIP3    H1 5359   7.754   7.155   2.855
 1802TIP3    H2 5360   7.883   7.223   2.895
 1803TIP3   OH2 5361   3.165   0.423   4.316
 1803TIP3    H1 5362   3.250   0.415   4.274
 1803TIP3    H2 5363   3.139   0.333   4.335
 1804TIP3   OH2 5364   3.305   0.084   2.499
 1804TIP3    H1 5365   3.282   0.041   2.417
 1804TIP3    H2 5366   3.270   0.173   2.490
 1805TIP3   OH2 5367   0.171   7.241   4.286
 1805TIP3    H1 5368   0.161   7.191   4.205
 1805TIP3    H2 5369   0.097   7.302   4.285
 1806TIP3   OH2 5370   2.768   0.139   4.104
 1806TIP3    H1 5371   2.838   0.084   4.067
 1806TIP3    H2 5372   2.739   0.193   4.030
 1807TIP3   OH2 5373   3.387   0.167   4.418
 1807TIP3    H1 5374   3.442   0.089   4.408
 1807TIP3    H2 5375   3.450   0.240   4.416
 1808TIP3   OH2 5376   3.409   0.424   4.178
 1808TIP3    H1 5377   3.352   0.460   4.111
 1808TIP3    H2 5378   3.495   0.419   4.136
 1809TIP3   OH2 5379   0.028   7.355   4.572
 1809TIP3    H1 5380  -0.032   7.282   4.561
 1809TIP3    H2 5381   0.035   7.393   4.484
 1810TIP3   OH2 5382   0.396   7.334   4.409
 1810TIP3    H1 5383   0.387   7.314   4.502
 1810TIP3    H2 5384   0.321   7.291   4.368
 1811TIP3   OH2 5385   0.645   7.331   4.271
 1811TIP3    H1 5386   0.575   7.312   4.333
 1811TIP3    H2 5387   0.724   7.338   4.326
 1812TIP3   OH2 5388   2.324   0.824   2.776
 1812TIP3    H1 5389   2.412   0.807   2.743
 1812TIP3    H2 5390   2.280   0.869   2.703
 1813TIP3   OH2 5391   1.700   0.798   3.400
 1813TIP3    H1 5392   1.637   0.744   3.351
 1813TIP3    H2 5393   1.742   0.737   3.460
 1814TIP3   OH2 5394   1.840   0.637   3.573
 1814TIP3    H1 5395   1.839   0.568   3.640
 1814TIP3    H2 5396   1.893   0.707   3.612
 1815TIP3   OH2 5397   3.572   1.026   3.387
 1815TIP3    H1 5398   3.591   1.052   3.477
 1815TIP3    H2 5399   3.629   1.082   3.334
 1816TIP3   OH2 5400   3.587   1.056   3.667
 1816TIP3    H1 5401   3.542   0.972   3.664
 1816TIP3    H2 5402   3.658   1.044   3.730
 1817TIP3   OH2 5403   3.636   0.769   4.228
 1817TIP3    H1 5404   3.566   0.774   4.293
 1817TIP3    H2 5405   3.685   0.851   4.239
 1818TIP3   OH2 5406   3.471   0.284   2.848
 1818TIP3    H1 5407   3.531   0.354   2.823
 1818TIP3    H2 5408   3.511   0.244   2.925
 1819TIP3   OH2 5409   3.582   0.133   3.052
 1819TIP3    H1 5410   3.521   0.095   3.116
 1819TIP3    H2 5411   3.646   0.181   3.105
 1820TIP3   OH2 5412   3.624   0.550   3.478
 1820TIP3    H1 5413   3.682   0.483   3.443
 1820TIP3    H2 5414   3.629   0.622   3.415
 1821TIP3   OH2 5415   3.452   0.812   3.681
 1821TIP3    H1 5416   3.384   0.857   3.731
 1821TIP3    H2 5417   3.406   0.771   3.608
 1822TIP3   OH2 5418   3.504   0.069   2.683
 1822TIP3    H1 5419   3.434   0.075   2.618
 1822TIP3    H2 5420   3.491   0.146   2.739
 1823TIP3   OH2 5421   0.741   7.159   2.625
 1823TIP3    H1 5422   0.683   7.218   2.578
 1823TIP3    H2 5423   0.692   7.078   2.633
 1824TIP3   OH2 5424   0.744   7.460   3.215
 1824TIP3    H1 5425   0.698   7.376   3.221
 1824TIP3    H2 5426   0.731   7.500   3.301
 1825TIP3   OH2 5427   2.052   0.088   3.908
 1825TIP3    H1 5428   2.070   0.077   3.814
 1825TIP3    H2 5429   2.138   0.091   3.949
 1826TIP3   OH2 5430   3.648   0.427   4.039
 1826TIP3    H1 5431   3.722   0.369   4.022
 1826TIP3    H2 5432   3.622   0.460   3.953
 1827TIP3   OH2 5433   3.886   0.284   4.040
 1827TIP3    H1 5434   3.884   0.195   4.074
 1827TIP3    H2 5435   3.971   0.319   4.070
 1828TIP3   OH2 5436   0.705   7.191   2.988
 1828TIP3    H1 5437   0.758   7.121   3.026
 1828TIP3    H2 5438   0.767   7.244   2.938
 1829TIP3   OH2 5439   0.901   7.416   3.563
 1829TIP3    H1 5440   0.988   7.449   3.545
 1829TIP3    H2 5441   0.903   7.392   3.656
 1830TIP3   OH2 5442   3.635   0.144   3.894
 1830TIP3    H1 5443   3.547   0.178   3.908
 1830TIP3    H2 5444   3.668   0.193   3.818
 1831TIP3   OH2 5445   7.577   7.262   4.570
 1831TIP3    H1 5446   7.616   7.276   4.484
 1831TIP3    H2 5447   7.522   7.185   4.559
 1832TIP3   OH2 5448   7.503   7.239   4.088
 1832TIP3    H1 5449   7.529   7.172   4.025
 1832TIP3    H2 5450   7.415   7.212   4.116
 1833TIP3   OH2 5451   3.129   0.942   3.030
 1833TIP3    H1 5452   3.185   0.932   2.953
 1833TIP3    H2 5453   3.170   1.011   3.082
 1834TIP3   OH2 5454   2.239   0.740   4.406
 1834TIP3    H1 5455   2.145   0.725   4.402
 1834TIP3    H2 5456   2.259   0.746   4.499
 1835TIP3   OH2 5457   2.439   0.780   3.957
 1835TIP3    H1 5458   2.388   0.854   3.925
 1835TIP3    H2 5459   2.524   0.789   3.914
 1836TIP3   OH2 5460   2.835   1.015   4.100
 1836TIP3    H1 5461   2.874   1.008   4.187
 1836TIP3    H2 5462   2.898   1.068   4.050
 1837TIP3   OH2 5463   3.026   1.167   3.971
 1837TIP3    H1 5464   3.087   1.113   3.921
 1837TIP3    H2 5465   3.083   1.223   4.024
 1838TIP3   OH2 5466   2.096   1.019   4.006
 1838TIP3    H1 5467   2.005   1.037   3.982
 1838TIP3    H2 5468   2.118   1.086   4.071
 1839TIP3   OH2 5469   2.329   1.012   3.857
 1839TIP3    H1 5470   2.245   1.017   3.904
 1839TIP3    H2 5471   2.307   1.036   3.767
 1840TIP3   OH2 5472   2.744   1.030   3.648
 1840TIP3    H1 5473   2.672   1.040   3.586
 1840TIP3    H2 5474   2.753   1.116   3.688
 1841TIP3   OH2 5475   3.007   0.965   3.700
 1841TIP3    H1 5476   2.916   0.984   3.678
 1841TIP3    H2 5477   3.057   1.031   3.652
 1842TIP3   OH2 5478   3.208   1.136   3.600
 1842TIP3    H1 5479   3.207   1.223   3.561
 1842TIP3    H2 5480   3.238   1.079   3.531
 1843TIP3   OH2 5481   2.019   0.816   3.717
 1843TIP3    H1 5482   2.040   0.792   3.807
 1843TIP3    H2 5483   2.089   0.778   3.664
 1844TIP3   OH2 5484   2.217   0.691   3.581
 1844TIP3    H1 5485   2.227   0.609   3.628
 1844TIP3    H2 5486   2.304   0.731   3.585
 1845TIP3   OH2 5487   2.484   0.774   3.606
 1845TIP3    H1 5488   2.502   0.682   3.591
 1845TIP3    H2 5489   2.538   0.796   3.682
 1846TIP3   OH2 5490   1.785   0.598   3.113
 1846TIP3    H1 5491   1.705   0.560   3.078
 1846TIP3    H2 5492   1.785   0.688   3.081
 1847TIP3   OH2 5493   2.576   0.758   2.691
 1847TIP3    H1 5494   2.662   0.784   2.658
 1847TIP3    H2 5495   2.542   0.696   2.626
 1848TIP3   OH2 5496   3.280   0.894   2.802
 1848TIP3    H1 5497   3.271   0.798   2.796
 1848TIP3    H2 5498   3.236   0.927   2.723
 1849TIP3   OH2 5499   1.925   0.631   2.776
 1849TIP3    H1 5500   1.894   0.590   2.857
 1849TIP3    H2 5501   2.000   0.578   2.749
 1850TIP3   OH2 5502   3.494   1.034   3.989
 1850TIP3    H1 5503   3.422   1.002   3.936
 1850TIP3    H2 5504   3.479   1.128   3.997
 1851TIP3   OH2 5505   4.766   0.392   2.756
 1851TIP3    H1 5506   4.743   0.484   2.750
 1851TIP3    H2 5507   4.693   0.346   2.715
 1852TIP3   OH2 5508   4.759   0.456   3.107
 1852TIP3    H1 5509   4.786   0.441   3.197
 1852TIP3    H2 5510   4.716   0.375   3.080
 1853TIP3   OH2 5511   4.066   0.307   3.473
 1853TIP3    H1 5512   4.097   0.257   3.549
 1853TIP3    H2 5513   4.146   0.324   3.422
 1854TIP3   OH2 5514   5.050   0.722   2.820
 1854TIP3    H1 5515   5.027   0.666   2.895
 1854TIP3    H2 5516   5.070   0.807   2.859
 1855TIP3   OH2 5517   4.055   0.701   3.184
 1855TIP3    H1 5518   4.034   0.608   3.189
 1855TIP3    H2 5519   4.151   0.704   3.177
 1856TIP3   OH2 5520   1.133   7.409   2.927
 1856TIP3    H1 5521   1.085   7.478   2.971
 1856TIP3    H2 5522   1.066   7.351   2.892
 1857TIP3   OH2 5523   3.803   0.256   3.163
 1857TIP3    H1 5524   3.854   0.180   3.191
 1857TIP3    H2 5525   3.868   0.325   3.150
 1858TIP3   OH2 5526   4.695   1.148   2.836
 1858TIP3    H1 5527   4.727   1.089   2.768
 1858TIP3    H2 5528   4.697   1.095   2.916
 1859TIP3   OH2 5529   4.573   0.661   3.151
 1859TIP3    H1 5530   4.616   0.586   3.110
 1859TIP3    H2 5531   4.645   0.713   3.187
 1860TIP3   OH2 5532   4.948   0.163   3.210
 1860TIP3    H1 5533   4.959   0.072   3.235
 1860TIP3    H2 5534   4.917   0.160   3.120
 1861TIP3   OH2 5535   1.618   7.255   3.191
 1861TIP3    H1 5536   1.534   7.241   3.147
 1861TIP3    H2 5537   1.644   7.168   3.221
 1862TIP3   OH2 5538   2.416   7.211   2.769
 1862TIP3    H1 5539   2.386   7.185   2.856
 1862TIP3    H2 5540   2.414   7.307   2.770
 1863TIP3   OH2 5541   3.964   0.057   3.239
 1863TIP3    H1 5542   4.047   0.065   3.286
 1863TIP3    H2 5543   3.975  -0.020   3.183
 1864TIP3   OH2 5544   4.368   0.262   3.070
 1864TIP3    H1 5545   4.463   0.250   3.066
 1864TIP3    H2 5546   4.332   0.177   3.047
 1865TIP3   OH2 5547   5.680   0.302   3.308
 1865TIP3    H1 5548   5.634   0.295   3.225
 1865TIP3    H2 5549   5.611   0.310   3.374
 1866TIP3   OH2 5550   4.625   0.605   2.635
 1866TIP3    H1 5551   4.623   0.602   2.540
 1866TIP3    H2 5552   4.595   0.694   2.656
 1867TIP3   OH2 5553   4.435   0.574   3.376
 1867TIP3    H1 5554   4.372   0.639   3.409
 1867TIP3    H2 5555   4.475   0.616   3.300
 1868TIP3   OH2 5556   4.220   0.038   3.331
 1868TIP3    H1 5557   4.229   0.020   3.425
 1868TIP3    H2 5558   4.231  -0.048   3.290
 1869TIP3   OH2 5559   4.256   0.761   3.473
 1869TIP3    H1 5560   4.239   0.850   3.441
 1869TIP3    H2 5561   4.179   0.739   3.525
 1870TIP3   OH2 5562   3.641   0.469   2.728
 1870TIP3    H1 5563   3.604   0.493   2.643
 1870TIP3    H2 5564   3.667   0.553   2.767
 1871TIP3   OH2 5565   5.082   0.965   2.965
 1871TIP3    H1 5566   4.995   0.958   3.003
 1871TIP3    H2 5567   5.081   1.050   2.920
 1872TIP3   OH2 5568   4.791   1.005   2.620
 1872TIP3    H1 5569   4.830   0.918   2.612
 1872TIP3    H2 5570   4.858   1.064   2.584
 1873TIP3   OH2 5571   4.912   0.766   2.582
 1873TIP3    H1 5572   4.944   0.711   2.511
 1873TIP3    H2 5573   4.965   0.741   2.658
 1874TIP3   OH2 5574   5.319   0.850   3.319
 1874TIP3    H1 5575   5.298   0.781   3.256
 1874TIP3    H2 5576   5.303   0.932   3.273
 1875TIP3   OH2 5577   4.589   0.263   2.587
 1875TIP3    H1 5578   4.507   0.311   2.575
 1875TIP3    H2 5579   4.638   0.278   2.506
 1876TIP3   OH2 5580   4.533   0.142   2.281
 1876TIP3    H1 5581   4.604   0.194   2.317
 1876TIP3    H2 5582   4.553   0.052   2.306
 1877TIP3   OH2 5583   5.491   0.545   3.161
 1877TIP3    H1 5584   5.405   0.586   3.157
 1877TIP3    H2 5585   5.525   0.551   3.072
 1878TIP3   OH2 5586   4.956   0.353   2.557
 1878TIP3    H1 5587   4.900   0.374   2.631
 1878TIP3    H2 5588   5.043   0.339   2.595
 1879TIP3   OH2 5589   5.179   0.492   3.432
 1879TIP3    H1 5590   5.131   0.574   3.427
 1879TIP3    H2 5591   5.121   0.432   3.479
 1880TIP3   OH2 5592   4.156   0.354   2.923
 1880TIP3    H1 5593   4.126   0.282   2.869
 1880TIP3    H2 5594   4.234   0.321   2.968
 1881TIP3   OH2 5595   4.317   0.753   3.090
 1881TIP3    H1 5596   4.296   0.739   2.997
 1881TIP3    H2 5597   4.406   0.720   3.099
 1882TIP3   OH2 5598   4.287   0.352   3.315
 1882TIP3    H1 5599   4.317   0.326   3.228
 1882TIP3    H2 5600   4.338   0.431   3.335
 1883TIP3   OH2 5601   4.843   0.963   3.096
 1883TIP3    H1 5602   4.829   1.042   3.147
 1883TIP3    H2 5603   4.827   0.891   3.157
 1884TIP3   OH2 5604   4.449   0.870   3.638
 1884TIP3    H1 5605   4.386   0.926   3.682
 1884TIP3    H2 5606   4.396   0.813   3.582
 1885TIP3   OH2 5607   4.770   0.257   2.378
 1885TIP3    H1 5608   4.835   0.302   2.432
 1885TIP3    H2 5609   4.806   0.258   2.290
 1886TIP3   OH2 5610   4.209   0.444   3.763
 1886TIP3    H1 5611   4.214   0.531   3.803
 1886TIP3    H2 5612   4.115   0.423   3.764
 1887TIP3   OH2 5613   4.543   0.876   2.637
 1887TIP3    H1 5614   4.626   0.924   2.637
 1887TIP3    H2 5615   4.483   0.932   2.587
 1888TIP3   OH2 5616   4.242   1.026   3.727
 1888TIP3    H1 5617   4.214   1.032   3.635
 1888TIP3    H2 5618   4.162   1.007   3.775
 1889TIP3   OH2 5619   4.042   0.169   2.738
 1889TIP3    H1 5620   3.959   0.208   2.710
 1889TIP3    H2 5621   4.017   0.096   2.794
 1890TIP3   OH2 5622   5.103   0.802   1.920
 1890TIP3    H1 5623   5.100   0.898   1.925
 1890TIP3    H2 5624   5.194   0.780   1.936
 1891TIP3   OH2 5625   3.832   0.589   3.669
 1891TIP3    H1 5626   3.761   0.572   3.607
 1891TIP3    H2 5627   3.870   0.502   3.686
 1892TIP3   OH2 5628   3.682   0.775   3.323
 1892TIP3    H1 5629   3.774   0.791   3.345
 1892TIP3    H2 5630   3.636   0.853   3.355
 1893TIP3   OH2 5631   5.545   1.238   3.380
 1893TIP3    H1 5632   5.551   1.142   3.387
 1893TIP3    H2 5633   5.464   1.259   3.426
 1894TIP3   OH2 5634   4.647   1.005   3.504
 1894TIP3    H1 5635   4.640   1.096   3.533
 1894TIP3    H2 5636   4.576   0.960   3.551
 1895TIP3   OH2 5637   4.430   1.098   2.462
 1895TIP3    H1 5638   4.386   1.079   2.379
 1895TIP3    H2 5639   4.392   1.180   2.492
 1896TIP3   OH2 5640   3.860   0.958   2.837
 1896TIP3    H1 5641   3.905   0.950   2.922
 1896TIP3    H2 5642   3.812   0.876   2.828
 1897TIP3   OH2 5643   4.628   1.027   2.089
 1897TIP3    H1 5644   4.692   0.965   2.054
 1897TIP3    H2 5645   4.664   1.052   2.175
 1898TIP3   OH2 5646   4.685   1.085   2.354
 1898TIP3    H1 5647   4.602   1.081   2.403
 1898TIP3    H2 5648   4.750   1.052   2.416
 1899TIP3   OH2 5649   5.389   0.424   3.671
 1899TIP3    H1 5650   5.376   0.486   3.599
 1899TIP3    H2 5651   5.395   0.338   3.628
 1900TIP3   OH2 5652   4.039   0.771   3.645
 1900TIP3    H1 5653   4.087   0.760   3.727
 1900TIP3    H2 5654   3.967   0.708   3.651
 1901TIP3   OH2 5655   5.194   0.099   3.440
 1901TIP3    H1 5656   5.213   0.062   3.527
 1901TIP3    H2 5657   5.143   0.178   3.459
 1902TIP3   OH2 5658   4.875   0.206   2.135
 1902TIP3    H1 5659   4.823   0.214   2.056
 1902TIP3    H2 5660   4.957   0.252   2.115
 1903TIP3   OH2 5661   4.418   0.173   3.489
 1903TIP3    H1 5662   4.362   0.174   3.567
 1903TIP3    H2 5663   4.368   0.221   3.423
 1904TIP3   OH2 5664   4.217   0.050   2.977
 1904TIP3    H1 5665   4.142   0.010   3.021
 1904TIP3    H2 5666   4.256  -0.023   2.928
 1905TIP3   OH2 5667   4.749   0.054   2.658
 1905TIP3    H1 5668   4.693   0.130   2.640
 1905TIP3    H2 5669   4.786   0.032   2.572
 1906TIP3   OH2 5670   4.896   0.427   3.786
 1906TIP3    H1 5671   4.850   0.356   3.831
 1906TIP3    H2 5672   4.988   0.414   3.807
 1907TIP3   OH2 5673   4.875   0.192   2.923
 1907TIP3    H1 5674   4.840   0.269   2.878
 1907TIP3    H2 5675   4.798   0.138   2.942
 1908TIP3   OH2 5676   4.230   0.179   3.683
 1908TIP3    H1 5677   4.219   0.260   3.732
 1908TIP3    H2 5678   4.149   0.130   3.700
 1909TIP3   OH2 5679   1.616   7.072   2.424
 1909TIP3    H1 5680   1.656   6.997   2.468
 1909TIP3    H2 5681   1.562   7.033   2.356
 1910TIP3   OH2 5682   4.859   0.383   3.353
 1910TIP3    H1 5683   4.890   0.307   3.303
 1910TIP3    H2 5684   4.916   0.385   3.430
 1911TIP3   OH2 5685   1.895   7.197   3.037
 1911TIP3    H1 5686   1.849   7.179   3.119
 1911TIP3    H2 5687   1.958   7.125   3.029
 1912TIP3   OH2 5688   1.365   7.315   3.043
 1912TIP3    H1 5689   1.299   7.360   2.990
 1912TIP3    H2 5690   1.322   7.235   3.072
 1913TIP3   OH2 5691   1.675   7.345   2.588
 1913TIP3    H1 5692   1.736   7.357   2.661
 1913TIP3    H2 5693   1.696   7.416   2.527
 1914TIP3   OH2 5694   1.432   7.313   2.441
 1914TIP3    H1 5695   1.368   7.300   2.371
 1914TIP3    H2 5696   1.481   7.391   2.414
 1915TIP3   OH2 5697   5.255   1.564   3.470
 1915TIP3    H1 5698   5.253   1.575   3.375
 1915TIP3    H2 5699   5.334   1.610   3.498
 1916TIP3   OH2 5700   4.196   0.693   3.886
 1916TIP3    H1 5701   4.276   0.705   3.937
 1916TIP3    H2 5702   4.125   0.694   3.950
 1917TIP3   OH2 5703   4.638   0.211   3.090
 1917TIP3    H1 5704   4.638   0.122   3.054
 1917TIP3    H2 5705   4.643   0.198   3.184
 1918TIP3   OH2 5706   4.654   0.158   3.354
 1918TIP3    H1 5707   4.569   0.176   3.395
 1918TIP3    H2 5708   4.718   0.180   3.422
 1919TIP3   OH2 5709   4.363   0.402   2.516
 1919TIP3    H1 5710   4.282   0.357   2.493
 1919TIP3    H2 5711   4.341   0.453   2.594
 1920TIP3   OH2 5712   5.250   0.671   3.128
 1920TIP3    H1 5713   5.281   0.720   3.051
 1920TIP3    H2 5714   5.164   0.637   3.102
 1921TIP3   OH2 5715   2.258   7.183   2.364
 1921TIP3    H1 5716   2.229   7.140   2.444
 1921TIP3    H2 5717   2.247   7.276   2.381
 1922TIP3   OH2 5718   4.776   0.746   3.537
 1922TIP3    H1 5719   4.799   0.720   3.627
 1922TIP3    H2 5720   4.728   0.828   3.547
 1923TIP3   OH2 5721   4.896   0.003   2.432
 1923TIP3    H1 5722   4.991   0.016   2.438
 1923TIP3    H2 5723   4.865   0.083   2.390
 1924TIP3   OH2 5724   4.036   0.420   3.165
 1924TIP3    H1 5725   4.074   0.402   3.079
 1924TIP3    H2 5726   4.098   0.382   3.227
 1925TIP3   OH2 5727   4.524   0.562   2.357
 1925TIP3    H1 5728   4.479   0.646   2.367
 1925TIP3    H2 5729   4.472   0.501   2.410
 1926TIP3   OH2 5730   3.948   0.354   3.781
 1926TIP3    H1 5731   3.936   0.332   3.873
 1926TIP3    H2 5732   3.874   0.312   3.736
 1927TIP3   OH2 5733   4.653   0.536   3.843
 1927TIP3    H1 5734   4.590   0.468   3.819
 1927TIP3    H2 5735   4.736   0.505   3.806
 1928TIP3   OH2 5736   4.922   1.015   3.426
 1928TIP3    H1 5737   4.827   1.002   3.432
 1928TIP3    H2 5738   4.946   1.054   3.511
 1929TIP3   OH2 5739   5.317   0.109   2.288
 1929TIP3    H1 5740   5.242   0.077   2.238
 1929TIP3    H2 5741   5.329   0.199   2.258
 1930TIP3   OH2 5742   5.563   0.963   3.396
 1930TIP3    H1 5743   5.472   0.934   3.407
 1930TIP3    H2 5744   5.590   0.926   3.312
 1931TIP3   OH2 5745   5.009   0.559   3.043
 1931TIP3    H1 5746   4.917   0.535   3.056
 1931TIP3    H2 5747   5.051   0.478   3.015
 1932TIP3   OH2 5748   4.181   0.762   2.845
 1932TIP3    H1 5749   4.172   0.838   2.787
 1932TIP3    H2 5750   4.093   0.750   2.881
 1933TIP3   OH2 5751   3.732   0.014   2.543
 1933TIP3    H1 5752   3.785   0.092   2.560
 1933TIP3    H2 5753   3.654   0.025   2.598
 1934TIP3   OH2 5754   4.248   0.525   2.726
 1934TIP3    H1 5755   4.244   0.613   2.764
 1934TIP3    H2 5756   4.216   0.468   2.796
 1935TIP3   OH2 5757   4.462   1.075   3.299
 1935TIP3    H1 5758   4.498   1.148   3.248
 1935TIP3    H2 5759   4.536   1.041   3.349
 1936TIP3   OH2 5760   4.093   0.978   2.692
 1936TIP3    H1 5761   4.006   0.984   2.731
 1936TIP3    H2 5762   4.128   1.067   2.698
 1937TIP3   OH2 5763   4.813   0.743   3.265
 1937TIP3    H1 5764   4.802   0.737   3.360
 1937TIP3    H2 5765   4.888   0.686   3.247
 1938TIP3   OH2 5766   4.810   0.610   2.153
 1938TIP3    H1 5767   4.869   0.598   2.228
 1938TIP3    H2 5768   4.723   0.594   2.189
 1939TIP3   OH2 5769   5.070   1.236   3.311
 1939TIP3    H1 5770   4.999   1.173   3.326
 1939TIP3    H2 5771   5.039   1.291   3.239
 1940TIP3   OH2 5772   5.077   1.072   1.921
 1940TIP3    H1 5773   5.128   1.146   1.889
 1940TIP3    H2 5774   5.025   1.107   1.993
 1941TIP3   OH2 5775   4.973   0.556   2.369
 1941TIP3    H1 5776   4.968   0.488   2.436
 1941TIP3    H2 5777   5.067   0.564   2.350
 1942TIP3   OH2 5778   3.890   0.966   3.461
 1942TIP3    H1 5779   3.941   0.904   3.513
 1942TIP3    H2 5780   3.906   1.051   3.502
 1943TIP3   OH2 5781   4.141   0.596   2.172
 1943TIP3    H1 5782   4.158   0.507   2.142
 1943TIP3    H2 5783   4.133   0.588   2.267
 1944TIP3   OH2 5784   4.098   0.598   2.446
 1944TIP3    H1 5785   4.154   0.573   2.520
 1944TIP3    H2 5786   4.099   0.694   2.447
 1945TIP3   OH2 5787   3.817   0.278   2.623
 1945TIP3    H1 5788   3.756   0.326   2.679
 1945TIP3    H2 5789   3.841   0.340   2.555
 1946TIP3   OH2 5790   4.374   0.787   2.370
 1946TIP3    H1 5791   4.288   0.807   2.407
 1946TIP3    H2 5792   4.395   0.862   2.315
 1947TIP3   OH2 5793   1.886   7.373   2.752
 1947TIP3    H1 5794   1.948   7.443   2.733
 1947TIP3    H2 5795   1.931   7.316   2.814
 1948TIP3   OH2 5796   4.788   0.181   3.592
 1948TIP3    H1 5797   4.736   0.255   3.624
 1948TIP3    H2 5798   4.770   0.111   3.654
 1949TIP3   OH2 5799   4.121   0.870   2.442
 1949TIP3    H1 5800   4.102   0.941   2.380
 1949TIP3    H2 5801   4.109   0.910   2.528
 1950TIP3   OH2 5802   5.457   0.156   3.622
 1950TIP3    H1 5803   5.377   0.108   3.643
 1950TIP3    H2 5804   5.508   0.094   3.570
 1951TIP3   OH2 5805   5.122   0.322   2.961
 1951TIP3    H1 5806   5.049   0.259   2.966
 1951TIP3    H2 5807   5.195   0.277   3.003
 1952TIP3   OH2 5808   3.850   0.472   2.424
 1952TIP3    H1 5809   3.922   0.533   2.441
 1952TIP3    H2 5810   3.884   0.414   2.356
 1953TIP3   OH2 5811   5.101   1.232   2.886
 1953TIP3    H1 5812   5.056   1.285   2.820
 1953TIP3    H2 5813   5.194   1.245   2.867
 1954TIP3   OH2 5814   3.687   0.736   2.814
 1954TIP3    H1 5815   3.646   0.772   2.892
 1954TIP3    H2 5816   3.641   0.778   2.741
 1955TIP3   OH2 5817   3.885   1.269   3.881
 1955TIP3    H1 5818   3.968   1.269   3.928
 1955TIP3    H2 5819   3.863   1.176   3.872
 1956TIP3   OH2 5820   4.350   1.188   3.921
 1956TIP3    H1 5821   4.441   1.160   3.930
 1956TIP3    H2 5822   4.316   1.134   3.850
 1957TIP3   OH2 5823   4.322   0.766   2.056
 1957TIP3    H1 5824   4.252   0.718   2.101
 1957TIP3    H2 5825   4.397   0.705   2.056
 1958TIP3   OH2 5826   4.977   1.127   3.672
 1958TIP3    H1 5827   4.987   1.063   3.743
 1958TIP3    H2 5828   5.049   1.188   3.685
 1959TIP3   OH2 5829   4.803   0.836   1.994
 1959TIP3    H1 5830   4.814   0.768   2.060
 1959TIP3    H2 5831   4.892   0.863   1.972
 1960TIP3   OH2 5832   3.985   0.678   4.067
 1960TIP3    H1 5833   3.999   0.584   4.075
 1960TIP3    H2 5834   3.902   0.686   4.021
 1961TIP3   OH2 5835   3.974   0.286   2.269
 1961TIP3    H1 5836   4.025   0.270   2.349
 1961TIP3    H2 5837   4.041   0.303   2.202
 1962TIP3   OH2 5838   4.597   0.798   3.855
 1962TIP3    H1 5839   4.549   0.813   3.774
 1962TIP3    H2 5840   4.627   0.707   3.850
 1963TIP3   OH2 5841   4.503   0.555   2.083
 1963TIP3    H1 5842   4.506   0.557   2.178
 1963TIP3    H2 5843   4.496   0.462   2.061
 1964TIP3   OH2 5844   5.079   0.768   3.439
 1964TIP3    H1 5845   5.157   0.809   3.401
 1964TIP3    H2 5846   5.011   0.835   3.434
 1965TIP3   OH2 5847   4.124   0.421   4.075
 1965TIP3    H1 5848   4.200   0.369   4.049
 1965TIP3    H2 5849   4.156   0.478   4.145
 1966TIP3   OH2 5850   4.136   0.242   2.488
 1966TIP3    H1 5851   4.114   0.217   2.577
 1966TIP3    H2 5852   4.186   0.168   2.453
 1967TIP3   OH2 5853   4.474   0.356   3.735
 1967TIP3    H1 5854   4.386   0.393   3.732
 1967TIP3    H2 5855   4.511   0.375   3.649
 1968TIP3   OH2 5856   4.277   0.055   2.347
 1968TIP3    H1 5857   4.246   0.038   2.258
 1968TIP3    H2 5858   4.362   0.097   2.335
 1969TIP3   OH2 5859   4.962   0.711   3.830
 1969TIP3    H1 5860   5.039   0.684   3.780
 1969TIP3    H2 5861   4.936   0.633   3.879
 1970TIP3   OH2 5862   5.079   0.346   2.016
 1970TIP3    H1 5863   5.062   0.293   1.938
 1970TIP3    H2 5864   5.047   0.433   1.993
 1971TIP3   OH2 5865   4.462   0.108   3.851
 1971TIP3    H1 5866   4.394   0.068   3.797
 1971TIP3    H2 5867   4.479   0.193   3.810
 1972TIP3   OH2 5868   4.621   0.419   3.510
 1972TIP3    H1 5869   4.699   0.421   3.454
 1972TIP3    H2 5870   4.560   0.479   3.467
 1973TIP3   OH2 5871   5.163   0.411   3.853
 1973TIP3    H1 5872   5.209   0.338   3.895
 1973TIP3    H2 5873   5.230   0.455   3.800
 1974TIP3   OH2 5874   5.196   0.682   3.672
 1974TIP3    H1 5875   5.136   0.715   3.604
 1974TIP3    H2 5876   5.280   0.673   3.627
 1975TIP3   OH2 5877   4.346   0.242   4.066
 1975TIP3    H1 5878   4.274   0.179   4.062
 1975TIP3    H2 5879   4.405   0.216   3.996
 1976TIP3   OH2 5880   4.730   0.253   3.916
 1976TIP3    H1 5881   4.715   0.244   4.010
 1976TIP3    H2 5882   4.718   0.165   3.880
 1977TIP3   OH2 5883   5.217   0.050   3.706
 1977TIP3    H1 5884   5.140   0.090   3.747
 1977TIP3    H2 5885   5.229  -0.033   3.753
 1978TIP3   OH2 5886   4.120   1.078   2.259
 1978TIP3    H1 5887   4.209   1.057   2.231
 1978TIP3    H2 5888   4.082   1.124   2.184
 1979TIP3   OH2 5889   3.576   0.468   2.433
 1979TIP3    H1 5890   3.671   0.479   2.434
 1979TIP3    H2 5891   3.562   0.381   2.398
 1980TIP3   OH2 5892   3.487   1.045   2.897
 1980TIP3    H1 5893   3.422   0.992   2.851
 1980TIP3    H2 5894   3.532   0.984   2.955
 1981TIP3   OH2 5895   3.634   0.878   3.061
 1981TIP3    H1 5896   3.626   0.810   3.128
 1981TIP3    H2 5897   3.685   0.947   3.103
 1982TIP3   OH2 5898   5.374   1.283   2.877
 1982TIP3    H1 5899   5.391   1.310   2.967
 1982TIP3    H2 5900   5.434   1.335   2.824
 1983TIP3   OH2 5901   5.386   1.313   3.156
 1983TIP3    H1 5902   5.339   1.230   3.152
 1983TIP3    H2 5903   5.456   1.298   3.220
 1984TIP3   OH2 5904   5.440   1.018   3.719
 1984TIP3    H1 5905   5.368   1.024   3.782
 1984TIP3    H2 5906   5.486   1.102   3.727
 1985TIP3   OH2 5907   5.248   0.546   2.341
 1985TIP3    H1 5908   5.302   0.620   2.312
 1985TIP3    H2 5909   5.298   0.509   2.414
 1986TIP3   OH2 5910   5.383   0.400   2.533
 1986TIP3    H1 5911   5.319   0.367   2.597
 1986TIP3    H2 5912   5.449   0.445   2.586
 1987TIP3   OH2 5913   5.439   0.797   2.965
 1987TIP3    H1 5914   5.488   0.731   2.917
 1987TIP3    H2 5915   5.442   0.875   2.910
 1988TIP3   OH2 5916   5.246   1.071   3.169
 1988TIP3    H1 5917   5.177   1.117   3.216
 1988TIP3    H2 5918   5.201   1.031   3.094
 1989TIP3   OH2 5919   5.305   0.349   2.163
 1989TIP3    H1 5920   5.227   0.347   2.107
 1989TIP3    H2 5921   5.289   0.421   2.224
 1990TIP3   OH2 5922   2.513   7.400   2.128
 1990TIP3    H1 5923   2.540   7.435   2.043
 1990TIP3    H2 5924   2.583   7.340   2.153
 1991TIP3   OH2 5925   5.188   0.287   2.699
 1991TIP3    H1 5926   5.170   0.194   2.709
 1991TIP3    H2 5927   5.173   0.324   2.786
 1992TIP3   OH2 5928   3.804   0.356   3.420
 1992TIP3    H1 5929   3.789   0.312   3.337
 1992TIP3    H2 5930   3.897   0.343   3.438
 1993TIP3   OH2 5931   5.433   0.670   3.523
 1993TIP3    H1 5932   5.518   0.630   3.502
 1993TIP3    H2 5933   5.410   0.719   3.444
 1994TIP3   OH2 5934   5.685   0.553   3.531
 1994TIP3    H1 5935   5.685   0.467   3.574
 1994TIP3    H2 5936   5.768   0.592   3.557
 1995TIP3   OH2 5937   5.160   0.029   2.496
 1995TIP3    H1 5938   5.212  -0.034   2.546
 1995TIP3    H2 5939   5.223   0.073   2.439
 1996TIP3   OH2 5940   5.357   0.204   3.045
 1996TIP3    H1 5941   5.437   0.250   3.019
 1996TIP3    H2 5942   5.382   0.157   3.124
 1997TIP3   OH2 5943   5.411   0.375   3.360
 1997TIP3    H1 5944   5.325   0.410   3.383
 1997TIP3    H2 5945   5.442   0.432   3.289
 1998TIP3   OH2 5946   4.146   0.061   4.010
 1998TIP3    H1 5947   4.167  -0.018   3.960
 1998TIP3    H2 5948   4.056   0.047   4.039
 1999TIP3   OH2 5949   3.790   0.049   3.505
 1999TIP3    H1 5950   3.805  -0.015   3.436
 1999TIP3    H2 5951   3.874   0.056   3.551
 2000TIP3   OH2 5952   4.961   1.165   2.480
 2000TIP3    H1 5953   5.015   1.116   2.417
 2000TIP3    H2 5954   4.999   1.252   2.481
 2001TIP3   OH2 5955   4.024   0.990   3.895
 2001TIP3    H1 5956   3.930   0.975   3.887
 2001TIP3    H2 5957   4.043   0.971   3.987
 2002TIP3   OH2 5958   4.231   1.038   3.444
 2002TIP3    H1 5959   4.181   1.113   3.413
 2002TIP3    H2 5960   4.316   1.046   3.402
 2003TIP3   OH2 5961   4.632   1.271   3.583
 2003TIP3    H1 5962   4.670   1.265   3.671
 2003TIP3    H2 5963   4.693   1.325   3.534
 2004TIP3   OH2 5964   4.821   1.426   3.456
 2004TIP3    H1 5965   4.882   1.371   3.406
 2004TIP3    H2 5966   4.878   1.481   3.510
 2005TIP3   OH2 5967   3.895   1.278   3.495
 2005TIP3    H1 5968   3.804   1.295   3.472
 2005TIP3    H2 5969   3.916   1.344   3.561
 2006TIP3   OH2 5970   4.125   1.271   3.344
 2006TIP3    H1 5971   4.042   1.275   3.391
 2006TIP3    H2 5972   4.102   1.294   3.254
 2007TIP3   OH2 5973   4.540   1.285   3.136
 2007TIP3    H1 5974   4.468   1.293   3.074
 2007TIP3    H2 5975   4.548   1.372   3.175
 2008TIP3   OH2 5976   4.806   1.225   3.185
 2008TIP3    H1 5977   4.714   1.242   3.165
 2008TIP3    H2 5978   4.853   1.290   3.133
 2009TIP3   OH2 5979   5.013   1.399   3.086
 2009TIP3    H1 5980   5.005   1.484   3.042
 2009TIP3    H2 5981   5.042   1.339   3.018
 2010TIP3   OH2 5982   3.807   1.057   3.210
 2010TIP3    H1 5983   3.830   1.031   3.299
 2010TIP3    H2 5984   3.878   1.023   3.156
 2011TIP3   OH2 5985   4.008   0.942   3.069
 2011TIP3    H1 5986   4.018   0.858   3.113
 2011TIP3    H2 5987   4.095   0.982   3.075
 2012TIP3   OH2 5988   4.275   1.029   3.095
 2012TIP3    H1 5989   4.292   0.936   3.081
 2012TIP3    H2 5990   4.330   1.051   3.171
 2013TIP3   OH2 5991   3.565   0.854   2.597
 2013TIP3    H1 5992   3.481   0.821   2.564
 2013TIP3    H2 5993   3.570   0.944   2.565
 2014TIP3   OH2 5994   4.375   1.001   2.189
 2014TIP3    H1 5995   4.459   1.028   2.153
 2014TIP3    H2 5996   4.348   0.928   2.134
 2015TIP3   OH2 5997   3.675   0.852   2.256
 2015TIP3    H1 5998   3.677   0.868   2.350
 2015TIP3    H2 5999   3.758   0.808   2.237
 2016TIP3   OH2 6000   5.291   1.290   3.474
 2016TIP3    H1 6001   5.217   1.259   3.423
 2016TIP3    H2 6002   5.276   1.384   3.483
 2017TIP3   OH2 6003   6.570   0.677   2.236
 2017TIP3    H1 6004   6.551   0.769   2.216
 2017TIP3    H2 6005   6.497   0.628   2.197
 2018TIP3   OH2 6006   6.564   0.688   2.614
 2018TIP3    H1 6007   6.604   0.669   2.698
 2018TIP3    H2 6008   6.525   0.605   2.586
 2019TIP3   OH2 6009   5.874   0.574   2.966
 2019TIP3    H1 6010   5.901   0.506   3.028
 2019TIP3    H2 6011   5.944   0.639   2.969
 2020TIP3   OH2 6012   6.827   0.983   2.307
 2020TIP3    H1 6013   6.810   0.921   2.378
 2020TIP3    H2 6014   6.851   1.064   2.353
 2021TIP3   OH2 6015   5.858   0.961   2.678
 2021TIP3    H1 6016   5.838   0.868   2.685
 2021TIP3    H2 6017   5.953   0.964   2.662
 2022TIP3   OH2 6018   5.581   0.244   2.417
 2022TIP3    H1 6019   5.512   0.301   2.451
 2022TIP3    H2 6020   5.535   0.168   2.382
 2023TIP3   OH2 6021   5.612   0.503   2.653
 2023TIP3    H1 6022   5.668   0.430   2.676
 2023TIP3    H2 6023   5.672   0.574   2.631
 2024TIP3   OH2 6024   6.491   1.402   2.330
 2024TIP3    H1 6025   6.519   1.338   2.265
 2024TIP3    H2 6026   6.498   1.357   2.414
 2025TIP3   OH2 6027   6.370   0.895   2.645
 2025TIP3    H1 6028   6.416   0.818   2.610
 2025TIP3    H2 6029   6.441   0.953   2.674
 2026TIP3   OH2 6030   6.737   0.384   2.699
 2026TIP3    H1 6031   6.832   0.369   2.698
 2026TIP3    H2 6032   6.714   0.398   2.607
 2027TIP3   OH2 6033   6.054   0.041   2.661
 2027TIP3    H1 6034   5.998   0.071   2.589
 2027TIP3    H2 6035   6.017  -0.043   2.686
 2028TIP3   OH2 6036   5.777   0.305   2.745
 2028TIP3    H1 6037   5.850   0.284   2.804
 2028TIP3    H2 6038   5.783   0.240   2.675
 2029TIP3   OH2 6039   6.192   0.513   2.531
 2029TIP3    H1 6040   6.286   0.495   2.532
 2029TIP3    H2 6041   6.152   0.430   2.507
 2030TIP3   OH2 6042   6.467   0.896   2.096
 2030TIP3    H1 6043   6.423   0.867   2.016
 2030TIP3    H2 6044   6.416   0.972   2.125
 2031TIP3   OH2 6045   6.222   0.822   2.867
 2031TIP3    H1 6046   6.162   0.890   2.897
 2031TIP3    H2 6047   6.265   0.860   2.790
 2032TIP3   OH2 6048   5.997   0.205   2.879
 2032TIP3    H1 6049   6.071   0.256   2.912
 2032TIP3    H2 6050   6.035   0.150   2.811
 2033TIP3   OH2 6051   6.053   1.017   2.962
 2033TIP3    H1 6052   6.040   1.105   2.927
 2033TIP3    H2 6053   5.975   1.001   3.015
 2034TIP3   OH2 6054   5.420   0.726   2.217
 2034TIP3    H1 6055   5.376   0.742   2.133
 2034TIP3    H2 6056   5.439   0.814   2.251
 2035TIP3   OH2 6057   6.869   1.223   2.451
 2035TIP3    H1 6058   6.782   1.217   2.489
 2035TIP3    H2 6059   6.871   1.307   2.406
 2036TIP3   OH2 6060   6.581   1.245   2.120
 2036TIP3    H1 6061   6.635   1.167   2.104
 2036TIP3    H2 6062   6.638   1.318   2.096
 2037TIP3   OH2 6063   6.737   1.029   2.050
 2037TIP3    H1 6064   6.679   0.954   2.035
 2037TIP3    H2 6065   6.778   1.010   2.135
 2038TIP3   OH2 6066   7.094   1.105   2.806
 2038TIP3    H1 6067   7.087   1.036   2.741
 2038TIP3    H2 6068   7.094   1.186   2.755
 2039TIP3   OH2 6069   6.398   0.563   2.036
 2039TIP3    H1 6070   6.304   0.581   2.034
 2039TIP3    H2 6071   6.435   0.617   1.966
 2040TIP3   OH2 6072   6.750   0.598   2.041
 2040TIP3    H1 6073   6.699   0.630   2.116
 2040TIP3    H2 6074   6.835   0.574   2.078
 2041TIP3   OH2 6075   6.961   0.647   2.942
 2041TIP3    H1 6076   6.984   0.727   2.989
 2041TIP3    H2 6077   6.875   0.667   2.903
 2042TIP3   OH2 6078   5.950   0.604   2.435
 2042TIP3    H1 6079   5.918   0.540   2.371
 2042TIP3    H2 6080   6.037   0.573   2.459
 2043TIP3   OH2 6081   6.117   1.004   2.575
 2043TIP3    H1 6082   6.094   0.993   2.483
 2043TIP3    H2 6083   6.205   0.968   2.582
 2044TIP3   OH2 6084   6.122   0.581   2.787
 2044TIP3    H1 6085   6.145   0.573   2.694
 2044TIP3    H2 6086   6.157   0.667   2.812
 2045TIP3   OH2 6087   6.628   1.215   2.579
 2045TIP3    H1 6088   6.615   1.295   2.630
 2045TIP3    H2 6089   6.616   1.144   2.641
 2046TIP3   OH2 6090   6.248   1.118   3.131
 2046TIP3    H1 6091   6.187   1.178   3.175
 2046TIP3    H2 6092   6.192   1.066   3.073
 2047TIP3   OH2 6093   6.007   0.687   3.252
 2047TIP3    H1 6094   6.013   0.776   3.288
 2047TIP3    H2 6095   5.913   0.668   3.252
 2048TIP3   OH2 6096   6.326   1.134   2.129
 2048TIP3    H1 6097   6.408   1.183   2.134
 2048TIP3    H2 6098   6.266   1.192   2.081
 2049TIP3   OH2 6099   6.042   1.279   3.215
 2049TIP3    H1 6100   6.016   1.288   3.123
 2049TIP3    H2 6101   5.960   1.262   3.261
 2050TIP3   OH2 6102   5.832   0.435   2.239
 2050TIP3    H1 6103   5.761   0.490   2.206
 2050TIP3    H2 6104   5.787   0.360   2.278
 2051TIP3   OH2 6105   5.633   0.842   3.162
 2051TIP3    H1 6106   5.563   0.826   3.099
 2051TIP3    H2 6107   5.667   0.755   3.184
 2052TIP3   OH2 6108   5.489   1.032   2.828
 2052TIP3    H1 6109   5.579   1.061   2.845
 2052TIP3    H2 6110   5.435   1.108   2.848
 2053TIP3   OH2 6111   7.303   1.474   2.855
 2053TIP3    H1 6112   7.315   1.379   2.861
 2053TIP3    H2 6113   7.227   1.492   2.910
 2054TIP3   OH2 6114   6.440   1.255   2.992
 2054TIP3    H1 6115   6.435   1.347   3.018
 2054TIP3    H2 6116   6.371   1.212   3.043
 2055TIP3   OH2 6117   6.211   1.353   1.960
 2055TIP3    H1 6118   6.170   1.333   1.876
 2055TIP3    H2 6119   6.174   1.438   1.985
 2056TIP3   OH2 6120   5.651   1.209   2.328
 2056TIP3    H1 6121   5.689   1.203   2.416
 2056TIP3    H2 6122   5.588   1.136   2.324
 2057TIP3   OH2 6123   6.421   1.275   1.613
 2057TIP3    H1 6124   6.476   1.207   1.575
 2057TIP3    H2 6125   6.455   1.289   1.701
 2058TIP3   OH2 6126   6.468   1.325   1.876
 2058TIP3    H1 6127   6.379   1.328   1.911
 2058TIP3    H2 6128   6.521   1.291   1.947
 2059TIP3   OH2 6129   5.838   1.023   3.134
 2059TIP3    H1 6130   5.886   1.012   3.217
 2059TIP3    H2 6131   5.765   0.962   3.141
 2060TIP3   OH2 6132   6.933   0.378   2.930
 2060TIP3    H1 6133   6.964   0.349   3.016
 2060TIP3    H2 6134   6.943   0.473   2.932
 2061TIP3   OH2 6135   6.183   0.396   2.974
 2061TIP3    H1 6136   6.127   0.406   3.052
 2061TIP3    H2 6137   6.153   0.464   2.914
 2062TIP3   OH2 6138   6.043   0.293   2.487
 2062TIP3    H1 6139   5.952   0.274   2.509
 2062TIP3    H2 6140   6.069   0.222   2.428
 2063TIP3   OH2 6141   6.550   0.380   2.166
 2063TIP3    H1 6142   6.494   0.440   2.116
 2063TIP3    H2 6143   6.638   0.393   2.130
 2064TIP3   OH2 6144   6.730   0.726   3.204
 2064TIP3    H1 6145   6.731   0.636   3.239
 2064TIP3    H2 6146   6.807   0.730   3.148
 2065TIP3   OH2 6147   6.692   0.414   2.421
 2065TIP3    H1 6148   6.639   0.465   2.360
 2065TIP3    H2 6149   6.651   0.327   2.420
 2066TIP3   OH2 6150   5.991   0.417   3.165
 2066TIP3    H1 6151   5.993   0.491   3.225
 2066TIP3    H2 6152   5.962   0.343   3.219
 2067TIP3   OH2 6153   2.990   7.436   2.275
 2067TIP3    H1 6154   3.025   7.484   2.200
 2067TIP3    H2 6155   2.906   7.403   2.245
 2068TIP3   OH2 6156   6.696   0.614   2.852
 2068TIP3    H1 6157   6.709   0.528   2.813
 2068TIP3    H2 6158   6.617   0.606   2.904
 2069TIP3   OH2 6159   3.685   7.475   2.556
 2069TIP3    H1 6160   3.599   7.454   2.593
 2069TIP3    H2 6161   3.721   7.390   2.531
 2070TIP3   OH2 6162   5.804   0.136   2.529
 2070TIP3    H1 6163   5.735   0.180   2.480
 2070TIP3    H2 6164   5.770   0.048   2.544
 2071TIP3   OH2 6165   6.173   0.085   2.047
 2071TIP3    H1 6166   6.221   0.144   2.105
 2071TIP3    H2 6167   6.110   0.141   2.001
 2072TIP3   OH2 6168   5.933   0.175   1.926
 2072TIP3    H1 6169   5.853   0.149   1.973
 2072TIP3    H2 6170   5.937   0.115   1.852
 2073TIP3   OH2 6171   7.042   1.812   2.958
 2073TIP3    H1 6172   7.038   1.829   2.864
 2073TIP3    H2 6173   7.125   1.851   2.986
 2074TIP3   OH2 6174   5.991   0.939   3.371
 2074TIP3    H1 6175   6.071   0.956   3.421
 2074TIP3    H2 6176   5.920   0.945   3.435
 2075TIP3   OH2 6177   6.448   0.433   2.583
 2075TIP3    H1 6178   6.483   0.350   2.551
 2075TIP3    H2 6179   6.455   0.427   2.679
 2076TIP3   OH2 6180   6.441   0.460   2.861
 2076TIP3    H1 6181   6.353   0.422   2.863
 2076TIP3    H2 6182   6.446   0.514   2.941
 2077TIP3   OH2 6183   6.135   0.647   2.008
 2077TIP3    H1 6184   6.067   0.582   1.989
 2077TIP3    H2 6185   6.107   0.687   2.090
 2078TIP3   OH2 6186   7.039   0.922   2.610
 2078TIP3    H1 6187   7.079   0.931   2.524
 2078TIP3    H2 6188   6.954   0.882   2.593
 2079TIP3   OH2 6189   6.547   0.974   3.028
 2079TIP3    H1 6190   6.616   0.987   3.093
 2079TIP3    H2 6191   6.505   1.059   3.019
 2080TIP3   OH2 6192   5.837   0.676   2.675
 2080TIP3    H1 6193   5.878   0.658   2.591
 2080TIP3    H2 6194   5.889   0.627   2.739
 2081TIP3   OH2 6195   6.309   0.814   1.879
 2081TIP3    H1 6196   6.266   0.899   1.870
 2081TIP3    H2 6197   6.243   0.758   1.919
 2082TIP3   OH2 6198   5.742   0.608   3.268
 2082TIP3    H1 6199   5.732   0.588   3.361
 2082TIP3    H2 6200   5.673   0.558   3.226
 2083TIP3   OH2 6201   6.475   0.762   3.326
 2083TIP3    H1 6202   6.436   0.676   3.334
 2083TIP3    H2 6203   6.553   0.748   3.272
 2084TIP3   OH2 6204   6.709   1.272   2.920
 2084TIP3    H1 6205   6.614   1.264   2.925
 2084TIP3    H2 6206   6.733   1.317   3.001
 2085TIP3   OH2 6207   6.796   1.114   1.787
 2085TIP3    H1 6208   6.781   1.085   1.877
 2085TIP3    H2 6209   6.743   1.055   1.734
 2086TIP3   OH2 6210   6.804   0.800   2.522
 2086TIP3    H1 6211   6.715   0.772   2.541
 2086TIP3    H2 6212   6.848   0.721   2.491
 2087TIP3   OH2 6213   5.973   1.014   2.333
 2087TIP3    H1 6214   5.969   1.088   2.273
 2087TIP3    H2 6215   5.883   1.003   2.364
 2088TIP3   OH2 6216   5.538   0.330   2.025
 2088TIP3    H1 6217   5.581   0.413   2.046
 2088TIP3    H2 6218   5.455   0.332   2.073
 2089TIP3   OH2 6219   6.047   0.768   2.232
 2089TIP3    H1 6220   6.038   0.860   2.257
 2089TIP3    H2 6221   6.010   0.720   2.306
 2090TIP3   OH2 6222   6.258   1.329   2.784
 2090TIP3    H1 6223   6.292   1.404   2.734
 2090TIP3    H2 6224   6.334   1.297   2.833
 2091TIP3   OH2 6225   5.882   1.228   2.178
 2091TIP3    H1 6226   5.795   1.231   2.219
 2091TIP3    H2 6227   5.915   1.317   2.186
 2092TIP3   OH2 6228   6.609   0.994   2.752
 2092TIP3    H1 6229   6.599   0.980   2.846
 2092TIP3    H2 6230   6.688   0.947   2.728
 2093TIP3   OH2 6231   6.607   0.917   1.652
 2093TIP3    H1 6232   6.651   0.870   1.723
 2093TIP3    H2 6233   6.528   0.867   1.635
 2094TIP3   OH2 6234   6.856   1.488   2.800
 2094TIP3    H1 6235   6.785   1.425   2.812
 2094TIP3    H2 6236   6.829   1.540   2.725
 2095TIP3   OH2 6237   6.927   1.351   1.481
 2095TIP3    H1 6238   6.976   1.432   1.497
 2095TIP3    H2 6239   6.837   1.372   1.505
 2096TIP3   OH2 6240   6.745   0.798   1.855
 2096TIP3    H1 6241   6.739   0.722   1.912
 2096TIP3    H2 6242   6.836   0.826   1.860
 2097TIP3   OH2 6243   5.698   1.219   2.962
 2097TIP3    H1 6244   5.748   1.156   3.013
 2097TIP3    H2 6245   5.713   1.303   3.005
 2098TIP3   OH2 6246   5.989   0.825   1.632
 2098TIP3    H1 6247   5.924   0.777   1.580
 2098TIP3    H2 6248   5.950   0.831   1.719
 2099TIP3   OH2 6249   5.894   0.852   1.894
 2099TIP3    H1 6250   5.962   0.827   1.957
 2099TIP3    H2 6251   5.889   0.948   1.900
 2100TIP3   OH2 6252   5.626   0.571   2.122
 2100TIP3    H1 6253   5.558   0.616   2.172
 2100TIP3    H2 6254   5.642   0.629   2.047
 2101TIP3   OH2 6255   6.167   1.042   1.852
 2101TIP3    H1 6256   6.083   1.066   1.889
 2101TIP3    H2 6257   6.186   1.110   1.788
 2102TIP3   OH2 6258   6.365   0.188   2.224
 2102TIP3    H1 6259   6.425   0.262   2.213
 2102TIP3    H2 6260   6.335   0.195   2.315
 2103TIP3   OH2 6261   6.655   0.331   3.076
 2103TIP3    H1 6262   6.660   0.381   3.157
 2103TIP3    H2 6263   6.734   0.356   3.028
 2104TIP3   OH2 6264   5.915   1.124   1.926
 2104TIP3    H1 6265   5.889   1.194   1.866
 2104TIP3    H2 6266   5.901   1.161   2.014
 2105TIP3   OH2 6267   6.919   0.557   2.451
 2105TIP3    H1 6268   6.837   0.509   2.437
 2105TIP3    H2 6269   6.961   0.510   2.523
 2106TIP3   OH2 6270   5.642   0.727   1.895
 2106TIP3    H1 6271   5.707   0.798   1.898
 2106TIP3    H2 6272   5.679   0.663   1.834
 2107TIP3   OH2 6273   5.682   0.101   2.030
 2107TIP3    H1 6274   5.643   0.189   2.031
 2107TIP3    H2 6275   5.613   0.045   1.997
 2108TIP3   OH2 6276   6.885   1.485   2.363
 2108TIP3    H1 6277   6.837   1.539   2.301
 2108TIP3    H2 6278   6.976   1.510   2.353
 2109TIP3   OH2 6279   5.471   0.998   2.273
 2109TIP3    H1 6280   5.382   1.009   2.306
 2109TIP3    H2 6281   5.468   1.031   2.183
 2110TIP3   OH2 6282   5.679   1.527   3.371
 2110TIP3    H1 6283   5.762   1.526   3.418
 2110TIP3    H2 6284   5.655   1.434   3.364
 2111TIP3   OH2 6285   6.148   1.440   3.411
 2111TIP3    H1 6286   6.240   1.415   3.417
 2111TIP3    H2 6287   6.114   1.387   3.339
 2112TIP3   OH2 6288   6.108   1.054   1.543
 2112TIP3    H1 6289   6.075   0.973   1.583
 2112TIP3    H2 6290   6.183   1.026   1.490
 2113TIP3   OH2 6291   6.768   1.389   3.162
 2113TIP3    H1 6292   6.779   1.324   3.231
 2113TIP3    H2 6293   6.841   1.450   3.173
 2114TIP3   OH2 6294   6.558   1.100   1.451
 2114TIP3    H1 6295   6.602   1.039   1.509
 2114TIP3    H2 6296   6.625   1.127   1.388
 2115TIP3   OH2 6297   5.783   0.937   3.558
 2115TIP3    H1 6298   5.794   0.843   3.570
 2115TIP3    H2 6299   5.699   0.946   3.513
 2116TIP3   OH2 6300   5.779   0.543   1.743
 2116TIP3    H1 6301   5.843   0.517   1.809
 2116TIP3    H2 6302   5.831   0.579   1.671
 2117TIP3   OH2 6303   6.395   1.028   3.344
 2117TIP3    H1 6304   6.351   1.048   3.261
 2117TIP3    H2 6305   6.430   0.940   3.332
 2118TIP3   OH2 6306   6.359   0.773   1.613
 2118TIP3    H1 6307   6.346   0.788   1.707
 2118TIP3    H2 6308   6.284   0.720   1.586
 2119TIP3   OH2 6309   6.870   1.049   2.951
 2119TIP3    H1 6310   6.949   1.071   2.902
 2119TIP3    H2 6311   6.811   1.122   2.936
 2120TIP3   OH2 6312   5.924   0.684   3.558
 2120TIP3    H1 6313   6.004   0.651   3.517
 2120TIP3    H2 6314   5.955   0.732   3.635
 2121TIP3   OH2 6315   5.938   0.451   1.972
 2121TIP3    H1 6316   5.909   0.449   2.063
 2121TIP3    H2 6317   5.946   0.359   1.947
 2122TIP3   OH2 6318   6.261   0.572   3.206
 2122TIP3    H1 6319   6.180   0.621   3.220
 2122TIP3    H2 6320   6.311   0.626   3.144
 2123TIP3   OH2 6321   6.741   0.965   3.336
 2123TIP3    H1 6322   6.740   0.892   3.275
 2123TIP3    H2 6323   6.739   0.925   3.423
 2124TIP3   OH2 6324   6.357   0.314   3.238
 2124TIP3    H1 6325   6.289   0.268   3.288
 2124TIP3    H2 6326   6.321   0.402   3.226
 2125TIP3   OH2 6327   6.426   0.706   3.013
 2125TIP3    H1 6328   6.480   0.784   3.030
 2125TIP3    H2 6329   6.354   0.738   2.959
 2126TIP3   OH2 6330   7.018   0.682   3.398
 2126TIP3    H1 6331   7.076   0.616   3.360
 2126TIP3    H2 6332   7.057   0.765   3.371
 2127TIP3   OH2 6333   7.017   0.876   3.100
 2127TIP3    H1 6334   6.957   0.938   3.059
 2127TIP3    H2 6335   7.103   0.899   3.063
 2128TIP3   OH2 6336   6.169   0.536   3.543
 2128TIP3    H1 6337   6.120   0.456   3.521
 2128TIP3    H2 6338   6.250   0.529   3.491
 2129TIP3   OH2 6339   6.433   0.507   3.443
 2129TIP3    H1 6340   6.478   0.490   3.525
 2129TIP3    H2 6341   6.448   0.429   3.390
 2130TIP3   OH2 6342   6.976   0.356   3.200
 2130TIP3    H1 6343   6.963   0.264   3.224
 2130TIP3    H2 6344   7.065   0.376   3.228
 2131TIP3   OH2 6345   5.895   1.330   1.741
 2131TIP3    H1 6346   5.989   1.322   1.724
 2131TIP3    H2 6347   5.860   1.377   1.666
 2132TIP3   OH2 6348   5.367   0.710   1.928
 2132TIP3    H1 6349   5.460   0.731   1.918
 2132TIP3    H2 6350   5.359   0.621   1.892
 2133TIP3   OH2 6351   5.282   1.318   2.373
 2133TIP3    H1 6352   5.241   1.248   2.322
 2133TIP3    H2 6353   5.331   1.272   2.441
 2134TIP3   OH2 6354   5.425   1.186   2.563
 2134TIP3    H1 6355   5.407   1.098   2.597
 2134TIP3    H2 6356   5.484   1.225   2.628
 2135TIP3   OH2 6357   7.138   1.587   2.360
 2135TIP3    H1 6358   7.165   1.591   2.451
 2135TIP3    H2 6359   7.206   1.635   2.312
 2136TIP3   OH2 6360   7.168   1.577   2.636
 2136TIP3    H1 6361   7.122   1.493   2.628
 2136TIP3    H2 6362   7.234   1.562   2.703
 2137TIP3   OH2 6363   7.224   1.203   3.262
 2137TIP3    H1 6364   7.156   1.245   3.314
 2137TIP3    H2 6365   7.280   1.274   3.232
 2138TIP3   OH2 6366   7.037   1.331   2.650
 2138TIP3    H1 6367   6.968   1.371   2.703
 2138TIP3    H2 6368   6.989   1.287   2.579
 2139TIP3   OH2 6369   6.967   0.500   2.183
 2139TIP3    H1 6370   6.922   0.415   2.182
 2139TIP3    H2 6371   6.959   0.531   2.273
 2140TIP3   OH2 6372   5.607   0.575   2.915
 2140TIP3    H1 6373   5.597   0.558   2.821
 2140TIP3    H2 6374   5.701   0.587   2.927
 2141TIP3   OH2 6375   5.962   0.351   3.524
 2141TIP3    H1 6376   5.960   0.289   3.451
 2141TIP3    H2 6377   5.874   0.346   3.562
 2142TIP3   OH2 6378   5.605   0.300   2.986
 2142TIP3    H1 6379   5.653   0.250   2.920
 2142TIP3    H2 6380   5.615   0.391   2.958
 2143TIP3   OH2 6381   6.718   1.453   2.022
 2143TIP3    H1 6382   6.769   1.436   1.943
 2143TIP3    H2 6383   6.762   1.528   2.063
 2144TIP3   OH2 6384   5.822   1.244   3.382
 2144TIP3    H1 6385   5.727   1.233   3.374
 2144TIP3    H2 6386   5.839   1.238   3.476
 2145TIP3   OH2 6387   6.031   1.294   2.933
 2145TIP3    H1 6388   5.979   1.368   2.901
 2145TIP3    H2 6389   6.115   1.303   2.889
 2146TIP3   OH2 6390   6.429   1.522   3.068
 2146TIP3    H1 6391   6.466   1.520   3.156
 2146TIP3    H2 6392   6.490   1.576   3.018
 2147TIP3   OH2 6393   6.620   1.678   2.943
 2147TIP3    H1 6394   6.684   1.628   2.893
 2147TIP3    H2 6395   6.672   1.736   2.998
 2148TIP3   OH2 6396   5.693   1.538   2.985
 2148TIP3    H1 6397   5.602   1.555   2.962
 2148TIP3    H2 6398   5.714   1.605   3.050
 2149TIP3   OH2 6399   5.920   1.524   2.831
 2149TIP3    H1 6400   5.838   1.530   2.879
 2149TIP3    H2 6401   5.898   1.547   2.741
 2150TIP3   OH2 6402   6.331   1.542   2.622
 2150TIP3    H1 6403   6.261   1.552   2.558
 2150TIP3    H2 6404   6.343   1.629   2.660
 2151TIP3   OH2 6405   6.590   1.469   2.676
 2151TIP3    H1 6406   6.500   1.493   2.655
 2151TIP3    H2 6407   6.644   1.533   2.631
 2152TIP3   OH2 6408   6.789   1.633   2.574
 2152TIP3    H1 6409   6.791   1.723   2.543
 2152TIP3    H2 6410   6.821   1.581   2.501
 2153TIP3   OH2 6411   5.613   1.323   2.720
 2153TIP3    H1 6412   5.643   1.296   2.807
 2153TIP3    H2 6413   5.679   1.288   2.660
 2154TIP3   OH2 6414   5.800   1.202   2.564
 2154TIP3    H1 6415   5.812   1.117   2.607
 2154TIP3    H2 6416   5.888   1.241   2.563
 2155TIP3   OH2 6417   6.071   1.282   2.581
 2155TIP3    H1 6418   6.089   1.190   2.565
 2155TIP3    H2 6419   6.127   1.305   2.656
 2156TIP3   OH2 6420   5.375   1.106   2.032
 2156TIP3    H1 6421   5.300   1.078   2.085
 2156TIP3    H2 6422   5.357   1.198   2.012
 2157TIP3   OH2 6423   6.159   1.278   1.689
 2157TIP3    H1 6424   6.248   1.298   1.660
 2157TIP3    H2 6425   6.129   1.211   1.627
 2158TIP3   OH2 6426   6.857   1.382   1.792
 2158TIP3    H1 6427   6.852   1.287   1.787
 2158TIP3    H2 6428   6.807   1.412   1.715
 2159TIP3   OH2 6429   5.471   1.121   1.761
 2159TIP3    H1 6430   5.450   1.111   1.854
 2159TIP3    H2 6431   5.555   1.076   1.751
 2160TIP3   OH2 6432   7.064   1.538   2.975
 2160TIP3    H1 6433   6.993   1.510   2.917
 2160TIP3    H2 6434   7.058   1.633   2.977
 2161TIP3   OH2 6435   7.044   1.547   1.903
 2161TIP3    H1 6436   6.983   1.489   1.857
 2161TIP3    H2 6437   7.126   1.497   1.908
 2162TIP3   OH2 6438   0.812   1.721   3.390
 2162TIP3    H1 6439   0.770   1.805   3.376
 2162TIP3    H2 6440   0.748   1.656   3.360
 2163TIP3   OH2 6441   0.810   1.711   3.817
 2163TIP3    H1 6442   0.862   1.698   3.896
 2163TIP3    H2 6443   0.776   1.624   3.796
 2164TIP3   OH2 6444   0.129   1.585   4.149
 2164TIP3    H1 6445   0.164   1.529   4.217
 2164TIP3    H2 6446   0.205   1.608   4.095
 2165TIP3   OH2 6447   1.084   2.021   3.486
 2165TIP3    H1 6448   1.072   1.954   3.552
 2165TIP3    H2 6449   1.104   2.101   3.535
 2166TIP3   OH2 6450   0.107   1.973   3.861
 2166TIP3    H1 6451   0.094   1.878   3.860
 2166TIP3    H2 6452   0.202   1.985   3.857
 2167TIP3   OH2 6453   7.783   1.529   3.880
 2167TIP3    H1 6454   7.822   1.445   3.902
 2167TIP3    H2 6455   7.858   1.585   3.858
 2168TIP3   OH2 6456   0.750   2.439   3.508
 2168TIP3    H1 6457   0.768   2.372   3.442
 2168TIP3    H2 6458   0.762   2.395   3.592
 2169TIP3   OH2 6459   0.627   1.933   3.826
 2169TIP3    H1 6460   0.672   1.853   3.799
 2169TIP3    H2 6461   0.697   1.991   3.855
 2170TIP3   OH2 6462   1.658   1.258   3.835
 2170TIP3    H1 6463   1.674   1.341   3.880
 2170TIP3    H2 6464   1.685   1.274   3.745
 2171TIP3   OH2 6465   1.031   1.432   3.863
 2171TIP3    H1 6466   1.089   1.358   3.878
 2171TIP3    H2 6467   0.988   1.413   3.779
 2172TIP3   OH2 6468   0.246   1.146   3.818
 2172TIP3    H1 6469   0.259   1.195   3.737
 2172TIP3    H2 6470   0.324   1.091   3.826
 2173TIP3   OH2 6471   1.103   1.184   3.463
 2173TIP3    H1 6472   1.171   1.182   3.530
 2173TIP3    H2 6473   1.146   1.224   3.387
 2174TIP3   OH2 6474  -0.015   1.279   3.973
 2174TIP3    H1 6475   0.061   1.270   4.030
 2174TIP3    H2 6476   0.003   1.221   3.899
 2175TIP3   OH2 6477   0.444   1.480   3.764
 2175TIP3    H1 6478   0.539   1.470   3.775
 2175TIP3    H2 6479   0.416   1.401   3.719
 2176TIP3   OH2 6480   1.714   1.478   4.000
 2176TIP3    H1 6481   1.624   1.512   3.997
 2176TIP3    H2 6482   1.751   1.515   4.080
 2177TIP3   OH2 6483   0.336   1.068   4.288
 2177TIP3    H1 6484   0.287   1.117   4.222
 2177TIP3    H2 6485   0.288   1.082   4.369
 2178TIP3   OH2 6486   0.666   1.933   3.288
 2178TIP3    H1 6487   0.667   1.929   3.193
 2178TIP3    H2 6488   0.621   2.015   3.308
 2179TIP3   OH2 6489   0.461   1.860   4.036
 2179TIP3    H1 6490   0.407   1.930   4.072
 2179TIP3    H2 6491   0.511   1.903   3.966
 2180TIP3   OH2 6492   1.279   1.204   3.665
 2180TIP3    H1 6493   1.241   1.183   3.750
 2180TIP3    H2 6494   1.328   1.285   3.680
 2181TIP3   OH2 6495   0.235   1.215   4.080
 2181TIP3    H1 6496   0.306   1.279   4.087
 2181TIP3    H2 6497   0.239   1.184   3.990
 2182TIP3   OH2 6498   0.296   2.053   4.152
 2182TIP3    H1 6499   0.285   2.144   4.123
 2182TIP3    H2 6500   0.216   2.032   4.198
 2183TIP3   OH2 6501   1.114   2.268   3.629
 2183TIP3    H1 6502   1.026   2.260   3.666
 2183TIP3    H2 6503   1.115   2.352   3.585
 2184TIP3   OH2 6504   1.442   1.167   3.995
 2184TIP3    H1 6505   1.358   1.179   3.950
 2184TIP3    H2 6506   1.508   1.190   3.930
 2185TIP3   OH2 6507   0.722   0.825   4.003
 2185TIP3    H1 6508   0.631   0.829   4.034
 2185TIP3    H2 6509   0.762   0.904   4.038
 2186TIP3   OH2 6510   0.819   2.285   3.285
 2186TIP3    H1 6511   0.870   2.204   3.274
 2186TIP3    H2 6512   0.879   2.355   3.262
 2187TIP3   OH2 6513   0.979   2.072   3.235
 2187TIP3    H1 6514   0.998   1.997   3.178
 2187TIP3    H2 6515   1.017   2.048   3.319
 2188TIP3   OH2 6516   1.350   2.160   3.969
 2188TIP3    H1 6517   1.336   2.084   3.913
 2188TIP3    H2 6518   1.337   2.235   3.911
 2189TIP3   OH2 6519   0.651   1.547   3.240
 2189TIP3    H1 6520   0.572   1.594   3.212
 2189TIP3    H2 6521   0.701   1.534   3.160
 2190TIP3   OH2 6522   1.537   1.815   3.838
 2190TIP3    H1 6523   1.453   1.860   3.840
 2190TIP3    H2 6524   1.570   1.829   3.750
 2191TIP3   OH2 6525   1.012   1.674   3.210
 2191TIP3    H1 6526   0.953   1.693   3.282
 2191TIP3    H2 6527   1.092   1.642   3.253
 2192TIP3   OH2 6528   1.220   1.680   4.153
 2192TIP3    H1 6529   1.223   1.765   4.197
 2192TIP3    H2 6530   1.138   1.682   4.104
 2193TIP3   OH2 6531   0.255   1.617   3.621
 2193TIP3    H1 6532   0.221   1.543   3.570
 2193TIP3    H2 6533   0.331   1.581   3.668
 2194TIP3   OH2 6534   0.370   2.037   3.767
 2194TIP3    H1 6535   0.345   2.022   3.675
 2194TIP3    H2 6536   0.458   2.002   3.774
 2195TIP3   OH2 6537   0.345   1.618   3.982
 2195TIP3    H1 6538   0.387   1.580   3.905
 2195TIP3    H2 6539   0.393   1.700   3.996
 2196TIP3   OH2 6540   0.872   2.261   3.755
 2196TIP3    H1 6541   0.867   2.341   3.807
 2196TIP3    H2 6542   0.861   2.191   3.819
 2197TIP3   OH2 6543   0.502   2.158   4.308
 2197TIP3    H1 6544   0.444   2.217   4.356
 2197TIP3    H2 6545   0.444   2.106   4.253
 2198TIP3   OH2 6546   0.860   1.502   3.058
 2198TIP3    H1 6547   0.915   1.564   3.105
 2198TIP3    H2 6548   0.875   1.523   2.965
 2199TIP3   OH2 6549   0.260   1.706   4.439
 2199TIP3    H1 6550   0.271   1.795   4.472
 2199TIP3    H2 6551   0.165   1.692   4.437
 2200TIP3   OH2 6552   0.556   2.192   3.306
 2200TIP3    H1 6553   0.646   2.224   3.310
 2200TIP3    H2 6554   0.512   2.252   3.246
 2201TIP3   OH2 6555   0.294   2.322   4.393
 2201TIP3    H1 6556   0.277   2.330   4.299
 2201TIP3    H2 6557   0.208   2.309   4.432
 2202TIP3   OH2 6558   1.344   0.750   3.089
 2202TIP3    H1 6559   1.267   0.781   3.137
 2202TIP3    H2 6560   1.360   0.818   3.023
 2203TIP3   OH2 6561   1.169   2.104   2.653
 2203TIP3    H1 6562   1.160   2.195   2.627
 2203TIP3    H2 6563   1.259   2.081   2.632
 2204TIP3   OH2 6564   7.825   1.820   4.324
 2204TIP3    H1 6565   7.786   1.769   4.253
 2204TIP3    H2 6566   7.841   1.755   4.393
 2205TIP3   OH2 6567   7.742   2.058   3.917
 2205TIP3    H1 6568   7.821   2.014   3.885
 2205TIP3    H2 6569   7.773   2.115   3.987
 2206TIP3   OH2 6570   1.582   2.508   4.045
 2206TIP3    H1 6571   1.587   2.414   4.062
 2206TIP3    H2 6572   1.505   2.537   4.093
 2207TIP3   OH2 6573   0.696   2.297   4.171
 2207TIP3    H1 6574   0.690   2.388   4.202
 2207TIP3    H2 6575   0.628   2.251   4.220
 2208TIP3   OH2 6576   0.467   2.396   3.126
 2208TIP3    H1 6577   0.425   2.379   3.041
 2208TIP3    H2 6578   0.436   2.483   3.151
 2209TIP3   OH2 6579   7.910   2.180   3.490
 2209TIP3    H1 6580   7.920   2.198   3.584
 2209TIP3    H2 6581   7.835   2.120   3.486
 2210TIP3   OH2 6582   0.670   2.327   2.760
 2210TIP3    H1 6583   0.723   2.255   2.727
 2210TIP3    H2 6584   0.705   2.344   2.848
 2211TIP3   OH2 6585   0.723   2.379   3.026
 2211TIP3    H1 6586   0.637   2.380   3.068
 2211TIP3    H2 6587   0.782   2.345   3.093
 2212TIP3   OH2 6588   1.482   1.625   4.270
 2212TIP3    H1 6589   1.388   1.641   4.259
 2212TIP3    H2 6590   1.490   1.530   4.270
 2213TIP3   OH2 6591   0.077   2.045   4.346
 2213TIP3    H1 6592   0.143   2.016   4.408
 2213TIP3    H2 6593   0.020   1.969   4.334
 2214TIP3   OH2 6594   0.470   0.897   4.114
 2214TIP3    H1 6595   0.425   0.813   4.107
 2214TIP3    H2 6596   0.424   0.943   4.183
 2215TIP3   OH2 6597   1.030   1.005   4.329
 2215TIP3    H1 6598   1.099   0.983   4.391
 2215TIP3    H2 6599   0.950   1.003   4.381
 2216TIP3   OH2 6600   1.238   1.424   4.247
 2216TIP3    H1 6601   1.192   1.416   4.330
 2216TIP3    H2 6602   1.220   1.513   4.216
 2217TIP3   OH2 6603   0.920   1.594   2.808
 2217TIP3    H1 6604   0.880   1.676   2.781
 2217TIP3    H2 6605   1.008   1.597   2.771
 2218TIP3   OH2 6606   0.432   1.402   4.140
 2218TIP3    H1 6607   0.385   1.414   4.222
 2218TIP3    H2 6608   0.412   1.481   4.090
 2219TIP3   OH2 6609   0.313   1.286   3.587
 2219TIP3    H1 6610   0.254   1.256   3.518
 2219TIP3    H2 6611   0.401   1.266   3.555
 2220TIP3   OH2 6612   0.778   1.354   3.387
 2220TIP3    H1 6613   0.730   1.424   3.343
 2220TIP3    H2 6614   0.835   1.317   3.319
 2221TIP3   OH2 6615   0.967   1.629   4.456
 2221TIP3    H1 6616   0.938   1.564   4.520
 2221TIP3    H2 6617   1.058   1.646   4.478
 2222TIP3   OH2 6618   0.951   1.368   3.606
 2222TIP3    H1 6619   0.878   1.386   3.547
 2222TIP3    H2 6620   0.997   1.294   3.566
 2223TIP3   OH2 6621   0.249   1.439   4.351
 2223TIP3    H1 6622   0.272   1.518   4.399
 2223TIP3    H2 6623   0.178   1.399   4.401
 2224TIP3   OH2 6624   0.963   1.626   4.038
 2224TIP3    H1 6625   0.993   1.562   3.973
 2224TIP3    H2 6626   0.930   1.574   4.110
 2225TIP3   OH2 6627   0.687   1.164   3.740
 2225TIP3    H1 6628   0.620   1.119   3.791
 2225TIP3    H2 6629   0.770   1.123   3.767
 2226TIP3   OH2 6630   1.149   1.180   3.906
 2226TIP3    H1 6631   1.130   1.191   4.000
 2226TIP3    H2 6632   1.069   1.142   3.870
 2227TIP3   OH2 6633   1.300   2.863   4.138
 2227TIP3    H1 6634   1.299   2.876   4.043
 2227TIP3    H2 6635   1.380   2.908   4.167
 2228TIP3   OH2 6636   0.244   1.965   4.554
 2228TIP3    H1 6637   0.329   1.986   4.593
 2228TIP3    H2 6638   0.183   1.966   4.628
 2229TIP3   OH2 6639   0.712   1.437   3.819
 2229TIP3    H1 6640   0.732   1.365   3.760
 2229TIP3    H2 6641   0.721   1.400   3.906
 2230TIP3   OH2 6642   0.699   1.323   4.093
 2230TIP3    H1 6643   0.613   1.363   4.102
 2230TIP3    H2 6644   0.758   1.381   4.142
 2231TIP3   OH2 6645   0.430   1.707   3.178
 2231TIP3    H1 6646   0.348   1.729   3.133
 2231TIP3    H2 6647   0.415   1.732   3.269
 2232TIP3   OH2 6648   1.300   1.952   3.794
 2232TIP3    H1 6649   1.337   2.000   3.720
 2232TIP3    H2 6650   1.220   1.911   3.759
 2233TIP3   OH2 6651   0.820   2.031   4.210
 2233TIP3    H1 6652   0.876   2.017   4.287
 2233TIP3    H2 6653   0.787   2.120   4.221
 2234TIP3   OH2 6654   0.948   1.270   3.180
 2234TIP3    H1 6655   1.042   1.283   3.182
 2234TIP3    H2 6656   0.915   1.340   3.124
 2235TIP3   OH2 6657   0.109   1.695   3.841
 2235TIP3    H1 6658   0.149   1.679   3.756
 2235TIP3    H2 6659   0.175   1.666   3.904
 2236TIP3   OH2 6660   0.583   1.870   3.010
 2236TIP3    H1 6661   0.530   1.949   3.020
 2236TIP3    H2 6662   0.544   1.806   3.070
 2237TIP3   OH2 6663   7.889   1.635   4.524
 2237TIP3    H1 6664   7.932   1.646   4.608
 2237TIP3    H2 6665   7.807   1.591   4.544
 2238TIP3   OH2 6666   0.728   1.778   4.491
 2238TIP3    H1 6667   0.664   1.713   4.464
 2238TIP3    H2 6668   0.812   1.741   4.464
 2239TIP3   OH2 6669   0.963   2.325   4.089
 2239TIP3    H1 6670   0.869   2.309   4.095
 2239TIP3    H2 6671   0.986   2.363   4.175
 2240TIP3   OH2 6672   1.352   1.376   2.991
 2240TIP3    H1 6673   1.300   1.326   2.928
 2240TIP3    H2 6674   1.357   1.464   2.955
 2241TIP3   OH2 6675   1.596   2.224   4.069
 2241TIP3    H1 6676   1.501   2.213   4.059
 2241TIP3    H2 6677   1.632   2.201   3.984
 2242TIP3   OH2 6678   1.086   2.178   2.912
 2242TIP3    H1 6679   1.068   2.104   2.969
 2242TIP3    H2 6680   1.113   2.139   2.829
 2243TIP3   OH2 6681   1.069   1.819   3.689
 2243TIP3    H1 6682   0.979   1.798   3.715
 2243TIP3    H2 6683   1.104   1.737   3.654
 2244TIP3   OH2 6684   0.265   2.052   3.506
 2244TIP3    H1 6685   0.319   2.114   3.457
 2244TIP3    H2 6686   0.176   2.086   3.498
 2245TIP3   OH2 6687   0.330   1.796   3.419
 2245TIP3    H1 6688   0.311   1.884   3.452
 2245TIP3    H2 6689   0.306   1.738   3.491
 2246TIP3   OH2 6690   0.511   2.374   3.968
 2246TIP3    H1 6691   0.545   2.451   3.921
 2246TIP3    H2 6692   0.586   2.342   4.019
 2247TIP3   OH2 6693   0.035   2.358   3.286
 2247TIP3    H1 6694   0.039   2.298   3.361
 2247TIP3    H2 6695   0.106   2.420   3.302
 2248TIP3   OH2 6696   0.860   2.043   3.936
 2248TIP3    H1 6697   0.844   2.037   4.030
 2248TIP3    H2 6698   0.943   1.998   3.922
 2249TIP3   OH2 6699   0.862   1.892   2.816
 2249TIP3    H1 6700   0.925   1.890   2.888
 2249TIP3    H2 6701   0.777   1.892   2.859
 2250TIP3   OH2 6702   1.114   2.538   3.979
 2250TIP3    H1 6703   1.046   2.473   3.995
 2250TIP3    H2 6704   1.081   2.591   3.906
 2251TIP3   OH2 6705   1.161   2.375   2.608
 2251TIP3    H1 6706   1.192   2.437   2.543
 2251TIP3    H2 6707   1.091   2.421   2.654
 2252TIP3   OH2 6708   1.041   1.877   3.027
 2252TIP3    H1 6709   1.020   1.805   3.086
 2252TIP3    H2 6710   1.136   1.869   3.013
 2253TIP3   OH2 6711   7.834   2.183   4.143
 2253TIP3    H1 6712   7.885   2.142   4.214
 2253TIP3    H2 6713   7.771   2.238   4.189
 2254TIP3   OH2 6714   0.212   1.867   3.103
 2254TIP3    H1 6715   0.249   1.904   3.183
 2254TIP3    H2 6716   0.160   1.938   3.065
 2255TIP3   OH2 6717   1.080   1.218   4.165
 2255TIP3    H1 6718   1.140   1.286   4.195
 2255TIP3    H2 6719   1.077   1.155   4.237
 2256TIP3   OH2 6720   0.931   1.029   3.316
 2256TIP3    H1 6721   0.913   1.095   3.249
 2256TIP3    H2 6722   0.982   1.075   3.383
 2257TIP3   OH2 6723   0.421   2.087   3.029
 2257TIP3    H1 6724   0.333   2.102   3.064
 2257TIP3    H2 6725   0.437   2.162   2.972
 2258TIP3   OH2 6726   0.562   1.230   3.506
 2258TIP3    H1 6727   0.630   1.267   3.450
 2258TIP3    H2 6728   0.610   1.195   3.582
 2259TIP3   OH2 6729   0.891   1.459   4.247
 2259TIP3    H1 6730   0.906   1.522   4.318
 2259TIP3    H2 6731   0.947   1.384   4.269
 2260TIP3   OH2 6732   0.703   0.895   3.411
 2260TIP3    H1 6733   0.729   0.885   3.502
 2260TIP3    H2 6734   0.774   0.944   3.371
 2261TIP3   OH2 6735   0.161   2.167   3.099
 2261TIP3    H1 6736   0.147   2.226   3.025
 2261TIP3    H2 6737   0.128   2.215   3.175
 2262TIP3   OH2 6738   1.495   1.342   4.217
 2262TIP3    H1 6739   1.403   1.360   4.236
 2262TIP3    H2 6740   1.493   1.285   4.139
 2263TIP3   OH2 6741   1.160   1.563   3.605
 2263TIP3    H1 6742   1.086   1.504   3.617
 2263TIP3    H2 6743   1.229   1.525   3.659
 2264TIP3   OH2 6744   1.143   2.535   3.548
 2264TIP3    H1 6745   1.103   2.586   3.478
 2264TIP3    H2 6746   1.237   2.545   3.536
 2265TIP3   OH2 6747   7.674   2.045   3.462
 2265TIP3    H1 6748   7.615   2.018   3.533
 2265TIP3    H2 6749   7.618   2.050   3.385
 2266TIP3   OH2 6750  -0.009   2.542   4.512
 2266TIP3    H1 6751   0.050   2.562   4.585
 2266TIP3    H2 6752  -0.001   2.448   4.499
 2267TIP3   OH2 6753   0.407   2.491   4.579
 2267TIP3    H1 6754   0.496   2.457   4.593
 2267TIP3    H2 6755   0.372   2.435   4.509
 2268TIP3   OH2 6756   0.363   2.092   2.711
 2268TIP3    H1 6757   0.372   2.005   2.749
 2268TIP3    H2 6758   0.418   2.090   2.633
 2269TIP3   OH2 6759   1.017   2.426   4.337
 2269TIP3    H1 6760   1.024   2.354   4.400
 2269TIP3    H2 6761   1.094   2.481   4.355
 2270TIP3   OH2 6762   0.808   2.119   2.644
 2270TIP3    H1 6763   0.849   2.054   2.701
 2270TIP3    H2 6764   0.860   2.117   2.564
 2271TIP3   OH2 6765   0.053   1.943   4.762
 2271TIP3    H1 6766   0.095   1.857   4.767
 2271TIP3    H2 6767  -0.029   1.926   4.716
 2272TIP3   OH2 6768   0.663   2.054   4.509
 2272TIP3    H1 6769   0.619   2.074   4.426
 2272TIP3    H2 6770   0.700   1.967   4.496
 2273TIP3   OH2 6771   0.492   1.837   2.751
 2273TIP3    H1 6772   0.529   1.845   2.839
 2273TIP3    H2 6773   0.449   1.752   2.750
 2274TIP3   OH2 6774   1.128   2.099   4.120
 2274TIP3    H1 6775   1.208   2.126   4.074
 2274TIP3    H2 6776   1.067   2.170   4.107
 2275TIP3   OH2 6777   0.166   1.689   4.743
 2275TIP3    H1 6778   0.250   1.658   4.710
 2275TIP3    H2 6779   0.178   1.700   4.837
 2276TIP3   OH2 6780   0.523   1.602   4.389
 2276TIP3    H1 6781   0.440   1.650   4.400
 2276TIP3    H2 6782   0.557   1.631   4.305
 2277TIP3   OH2 6783   1.011   1.971   4.479
 2277TIP3    H1 6784   1.091   1.945   4.432
 2277TIP3    H2 6785   1.010   1.916   4.557
 2278TIP3   OH2 6786   1.154   1.648   2.667
 2278TIP3    H1 6787   1.138   1.598   2.587
 2278TIP3    H2 6788   1.127   1.738   2.644
 2279TIP3   OH2 6789   0.621   1.371   4.499
 2279TIP3    H1 6790   0.615   1.297   4.438
 2279TIP3    H2 6791   0.589   1.446   4.449
 2280TIP3   OH2 6792   0.598   1.167   4.309
 2280TIP3    H1 6793   0.621   1.206   4.225
 2280TIP3    H2 6794   0.509   1.134   4.296
 2281TIP3   OH2 6795   0.640   1.695   4.163
 2281TIP3    H1 6796   0.728   1.728   4.149
 2281TIP3    H2 6797   0.583   1.758   4.119
 2282TIP3   OH2 6798   1.236   1.646   4.567
 2282TIP3    H1 6799   1.280   1.563   4.587
 2282TIP3    H2 6800   1.306   1.711   4.567
 2283TIP3   OH2 6801   1.256   1.923   4.286
 2283TIP3    H1 6802   1.203   1.985   4.235
 2283TIP3    H2 6803   1.345   1.938   4.255
 2284TIP3   OH2 6804   0.520   1.492   4.725
 2284TIP3    H1 6805   0.447   1.438   4.755
 2284TIP3    H2 6806   0.548   1.451   4.643
 2285TIP3   OH2 6807   0.766   0.974   4.408
 2285TIP3    H1 6808   0.710   1.046   4.380
 2285TIP3    H2 6809   0.738   0.899   4.355
 2286TIP3   OH2 6810   0.872   1.422   4.608
 2286TIP3    H1 6811   0.866   1.415   4.703
 2286TIP3    H2 6812   0.784   1.398   4.577
 2287TIP3   OH2 6813   1.090   1.343   4.459
 2287TIP3    H1 6814   1.016   1.361   4.518
 2287TIP3    H2 6815   1.164   1.326   4.518
 2288TIP3   OH2 6816   1.306   1.313   4.625
 2288TIP3    H1 6817   1.348   1.227   4.625
 2288TIP3    H2 6818   1.328   1.351   4.710
 2289TIP3   OH2 6819   0.333   1.304   4.811
 2289TIP3    H1 6820   0.316   1.227   4.757
 2289TIP3    H2 6821   0.388   1.271   4.883
 2290TIP3   OH2 6822   0.813   0.931   4.673
 2290TIP3    H1 6823   0.887   0.870   4.667
 2290TIP3    H2 6824   0.791   0.949   4.581
 2291TIP3   OH2 6825   0.902   1.149   4.816
 2291TIP3    H1 6826   0.871   1.077   4.760
 2291TIP3    H2 6827   0.830   1.212   4.817
 2292TIP3   OH2 6828   0.148   2.371   2.915
 2292TIP3    H1 6829   0.241   2.360   2.894
 2292TIP3    H2 6830   0.110   2.413   2.838
 2293TIP3   OH2 6831   7.415   2.286   3.483
 2293TIP3    H1 6832   7.320   2.284   3.494
 2293TIP3    H2 6833   7.449   2.307   3.570
 2294TIP3   OH2 6834   7.613   2.253   3.696
 2294TIP3    H1 6835   7.601   2.158   3.703
 2294TIP3    H2 6836   7.663   2.276   3.775
 2295TIP3   OH2 6837   1.414   2.586   3.539
 2295TIP3    H1 6838   1.437   2.612   3.628
 2295TIP3    H2 6839   1.474   2.635   3.483
 2296TIP3   OH2 6840   1.437   2.613   3.821
 2296TIP3    H1 6841   1.386   2.532   3.813
 2296TIP3    H2 6842   1.503   2.593   3.887
 2297TIP3   OH2 6843   1.470   2.324   4.386
 2297TIP3    H1 6844   1.407   2.329   4.457
 2297TIP3    H2 6845   1.521   2.404   4.392
 2298TIP3   OH2 6846   1.313   1.839   3.003
 2298TIP3    H1 6847   1.374   1.906   2.972
 2298TIP3    H2 6848   1.357   1.798   3.078
 2299TIP3   OH2 6849   1.438   1.694   3.202
 2299TIP3    H1 6850   1.371   1.656   3.260
 2299TIP3    H2 6851   1.504   1.728   3.262
 2300TIP3   OH2 6852   1.480   2.089   3.632
 2300TIP3    H1 6853   1.534   2.019   3.595
 2300TIP3    H2 6854   1.485   2.160   3.568
 2301TIP3   OH2 6855   1.285   2.381   3.819
 2301TIP3    H1 6856   1.219   2.424   3.874
 2301TIP3    H2 6857   1.235   2.339   3.749
 2302TIP3   OH2 6858   1.352   1.612   2.851
 2302TIP3    H1 6859   1.284   1.617   2.784
 2302TIP3    H2 6860   1.338   1.689   2.906
 2303TIP3   OH2 6861   1.218   1.248   2.792
 2303TIP3    H1 6862   1.208   1.277   2.701
 2303TIP3    H2 6863   1.166   1.168   2.796
 2304TIP3   OH2 6864   1.233   1.558   3.338
 2304TIP3    H1 6865   1.236   1.464   3.322
 2304TIP3    H2 6866   1.212   1.566   3.432
 2305TIP3   OH2 6867   7.760   1.623   4.138
 2305TIP3    H1 6868   7.738   1.609   4.046
 2305TIP3    H2 6869   7.856   1.614   4.141
 2306TIP3   OH2 6870   1.516   1.970   4.196
 2306TIP3    H1 6871   1.583   1.902   4.187
 2306TIP3    H2 6872   1.548   2.043   4.144
 2307TIP3   OH2 6873   1.699   1.763   4.188
 2307TIP3    H1 6874   1.622   1.720   4.225
 2307TIP3    H2 6875   1.772   1.705   4.212
 2308TIP3   OH2 6876   1.235   1.287   3.231
 2308TIP3    H1 6877   1.285   1.206   3.244
 2308TIP3    H2 6878   1.273   1.326   3.153
 2309TIP3   OH2 6879   1.380   1.448   3.740
 2309TIP3    H1 6880   1.462   1.466   3.694
 2309TIP3    H2 6881   1.393   1.485   3.827
 2310TIP3   OH2 6882   1.452   1.587   3.968
 2310TIP3    H1 6883   1.388   1.615   4.034
 2310TIP3    H2 6884   1.484   1.668   3.929
 2311TIP3   OH2 6885   1.906   1.200   4.508
 2311TIP3    H1 6886   1.970   1.143   4.465
 2311TIP3    H2 6887   1.866   1.249   4.437
 2312TIP3   OH2 6888   1.361   1.043   3.271
 2312TIP3    H1 6889   1.400   1.018   3.355
 2312TIP3    H2 6890   1.292   0.979   3.256
 2313TIP3   OH2 6891   7.700   1.352   4.186
 2313TIP3    H1 6892   7.751   1.318   4.113
 2313TIP3    H2 6893   7.709   1.447   4.181
 2314TIP3   OH2 6894   1.755   1.298   4.299
 2314TIP3    H1 6895   1.667   1.334   4.293
 2314TIP3    H2 6896   1.749   1.213   4.255
 2315TIP3   OH2 6897   1.441   0.934   2.902
 2315TIP3    H1 6898   1.525   0.889   2.905
 2315TIP3    H2 6899   1.463   1.027   2.911
 2316TIP3   OH2 6900   0.962   2.492   3.186
 2316TIP3    H1 6901   1.019   2.482   3.109
 2316TIP3    H2 6902   1.007   2.557   3.240
 2317TIP3   OH2 6903   0.053   2.272   4.529
 2317TIP3    H1 6904   0.037   2.187   4.488
 2317TIP3    H2 6905   0.073   2.252   4.620
 2318TIP3   OH2 6906   0.282   2.325   4.115
 2318TIP3    H1 6907   0.220   2.391   4.083
 2318TIP3    H2 6908   0.364   2.344   4.069
 2319TIP3   OH2 6909   0.691   2.562   4.246
 2319TIP3    H1 6910   0.726   2.557   4.335
 2319TIP3    H2 6911   0.754   2.616   4.199
 2320TIP3   OH2 6912   0.883   2.718   4.124
 2320TIP3    H1 6913   0.950   2.663   4.083
 2320TIP3    H2 6914   0.932   2.780   4.179
 2321TIP3   OH2 6915   1.688   1.042   4.211
 2321TIP3    H1 6916   1.599   1.016   4.187
 2321TIP3    H2 6917   1.739   0.962   4.206
 2322TIP3   OH2 6918   7.914   2.479   4.114
 2322TIP3    H1 6919   7.856   2.554   4.126
 2322TIP3    H2 6920   7.893   2.420   4.186
 2323TIP3   OH2 6921   0.228   2.559   3.961
 2323TIP3    H1 6922   0.145   2.551   4.008
 2323TIP3    H2 6923   0.202   2.579   3.871
 2324TIP3   OH2 6924   0.591   2.584   3.804
 2324TIP3    H1 6925   0.530   2.596   3.730
 2324TIP3    H2 6926   0.601   2.672   3.840
 2325TIP3   OH2 6927   0.854   2.521   3.845
 2325TIP3    H1 6928   0.762   2.541   3.831
 2325TIP3    H2 6929   0.901   2.593   3.803
 2326TIP3   OH2 6930   1.054   2.699   3.752
 2326TIP3    H1 6931   1.050   2.785   3.711
 2326TIP3    H2 6932   1.084   2.640   3.682
 2327TIP3   OH2 6933   7.798   2.367   3.885
 2327TIP3    H1 6934   7.835   2.384   3.972
 2327TIP3    H2 6935   7.861   2.311   3.842
 2328TIP3   OH2 6936   0.083   2.225   3.751
 2328TIP3    H1 6937   0.095   2.139   3.791
 2328TIP3    H2 6938   0.171   2.264   3.751
 2329TIP3   OH2 6939   0.347   2.318   3.751
 2329TIP3    H1 6940   0.369   2.225   3.749
 2329TIP3    H2 6941   0.392   2.351   3.828
 2330TIP3   OH2 6942   0.918   1.035   3.823
 2330TIP3    H1 6943   0.907   1.010   3.915
 2330TIP3    H2 6944   0.991   0.982   3.792
 2331TIP3   OH2 6945   1.379   0.919   3.741
 2331TIP3    H1 6946   1.417   0.962   3.664
 2331TIP3    H2 6947   1.285   0.926   3.728
 2332TIP3   OH2 6948   1.503   0.963   3.497
 2332TIP3    H1 6949   1.573   0.907   3.464
 2332TIP3    H2 6950   1.538   1.052   3.490
 2333TIP3   OH2 6951   0.534   0.777   3.771
 2333TIP3    H1 6952   0.622   0.781   3.734
 2333TIP3    H2 6953   0.539   0.711   3.840
 2334TIP3   OH2 6954   1.108   0.898   3.680
 2334TIP3    H1 6955   1.108   0.912   3.586
 2334TIP3    H2 6956   1.074   0.809   3.691
 2335TIP3   OH2 6957   1.152   0.866   3.257
 2335TIP3    H1 6958   1.069   0.914   3.255
 2335TIP3    H2 6959   1.138   0.796   3.321
 2336TIP3   OH2 6960   0.411   2.314   2.857
 2336TIP3    H1 6961   0.496   2.338   2.821
 2336TIP3    H2 6962   0.381   2.242   2.802
 2337TIP3   OH2 6963   1.115   2.448   2.956
 2337TIP3    H1 6964   1.110   2.353   2.946
 2337TIP3    H2 6965   1.076   2.482   2.875
 2338TIP3   OH2 6966   0.605   0.985   4.847
 2338TIP3    H1 6967   0.681   0.970   4.791
 2338TIP3    H2 6968   0.560   0.901   4.849
 2339TIP3   OH2 6969   1.423   1.053   4.635
 2339TIP3    H1 6970   1.440   1.030   4.726
 2339TIP3    H2 6971   1.510   1.056   4.595
 2340TIP3   OH2 6972   1.336   2.588   4.142
 2340TIP3    H1 6973   1.261   2.560   4.091
 2340TIP3    H2 6974   1.324   2.683   4.152
 2341TIP3   OH2 6975   2.613   1.977   2.883
 2341TIP3    H1 6976   2.585   2.064   2.855
 2341TIP3    H2 6977   2.542   1.919   2.855
 2342TIP3   OH2 6978   2.611   1.968   3.305
 2342TIP3    H1 6979   2.665   1.951   3.383
 2342TIP3    H2 6980   2.567   1.885   3.288
 2343TIP3   OH2 6981   1.909   1.829   3.647
 2343TIP3    H1 6982   1.947   1.778   3.719
 2343TIP3    H2 6983   1.984   1.855   3.594
 2344TIP3   OH2 6984   2.879   2.276   2.976
 2344TIP3    H1 6985   2.868   2.210   3.044
 2344TIP3    H2 6986   2.902   2.356   3.023
 2345TIP3   OH2 6987   1.899   2.254   3.335
 2345TIP3    H1 6988   1.882   2.160   3.341
 2345TIP3    H2 6989   1.994   2.261   3.328
 2346TIP3   OH2 6990   1.588   1.466   3.126
 2346TIP3    H1 6991   1.552   1.552   3.149
 2346TIP3    H2 6992   1.514   1.419   3.088
 2347TIP3   OH2 6993   1.669   1.774   3.340
 2347TIP3    H1 6994   1.719   1.696   3.367
 2347TIP3    H2 6995   1.736   1.839   3.318
 2348TIP3   OH2 6996   2.543   2.700   2.980
 2348TIP3    H1 6997   2.578   2.638   2.915
 2348TIP3    H2 6998   2.553   2.654   3.064
 2349TIP3   OH2 6999   2.419   2.190   3.308
 2349TIP3    H1 7000   2.464   2.110   3.281
 2349TIP3    H2 7001   2.489   2.248   3.339
 2350TIP3   OH2 7002   3.455   1.509   3.325
 2350TIP3    H1 7003   3.470   1.594   3.366
 2350TIP3    H2 7004   3.479   1.522   3.233
 2351TIP3   OH2 7005   2.824   1.676   3.343
 2351TIP3    H1 7006   2.857   1.590   3.372
 2351TIP3    H2 7007   2.788   1.660   3.256
 2352TIP3   OH2 7008   2.183   1.336   3.302
 2352TIP3    H1 7009   2.162   1.410   3.245
 2352TIP3    H2 7010   2.128   1.265   3.270
 2353TIP3   OH2 7011   2.879   1.437   2.940
 2353TIP3    H1 7012   2.942   1.431   3.011
 2353TIP3    H2 7013   2.929   1.472   2.866
 2354TIP3   OH2 7014   1.808   1.552   3.433
 2354TIP3    H1 7015   1.891   1.534   3.476
 2354TIP3    H2 7016   1.811   1.501   3.352
 2355TIP3   OH2 7017   2.226   1.752   3.249
 2355TIP3    H1 7018   2.320   1.737   3.256
 2355TIP3    H2 7019   2.190   1.670   3.215
 2356TIP3   OH2 7020   3.509   1.730   3.490
 2356TIP3    H1 7021   3.420   1.766   3.484
 2356TIP3    H2 7022   3.544   1.766   3.571
 2357TIP3   OH2 7023   2.162   1.340   3.755
 2357TIP3    H1 7024   2.112   1.375   3.681
 2357TIP3    H2 7025   2.107   1.356   3.832
 2358TIP3   OH2 7026   2.517   2.194   2.739
 2358TIP3    H1 7027   2.475   2.164   2.658
 2358TIP3    H2 7028   2.465   2.271   2.765
 2359TIP3   OH2 7029   2.254   2.116   3.518
 2359TIP3    H1 7030   2.202   2.188   3.553
 2359TIP3    H2 7031   2.304   2.155   3.446
 2360TIP3   OH2 7032   3.036   1.459   3.162
 2360TIP3    H1 7033   2.993   1.438   3.245
 2360TIP3    H2 7034   3.092   1.534   3.183
 2361TIP3   OH2 7035   2.054   1.448   3.523
 2361TIP3    H1 7036   2.109   1.522   3.547
 2361TIP3    H2 7037   2.101   1.404   3.452
 2362TIP3   OH2 7038   2.100   2.318   3.626
 2362TIP3    H1 7039   2.086   2.409   3.597
 2362TIP3    H2 7040   2.022   2.299   3.678
 2363TIP3   OH2 7041   1.484   2.022   2.883
 2363TIP3    H1 7042   1.452   2.042   2.795
 2363TIP3    H2 7043   1.509   2.107   2.919
 2364TIP3   OH2 7044   2.922   2.521   3.116
 2364TIP3    H1 7045   2.835   2.516   3.154
 2364TIP3    H2 7046   2.924   2.605   3.069
 2365TIP3   OH2 7047   3.255   1.400   3.494
 2365TIP3    H1 7048   3.169   1.421   3.456
 2365TIP3    H2 7049   3.318   1.427   3.427
 2366TIP3   OH2 7050   2.506   1.032   3.486
 2366TIP3    H1 7051   2.499   0.940   3.512
 2366TIP3    H2 7052   2.429   1.074   3.525
 2367TIP3   OH2 7053   2.641   2.561   2.757
 2367TIP3    H1 7054   2.683   2.475   2.751
 2367TIP3    H2 7055   2.711   2.623   2.735
 2368TIP3   OH2 7056   2.766   2.323   2.728
 2368TIP3    H1 7057   2.694   2.260   2.726
 2368TIP3    H2 7058   2.816   2.300   2.806
 2369TIP3   OH2 7059   3.155   2.408   3.466
 2369TIP3    H1 7060   3.134   2.334   3.409
 2369TIP3    H2 7061   3.140   2.486   3.412
 2370TIP3   OH2 7062   2.440   1.816   2.733
 2370TIP3    H1 7063   2.357   1.859   2.713
 2370TIP3    H2 7064   2.487   1.816   2.650
 2371TIP3   OH2 7065   2.411   1.626   2.426
 2371TIP3    H1 7066   2.476   1.678   2.475
 2371TIP3    H2 7067   2.462   1.556   2.385
 2372TIP3   OH2 7068   3.330   2.070   3.329
 2372TIP3    H1 7069   3.246   2.115   3.329
 2372TIP3    H2 7070   3.365   2.084   3.241
 2373TIP3   OH2 7071   2.798   1.902   2.696
 2373TIP3    H1 7072   2.745   1.931   2.770
 2373TIP3    H2 7073   2.882   1.878   2.735
 2374TIP3   OH2 7074   3.029   1.931   3.639
 2374TIP3    H1 7075   3.024   2.015   3.686
 2374TIP3    H2 7076   2.947   1.927   3.589
 2375TIP3   OH2 7077   2.026   1.883   3.098
 2375TIP3    H1 7078   1.991   1.821   3.034
 2375TIP3    H2 7079   2.100   1.836   3.138
 2376TIP3   OH2 7080   2.163   2.306   3.240
 2376TIP3    H1 7081   2.141   2.292   3.148
 2376TIP3    H2 7082   2.251   2.268   3.249
 2377TIP3   OH2 7083   2.122   1.880   3.472
 2377TIP3    H1 7084   2.162   1.843   3.393
 2377TIP3    H2 7085   2.171   1.961   3.488
 2378TIP3   OH2 7086   2.680   2.515   3.242
 2378TIP3    H1 7087   2.666   2.596   3.292
 2378TIP3    H2 7088   2.664   2.445   3.305
 2379TIP3   OH2 7089   2.297   2.416   3.797
 2379TIP3    H1 7090   2.236   2.472   3.844
 2379TIP3    H2 7091   2.241   2.364   3.738
 2380TIP3   OH2 7092   2.631   1.766   2.526
 2380TIP3    H1 7093   2.690   1.823   2.575
 2380TIP3    H2 7094   2.662   1.770   2.436
 2381TIP3   OH2 7095   2.052   1.960   3.935
 2381TIP3    H1 7096   2.058   2.054   3.956
 2381TIP3    H2 7097   1.958   1.943   3.930
 2382TIP3   OH2 7098   2.387   2.437   2.776
 2382TIP3    H1 7099   2.466   2.491   2.781
 2382TIP3    H2 7100   2.323   2.492   2.732
 2383TIP3   OH2 7101   2.085   2.574   3.881
 2383TIP3    H1 7102   2.061   2.584   3.789
 2383TIP3    H2 7103   2.001   2.561   3.926
 2384TIP3   OH2 7104   3.138   0.989   2.584
 2384TIP3    H1 7105   3.062   1.010   2.638
 2384TIP3    H2 7106   3.150   1.066   2.528
 2385TIP3   OH2 7107   1.902   1.722   2.899
 2385TIP3    H1 7108   1.825   1.769   2.868
 2385TIP3    H2 7109   1.872   1.632   2.913
 2386TIP3   OH2 7110   1.682   2.132   3.828
 2386TIP3    H1 7111   1.612   2.112   3.766
 2386TIP3    H2 7112   1.717   2.046   3.853
 2387TIP3   OH2 7113   1.540   2.315   3.472
 2387TIP3    H1 7114   1.635   2.324   3.473
 2387TIP3    H2 7115   1.508   2.393   3.517
 2388TIP3   OH2 7116   3.384   2.781   3.529
 2388TIP3    H1 7117   3.388   2.686   3.538
 2388TIP3    H2 7118   3.304   2.806   3.575
 2389TIP3   OH2 7119   2.485   2.559   3.657
 2389TIP3    H1 7120   2.478   2.650   3.685
 2389TIP3    H2 7121   2.418   2.513   3.707
 2390TIP3   OH2 7122   2.261   2.659   2.607
 2390TIP3    H1 7123   2.211   2.642   2.527
 2390TIP3    H2 7124   2.226   2.742   2.639
 2391TIP3   OH2 7125   1.703   2.513   2.990
 2391TIP3    H1 7126   1.748   2.506   3.074
 2391TIP3    H2 7127   1.655   2.430   2.981
 2392TIP3   OH2 7128   2.452   2.606   2.254
 2392TIP3    H1 7129   2.503   2.532   2.221
 2392TIP3    H2 7130   2.489   2.625   2.340
 2393TIP3   OH2 7131   2.520   2.649   2.520
 2393TIP3    H1 7132   2.430   2.649   2.553
 2393TIP3    H2 7133   2.571   2.606   2.588
 2394TIP3   OH2 7134   3.272   1.888   3.799
 2394TIP3    H1 7135   3.190   1.898   3.752
 2394TIP3    H2 7136   3.291   1.794   3.795
 2395TIP3   OH2 7137   1.882   2.319   3.796
 2395TIP3    H1 7138   1.933   2.305   3.875
 2395TIP3    H2 7139   1.810   2.256   3.804
 2396TIP3   OH2 7140   2.270   1.125   3.612
 2396TIP3    H1 7141   2.186   1.094   3.577
 2396TIP3    H2 7142   2.247   1.205   3.659
 2397TIP3   OH2 7143   2.807   1.246   3.812
 2397TIP3    H1 7144   2.877   1.221   3.873
 2397TIP3    H2 7145   2.726   1.230   3.860
 2398TIP3   OH2 7146   3.031   1.666   3.730
 2398TIP3    H1 7147   2.990   1.662   3.816
 2398TIP3    H2 7148   3.015   1.755   3.699
 2399TIP3   OH2 7149   2.716   1.743   2.266
 2399TIP3    H1 7150   2.668   1.750   2.184
 2399TIP3    H2 7151   2.795   1.795   2.253
 2400TIP3   OH2 7152   2.420   1.166   2.583
 2400TIP3    H1 7153   2.383   1.174   2.671
 2400TIP3    H2 7154   2.383   1.085   2.548
 2401TIP3   OH2 7155   2.205   1.659   3.620
 2401TIP3    H1 7156   2.159   1.665   3.704
 2401TIP3    H2 7157   2.183   1.740   3.575
 2402TIP3   OH2 7158   2.086   1.537   3.143
 2402TIP3    H1 7159   1.997   1.513   3.168
 2402TIP3    H2 7160   2.096   1.505   3.054
 2403TIP3   OH2 7161   2.565   1.611   2.868
 2403TIP3    H1 7162   2.518   1.684   2.828
 2403TIP3    H2 7163   2.623   1.579   2.799
 2404TIP3   OH2 7164   2.749   1.875   3.941
 2404TIP3    H1 7165   2.723   1.807   4.003
 2404TIP3    H2 7166   2.841   1.891   3.961
 2405TIP3   OH2 7167   2.733   1.623   3.091
 2405TIP3    H1 7168   2.664   1.645   3.028
 2405TIP3    H2 7169   2.780   1.550   3.052
 2406TIP3   OH2 7170   2.042   1.673   3.841
 2406TIP3    H1 7171   2.052   1.738   3.911
 2406TIP3    H2 7172   2.024   1.591   3.887
 2407TIP3   OH2 7173   2.086   1.156   2.564
 2407TIP3    H1 7174   2.074   1.158   2.659
 2407TIP3    H2 7175   2.010   1.201   2.529
 2408TIP3   OH2 7176   1.632   1.189   3.428
 2408TIP3    H1 7177   1.702   1.228   3.479
 2408TIP3    H2 7178   1.670   1.175   3.341
 2409TIP3   OH2 7179   1.548   1.187   2.937
 2409TIP3    H1 7180   1.597   1.224   2.863
 2409TIP3    H2 7181   1.483   1.253   2.958
 2410TIP3   OH2 7182   2.778   1.878   3.517
 2410TIP3    H1 7183   2.801   1.811   3.453
 2410TIP3    H2 7184   2.733   1.830   3.587
 2411TIP3   OH2 7185   2.451   1.325   3.193
 2411TIP3    H1 7186   2.373   1.325   3.248
 2411TIP3    H2 7187   2.523   1.316   3.255
 2412TIP3   OH2 7188   1.848   1.411   3.201
 2412TIP3    H1 7189   1.760   1.416   3.165
 2412TIP3    H2 7190   1.877   1.322   3.183
 2413TIP3   OH2 7191   2.101   1.418   2.897
 2413TIP3    H1 7192   2.196   1.428   2.886
 2413TIP3    H2 7193   2.065   1.437   2.811
 2414TIP3   OH2 7194   2.894   1.413   3.400
 2414TIP3    H1 7195   2.876   1.430   3.492
 2414TIP3    H2 7196   2.825   1.352   3.373
 2415TIP3   OH2 7197   1.987   1.447   2.651
 2415TIP3    H1 7198   1.922   1.397   2.602
 2415TIP3    H2 7199   2.041   1.488   2.584
 2416TIP3   OH2 7200   3.073   3.109   3.613
 2416TIP3    H1 7201   3.069   3.128   3.519
 2416TIP3    H2 7202   3.155   3.147   3.642
 2417TIP3   OH2 7203   2.038   2.230   4.027
 2417TIP3    H1 7204   2.118   2.249   4.076
 2417TIP3    H2 7205   1.968   2.235   4.092
 2418TIP3   OH2 7206   2.498   1.698   3.299
 2418TIP3    H1 7207   2.564   1.648   3.251
 2418TIP3    H2 7208   2.495   1.657   3.386
 2419TIP3   OH2 7209   1.993   1.166   3.179
 2419TIP3    H1 7210   1.966   1.090   3.231
 2419TIP3    H2 7211   2.013   1.131   3.093
 2420TIP3   OH2 7212   2.471   1.601   3.563
 2420TIP3    H1 7213   2.384   1.633   3.587
 2420TIP3    H2 7214   2.531   1.653   3.616
 2421TIP3   OH2 7215   2.201   1.949   2.677
 2421TIP3    H1 7216   2.128   1.893   2.653
 2421TIP3    H2 7217   2.175   1.990   2.759
 2422TIP3   OH2 7218   3.093   2.205   3.289
 2422TIP3    H1 7219   3.129   2.254   3.215
 2422TIP3    H2 7220   3.013   2.165   3.254
 2423TIP3   OH2 7221   2.672   1.271   2.583
 2423TIP3    H1 7222   2.579   1.249   2.581
 2423TIP3    H2 7223   2.674   1.366   2.596
 2424TIP3   OH2 7224   2.610   2.291   3.693
 2424TIP3    H1 7225   2.663   2.282   3.773
 2424TIP3    H2 7226   2.571   2.378   3.700
 2425TIP3   OH2 7227   2.730   1.535   2.653
 2425TIP3    H1 7228   2.825   1.539   2.663
 2425TIP3    H2 7229   2.708   1.613   2.601
 2426TIP3   OH2 7230   1.891   1.964   3.325
 2426TIP3    H1 7231   1.930   1.946   3.239
 2426TIP3    H2 7232   1.958   1.936   3.388
 2427TIP3   OH2 7233   2.355   2.113   2.523
 2427TIP3    H1 7234   2.307   2.196   2.520
 2427TIP3    H2 7235   2.298   2.055   2.575
 2428TIP3   OH2 7236   1.777   1.899   3.957
 2428TIP3    H1 7237   1.779   1.873   4.049
 2428TIP3    H2 7238   1.702   1.852   3.920
 2429TIP3   OH2 7239   2.518   2.032   3.982
 2429TIP3    H1 7240   2.448   1.972   3.955
 2429TIP3    H2 7241   2.599   1.989   3.952
 2430TIP3   OH2 7242   2.757   2.576   3.582
 2430TIP3    H1 7243   2.662   2.565   3.585
 2430TIP3    H2 7244   2.780   2.615   3.667
 2431TIP3   OH2 7245   3.144   1.622   2.472
 2431TIP3    H1 7246   3.086   1.577   2.411
 2431TIP3    H2 7247   3.152   1.710   2.436
 2432TIP3   OH2 7248   3.400   2.502   3.551
 2432TIP3    H1 7249   3.306   2.484   3.550
 2432TIP3    H2 7250   3.432   2.469   3.468
 2433TIP3   OH2 7251   2.951   2.379   2.352
 2433TIP3    H1 7252   2.920   2.354   2.439
 2433TIP3    H2 7253   2.933   2.303   2.296
 2434TIP3   OH2 7254   2.865   2.073   3.180
 2434TIP3    H1 7255   2.775   2.052   3.204
 2434TIP3    H2 7256   2.900   1.992   3.142
 2435TIP3   OH2 7257   2.022   2.310   2.995
 2435TIP3    H1 7258   2.019   2.386   2.936
 2435TIP3    H2 7259   1.932   2.300   3.025
 2436TIP3   OH2 7260   1.586   1.592   2.703
 2436TIP3    H1 7261   1.630   1.674   2.724
 2436TIP3    H2 7262   1.506   1.593   2.756
 2437TIP3   OH2 7263   2.103   2.064   2.900
 2437TIP3    H1 7264   2.087   2.154   2.931
 2437TIP3    H2 7265   2.078   2.009   2.973
 2438TIP3   OH2 7266   2.304   2.633   3.448
 2438TIP3    H1 7267   2.340   2.706   3.399
 2438TIP3    H2 7268   2.378   2.600   3.499
 2439TIP3   OH2 7269   1.936   2.532   2.843
 2439TIP3    H1 7270   1.850   2.538   2.884
 2439TIP3    H2 7271   1.971   2.621   2.848
 2440TIP3   OH2 7272   2.653   2.297   3.420
 2440TIP3    H1 7273   2.639   2.293   3.514
 2440TIP3    H2 7274   2.733   2.247   3.405
 2441TIP3   OH2 7275   2.657   2.165   2.280
 2441TIP3    H1 7276   2.705   2.134   2.357
 2441TIP3    H2 7277   2.573   2.118   2.284
 2442TIP3   OH2 7278   2.912   2.786   3.456
 2442TIP3    H1 7279   2.839   2.726   3.473
 2442TIP3    H2 7280   2.881   2.843   3.386
 2443TIP3   OH2 7281   3.035   2.652   2.142
 2443TIP3    H1 7282   3.088   2.730   2.127
 2443TIP3    H2 7283   2.958   2.663   2.087
 2444TIP3   OH2 7284   1.991   1.419   3.960
 2444TIP3    H1 7285   1.895   1.428   3.966
 2444TIP3    H2 7286   2.016   1.376   4.042
 2445TIP3   OH2 7287   2.819   2.076   2.480
 2445TIP3    H1 7288   2.799   2.028   2.561
 2445TIP3    H2 7289   2.915   2.080   2.478
 2446TIP3   OH2 7290   1.729   2.526   3.614
 2446TIP3    H1 7291   1.779   2.464   3.667
 2446TIP3    H2 7292   1.745   2.611   3.655
 2447TIP3   OH2 7293   1.999   2.139   2.311
 2447TIP3    H1 7294   2.011   2.049   2.282
 2447TIP3    H2 7295   1.982   2.132   2.405
 2448TIP3   OH2 7296   1.942   2.154   2.583
 2448TIP3    H1 7297   2.008   2.128   2.648
 2448TIP3    H2 7298   1.943   2.250   2.587
 2449TIP3   OH2 7299   1.678   1.843   2.787
 2449TIP3    H1 7300   1.615   1.891   2.839
 2449TIP3    H2 7301   1.699   1.902   2.714
 2450TIP3   OH2 7302   2.839   1.475   3.662
 2450TIP3    H1 7303   2.917   1.520   3.695
 2450TIP3    H2 7304   2.830   1.399   3.719
 2451TIP3   OH2 7305   2.731   1.219   2.852
 2451TIP3    H1 7306   2.710   1.238   2.760
 2451TIP3    H2 7307   2.774   1.299   2.883
 2452TIP3   OH2 7308   2.213   2.345   2.515
 2452TIP3    H1 7309   2.127   2.369   2.550
 2452TIP3    H2 7310   2.237   2.418   2.458
 2453TIP3   OH2 7311   2.380   1.420   2.941
 2453TIP3    H1 7312   2.442   1.489   2.915
 2453TIP3    H2 7313   2.404   1.400   3.032
 2454TIP3   OH2 7314   2.678   1.713   3.714
 2454TIP3    H1 7315   2.702   1.756   3.796
 2454TIP3    H2 7316   2.728   1.631   3.715
 2455TIP3   OH2 7317   2.545   1.116   3.029
 2455TIP3    H1 7318   2.522   1.193   3.081
 2455TIP3    H2 7319   2.614   1.146   2.970
 2456TIP3   OH2 7320   1.962   2.426   2.592
 2456TIP3    H1 7321   1.934   2.495   2.531
 2456TIP3    H2 7322   1.952   2.465   2.679
 2457TIP3   OH2 7323   2.058   1.146   2.846
 2457TIP3    H1 7324   2.050   1.238   2.871
 2457TIP3    H2 7325   2.152   1.129   2.848
 2458TIP3   OH2 7326   3.296   1.612   3.709
 2458TIP3    H1 7327   3.201   1.621   3.721
 2458TIP3    H2 7328   3.305   1.556   3.632
 2459TIP3   OH2 7329   2.957   1.814   3.094
 2459TIP3    H1 7330   2.880   1.758   3.105
 2459TIP3    H2 7331   3.024   1.774   3.149
 2460TIP3   OH2 7332   1.699   2.024   2.573
 2460TIP3    H1 7333   1.770   2.087   2.584
 2460TIP3    H2 7334   1.732   1.961   2.508
 2461TIP3   OH2 7335   1.629   1.319   2.714
 2461TIP3    H1 7336   1.629   1.414   2.708
 2461TIP3    H2 7337   1.571   1.290   2.644
 2462TIP3   OH2 7338   2.932   2.787   3.028
 2462TIP3    H1 7339   2.885   2.836   2.960
 2462TIP3    H2 7340   3.023   2.814   3.018
 2463TIP3   OH2 7341   2.007   1.047   3.564
 2463TIP3    H1 7342   1.980   1.013   3.479
 2463TIP3    H2 7343   2.002   0.971   3.623
 2464TIP3   OH2 7344   1.532   2.289   2.970
 2464TIP3    H1 7345   1.488   2.326   3.047
 2464TIP3    H2 7346   1.484   2.326   2.895
 2465TIP3   OH2 7347   1.733   2.834   4.032
 2465TIP3    H1 7348   1.814   2.843   4.082
 2465TIP3    H2 7349   1.721   2.740   4.021
 2466TIP3   OH2 7350   2.199   2.737   4.072
 2466TIP3    H1 7351   2.288   2.705   4.081
 2466TIP3    H2 7352   2.161   2.684   4.002
 2467TIP3   OH2 7353   2.148   2.347   2.211
 2467TIP3    H1 7354   2.102   2.274   2.252
 2467TIP3    H2 7355   2.225   2.306   2.170
 2468TIP3   OH2 7356   2.811   2.677   3.833
 2468TIP3    H1 7357   2.828   2.608   3.896
 2468TIP3    H2 7358   2.884   2.738   3.843
 2469TIP3   OH2 7359   2.587   2.396   2.154
 2469TIP3    H1 7360   2.624   2.323   2.204
 2469TIP3    H2 7361   2.630   2.390   2.069
 2470TIP3   OH2 7362   1.833   2.233   4.216
 2470TIP3    H1 7363   1.856   2.142   4.233
 2470TIP3    H2 7364   1.744   2.229   4.181
 2471TIP3   OH2 7365   1.827   1.837   2.423
 2471TIP3    H1 7366   1.877   1.809   2.499
 2471TIP3    H2 7367   1.893   1.848   2.354
 2472TIP3   OH2 7368   2.453   2.308   3.999
 2472TIP3    H1 7369   2.408   2.330   3.917
 2472TIP3    H2 7370   2.487   2.220   3.985
 2473TIP3   OH2 7371   2.405   2.050   2.261
 2473TIP3    H1 7372   2.380   2.062   2.352
 2473TIP3    H2 7373   2.381   1.960   2.240
 2474TIP3   OH2 7374   2.926   2.353   3.615
 2474TIP3    H1 7375   3.004   2.381   3.567
 2474TIP3    H2 7376   2.862   2.422   3.599
 2475TIP3   OH2 7377   1.953   1.983   4.226
 2475TIP3    H1 7378   2.025   1.948   4.174
 2475TIP3    H2 7379   1.991   1.998   4.312
 2476TIP3   OH2 7380   1.996   1.771   2.632
 2476TIP3    H1 7381   1.976   1.737   2.720
 2476TIP3    H2 7382   2.043   1.699   2.589
 2477TIP3   OH2 7383   2.312   1.857   3.886
 2477TIP3    H1 7384   2.226   1.897   3.895
 2477TIP3    H2 7385   2.343   1.886   3.800
 2478TIP3   OH2 7386   2.138   1.591   2.474
 2478TIP3    H1 7387   2.109   1.595   2.382
 2478TIP3    H2 7388   2.233   1.600   2.469
 2479TIP3   OH2 7389   2.809   2.231   3.967
 2479TIP3    H1 7390   2.877   2.191   3.912
 2479TIP3    H2 7391   2.805   2.174   4.044
 2480TIP3   OH2 7392   2.928   1.895   2.164
 2480TIP3    H1 7393   2.913   1.851   2.080
 2480TIP3    H2 7394   2.914   1.988   2.146
 2481TIP3   OH2 7395   2.413   1.624   3.993
 2481TIP3    H1 7396   2.415   1.554   3.927
 2481TIP3    H2 7397   2.379   1.700   3.945
 2482TIP3   OH2 7398   2.422   1.426   3.789
 2482TIP3    H1 7399   2.448   1.464   3.706
 2482TIP3    H2 7400   2.331   1.399   3.776
 2483TIP3   OH2 7401   2.426   1.954   3.659
 2483TIP3    H1 7402   2.514   1.991   3.650
 2483TIP3    H2 7403   2.369   2.013   3.610
 2484TIP3   OH2 7404   3.018   1.912   4.038
 2484TIP3    H1 7405   3.060   1.826   4.043
 2484TIP3    H2 7406   3.090   1.973   4.025
 2485TIP3   OH2 7407   3.047   2.175   3.781
 2485TIP3    H1 7408   2.994   2.237   3.731
 2485TIP3    H2 7409   3.136   2.190   3.751
 2486TIP3   OH2 7410   2.299   1.707   4.238
 2486TIP3    H1 7411   2.226   1.648   4.258
 2486TIP3    H2 7412   2.325   1.683   4.149
 2487TIP3   OH2 7413   2.543   1.195   3.892
 2487TIP3    H1 7414   2.502   1.275   3.859
 2487TIP3    H2 7415   2.476   1.127   3.879
 2488TIP3   OH2 7416   2.668   1.663   4.096
 2488TIP3    H1 7417   2.657   1.651   4.190
 2488TIP3    H2 7418   2.582   1.643   4.058
 2489TIP3   OH2 7419   2.915   1.621   3.969
 2489TIP3    H1 7420   2.836   1.620   4.022
 2489TIP3    H2 7421   2.985   1.596   4.029
 2490TIP3   OH2 7422   3.151   1.584   4.118
 2490TIP3    H1 7423   3.164   1.490   4.123
 2490TIP3    H2 7424   3.147   1.614   4.209
 2491TIP3   OH2 7425   2.129   1.488   4.299
 2491TIP3    H1 7426   2.137   1.399   4.265
 2491TIP3    H2 7427   2.167   1.483   4.387
 2492TIP3   OH2 7428   2.610   1.170   4.157
 2492TIP3    H1 7429   2.679   1.104   4.150
 2492TIP3    H2 7430   2.579   1.183   4.067
 2493TIP3   OH2 7431   2.704   1.384   4.305
 2493TIP3    H1 7432   2.674   1.312   4.248
 2493TIP3    H2 7433   2.633   1.447   4.305
 2494TIP3   OH2 7434   1.931   2.635   2.415
 2494TIP3    H1 7435   2.019   2.625   2.378
 2494TIP3    H2 7436   1.890   2.702   2.360
 2495TIP3   OH2 7437   1.427   2.021   2.595
 2495TIP3    H1 7438   1.522   2.033   2.591
 2495TIP3    H2 7439   1.412   1.936   2.555
 2496TIP3   OH2 7440   1.326   2.599   3.047
 2496TIP3    H1 7441   1.260   2.545   3.004
 2496TIP3    H2 7442   1.371   2.540   3.107
 2497TIP3   OH2 7443   1.471   2.436   3.218
 2497TIP3    H1 7444   1.463   2.367   3.284
 2497TIP3    H2 7445   1.522   2.504   3.260
 2498TIP3   OH2 7446   3.182   2.892   3.014
 2498TIP3    H1 7447   3.230   2.924   3.091
 2498TIP3    H2 7448   3.248   2.886   2.945
 2499TIP3   OH2 7449   3.218   2.886   3.312
 2499TIP3    H1 7450   3.181   2.802   3.288
 2499TIP3    H2 7451   3.288   2.865   3.374
 2500TIP3   OH2 7452   3.295   2.577   3.884
 2500TIP3    H1 7453   3.221   2.585   3.943
 2500TIP3    H2 7454   3.333   2.665   3.881
 2501TIP3   OH2 7455   3.095   2.074   2.496
 2501TIP3    H1 7456   3.154   2.141   2.462
 2501TIP3    H2 7457   3.141   2.036   2.571
 2502TIP3   OH2 7458   3.234   1.937   2.691
 2502TIP3    H1 7459   3.167   1.902   2.750
 2502TIP3    H2 7460   3.298   1.977   2.750
 2503TIP3   OH2 7461   3.272   2.339   3.123
 2503TIP3    H1 7462   3.328   2.272   3.083
 2503TIP3    H2 7463   3.254   2.401   3.052
 2504TIP3   OH2 7464   3.091   2.628   3.314
 2504TIP3    H1 7465   3.025   2.678   3.362
 2504TIP3    H2 7466   3.043   2.591   3.240
 2505TIP3   OH2 7467   3.141   1.859   2.332
 2505TIP3    H1 7468   3.069   1.862   2.270
 2505TIP3    H2 7469   3.126   1.934   2.390
 2506TIP3   OH2 7470   2.988   1.510   2.279
 2506TIP3    H1 7471   2.936   1.544   2.206
 2506TIP3    H2 7472   2.986   1.415   2.269
 2507TIP3   OH2 7473   3.027   1.805   2.826
 2507TIP3    H1 7474   3.031   1.710   2.811
 2507TIP3    H2 7475   3.007   1.814   2.919
 2508TIP3   OH2 7476   1.646   1.872   3.594
 2508TIP3    H1 7477   1.637   1.838   3.505
 2508TIP3    H2 7478   1.740   1.867   3.613
 2509TIP3   OH2 7479   3.303   2.221   3.685
 2509TIP3    H1 7480   3.372   2.157   3.668
 2509TIP3    H2 7481   3.307   2.281   3.610
 2510TIP3   OH2 7482   3.485   2.011   3.677
 2510TIP3    H1 7483   3.410   1.970   3.721
 2510TIP3    H2 7484   3.559   1.955   3.699
 2511TIP3   OH2 7485   2.957   1.240   2.247
 2511TIP3    H1 7486   3.020   1.211   2.313
 2511TIP3    H2 7487   2.874   1.201   2.275
 2512TIP3   OH2 7488   3.020   1.529   2.710
 2512TIP3    H1 7489   3.066   1.445   2.722
 2512TIP3    H2 7490   3.062   1.568   2.634
 2513TIP3   OH2 7491   3.173   1.692   3.233
 2513TIP3    H1 7492   3.254   1.710   3.184
 2513TIP3    H2 7493   3.188   1.732   3.319
 2514TIP3   OH2 7494   3.248   1.841   3.461
 2514TIP3    H1 7495   3.175   1.870   3.517
 2514TIP3    H2 7496   3.278   1.921   3.419
 2515TIP3   OH2 7497   1.867   1.546   4.231
 2515TIP3    H1 7498   1.959   1.547   4.258
 2515TIP3    H2 7499   1.832   1.466   4.272
 2516TIP3   OH2 7500   3.710   1.440   4.000
 2516TIP3    H1 7501   3.774   1.384   3.957
 2516TIP3    H2 7502   3.670   1.490   3.929
 2517TIP3   OH2 7503   3.136   1.278   2.760
 2517TIP3    H1 7504   3.182   1.263   2.842
 2517TIP3    H2 7505   3.073   1.206   2.754
 2518TIP3   OH2 7506   1.842   1.267   3.592
 2518TIP3    H1 7507   1.896   1.188   3.594
 2518TIP3    H2 7508   1.904   1.338   3.572
 2519TIP3   OH2 7509   1.625   1.528   3.646
 2519TIP3    H1 7510   1.678   1.522   3.566
 2519TIP3    H2 7511   1.659   1.605   3.691
 2520TIP3   OH2 7512   3.559   1.555   3.803
 2520TIP3    H1 7513   3.476   1.595   3.828
 2520TIP3    H2 7514   3.534   1.481   3.748
 2521TIP3   OH2 7515   3.182   1.191   2.403
 2521TIP3    H1 7516   3.232   1.131   2.348
 2521TIP3    H2 7517   3.235   1.271   2.406
 2522TIP3   OH2 7518   1.625   1.048   3.158
 2522TIP3    H1 7519   1.538   1.039   3.199
 2522TIP3    H2 7520   1.610   1.104   3.082
 2523TIP3   OH2 7521   2.836   2.736   2.671
 2523TIP3    H1 7522   2.930   2.723   2.682
 2523TIP3    H2 7523   2.816   2.813   2.725
 2524TIP3   OH2 7524   1.832   1.086   3.967
 2524TIP3    H1 7525   1.781   1.081   4.048
 2524TIP3    H2 7526   1.778   1.140   3.909
 2525TIP3   OH2 7527   1.856   2.552   4.043
 2525TIP3    H1 7528   1.764   2.527   4.037
 2525TIP3    H2 7529   1.879   2.534   4.134
 2526TIP3   OH2 7530   2.076   2.594   3.598
 2526TIP3    H1 7531   2.025   2.668   3.566
 2526TIP3    H2 7532   2.161   2.603   3.555
 2527TIP3   OH2 7533   2.474   2.827   3.734
 2527TIP3    H1 7534   2.512   2.818   3.821
 2527TIP3    H2 7535   2.537   2.879   3.685
 2528TIP3   OH2 7536   2.665   2.980   3.606
 2528TIP3    H1 7537   2.731   2.930   3.558
 2528TIP3    H2 7538   2.716   3.038   3.663
 2529TIP3   OH2 7539   3.471   1.308   3.695
 2529TIP3    H1 7540   3.384   1.304   3.654
 2529TIP3    H2 7541   3.504   1.219   3.689
 2530TIP3   OH2 7542   1.736   2.834   3.644
 2530TIP3    H1 7543   1.644   2.851   3.624
 2530TIP3    H2 7544   1.759   2.899   3.710
 2531TIP3   OH2 7545   1.966   2.823   3.494
 2531TIP3    H1 7546   1.883   2.829   3.541
 2531TIP3    H2 7547   1.944   2.846   3.403
 2532TIP3   OH2 7548   2.380   2.844   3.285
 2532TIP3    H1 7549   2.309   2.856   3.222
 2532TIP3    H2 7550   2.392   2.930   3.324
 2533TIP3   OH2 7551   2.641   2.772   3.334
 2533TIP3    H1 7552   2.551   2.796   3.314
 2533TIP3    H2 7553   2.694   2.839   3.290
 2534TIP3   OH2 7554   2.838   2.943   3.235
 2534TIP3    H1 7555   2.846   3.032   3.201
 2534TIP3    H2 7556   2.872   2.887   3.165
 2535TIP3   OH2 7557   1.646   2.614   3.363
 2535TIP3    H1 7558   1.672   2.590   3.452
 2535TIP3    H2 7559   1.718   2.581   3.308
 2536TIP3   OH2 7560   1.849   2.499   3.223
 2536TIP3    H1 7561   1.861   2.414   3.266
 2536TIP3    H2 7562   1.936   2.539   3.227
 2537TIP3   OH2 7563   2.117   2.583   3.247
 2537TIP3    H1 7564   2.137   2.490   3.232
 2537TIP3    H2 7565   2.172   2.608   3.321
 2538TIP3   OH2 7566   2.677   1.232   3.333
 2538TIP3    H1 7567   2.637   1.161   3.383
 2538TIP3    H2 7568   2.745   1.189   3.282
 2539TIP3   OH2 7569   3.180   1.149   3.218
 2539TIP3    H1 7570   3.216   1.198   3.144
 2539TIP3    H2 7571   3.088   1.173   3.220
 2540TIP3   OH2 7572   3.295   1.226   2.981
 2540TIP3    H1 7573   3.363   1.165   2.954
 2540TIP3    H2 7574   3.334   1.312   2.968
 2541TIP3   OH2 7575   1.925   0.940   3.323
 2541TIP3    H1 7576   1.836   0.907   3.334
 2541TIP3    H2 7577   1.979   0.862   3.319
 2542TIP3   OH2 7578   1.698   0.841   2.980
 2542TIP3    H1 7579   1.753   0.885   2.914
 2542TIP3    H2 7580   1.688   0.906   3.050
 2543TIP3   OH2 7581   2.400   0.972   3.226
 2543TIP3    H1 7582   2.447   1.020   3.158
 2543TIP3    H2 7583   2.440   1.001   3.308
 2544TIP3   OH2 7584   2.890   1.113   3.202
 2544TIP3    H1 7585   2.906   1.078   3.115
 2544TIP3    H2 7586   2.898   1.038   3.261
 2545TIP3   OH2 7587   2.950   1.068   2.769
 2545TIP3    H1 7588   2.871   1.115   2.793
 2545TIP3    H2 7589   2.939   0.981   2.807
 2546TIP3   OH2 7590   1.402   2.391   2.752
 2546TIP3    H1 7591   1.320   2.358   2.716
 2546TIP3    H2 7592   1.401   2.484   2.730
 2547TIP3   OH2 7593   1.842   0.982   2.788
 2547TIP3    H1 7594   1.880   0.923   2.724
 2547TIP3    H2 7595   1.914   1.040   2.813
 2548TIP3   OH2 7596   2.333   1.168   2.846
 2548TIP3    H1 7597   2.392   1.116   2.900
 2548TIP3    H2 7598   2.348   1.259   2.874
 2549TIP3   OH2 7599   2.191   2.583   2.336
 2549TIP3    H1 7600   2.277   2.607   2.303
 2549TIP3    H2 7601   2.167   2.505   2.287
 2550TIP3   OH2 7602   2.925   2.677   2.408
 2550TIP3    H1 7603   2.873   2.684   2.489
 2550TIP3    H2 7604   2.873   2.725   2.343
 2551TIP3   OH2 7605   2.143   1.217   4.209
 2551TIP3    H1 7606   2.109   1.152   4.270
 2551TIP3    H2 7607   2.236   1.225   4.232
 2552TIP3   OH2 7608   2.393   1.222   4.327
 2552TIP3    H1 7609   2.471   1.200   4.275
 2552TIP3    H2 7610   2.386   1.151   4.391
 2553TIP3   OH2 7611   1.529   2.427   2.397
 2553TIP3    H1 7612   1.523   2.412   2.491
 2553TIP3    H2 7613   1.610   2.383   2.371
 2554TIP3   OH2 7614   3.214   1.313   4.121
 2554TIP3    H1 7615   3.232   1.284   4.210
 2554TIP3    H2 7616   3.299   1.308   4.077
 2555TIP3   OH2 7617   3.130   2.839   3.625
 2555TIP3    H1 7618   3.059   2.806   3.570
 2555TIP3    H2 7619   3.114   2.934   3.630
 2556TIP3   OH2 7620   4.412   2.233   2.365
 2556TIP3    H1 7621   4.377   2.319   2.343
 2556TIP3    H2 7622   4.343   2.172   2.342
 2557TIP3   OH2 7623   4.417   2.224   2.791
 2557TIP3    H1 7624   4.468   2.202   2.868
 2557TIP3    H2 7625   4.369   2.144   2.770
 2558TIP3   OH2 7626   3.706   2.085   3.135
 2558TIP3    H1 7627   3.746   2.033   3.205
 2558TIP3    H2 7628   3.780   2.111   3.080
 2559TIP3   OH2 7629   4.686   2.527   2.459
 2559TIP3    H1 7630   4.666   2.461   2.526
 2559TIP3    H2 7631   4.702   2.607   2.509
 2560TIP3   OH2 7632   3.718   2.515   2.851
 2560TIP3    H1 7633   3.693   2.423   2.843
 2560TIP3    H2 7634   3.809   2.518   2.823
 2561TIP3   OH2 7635   3.383   1.713   2.607
 2561TIP3    H1 7636   3.345   1.797   2.634
 2561TIP3    H2 7637   3.311   1.666   2.566
 2562TIP3   OH2 7638   3.462   2.030   2.829
 2562TIP3    H1 7639   3.514   1.954   2.854
 2562TIP3    H2 7640   3.527   2.096   2.803
 2563TIP3   OH2 7641   4.323   2.986   2.459
 2563TIP3    H1 7642   4.357   2.914   2.406
 2563TIP3    H2 7643   4.296   2.943   2.541
 2564TIP3   OH2 7644   4.217   2.444   2.791
 2564TIP3    H1 7645   4.262   2.366   2.760
 2564TIP3    H2 7646   4.287   2.500   2.824
 2565TIP3   OH2 7647   5.250   1.756   2.801
 2565TIP3    H1 7648   5.261   1.844   2.837
 2565TIP3    H2 7649   5.278   1.762   2.710
 2566TIP3   OH2 7650   4.627   1.930   2.830
 2566TIP3    H1 7651   4.662   1.845   2.856
 2566TIP3    H2 7652   4.589   1.914   2.743
 2567TIP3   OH2 7653   3.980   1.591   2.788
 2567TIP3    H1 7654   3.958   1.664   2.731
 2567TIP3    H2 7655   3.924   1.519   2.758
 2568TIP3   OH2 7656   4.673   1.693   2.421
 2568TIP3    H1 7657   4.736   1.689   2.493
 2568TIP3    H2 7658   4.723   1.725   2.347
 2569TIP3   OH2 7659   3.602   1.807   2.920
 2569TIP3    H1 7660   3.686   1.789   2.963
 2569TIP3    H2 7661   3.606   1.757   2.839
 2570TIP3   OH2 7662   4.023   2.006   2.737
 2570TIP3    H1 7663   4.117   1.991   2.741
 2570TIP3    H2 7664   3.987   1.925   2.701
 2571TIP3   OH2 7665   5.286   1.974   2.981
 2571TIP3    H1 7666   5.214   2.030   2.954
 2571TIP3    H2 7667   5.256   1.934   3.063
 2572TIP3   OH2 7668   3.958   1.597   3.242
 2572TIP3    H1 7669   3.908   1.631   3.168
 2572TIP3    H2 7670   3.902   1.613   3.318
 2573TIP3   OH2 7671   4.279   2.441   2.246
 2573TIP3    H1 7672   4.251   2.425   2.156
 2573TIP3    H2 7673   4.239   2.525   2.268
 2574TIP3   OH2 7674   4.052   2.371   3.001
 2574TIP3    H1 7675   3.999   2.442   3.037
 2574TIP3    H2 7676   4.099   2.410   2.928
 2575TIP3   OH2 7677   4.826   1.726   2.644
 2575TIP3    H1 7678   4.794   1.693   2.729
 2575TIP3    H2 7679   4.886   1.796   2.667
 2576TIP3   OH2 7680   3.850   1.702   3.009
 2576TIP3    H1 7681   3.905   1.777   3.032
 2576TIP3    H2 7682   3.897   1.660   2.937
 2577TIP3   OH2 7683   3.903   2.573   3.114
 2577TIP3    H1 7684   3.882   2.660   3.079
 2577TIP3    H2 7685   3.828   2.550   3.167
 2578TIP3   OH2 7686   3.263   2.253   2.374
 2578TIP3    H1 7687   3.239   2.257   2.282
 2578TIP3    H2 7688   3.257   2.343   2.405
 2579TIP3   OH2 7689   4.724   2.771   2.603
 2579TIP3    H1 7690   4.640   2.763   2.649
 2579TIP3    H2 7691   4.718   2.856   2.558
 2580TIP3   OH2 7692   5.040   1.662   2.973
 2580TIP3    H1 7693   4.955   1.670   2.930
 2580TIP3    H2 7694   5.104   1.680   2.904
 2581TIP3   OH2 7695   4.302   1.287   2.975
 2581TIP3    H1 7696   4.293   1.195   3.000
 2581TIP3    H2 7697   4.224   1.330   3.013
 2582TIP3   OH2 7698   4.427   2.815   2.265
 2582TIP3    H1 7699   4.476   2.734   2.253
 2582TIP3    H2 7700   4.483   2.883   2.228
 2583TIP3   OH2 7701   4.581   2.596   2.210
 2583TIP3    H1 7702   4.578   2.520   2.153
 2583TIP3    H2 7703   4.617   2.563   2.292
 2584TIP3   OH2 7704   4.956   2.656   2.949
 2584TIP3    H1 7705   4.932   2.586   2.889
 2584TIP3    H2 7706   4.938   2.737   2.900
 2585TIP3   OH2 7707   4.238   2.069   2.220
 2585TIP3    H1 7708   4.158   2.118   2.204
 2585TIP3    H2 7709   4.283   2.069   2.135
 2586TIP3   OH2 7710   4.206   1.878   1.911
 2586TIP3    H1 7711   4.271   1.928   1.960
 2586TIP3    H2 7712   4.256   1.809   1.867
 2587TIP3   OH2 7713   5.140   2.353   2.820
 2587TIP3    H1 7714   5.052   2.391   2.811
 2587TIP3    H2 7715   5.178   2.362   2.733
 2588TIP3   OH2 7716   4.595   2.161   2.176
 2588TIP3    H1 7717   4.540   2.188   2.249
 2588TIP3    H2 7718   4.677   2.132   2.217
 2589TIP3   OH2 7719   4.826   2.194   3.121
 2589TIP3    H1 7720   4.814   2.275   3.172
 2589TIP3    H2 7721   4.744   2.185   3.071
 2590TIP3   OH2 7722   3.824   2.140   2.583
 2590TIP3    H1 7723   3.788   2.079   2.518
 2590TIP3    H2 7724   3.897   2.092   2.622
 2591TIP3   OH2 7725   3.969   2.564   2.722
 2591TIP3    H1 7726   3.943   2.550   2.631
 2591TIP3    H2 7727   4.055   2.524   2.729
 2592TIP3   OH2 7728   3.921   2.134   2.960
 2592TIP3    H1 7729   3.959   2.097   2.880
 2592TIP3    H2 7730   3.968   2.216   2.974
 2593TIP3   OH2 7731   4.499   2.770   2.750
 2593TIP3    H1 7732   4.470   2.851   2.794
 2593TIP3    H2 7733   4.472   2.700   2.809
 2594TIP3   OH2 7734   4.093   2.673   3.285
 2594TIP3    H1 7735   4.032   2.730   3.330
 2594TIP3    H2 7736   4.039   2.623   3.224
 2595TIP3   OH2 7737   4.427   2.019   2.010
 2595TIP3    H1 7738   4.487   2.078   2.057
 2595TIP3    H2 7739   4.457   2.022   1.919
 2596TIP3   OH2 7740   3.847   2.210   3.433
 2596TIP3    H1 7741   3.852   2.304   3.451
 2596TIP3    H2 7742   3.753   2.193   3.423
 2597TIP3   OH2 7743   4.175   2.699   2.273
 2597TIP3    H1 7744   4.259   2.745   2.276
 2597TIP3    H2 7745   4.116   2.758   2.226
 2598TIP3   OH2 7746   3.883   2.831   3.371
 2598TIP3    H1 7747   3.859   2.841   3.279
 2598TIP3    H2 7748   3.801   2.813   3.417
 2599TIP3   OH2 7749   4.876   1.242   2.021
 2599TIP3    H1 7750   4.837   1.267   2.105
 2599TIP3    H2 7751   4.913   1.322   1.986
 2600TIP3   OH2 7752   3.700   1.979   2.384
 2600TIP3    H1 7753   3.624   2.028   2.353
 2600TIP3    H2 7754   3.668   1.890   2.399
 2601TIP3   OH2 7755   4.771   2.619   1.626
 2601TIP3    H1 7756   4.761   2.709   1.594
 2601TIP3    H2 7757   4.856   2.591   1.592
 2602TIP3   OH2 7758   3.476   2.385   3.318
 2602TIP3    H1 7759   3.407   2.371   3.253
 2602TIP3    H2 7760   3.509   2.297   3.336
 2603TIP3   OH2 7761   5.179   3.044   3.012
 2603TIP3    H1 7762   5.184   2.949   3.016
 2603TIP3    H2 7763   5.099   3.066   3.061
 2604TIP3   OH2 7764   4.286   2.814   3.149
 2604TIP3    H1 7765   4.275   2.905   3.175
 2604TIP3    H2 7766   4.216   2.767   3.195
 2605TIP3   OH2 7767   4.048   2.908   2.113
 2605TIP3    H1 7768   3.998   2.884   2.036
 2605TIP3    H2 7769   4.008   2.989   2.144
 2606TIP3   OH2 7770   3.486   2.783   2.494
 2606TIP3    H1 7771   3.557   2.774   2.558
 2606TIP3    H2 7772   3.412   2.738   2.534
 2607TIP3   OH2 7773   4.304   2.922   2.015
 2607TIP3    H1 7774   4.215   2.911   2.050
 2607TIP3    H2 7775   4.354   2.853   2.059
 2608TIP3   OH2 7776   5.062   2.145   3.285
 2608TIP3    H1 7777   4.983   2.154   3.232
 2608TIP3    H2 7778   5.079   2.051   3.287
 2609TIP3   OH2 7779   3.696   2.552   3.290
 2609TIP3    H1 7780   3.740   2.537   3.374
 2609TIP3    H2 7781   3.616   2.500   3.296
 2610TIP3   OH2 7782   4.063   1.380   3.098
 2610TIP3    H1 7783   3.980   1.346   3.065
 2610TIP3    H2 7784   4.040   1.461   3.144
 2611TIP3   OH2 7785   4.601   1.505   3.298
 2611TIP3    H1 7786   4.670   1.478   3.358
 2611TIP3    H2 7787   4.520   1.487   3.345
 2612TIP3   OH2 7788   4.840   1.932   3.226
 2612TIP3    H1 7789   4.793   1.925   3.309
 2612TIP3    H2 7790   4.812   2.016   3.189
 2613TIP3   OH2 7791   4.510   1.992   1.748
 2613TIP3    H1 7792   4.460   1.999   1.667
 2613TIP3    H2 7793   4.589   2.043   1.732
 2614TIP3   OH2 7794   4.213   1.422   2.068
 2614TIP3    H1 7795   4.176   1.428   2.157
 2614TIP3    H2 7796   4.178   1.340   2.034
 2615TIP3   OH2 7797   4.002   1.913   3.108
 2615TIP3    H1 7798   3.956   1.919   3.191
 2615TIP3    H2 7799   3.980   1.994   3.062
 2616TIP3   OH2 7800   3.883   1.792   2.629
 2616TIP3    H1 7801   3.793   1.769   2.654
 2616TIP3    H2 7802   3.892   1.760   2.539
 2617TIP3   OH2 7803   4.362   1.865   2.356
 2617TIP3    H1 7804   4.314   1.937   2.315
 2617TIP3    H2 7805   4.419   1.832   2.287
 2618TIP3   OH2 7806   4.544   2.132   3.429
 2618TIP3    H1 7807   4.517   2.064   3.490
 2618TIP3    H2 7808   4.636   2.148   3.450
 2619TIP3   OH2 7809   4.531   1.880   2.578
 2619TIP3    H1 7810   4.462   1.900   2.515
 2619TIP3    H2 7811   4.578   1.806   2.539
 2620TIP3   OH2 7812   3.840   1.929   3.329
 2620TIP3    H1 7813   3.845   1.995   3.398
 2620TIP3    H2 7814   3.821   1.848   3.375
 2621TIP3   OH2 7815   3.880   1.399   2.046
 2621TIP3    H1 7816   3.870   1.405   2.141
 2621TIP3    H2 7817   3.803   1.445   2.011
 2622TIP3   OH2 7818   3.429   1.447   2.909
 2622TIP3    H1 7819   3.500   1.484   2.962
 2622TIP3    H2 7820   3.468   1.435   2.823
 2623TIP3   OH2 7821   3.332   1.425   2.410
 2623TIP3    H1 7822   3.376   1.461   2.334
 2623TIP3    H2 7823   3.269   1.493   2.435
 2624TIP3   OH2 7824   4.579   2.131   3.003
 2624TIP3    H1 7825   4.602   2.064   2.939
 2624TIP3    H2 7826   4.532   2.084   3.072
 2625TIP3   OH2 7827   4.249   1.580   2.680
 2625TIP3    H1 7828   4.170   1.579   2.735
 2625TIP3    H2 7829   4.322   1.573   2.743
 2626TIP3   OH2 7830   3.643   1.667   2.688
 2626TIP3    H1 7831   3.555   1.672   2.650
 2626TIP3    H2 7832   3.672   1.578   2.671
 2627TIP3   OH2 7833   3.896   1.669   2.384
 2627TIP3    H1 7834   3.991   1.679   2.373
 2627TIP3    H2 7835   3.860   1.687   2.297
 2628TIP3   OH2 7836   4.703   1.670   2.895
 2628TIP3    H1 7837   4.682   1.690   2.986
 2628TIP3    H2 7838   4.635   1.608   2.867
 2629TIP3   OH2 7839   3.784   1.693   2.136
 2629TIP3    H1 7840   3.721   1.644   2.084
 2629TIP3    H2 7841   3.837   1.740   2.073
 2630TIP3   OH2 7842   4.886   3.374   3.104
 2630TIP3    H1 7843   4.879   3.389   3.009
 2630TIP3    H2 7844   4.966   3.420   3.129
 2631TIP3   OH2 7845   3.836   2.474   3.528
 2631TIP3    H1 7846   3.915   2.499   3.576
 2631TIP3    H2 7847   3.765   2.489   3.591
 2632TIP3   OH2 7848   4.297   1.955   2.785
 2632TIP3    H1 7849   4.362   1.904   2.736
 2632TIP3    H2 7850   4.294   1.914   2.871
 2633TIP3   OH2 7851   3.785   1.419   2.673
 2633TIP3    H1 7852   3.757   1.343   2.724
 2633TIP3    H2 7853   3.805   1.383   2.586
 2634TIP3   OH2 7854   4.267   1.856   3.048
 2634TIP3    H1 7855   4.180   1.887   3.072
 2634TIP3    H2 7856   4.327   1.909   3.102
 2635TIP3   OH2 7857   4.009   2.216   2.165
 2635TIP3    H1 7858   3.935   2.160   2.142
 2635TIP3    H2 7859   3.980   2.260   2.246
 2636TIP3   OH2 7860   4.893   2.463   2.764
 2636TIP3    H1 7861   4.922   2.515   2.688
 2636TIP3    H2 7862   4.814   2.419   2.734
 2637TIP3   OH2 7863   4.466   1.525   2.069
 2637TIP3    H1 7864   4.372   1.503   2.066
 2637TIP3    H2 7865   4.467   1.619   2.083
 2638TIP3   OH2 7866   4.413   2.551   3.183
 2638TIP3    H1 7867   4.455   2.541   3.269
 2638TIP3    H2 7868   4.368   2.635   3.188
 2639TIP3   OH2 7869   4.524   1.789   2.139
 2639TIP3    H1 7870   4.619   1.792   2.147
 2639TIP3    H2 7871   4.501   1.866   2.087
 2640TIP3   OH2 7872   3.691   2.221   2.812
 2640TIP3    H1 7873   3.728   2.207   2.725
 2640TIP3    H2 7874   3.759   2.192   2.873
 2641TIP3   OH2 7875   4.161   2.369   1.993
 2641TIP3    H1 7876   4.114   2.452   1.992
 2641TIP3    H2 7877   4.109   2.312   2.050
 2642TIP3   OH2 7878   3.573   2.147   3.446
 2642TIP3    H1 7879   3.571   2.121   3.538
 2642TIP3    H2 7880   3.498   2.103   3.407
 2643TIP3   OH2 7881   4.315   2.290   3.470
 2643TIP3    H1 7882   4.244   2.231   3.443
 2643TIP3    H2 7883   4.394   2.246   3.439
 2644TIP3   OH2 7884   4.557   2.835   3.073
 2644TIP3    H1 7885   4.462   2.820   3.075
 2644TIP3    H2 7886   4.578   2.870   3.159
 2645TIP3   OH2 7887   4.941   1.878   1.951
 2645TIP3    H1 7888   4.885   1.831   1.890
 2645TIP3    H2 7889   4.945   1.967   1.916
 2646TIP3   OH2 7890   5.203   2.767   3.015
 2646TIP3    H1 7891   5.112   2.738   3.020
 2646TIP3    H2 7892   5.234   2.732   2.931
 2647TIP3   OH2 7893   4.722   2.692   1.893
 2647TIP3    H1 7894   4.673   2.626   1.943
 2647TIP3    H2 7895   4.727   2.656   1.804
 2648TIP3   OH2 7896   4.665   2.325   2.667
 2648TIP3    H1 7897   4.575   2.304   2.692
 2648TIP3    H2 7898   4.699   2.245   2.628
 2649TIP3   OH2 7899   3.810   2.574   2.487
 2649TIP3    H1 7900   3.800   2.636   2.415
 2649TIP3    H2 7901   3.751   2.606   2.555
 2650TIP3   OH2 7902   3.377   1.849   2.188
 2650TIP3    H1 7903   3.421   1.932   2.208
 2650TIP3    H2 7904   3.297   1.851   2.240
 2651TIP3   OH2 7905   3.892   2.329   2.385
 2651TIP3    H1 7906   3.869   2.416   2.417
 2651TIP3    H2 7907   3.869   2.270   2.457
 2652TIP3   OH2 7908   4.102   2.890   2.943
 2652TIP3    H1 7909   4.137   2.963   2.892
 2652TIP3    H2 7910   4.178   2.857   2.992
 2653TIP3   OH2 7911   3.710   2.784   2.327
 2653TIP3    H1 7912   3.625   2.787   2.371
 2653TIP3    H2 7913   3.746   2.871   2.339
 2654TIP3   OH2 7914   4.448   2.547   2.910
 2654TIP3    H1 7915   4.438   2.544   3.005
 2654TIP3    H2 7916   4.516   2.482   2.891
 2655TIP3   OH2 7917   4.424   2.404   1.813
 2655TIP3    H1 7918   4.487   2.402   1.885
 2655TIP3    H2 7919   4.339   2.394   1.854
 2656TIP3   OH2 7920   4.709   3.042   2.949
 2656TIP3    H1 7921   4.638   2.981   2.971
 2656TIP3    H2 7922   4.673   3.097   2.879
 2657TIP3   OH2 7923   4.779   2.895   1.556
 2657TIP3    H1 7924   4.782   2.970   1.496
 2657TIP3    H2 7925   4.687   2.887   1.580
 2658TIP3   OH2 7926   3.784   1.675   3.447
 2658TIP3    H1 7927   3.689   1.685   3.451
 2658TIP3    H2 7928   3.806   1.621   3.523
 2659TIP3   OH2 7929   4.620   2.385   2.015
 2659TIP3    H1 7930   4.602   2.308   2.069
 2659TIP3    H2 7931   4.712   2.377   1.991
 2660TIP3   OH2 7932   3.536   2.772   3.071
 2660TIP3    H1 7933   3.580   2.691   3.097
 2660TIP3    H2 7934   3.562   2.836   3.138
 2661TIP3   OH2 7935   3.804   2.401   1.790
 2661TIP3    H1 7936   3.817   2.310   1.763
 2661TIP3    H2 7937   3.790   2.396   1.884
 2662TIP3   OH2 7938   3.747   2.414   2.063
 2662TIP3    H1 7939   3.806   2.388   2.134
 2662TIP3    H2 7940   3.745   2.509   2.066
 2663TIP3   OH2 7941   3.475   2.099   2.274
 2663TIP3    H1 7942   3.409   2.141   2.327
 2663TIP3    H2 7943   3.493   2.160   2.203
 2664TIP3   OH2 7944   4.641   1.739   3.157
 2664TIP3    H1 7945   4.720   1.777   3.194
 2664TIP3    H2 7946   4.626   1.659   3.208
 2665TIP3   OH2 7947   4.524   1.473   2.337
 2665TIP3    H1 7948   4.504   1.489   2.245
 2665TIP3    H2 7949   4.568   1.553   2.367
 2666TIP3   OH2 7950   4.016   2.598   1.999
 2666TIP3    H1 7951   3.932   2.619   2.038
 2666TIP3    H2 7952   4.036   2.673   1.942
 2667TIP3   OH2 7953   4.176   1.674   2.428
 2667TIP3    H1 7954   4.238   1.742   2.402
 2667TIP3    H2 7955   4.200   1.654   2.519
 2668TIP3   OH2 7956   4.475   1.969   3.199
 2668TIP3    H1 7957   4.497   2.010   3.283
 2668TIP3    H2 7958   4.525   1.888   3.199
 2669TIP3   OH2 7959   4.340   1.370   2.515
 2669TIP3    H1 7960   4.317   1.447   2.566
 2669TIP3    H2 7961   4.408   1.400   2.455
 2670TIP3   OH2 7962   3.767   2.686   2.079
 2670TIP3    H1 7963   3.747   2.758   2.018
 2670TIP3    H2 7964   3.745   2.721   2.165
 2671TIP3   OH2 7965   3.852   1.396   2.325
 2671TIP3    H1 7966   3.840   1.487   2.352
 2671TIP3    H2 7967   3.946   1.381   2.331
 2672TIP3   OH2 7968   5.094   1.859   3.166
 2672TIP3    H1 7969   5.004   1.881   3.191
 2672TIP3    H2 7970   5.085   1.788   3.102
 2673TIP3   OH2 7971   4.754   2.068   2.577
 2673TIP3    H1 7972   4.677   2.012   2.586
 2673TIP3    H2 7973   4.821   2.027   2.632
 2674TIP3   OH2 7974   3.501   2.282   2.063
 2674TIP3    H1 7975   3.571   2.347   2.068
 2674TIP3    H2 7976   3.531   2.219   1.998
 2675TIP3   OH2 7977   3.401   1.571   2.190
 2675TIP3    H1 7978   3.413   1.666   2.197
 2675TIP3    H2 7979   3.346   1.559   2.112
 2676TIP3   OH2 7980   4.734   3.039   2.526
 2676TIP3    H1 7981   4.689   3.095   2.462
 2676TIP3    H2 7982   4.827   3.056   2.511
 2677TIP3   OH2 7983   3.802   1.294   3.058
 2677TIP3    H1 7984   3.772   1.262   2.973
 2677TIP3    H2 7985   3.793   1.219   3.116
 2678TIP3   OH2 7986   3.220   2.540   2.377
 2678TIP3    H1 7987   3.229   2.565   2.469
 2678TIP3    H2 7988   3.304   2.564   2.338
 2679TIP3   OH2 7989   3.534   3.083   3.512
 2679TIP3    H1 7990   3.614   3.084   3.564
 2679TIP3    H2 7991   3.516   2.990   3.497
 2680TIP3   OH2 7992   3.998   2.988   3.566
 2680TIP3    H1 7993   4.088   2.954   3.569
 2680TIP3    H2 7994   3.957   2.939   3.495
 2681TIP3   OH2 7995   3.971   2.594   1.677
 2681TIP3    H1 7996   3.920   2.528   1.724
 2681TIP3    H2 7997   4.045   2.547   1.641
 2682TIP3   OH2 7998   4.612   2.932   3.324
 2682TIP3    H1 7999   4.628   2.862   3.387
 2682TIP3    H2 8000   4.684   2.993   3.335
 2683TIP3   OH2 8001   3.626   2.486   3.712
 2683TIP3    H1 8002   3.641   2.392   3.724
 2683TIP3    H2 8003   3.540   2.492   3.669
 2684TIP3   OH2 8004   3.629   2.093   1.914
 2684TIP3    H1 8005   3.683   2.072   1.991
 2684TIP3    H2 8006   3.692   2.108   1.844
 2685TIP3   OH2 8007   4.248   2.564   3.486
 2685TIP3    H1 8008   4.200   2.586   3.405
 2685TIP3    H2 8009   4.280   2.475   3.471
 2686TIP3   OH2 8010   4.123   2.304   1.724
 2686TIP3    H1 8011   4.127   2.316   1.819
 2686TIP3    H2 8012   4.127   2.209   1.712
 2687TIP3   OH2 8013   4.730   2.612   3.109
 2687TIP3    H1 8014   4.804   2.639   3.054
 2687TIP3    H2 8015   4.662   2.677   3.091
 2688TIP3   OH2 8016   3.740   2.229   3.721
 2688TIP3    H1 8017   3.813   2.214   3.661
 2688TIP3    H2 8018   3.782   2.250   3.804
 2689TIP3   OH2 8019   3.804   2.034   2.123
 2689TIP3    H1 8020   3.779   2.003   2.210
 2689TIP3    H2 8021   3.848   1.960   2.083
 2690TIP3   OH2 8022   4.110   2.117   3.378
 2690TIP3    H1 8023   4.021   2.152   3.387
 2690TIP3    H2 8024   4.137   2.144   3.290
 2691TIP3   OH2 8025   3.935   1.846   1.967
 2691TIP3    H1 8026   3.904   1.853   1.877
 2691TIP3    H2 8027   4.030   1.854   1.959
 2692TIP3   OH2 8028   4.609   2.487   3.460
 2692TIP3    H1 8029   4.674   2.446   3.404
 2692TIP3    H2 8030   4.603   2.430   3.536
 2693TIP3   OH2 8031   4.718   2.144   1.642
 2693TIP3    H1 8032   4.707   2.107   1.554
 2693TIP3    H2 8033   4.686   2.234   1.634
 2694TIP3   OH2 8034   4.210   1.882   3.480
 2694TIP3    H1 8035   4.210   1.812   3.415
 2694TIP3    H2 8036   4.175   1.958   3.433
 2695TIP3   OH2 8037   4.217   1.683   3.277
 2695TIP3    H1 8038   4.243   1.719   3.192
 2695TIP3    H2 8039   4.126   1.655   3.264
 2696TIP3   OH2 8040   4.219   2.209   3.147
 2696TIP3    H1 8041   4.307   2.242   3.131
 2696TIP3    H2 8042   4.162   2.268   3.096
 2697TIP3   OH2 8043   4.812   2.164   3.527
 2697TIP3    H1 8044   4.840   2.072   3.532
 2697TIP3    H2 8045   4.891   2.212   3.506
 2698TIP3   OH2 8046   4.841   2.433   3.278
 2698TIP3    H1 8047   4.789   2.496   3.228
 2698TIP3    H2 8048   4.929   2.442   3.242
 2699TIP3   OH2 8049   4.096   1.962   3.726
 2699TIP3    H1 8050   4.025   1.901   3.745
 2699TIP3    H2 8051   4.122   1.940   3.636
 2700TIP3   OH2 8052   4.338   1.452   3.380
 2700TIP3    H1 8053   4.297   1.532   3.347
 2700TIP3    H2 8054   4.272   1.384   3.367
 2701TIP3   OH2 8055   4.464   1.919   3.583
 2701TIP3    H1 8056   4.452   1.906   3.677
 2701TIP3    H2 8057   4.379   1.899   3.545
 2702TIP3   OH2 8058   4.714   1.883   3.460
 2702TIP3    H1 8059   4.633   1.878   3.510
 2702TIP3    H2 8060   4.782   1.849   3.519
 2703TIP3   OH2 8061   4.953   1.842   3.604
 2703TIP3    H1 8062   4.965   1.747   3.610
 2703TIP3    H2 8063   4.948   1.872   3.695
 2704TIP3   OH2 8064   3.924   1.745   3.787
 2704TIP3    H1 8065   3.930   1.656   3.751
 2704TIP3    H2 8066   3.964   1.737   3.874
 2705TIP3   OH2 8067   4.405   1.427   3.646
 2705TIP3    H1 8068   4.472   1.360   3.639
 2705TIP3    H2 8069   4.374   1.439   3.556
 2706TIP3   OH2 8070   4.502   1.641   3.790
 2706TIP3    H1 8071   4.471   1.569   3.736
 2706TIP3    H2 8072   4.430   1.703   3.791
 2707TIP3   OH2 8073   3.773   2.901   1.901
 2707TIP3    H1 8074   3.858   2.875   1.865
 2707TIP3    H2 8075   3.726   2.939   1.827
 2708TIP3   OH2 8076   3.228   2.265   2.106
 2708TIP3    H1 8077   3.318   2.285   2.080
 2708TIP3    H2 8078   3.204   2.188   2.055
 2709TIP3   OH2 8079   3.099   2.877   2.525
 2709TIP3    H1 8080   3.052   2.819   2.465
 2709TIP3    H2 8081   3.152   2.818   2.579
 2710TIP3   OH2 8082   5.000   3.105   2.513
 2710TIP3    H1 8083   5.016   3.122   2.605
 2710TIP3    H2 8084   5.042   3.178   2.467
 2711TIP3   OH2 8085   5.014   3.126   2.791
 2711TIP3    H1 8086   4.968   3.042   2.791
 2711TIP3    H2 8087   5.085   3.116   2.854
 2712TIP3   OH2 8088   5.090   2.834   3.360
 2712TIP3    H1 8089   5.016   2.840   3.420
 2712TIP3    H2 8090   5.132   2.920   3.367
 2713TIP3   OH2 8091   4.894   2.345   1.976
 2713TIP3    H1 8092   4.952   2.414   1.944
 2713TIP3    H2 8093   4.940   2.306   2.050
 2714TIP3   OH2 8094   5.020   2.202   2.179
 2714TIP3    H1 8095   4.950   2.159   2.228
 2714TIP3    H2 8096   5.081   2.232   2.246
 2715TIP3   OH2 8097   5.064   2.613   2.596
 2715TIP3    H1 8098   5.115   2.546   2.551
 2715TIP3    H2 8099   5.057   2.685   2.533
 2716TIP3   OH2 8100   4.883   2.881   2.805
 2716TIP3    H1 8101   4.813   2.925   2.854
 2716TIP3    H2 8102   4.838   2.840   2.731
 2717TIP3   OH2 8103   4.930   2.121   1.817
 2717TIP3    H1 8104   4.858   2.121   1.753
 2717TIP3    H2 8105   4.913   2.198   1.872
 2718TIP3   OH2 8106   4.788   1.761   1.757
 2718TIP3    H1 8107   4.736   1.795   1.684
 2718TIP3    H2 8108   4.784   1.666   1.748
 2719TIP3   OH2 8109   4.820   2.057   2.307
 2719TIP3    H1 8110   4.824   1.963   2.291
 2719TIP3    H2 8111   4.801   2.065   2.400
 2720TIP3   OH2 8112   3.442   2.120   3.086
 2720TIP3    H1 8113   3.433   2.092   2.995
 2720TIP3    H2 8114   3.536   2.119   3.102
 2721TIP3   OH2 8115   5.090   2.471   3.163
 2721TIP3    H1 8116   5.157   2.405   3.145
 2721TIP3    H2 8117   5.074   2.512   3.077
 2722TIP3   OH2 8118   5.288   2.263   3.188
 2722TIP3    H1 8119   5.209   2.221   3.222
 2722TIP3    H2 8120   5.359   2.207   3.217
 2723TIP3   OH2 8121   4.755   1.488   1.727
 2723TIP3    H1 8122   4.819   1.466   1.794
 2723TIP3    H2 8123   4.672   1.452   1.760
 2724TIP3   OH2 8124   4.818   1.785   2.193
 2724TIP3    H1 8125   4.864   1.703   2.208
 2724TIP3    H2 8126   4.859   1.822   2.115
 2725TIP3   OH2 8127   4.971   1.952   2.720
 2725TIP3    H1 8128   5.053   1.966   2.672
 2725TIP3    H2 8129   4.985   1.996   2.804
 2726TIP3   OH2 8130   5.046   2.117   2.937
 2726TIP3    H1 8131   4.972   2.143   2.992
 2726TIP3    H2 8132   5.076   2.199   2.898
 2727TIP3   OH2 8133   3.660   1.802   3.726
 2727TIP3    H1 8134   3.754   1.799   3.744
 2727TIP3    H2 8135   3.626   1.721   3.764
 2728TIP3   OH2 8136   5.502   1.704   3.479
 2728TIP3    H1 8137   5.567   1.644   3.442
 2728TIP3    H2 8138   5.470   1.754   3.404
 2729TIP3   OH2 8139   4.937   1.539   2.248
 2729TIP3    H1 8140   4.979   1.520   2.332
 2729TIP3    H2 8141   4.875   1.467   2.236
 2730TIP3   OH2 8142   3.639   1.519   3.078
 2730TIP3    H1 8143   3.693   1.440   3.082
 2730TIP3    H2 8144   3.702   1.589   3.058
 2731TIP3   OH2 8145   3.416   1.784   3.133
 2731TIP3    H1 8146   3.469   1.773   3.054
 2731TIP3    H2 8147   3.437   1.872   3.165
 2732TIP3   OH2 8148   5.359   1.828   3.280
 2732TIP3    H1 8149   5.282   1.862   3.324
 2732TIP3    H2 8150   5.328   1.753   3.229
 2733TIP3   OH2 8151   4.983   1.455   1.883
 2733TIP3    H1 8152   5.032   1.392   1.830
 2733TIP3    H2 8153   5.041   1.530   1.891
 2734TIP3   OH2 8154   3.406   1.290   2.636
 2734TIP3    H1 8155   3.321   1.279   2.678
 2734TIP3    H2 8156   3.388   1.345   2.560
 2735TIP3   OH2 8157   4.585   3.006   2.143
 2735TIP3    H1 8158   4.600   2.988   2.050
 2735TIP3    H2 8159   4.673   3.017   2.179
 2736TIP3   OH2 8160   3.632   1.347   3.463
 2736TIP3    H1 8161   3.581   1.340   3.543
 2736TIP3    H2 8162   3.577   1.396   3.403
 2737TIP3   OH2 8163   3.660   2.800   3.539
 2737TIP3    H1 8164   3.567   2.784   3.525
 2737TIP3    H2 8165   3.672   2.790   3.634
 2738TIP3   OH2 8166   3.871   2.852   3.089
 2738TIP3    H1 8167   3.817   2.923   3.054
 2738TIP3    H2 8168   3.956   2.862   3.046
 2739TIP3   OH2 8169   4.265   3.081   3.223
 2739TIP3    H1 8170   4.304   3.073   3.310
 2739TIP3    H2 8171   4.327   3.137   3.175
 2740TIP3   OH2 8172   4.454   3.240   3.100
 2740TIP3    H1 8173   4.515   3.192   3.044
 2740TIP3    H2 8174   4.511   3.298   3.152
 2741TIP3   OH2 8175   5.267   1.563   3.185
 2741TIP3    H1 8176   5.178   1.550   3.150
 2741TIP3    H2 8177   5.307   1.477   3.179
 2742TIP3   OH2 8178   3.546   3.127   3.123
 2742TIP3    H1 8179   3.453   3.132   3.105
 2742TIP3    H2 8180   3.561   3.189   3.194
 2743TIP3   OH2 8181   3.771   3.083   2.977
 2743TIP3    H1 8182   3.690   3.095   3.027
 2743TIP3    H2 8183   3.746   3.102   2.887
 2744TIP3   OH2 8184   4.176   3.098   2.771
 2744TIP3    H1 8185   4.101   3.107   2.713
 2744TIP3    H2 8186   4.185   3.184   2.812
 2745TIP3   OH2 8187   4.438   3.033   2.827
 2745TIP3    H1 8188   4.347   3.052   2.806
 2745TIP3    H2 8189   4.488   3.099   2.778
 2746TIP3   OH2 8190   4.641   3.204   2.727
 2746TIP3    H1 8191   4.635   3.290   2.685
 2746TIP3    H2 8192   4.670   3.145   2.658
 2747TIP3   OH2 8193   3.405   2.868   2.844
 2747TIP3    H1 8194   3.456   2.828   2.915
 2747TIP3    H2 8195   3.372   2.793   2.794
 2748TIP3   OH2 8196   3.676   2.729   2.680
 2748TIP3    H1 8197   3.664   2.666   2.751
 2748TIP3    H2 8198   3.745   2.788   2.712
 2749TIP3   OH2 8199   3.928   2.844   2.733
 2749TIP3    H1 8200   3.943   2.751   2.717
 2749TIP3    H2 8201   3.977   2.863   2.813
 2750TIP3   OH2 8202   4.480   1.492   2.823
 2750TIP3    H1 8203   4.440   1.419   2.870
 2750TIP3    H2 8204   4.547   1.451   2.768
 2751TIP3   OH2 8205   4.971   1.418   2.730
 2751TIP3    H1 8206   5.008   1.443   2.645
 2751TIP3    H2 8207   4.876   1.419   2.716
 2752TIP3   OH2 8208   5.080   1.467   2.478
 2752TIP3    H1 8209   5.150   1.412   2.443
 2752TIP3    H2 8210   5.114   1.557   2.473
 2753TIP3   OH2 8211   3.713   1.191   2.817
 2753TIP3    H1 8212   3.624   1.158   2.826
 2753TIP3    H2 8213   3.767   1.113   2.808
 2754TIP3   OH2 8214   3.535   1.096   2.471
 2754TIP3    H1 8215   3.562   1.145   2.393
 2754TIP3    H2 8216   3.497   1.163   2.529
 2755TIP3   OH2 8217   4.193   1.231   2.714
 2755TIP3    H1 8218   4.242   1.276   2.645
 2755TIP3    H2 8219   4.235   1.258   2.796
 2756TIP3   OH2 8220   4.690   1.374   2.686
 2756TIP3    H1 8221   4.693   1.340   2.597
 2756TIP3    H2 8222   4.694   1.296   2.742
 2757TIP3   OH2 8223   4.754   1.332   2.256
 2757TIP3    H1 8224   4.671   1.373   2.281
 2757TIP3    H2 8225   4.748   1.243   2.291
 2758TIP3   OH2 8226   3.646   1.225   2.238
 2758TIP3    H1 8227   3.692   1.164   2.179
 2758TIP3    H2 8228   3.714   1.282   2.272
 2759TIP3   OH2 8229   4.127   1.422   2.332
 2759TIP3    H1 8230   4.186   1.369   2.385
 2759TIP3    H2 8231   4.142   1.512   2.360
 2760TIP3   OH2 8232   4.025   2.819   1.825
 2760TIP3    H1 8233   4.105   2.859   1.791
 2760TIP3    H2 8234   4.005   2.750   1.762
 2761TIP3   OH2 8235   4.669   2.959   1.881
 2761TIP3    H1 8236   4.690   2.866   1.886
 2761TIP3    H2 8237   4.607   2.966   1.808
 2762TIP3   OH2 8238   3.941   1.474   3.701
 2762TIP3    H1 8239   3.906   1.406   3.759
 2762TIP3    H2 8240   4.033   1.482   3.725
 2763TIP3   OH2 8241   4.189   1.480   3.823
 2763TIP3    H1 8242   4.266   1.457   3.771
 2763TIP3    H2 8243   4.181   1.410   3.888
 2764TIP3   OH2 8244   3.367   2.714   1.879
 2764TIP3    H1 8245   3.334   2.687   1.965
 2764TIP3    H2 8246   3.433   2.648   1.857
 2765TIP3   OH2 8247   5.011   1.570   3.607
 2765TIP3    H1 8248   5.028   1.541   3.697
 2765TIP3    H2 8249   5.097   1.564   3.564
 2766TIP3   OH2 8250   4.927   3.101   3.113
 2766TIP3    H1 8251   4.854   3.068   3.061
 2766TIP3    H2 8252   4.911   3.195   3.119
 2767TIP3   OH2 8253   6.205   2.482   1.865
 2767TIP3    H1 8254   6.172   2.568   1.840
 2767TIP3    H2 8255   6.135   2.421   1.842
 2768TIP3   OH2 8256   6.178   2.477   2.277
 2768TIP3    H1 8257   6.235   2.463   2.352
 2768TIP3    H2 8258   6.144   2.390   2.255
 2769TIP3   OH2 8259   5.513   2.368   2.644
 2769TIP3    H1 8260   5.550   2.309   2.709
 2769TIP3    H2 8261   5.583   2.380   2.580
 2770TIP3   OH2 8262   6.473   2.789   1.948
 2770TIP3    H1 8263   6.462   2.720   2.013
 2770TIP3    H2 8264   6.493   2.868   1.999
 2771TIP3   OH2 8265   5.524   2.783   2.356
 2771TIP3    H1 8266   5.501   2.692   2.339
 2771TIP3    H2 8267   5.611   2.793   2.315
 2772TIP3   OH2 8268   5.175   1.980   2.093
 2772TIP3    H1 8269   5.131   2.061   2.117
 2772TIP3    H2 8270   5.107   1.927   2.051
 2773TIP3   OH2 8271   5.249   2.273   2.328
 2773TIP3    H1 8272   5.298   2.194   2.352
 2773TIP3    H2 8273   5.305   2.316   2.263
 2774TIP3   OH2 8274   6.125   3.210   1.976
 2774TIP3    H1 8275   6.164   3.150   1.912
 2774TIP3    H2 8276   6.143   3.169   2.061
 2775TIP3   OH2 8277   6.009   2.701   2.288
 2775TIP3    H1 8278   6.052   2.619   2.262
 2775TIP3    H2 8279   6.081   2.759   2.314
 2776TIP3   OH2 8280   7.012   2.009   2.311
 2776TIP3    H1 8281   7.022   2.100   2.337
 2776TIP3    H2 8282   7.037   2.007   2.218
 2777TIP3   OH2 8283   6.410   2.190   2.321
 2777TIP3    H1 8284   6.448   2.106   2.347
 2777TIP3    H2 8285   6.374   2.173   2.234
 2778TIP3   OH2 8286   5.772   1.847   2.274
 2778TIP3    H1 8287   5.751   1.920   2.216
 2778TIP3    H2 8288   5.720   1.774   2.241
 2779TIP3   OH2 8289   6.460   1.955   1.925
 2779TIP3    H1 8290   6.526   1.945   1.993
 2779TIP3    H2 8291   6.508   1.983   1.848
 2780TIP3   OH2 8292   5.401   2.057   2.407
 2780TIP3    H1 8293   5.484   2.036   2.448
 2780TIP3    H2 8294   5.401   2.006   2.325
 2781TIP3   OH2 8295   5.813   2.260   2.229
 2781TIP3    H1 8296   5.907   2.244   2.231
 2781TIP3    H2 8297   5.776   2.179   2.192
 2782TIP3   OH2 8298   7.064   2.243   2.454
 2782TIP3    H1 8299   6.981   2.291   2.453
 2782TIP3    H2 8300   7.106   2.270   2.536
 2783TIP3   OH2 8301   5.750   1.856   2.734
 2783TIP3    H1 8302   5.701   1.886   2.657
 2783TIP3    H2 8303   5.692   1.873   2.808
 2784TIP3   OH2 8304   6.074   2.685   1.736
 2784TIP3    H1 8305   6.057   2.670   1.643
 2784TIP3    H2 8306   6.040   2.773   1.752
 2785TIP3   OH2 8307   5.859   2.622   2.506
 2785TIP3    H1 8308   5.808   2.697   2.539
 2785TIP3    H2 8309   5.908   2.657   2.432
 2786TIP3   OH2 8310   6.627   1.973   2.141
 2786TIP3    H1 8311   6.589   1.954   2.226
 2786TIP3    H2 8312   6.685   2.047   2.156
 2787TIP3   OH2 8313   5.647   1.954   2.496
 2787TIP3    H1 8314   5.704   2.028   2.517
 2787TIP3    H2 8315   5.691   1.909   2.424
 2788TIP3   OH2 8316   5.684   2.827   2.592
 2788TIP3    H1 8317   5.672   2.922   2.583
 2788TIP3    H2 8318   5.613   2.790   2.539
 2789TIP3   OH2 8319   5.065   2.532   1.851
 2789TIP3    H1 8320   5.020   2.550   1.768
 2789TIP3    H2 8321   5.089   2.619   1.885
 2790TIP3   OH2 8322   6.501   3.034   2.098
 2790TIP3    H1 8323   6.411   3.027   2.129
 2790TIP3    H2 8324   6.504   3.116   2.049
 2791TIP3   OH2 8325   6.826   1.892   2.480
 2791TIP3    H1 8326   6.739   1.917   2.447
 2791TIP3    H2 8327   6.886   1.922   2.412
 2792TIP3   OH2 8328   6.095   1.543   2.461
 2792TIP3    H1 8329   6.087   1.451   2.486
 2792TIP3    H2 8330   6.018   1.585   2.500
 2793TIP3   OH2 8331   6.229   3.056   1.776
 2793TIP3    H1 8332   6.278   2.976   1.755
 2793TIP3    H2 8333   6.277   3.125   1.731
 2794TIP3   OH2 8334   6.374   2.842   1.695
 2794TIP3    H1 8335   6.379   2.766   1.638
 2794TIP3    H2 8336   6.412   2.813   1.778
 2795TIP3   OH2 8337   6.748   2.905   2.448
 2795TIP3    H1 8338   6.722   2.837   2.386
 2795TIP3    H2 8339   6.730   2.987   2.401
 2796TIP3   OH2 8340   6.021   2.333   1.714
 2796TIP3    H1 8341   5.945   2.385   1.688
 2796TIP3    H2 8342   6.076   2.330   1.636
 2797TIP3   OH2 8343   5.977   2.168   1.420
 2797TIP3    H1 8344   6.050   2.216   1.461
 2797TIP3    H2 8345   6.012   2.081   1.404
 2798TIP3   OH2 8346   6.913   2.582   2.297
 2798TIP3    H1 8347   6.830   2.628   2.291
 2798TIP3    H2 8348   6.953   2.592   2.210
 2799TIP3   OH2 8349   6.392   2.431   1.672
 2799TIP3    H1 8350   6.338   2.453   1.748
 2799TIP3    H2 8351   6.474   2.399   1.709
 2800TIP3   OH2 8352   6.597   2.444   2.596
 2800TIP3    H1 8353   6.599   2.520   2.654
 2800TIP3    H2 8354   6.512   2.449   2.553
 2801TIP3   OH2 8355   5.614   2.391   2.074
 2801TIP3    H1 8356   5.577   2.331   2.009
 2801TIP3    H2 8357   5.686   2.343   2.113
 2802TIP3   OH2 8358   5.761   2.819   2.217
 2802TIP3    H1 8359   5.739   2.799   2.126
 2802TIP3    H2 8360   5.848   2.779   2.229
 2803TIP3   OH2 8361   5.718   2.392   2.451
 2803TIP3    H1 8362   5.754   2.354   2.371
 2803TIP3    H2 8363   5.772   2.470   2.467
 2804TIP3   OH2 8364   6.251   3.033   2.213
 2804TIP3    H1 8365   6.245   3.111   2.268
 2804TIP3    H2 8366   6.239   2.960   2.274
 2805TIP3   OH2 8367   5.886   2.932   2.761
 2805TIP3    H1 8368   5.828   2.991   2.809
 2805TIP3    H2 8369   5.828   2.877   2.710
 2806TIP3   OH2 8370   6.213   2.293   1.517
 2806TIP3    H1 8371   6.276   2.342   1.569
 2806TIP3    H2 8372   6.238   2.309   1.426
 2807TIP3   OH2 8373   5.981   2.945   1.759
 2807TIP3    H1 8374   6.067   2.985   1.772
 2807TIP3    H2 8375   5.921   3.002   1.809
 2808TIP3   OH2 8376   5.681   3.096   2.849
 2808TIP3    H1 8377   5.656   3.107   2.757
 2808TIP3    H2 8378   5.598   3.079   2.894
 2809TIP3   OH2 8379   6.694   1.471   1.585
 2809TIP3    H1 8380   6.620   1.494   1.642
 2809TIP3    H2 8381   6.726   1.555   1.553
 2810TIP3   OH2 8382   5.488   2.236   1.874
 2810TIP3    H1 8383   5.410   2.281   1.842
 2810TIP3    H2 8384   5.461   2.144   1.881
 2811TIP3   OH2 8385   6.553   2.884   1.115
 2811TIP3    H1 8386   6.541   2.977   1.098
 2811TIP3    H2 8387   6.648   2.871   1.113
 2812TIP3   OH2 8388   5.269   2.642   2.781
 2812TIP3    H1 8389   5.189   2.641   2.729
 2812TIP3    H2 8390   5.329   2.584   2.733
 2813TIP3   OH2 8391   5.104   2.853   2.443
 2813TIP3    H1 8392   5.196   2.874   2.462
 2813TIP3    H2 8393   5.055   2.930   2.472
 2814TIP3   OH2 8394   6.939   3.308   2.489
 2814TIP3    H1 8395   6.958   3.214   2.489
 2814TIP3    H2 8396   6.858   3.317   2.539
 2815TIP3   OH2 8397   6.079   3.079   2.630
 2815TIP3    H1 8398   6.068   3.168   2.663
 2815TIP3    H2 8399   6.015   3.027   2.677
 2816TIP3   OH2 8400   5.292   3.026   1.963
 2816TIP3    H1 8401   5.339   3.012   2.045
 2816TIP3    H2 8402   5.243   2.945   1.949
 2817TIP3   OH2 8403   6.053   3.107   1.209
 2817TIP3    H1 8404   6.100   3.029   1.181
 2817TIP3    H2 8405   6.069   3.113   1.303
 2818TIP3   OH2 8406   6.107   3.131   1.485
 2818TIP3    H1 8407   6.055   3.064   1.528
 2818TIP3    H2 8408   6.184   3.141   1.541
 2819TIP3   OH2 8409   6.873   2.424   2.789
 2819TIP3    H1 8410   6.784   2.449   2.762
 2819TIP3    H2 8411   6.878   2.330   2.771
 2820TIP3   OH2 8412   5.858   1.637   2.587
 2820TIP3    H1 8413   5.775   1.602   2.554
 2820TIP3    H2 8414   5.833   1.717   2.634
 2821TIP3   OH2 8415   6.399   1.758   2.785
 2821TIP3    H1 8416   6.470   1.734   2.844
 2821TIP3    H2 8417   6.319   1.739   2.834
 2822TIP3   OH2 8418   6.621   2.181   2.689
 2822TIP3    H1 8419   6.581   2.179   2.776
 2822TIP3    H2 8420   6.603   2.270   2.657
 2823TIP3   OH2 8421   6.294   2.345   1.268
 2823TIP3    H1 8422   6.256   2.307   1.188
 2823TIP3    H2 8423   6.384   2.368   1.243
 2824TIP3   OH2 8424   6.004   1.679   1.552
 2824TIP3    H1 8425   5.968   1.686   1.640
 2824TIP3    H2 8426   5.965   1.598   1.517
 2825TIP3   OH2 8427   5.800   2.166   2.588
 2825TIP3    H1 8428   5.753   2.173   2.671
 2825TIP3    H2 8429   5.777   2.246   2.541
 2826TIP3   OH2 8430   5.673   2.049   2.115
 2826TIP3    H1 8431   5.584   2.020   2.139
 2826TIP3    H2 8432   5.685   2.017   2.026
 2827TIP3   OH2 8433   6.153   2.125   1.840
 2827TIP3    H1 8434   6.103   2.196   1.799
 2827TIP3    H2 8435   6.211   2.094   1.771
 2828TIP3   OH2 8436   6.337   2.387   2.913
 2828TIP3    H1 8437   6.318   2.318   2.977
 2828TIP3    H2 8438   6.427   2.413   2.932
 2829TIP3   OH2 8439   6.313   2.139   2.069
 2829TIP3    H1 8440   6.249   2.162   2.002
 2829TIP3    H2 8441   6.363   2.067   2.032
 2830TIP3   OH2 8442   5.649   2.193   2.816
 2830TIP3    H1 8443   5.720   2.234   2.867
 2830TIP3    H2 8444   5.625   2.115   2.867
 2831TIP3   OH2 8445   5.666   1.662   1.538
 2831TIP3    H1 8446   5.658   1.664   1.633
 2831TIP3    H2 8447   5.586   1.705   1.507
 2832TIP3   OH2 8448   5.211   1.695   2.405
 2832TIP3    H1 8449   5.290   1.728   2.447
 2832TIP3    H2 8450   5.238   1.668   2.318
 2833TIP3   OH2 8451   5.138   1.686   1.903
 2833TIP3    H1 8452   5.183   1.719   1.825
 2833TIP3    H2 8453   5.070   1.751   1.921
 2834TIP3   OH2 8454   6.335   2.387   2.491
 2834TIP3    H1 8455   6.368   2.323   2.428
 2834TIP3    H2 8456   6.305   2.334   2.565
 2835TIP3   OH2 8457   6.040   1.839   2.167
 2835TIP3    H1 8458   5.963   1.838   2.223
 2835TIP3    H2 8459   6.114   1.831   2.228
 2836TIP3   OH2 8460   5.435   1.921   2.172
 2836TIP3    H1 8461   5.347   1.926   2.135
 2836TIP3    H2 8462   5.463   1.830   2.156
 2837TIP3   OH2 8463   5.689   1.931   1.868
 2837TIP3    H1 8464   5.784   1.938   1.857
 2837TIP3    H2 8465   5.654   1.947   1.780
 2838TIP3   OH2 8466   6.488   1.928   2.381
 2838TIP3    H1 8467   6.465   1.947   2.471
 2838TIP3    H2 8468   6.422   1.867   2.351
 2839TIP3   OH2 8469   5.570   1.958   1.621
 2839TIP3    H1 8470   5.506   1.904   1.575
 2839TIP3    H2 8471   5.620   2.000   1.552
 2840TIP3   OH2 8472   6.683   3.629   2.592
 2840TIP3    H1 8473   6.680   3.642   2.497
 2840TIP3    H2 8474   6.761   3.677   2.620
 2841TIP3   OH2 8475   6.086   2.203   2.268
 2841TIP3    H1 8476   6.153   2.161   2.214
 2841TIP3    H2 8477   6.090   2.158   2.352
 2842TIP3   OH2 8478   5.584   1.674   2.154
 2842TIP3    H1 8479   5.557   1.600   2.207
 2842TIP3    H2 8480   5.601   1.637   2.067
 2843TIP3   OH2 8481   6.065   2.101   2.534
 2843TIP3    H1 8482   5.978   2.133   2.557
 2843TIP3    H2 8483   6.124   2.151   2.590
 2844TIP3   OH2 8484   5.783   2.484   1.639
 2844TIP3    H1 8485   5.721   2.413   1.624
 2844TIP3    H2 8486   5.766   2.513   1.729
 2845TIP3   OH2 8487   6.681   2.721   2.256
 2845TIP3    H1 8488   6.714   2.773   2.182
 2845TIP3    H2 8489   6.601   2.680   2.223
 2846TIP3   OH2 8490   6.259   1.776   1.569
 2846TIP3    H1 8491   6.164   1.762   1.558
 2846TIP3    H2 8492   6.269   1.871   1.568
 2847TIP3   OH2 8493   6.199   2.802   2.672
 2847TIP3    H1 8494   6.289   2.790   2.702
 2847TIP3    H2 8495   6.180   2.894   2.691
 2848TIP3   OH2 8496   6.319   2.048   1.626
 2848TIP3    H1 8497   6.414   2.051   1.637
 2848TIP3    H2 8498   6.299   2.122   1.568
 2849TIP3   OH2 8499   5.511   2.513   2.300
 2849TIP3    H1 8500   5.536   2.480   2.214
 2849TIP3    H2 8501   5.568   2.466   2.361
 2850TIP3   OH2 8502   5.954   2.638   1.486
 2850TIP3    H1 8503   5.912   2.724   1.482
 2850TIP3    H2 8504   5.894   2.584   1.539
 2851TIP3   OH2 8505   5.376   2.408   2.980
 2851TIP3    H1 8506   5.348   2.339   3.040
 2851TIP3    H2 8507   5.313   2.404   2.907
 2852TIP3   OH2 8508   6.116   2.552   2.930
 2852TIP3    H1 8509   6.084   2.545   2.840
 2852TIP3    H2 8510   6.201   2.506   2.928
 2853TIP3   OH2 8511   6.353   3.104   2.575
 2853TIP3    H1 8512   6.258   3.094   2.576
 2853TIP3    H2 8513   6.377   3.113   2.667
 2854TIP3   OH2 8514   6.749   2.163   1.484
 2854TIP3    H1 8515   6.683   2.121   1.428
 2854TIP3    H2 8516   6.756   2.252   1.449
 2855TIP3   OH2 8517   6.988   3.038   2.517
 2855TIP3    H1 8518   6.902   3.003   2.538
 2855TIP3    H2 8519   7.011   2.999   2.433
 2856TIP3   OH2 8520   6.467   2.948   1.377
 2856TIP3    H1 8521   6.445   2.875   1.436
 2856TIP3    H2 8522   6.490   2.905   1.294
 2857TIP3   OH2 8523   6.458   2.587   2.147
 2857TIP3    H1 8524   6.366   2.570   2.171
 2857TIP3    H2 8525   6.489   2.503   2.113
 2858TIP3   OH2 8526   5.612   2.813   1.979
 2858TIP3    H1 8527   5.607   2.891   1.922
 2858TIP3    H2 8528   5.522   2.802   2.011
 2859TIP3   OH2 8529   5.169   2.108   1.679
 2859TIP3    H1 8530   5.211   2.191   1.701
 2859TIP3    H2 8531   5.087   2.109   1.728
 2860TIP3   OH2 8532   5.694   2.572   1.877
 2860TIP3    H1 8533   5.679   2.660   1.912
 2860TIP3    H2 8534   5.670   2.513   1.948
 2861TIP3   OH2 8535   5.891   3.144   2.425
 2861TIP3    H1 8536   5.926   3.218   2.375
 2861TIP3    H2 8537   5.967   3.112   2.474
 2862TIP3   OH2 8538   5.540   3.034   1.834
 2862TIP3    H1 8539   5.448   3.046   1.858
 2862TIP3    H2 8540   5.575   3.123   1.824
 2863TIP3   OH2 8541   6.236   2.819   2.398
 2863TIP3    H1 8542   6.206   2.807   2.488
 2863TIP3    H2 8543   6.331   2.806   2.402
 2864TIP3   OH2 8544   6.253   2.677   1.264
 2864TIP3    H1 8545   6.299   2.662   1.347
 2864TIP3    H2 8546   6.173   2.625   1.273
 2865TIP3   OH2 8547   6.495   3.305   2.438
 2865TIP3    H1 8548   6.428   3.242   2.463
 2865TIP3    H2 8549   6.458   3.351   2.363
 2866TIP3   OH2 8550   6.545   3.151   1.074
 2866TIP3    H1 8551   6.568   3.206   0.999
 2866TIP3    H2 8552   6.476   3.200   1.120
 2867TIP3   OH2 8553   5.570   1.946   2.939
 2867TIP3    H1 8554   5.475   1.958   2.945
 2867TIP3    H2 8555   5.591   1.883   3.008
 2868TIP3   OH2 8556   6.414   2.643   1.493
 2868TIP3    H1 8557   6.396   2.567   1.549
 2868TIP3    H2 8558   6.508   2.639   1.477
 2869TIP3   OH2 8559   5.312   3.073   2.562
 2869TIP3    H1 8560   5.376   3.025   2.614
 2869TIP3    H2 8561   5.318   3.163   2.594
 2870TIP3   OH2 8562   5.590   2.653   1.288
 2870TIP3    H1 8563   5.598   2.561   1.261
 2870TIP3    H2 8564   5.589   2.649   1.383
 2871TIP3   OH2 8565   5.586   2.674   1.565
 2871TIP3    H1 8566   5.652   2.608   1.587
 2871TIP3    H2 8567   5.569   2.720   1.647
 2872TIP3   OH2 8568   5.265   2.360   1.760
 2872TIP3    H1 8569   5.197   2.406   1.809
 2872TIP3    H2 8570   5.289   2.419   1.689
 2873TIP3   OH2 8571   6.422   1.992   2.640
 2873TIP3    H1 8572   6.502   2.035   2.668
 2873TIP3    H2 8573   6.416   1.914   2.695
 2874TIP3   OH2 8574   6.308   1.738   1.839
 2874TIP3    H1 8575   6.292   1.754   1.746
 2874TIP3    H2 8576   6.354   1.816   1.869
 2875TIP3   OH2 8577   5.805   2.866   1.452
 2875TIP3    H1 8578   5.715   2.853   1.485
 2875TIP3    H2 8579   5.794   2.883   1.359
 2876TIP3   OH2 8580   5.969   1.933   1.915
 2876TIP3    H1 8581   6.032   2.000   1.887
 2876TIP3    H2 8582   5.994   1.912   2.004
 2877TIP3   OH2 8583   6.259   2.220   2.696
 2877TIP3    H1 8584   6.288   2.266   2.774
 2877TIP3    H2 8585   6.313   2.142   2.692
 2878TIP3   OH2 8586   6.125   1.625   2.008
 2878TIP3    H1 8587   6.100   1.702   2.060
 2878TIP3    H2 8588   6.194   1.657   1.950
 2879TIP3   OH2 8589   5.645   1.656   1.818
 2879TIP3    H1 8590   5.636   1.747   1.845
 2879TIP3    H2 8591   5.739   1.639   1.820
 2880TIP3   OH2 8592   6.891   2.158   2.686
 2880TIP3    H1 8593   6.796   2.149   2.690
 2880TIP3    H2 8594   6.915   2.129   2.598
 2881TIP3   OH2 8595   6.543   2.327   2.067
 2881TIP3    H1 8596   6.468   2.269   2.079
 2881TIP3    H2 8597   6.613   2.287   2.119
 2882TIP3   OH2 8598   5.297   2.545   1.550
 2882TIP3    H1 8599   5.359   2.618   1.545
 2882TIP3    H2 8600   5.331   2.481   1.487
 2883TIP3   OH2 8601   5.199   1.831   1.679
 2883TIP3    H1 8602   5.207   1.927   1.684
 2883TIP3    H2 8603   5.144   1.816   1.603
 2884TIP3   OH2 8604   6.518   3.296   2.002
 2884TIP3    H1 8605   6.474   3.343   1.931
 2884TIP3    H2 8606   6.611   3.315   1.990
 2885TIP3   OH2 8607   5.597   1.548   2.547
 2885TIP3    H1 8608   5.570   1.513   2.462
 2885TIP3    H2 8609   5.589   1.474   2.607
 2886TIP3   OH2 8610   5.119   2.805   1.925
 2886TIP3    H1 8611   5.066   2.835   1.999
 2886TIP3    H2 8612   5.078   2.845   1.849
 2887TIP3   OH2 8613   5.327   3.336   3.013
 2887TIP3    H1 8614   5.407   3.335   3.064
 2887TIP3    H2 8615   5.308   3.244   2.996
 2888TIP3   OH2 8616   5.787   3.257   3.045
 2888TIP3    H1 8617   5.876   3.224   3.060
 2888TIP3    H2 8618   5.755   3.205   2.971
 2889TIP3   OH2 8619   5.752   2.846   1.181
 2889TIP3    H1 8620   5.701   2.770   1.212
 2889TIP3    H2 8621   5.827   2.807   1.136
 2890TIP3   OH2 8622   6.415   3.119   2.845
 2890TIP3    H1 8623   6.446   3.038   2.885
 2890TIP3    H2 8624   6.485   3.182   2.862
 2891TIP3   OH2 8625   6.183   2.889   1.103
 2891TIP3    H1 8626   6.218   2.825   1.164
 2891TIP3    H2 8627   6.245   2.887   1.029
 2892TIP3   OH2 8628   5.390   2.644   3.175
 2892TIP3    H1 8629   5.352   2.634   3.262
 2892TIP3    H2 8630   5.327   2.699   3.128
 2893TIP3   OH2 8631   5.415   2.353   1.397
 2893TIP3    H1 8632   5.466   2.322   1.472
 2893TIP3    H2 8633   5.478   2.361   1.326
 2894TIP3   OH2 8634   6.028   2.823   2.975
 2894TIP3    H1 8635   5.992   2.848   2.890
 2894TIP3    H2 8636   6.078   2.743   2.958
 2895TIP3   OH2 8637   5.975   2.575   1.221
 2895TIP3    H1 8638   5.963   2.588   1.315
 2895TIP3    H2 8639   5.959   2.482   1.207
 2896TIP3   OH2 8640   6.479   2.855   2.535
 2896TIP3    H1 8641   6.575   2.865   2.535
 2896TIP3    H2 8642   6.446   2.944   2.548
 2897TIP3   OH2 8643   5.648   2.449   3.174
 2897TIP3    H1 8644   5.718   2.384   3.173
 2897TIP3    H2 8645   5.653   2.487   3.262
 2898TIP3   OH2 8646   5.589   2.291   1.610
 2898TIP3    H1 8647   5.566   2.257   1.697
 2898TIP3    H2 8648   5.628   2.217   1.564
 2899TIP3   OH2 8649   5.887   2.347   2.870
 2899TIP3    H1 8650   5.913   2.409   2.937
 2899TIP3    H2 8651   5.927   2.379   2.790
 2900TIP3   OH2 8652   5.705   2.111   1.436
 2900TIP3    H1 8653   5.681   2.111   1.344
 2900TIP3    H2 8654   5.799   2.129   1.436
 2901TIP3   OH2 8655   6.536   2.434   1.152
 2901TIP3    H1 8656   6.518   2.375   1.079
 2901TIP3    H2 8657   6.503   2.519   1.122
 2902TIP3   OH2 8658   6.006   2.124   2.980
 2902TIP3    H1 8659   6.017   2.049   2.921
 2902TIP3    H2 8660   5.975   2.194   2.923
 2903TIP3   OH2 8661   6.013   1.933   2.769
 2903TIP3    H1 8662   6.043   1.965   2.684
 2903TIP3    H2 8663   5.922   1.907   2.755
 2904TIP3   OH2 8664   6.028   2.479   2.672
 2904TIP3    H1 8665   6.111   2.472   2.625
 2904TIP3    H2 8666   5.973   2.533   2.616
 2905TIP3   OH2 8667   6.598   2.448   2.992
 2905TIP3    H1 8668   6.679   2.397   3.001
 2905TIP3    H2 8669   6.622   2.521   2.935
 2906TIP3   OH2 8670   6.657   2.635   2.792
 2906TIP3    H1 8671   6.613   2.704   2.843
 2906TIP3    H2 8672   6.732   2.679   2.752
 2907TIP3   OH2 8673   5.855   2.239   3.190
 2907TIP3    H1 8674   5.806   2.165   3.226
 2907TIP3    H2 8675   5.904   2.202   3.117
 2908TIP3   OH2 8676   6.135   1.702   2.869
 2908TIP3    H1 8677   6.095   1.782   2.835
 2908TIP3    H2 8678   6.070   1.634   2.854
 2909TIP3   OH2 8679   6.271   2.174   3.072
 2909TIP3    H1 8680   6.278   2.166   3.167
 2909TIP3    H2 8681   6.182   2.147   3.052
 2910TIP3   OH2 8682   6.509   2.132   2.929
 2910TIP3    H1 8683   6.432   2.135   2.985
 2910TIP3    H2 8684   6.582   2.117   2.989
 2911TIP3   OH2 8685   6.734   2.094   3.092
 2911TIP3    H1 8686   6.747   2.000   3.101
 2911TIP3    H2 8687   6.725   2.126   3.182
 2912TIP3   OH2 8688   5.739   2.000   3.277
 2912TIP3    H1 8689   5.739   1.914   3.235
 2912TIP3    H2 8690   5.780   1.985   3.362
 2913TIP3   OH2 8691   6.202   1.679   3.133
 2913TIP3    H1 8692   6.271   1.613   3.126
 2913TIP3    H2 8693   6.171   1.691   3.043
 2914TIP3   OH2 8694   6.282   1.897   3.282
 2914TIP3    H1 8695   6.257   1.824   3.225
 2914TIP3    H2 8696   6.208   1.957   3.278
 2915TIP3   OH2 8697   5.022   2.534   1.545
 2915TIP3    H1 8698   5.117   2.542   1.552
 2915TIP3    H2 8699   5.007   2.445   1.513
 2916TIP3   OH2 8700   4.886   3.102   1.995
 2916TIP3    H1 8701   4.828   3.050   1.939
 2916TIP3    H2 8702   4.935   3.037   2.045
 2917TIP3   OH2 8703   5.043   2.952   2.172
 2917TIP3    H1 8704   5.037   2.886   2.242
 2917TIP3    H2 8705   5.098   3.021   2.209
 2918TIP3   OH2 8706   6.775   3.377   1.982
 2918TIP3    H1 8707   6.808   3.394   2.071
 2918TIP3    H2 8708   6.849   3.398   1.925
 2919TIP3   OH2 8709   6.795   3.385   2.264
 2919TIP3    H1 8710   6.753   3.299   2.258
 2919TIP3    H2 8711   6.864   3.373   2.329
 2920TIP3   OH2 8712   6.887   3.073   2.853
 2920TIP3    H1 8713   6.811   3.066   2.910
 2920TIP3    H2 8714   6.913   3.165   2.859
 2921TIP3   OH2 8715   6.687   2.625   1.469
 2921TIP3    H1 8716   6.751   2.691   1.441
 2921TIP3    H2 8717   6.728   2.583   1.545
 2922TIP3   OH2 8718   6.803   2.474   1.665
 2922TIP3    H1 8719   6.740   2.425   1.718
 2922TIP3    H2 8720   6.870   2.502   1.728
 2923TIP3   OH2 8721   6.850   2.858   2.085
 2923TIP3    H1 8722   6.905   2.788   2.049
 2923TIP3    H2 8723   6.860   2.930   2.022
 2924TIP3   OH2 8724   6.671   3.133   2.299
 2924TIP3    H1 8725   6.604   3.183   2.346
 2924TIP3    H2 8726   6.624   3.093   2.226
 2925TIP3   OH2 8727   6.738   2.393   1.331
 2925TIP3    H1 8728   6.667   2.388   1.266
 2925TIP3    H2 8729   6.719   2.472   1.382
 2926TIP3   OH2 8730   6.569   2.066   1.315
 2926TIP3    H1 8731   6.484   2.073   1.273
 2926TIP3    H2 8732   6.604   1.982   1.286
 2927TIP3   OH2 8733   6.613   2.320   1.799
 2927TIP3    H1 8734   6.613   2.226   1.782
 2927TIP3    H2 8735   6.594   2.328   1.892
 2928TIP3   OH2 8736   5.252   2.397   2.572
 2928TIP3    H1 8737   5.240   2.358   2.486
 2928TIP3    H2 8738   5.346   2.389   2.589
 2929TIP3   OH2 8739   6.877   2.735   2.650
 2929TIP3    H1 8740   6.945   2.678   2.613
 2929TIP3    H2 8741   6.845   2.785   2.575
 2930TIP3   OH2 8742   7.073   2.530   2.640
 2930TIP3    H1 8743   7.000   2.502   2.695
 2930TIP3    H2 8744   7.134   2.456   2.641
 2931TIP3   OH2 8745   6.426   1.786   1.257
 2931TIP3    H1 8746   6.499   1.726   1.271
 2931TIP3    H2 8747   6.348   1.734   1.277
 2932TIP3   OH2 8748   6.600   2.052   1.696
 2932TIP3    H1 8749   6.638   1.966   1.712
 2932TIP3    H2 8750   6.654   2.090   1.627
 2933TIP3   OH2 8751   6.763   2.211   2.202
 2933TIP3    H1 8752   6.847   2.227   2.159
 2933TIP3    H2 8753   6.772   2.252   2.288
 2934TIP3   OH2 8754   6.816   2.363   2.434
 2934TIP3    H1 8755   6.741   2.391   2.486
 2934TIP3    H2 8756   6.845   2.442   2.389
 2935TIP3   OH2 8757   5.479   2.087   3.274
 2935TIP3    H1 8758   5.573   2.066   3.272
 2935TIP3    H2 8759   5.436   2.002   3.277
 2936TIP3   OH2 8760   7.305   1.938   2.968
 2936TIP3    H1 8761   7.379   1.897   2.922
 2936TIP3    H2 8762   7.260   1.989   2.902
 2937TIP3   OH2 8763   6.682   1.802   1.767
 2937TIP3    H1 8764   6.742   1.784   1.840
 2937TIP3    H2 8765   6.631   1.721   1.757
 2938TIP3   OH2 8766   5.433   1.770   2.562
 2938TIP3    H1 8767   5.485   1.690   2.566
 2938TIP3    H2 8768   5.497   1.839   2.541
 2939TIP3   OH2 8769   5.218   2.036   2.625
 2939TIP3    H1 8770   5.266   2.016   2.545
 2939TIP3    H2 8771   5.248   2.123   2.650
 2940TIP3   OH2 8772   7.141   2.066   2.794
 2940TIP3    H1 8773   7.062   2.116   2.818
 2940TIP3    H2 8774   7.109   1.997   2.736
 2941TIP3   OH2 8775   6.791   1.702   1.485
 2941TIP3    H1 8776   6.824   1.647   1.414
 2941TIP3    H2 8777   6.755   1.779   1.440
 2942TIP3   OH2 8778   5.208   1.573   2.141
 2942TIP3    H1 8779   5.121   1.546   2.171
 2942TIP3    H2 8780   5.191   1.618   2.058
 2943TIP3   OH2 8781   6.332   3.259   1.629
 2943TIP3    H1 8782   6.396   3.248   1.559
 2943TIP3    H2 8783   6.371   3.323   1.688
 2944TIP3   OH2 8784   5.430   1.613   2.956
 2944TIP3    H1 8785   5.375   1.601   3.034
 2944TIP3    H2 8786   5.373   1.654   2.892
 2945TIP3   OH2 8787   5.456   3.056   3.006
 2945TIP3    H1 8788   5.361   3.040   3.004
 2945TIP3    H2 8789   5.478   3.050   3.099
 2946TIP3   OH2 8790   5.659   3.103   2.569
 2946TIP3    H1 8791   5.612   3.179   2.536
 2946TIP3    H2 8792   5.745   3.109   2.527
 2947TIP3   OH2 8793   6.070   3.343   2.719
 2947TIP3    H1 8794   6.114   3.325   2.801
 2947TIP3    H2 8795   6.133   3.394   2.668
 2948TIP3   OH2 8796   6.259   3.492   2.583
 2948TIP3    H1 8797   6.321   3.440   2.533
 2948TIP3    H2 8798   6.314   3.550   2.637
 2949TIP3   OH2 8799   7.052   1.831   2.669
 2949TIP3    H1 8800   6.970   1.836   2.619
 2949TIP3    H2 8801   7.082   1.741   2.656
 2950TIP3   OH2 8802   5.323   3.349   2.618
 2950TIP3    H1 8803   5.232   3.369   2.597
 2950TIP3    H2 8804   5.347   3.415   2.683
 2951TIP3   OH2 8805   5.555   3.337   2.468
 2951TIP3    H1 8806   5.473   3.346   2.516
 2951TIP3    H2 8807   5.534   3.361   2.378
 2952TIP3   OH2 8808   5.964   3.356   2.263
 2952TIP3    H1 8809   5.897   3.370   2.196
 2952TIP3    H2 8810   5.977   3.443   2.301
 2953TIP3   OH2 8811   6.227   3.289   2.312
 2953TIP3    H1 8812   6.136   3.312   2.292
 2953TIP3    H2 8813   6.279   3.354   2.265
 2954TIP3   OH2 8814   6.423   3.453   2.207
 2954TIP3    H1 8815   6.435   3.542   2.173
 2954TIP3    H2 8816   6.457   3.396   2.137
 2955TIP3   OH2 8817   5.229   3.129   2.305
 2955TIP3    H1 8818   5.246   3.112   2.398
 2955TIP3    H2 8819   5.303   3.090   2.260
 2956TIP3   OH2 8820   5.444   3.000   2.197
 2956TIP3    H1 8821   5.459   2.926   2.256
 2956TIP3    H2 8822   5.527   3.046   2.195
 2957TIP3   OH2 8823   5.709   3.095   2.218
 2957TIP3    H1 8824   5.732   3.004   2.202
 2957TIP3    H2 8825   5.763   3.121   2.293
 2958TIP3   OH2 8826   6.266   1.749   2.310
 2958TIP3    H1 8827   6.226   1.676   2.357
 2958TIP3    H2 8828   6.333   1.707   2.255
 2959TIP3   OH2 8829   6.759   1.670   2.207
 2959TIP3    H1 8830   6.797   1.717   2.132
 2959TIP3    H2 8831   6.666   1.692   2.204
 2960TIP3   OH2 8832   6.865   1.744   1.967
 2960TIP3    H1 8833   6.936   1.684   1.944
 2960TIP3    H2 8834   6.901   1.831   1.948
 2961TIP3   OH2 8835   5.515   1.450   2.301
 2961TIP3    H1 8836   5.424   1.421   2.308
 2961TIP3    H2 8837   5.565   1.369   2.295
 2962TIP3   OH2 8838   5.310   1.362   1.960
 2962TIP3    H1 8839   5.338   1.411   1.882
 2962TIP3    H2 8840   5.286   1.430   2.023
 2963TIP3   OH2 8841   5.982   1.481   2.204
 2963TIP3    H1 8842   6.028   1.528   2.134
 2963TIP3    H2 8843   6.026   1.510   2.285
 2964TIP3   OH2 8844   6.475   1.629   2.177
 2964TIP3    H1 8845   6.501   1.597   2.090
 2964TIP3    H2 8846   6.483   1.552   2.233
 2965TIP3   OH2 8847   6.521   1.573   1.773
 2965TIP3    H1 8848   6.442   1.623   1.794
 2965TIP3    H2 8849   6.509   1.489   1.815
 2966TIP3   OH2 8850   5.008   2.931   1.707
 2966TIP3    H1 8851   4.926   2.901   1.668
 2966TIP3    H2 8852   5.017   3.022   1.679
 2967TIP3   OH2 8853   5.427   1.495   1.730
 2967TIP3    H1 8854   5.469   1.430   1.675
 2967TIP3    H2 8855   5.500   1.546   1.766
 2968TIP3   OH2 8856   5.921   1.682   1.817
 2968TIP3    H1 8857   5.980   1.629   1.871
 2968TIP3    H2 8858   5.937   1.772   1.844
 2969TIP3   OH2 8859   6.499   3.216   1.415
 2969TIP3    H1 8860   6.496   3.121   1.407
 2969TIP3    H2 8861   6.460   3.249   1.334
 2970TIP3   OH2 8862   5.740   1.730   3.190
 2970TIP3    H1 8863   5.703   1.663   3.248
 2970TIP3    H2 8864   5.832   1.735   3.215
 2971TIP3   OH2 8865   5.987   1.731   3.311
 2971TIP3    H1 8866   6.064   1.709   3.258
 2971TIP3    H2 8867   5.981   1.660   3.375
 2972TIP3   OH2 8868   5.112   2.917   1.362
 2972TIP3    H1 8869   5.098   2.915   1.457
 2972TIP3    H2 8870   5.193   2.868   1.349
 2973TIP3   OH2 8871   6.802   1.824   3.099
 2973TIP3    H1 8872   6.821   1.797   3.189
 2973TIP3    H2 8873   6.886   1.819   3.054
 2974TIP3   OH2 8874   6.701   3.355   2.614
 2974TIP3    H1 8875   6.629   3.329   2.557
 2974TIP3    H2 8876   6.696   3.450   2.617
 2975TIP3   OH2 8877   7.303   2.660   2.086
 2975TIP3    H1 8878   7.307   2.577   2.133
 2975TIP3    H2 8879   7.348   2.722   2.143
 2976TIP3   OH2 8880   7.200   3.012   1.835
 2976TIP3    H1 8881   7.210   2.920   1.812
 2976TIP3    H2 8882   7.267   3.028   1.901
 2977TIP3   OH2 8883   6.985   2.269   1.595
 2977TIP3    H1 8884   6.938   2.352   1.609
 2977TIP3    H2 8885   6.917   2.207   1.570
 2978TIP3   OH2 8886   7.038   2.533   1.804
 2978TIP3    H1 8887   7.086   2.453   1.824
 2978TIP3    H2 8888   7.104   2.592   1.768
 2979TIP3   OH2 8889   7.192   2.320   1.907
 2979TIP3    H1 8890   7.284   2.344   1.917
 2979TIP3    H2 8891   7.192   2.255   1.837
 2980TIP3   OH2 8892   7.382   3.069   2.028
 2980TIP3    H1 8893   7.429   3.152   2.021
 2980TIP3    H2 8894   7.328   3.079   2.107
 2981TIP3   OH2 8895   6.870   2.805   1.364
 2981TIP3    H1 8896   6.839   2.827   1.276
 2981TIP3    H2 8897   6.898   2.888   1.402
 2982TIP3   OH2 8898   7.396   2.776   2.331
 2982TIP3    H1 8899   7.396   2.868   2.355
 2982TIP3    H2 8900   7.312   2.743   2.364
 2983TIP3   OH2 8901   7.561   3.310   2.273
 2983TIP3    H1 8902   7.520   3.309   2.187
 2983TIP3    H2 8903   7.487   3.302   2.335
 2984TIP3   OH2 8904   7.041   2.911   2.282
 2984TIP3    H1 8905   6.972   2.888   2.220
 2984TIP3    H2 8906   7.075   2.827   2.312
 2985TIP3   OH2 8907   6.940   3.070   1.924
 2985TIP3    H1 8908   7.027   3.050   1.890
 2985TIP3    H2 8909   6.953   3.145   1.983
 2986TIP3   OH2 8910   7.085   3.296   1.454
 2986TIP3    H1 8911   7.138   3.281   1.533
 2986TIP3    H2 8912   7.037   3.214   1.441
 2987TIP3   OH2 8913   7.213   3.116   2.240
 2987TIP3    H1 8914   7.271   3.102   2.315
 2987TIP3    H2 8915   7.147   3.047   2.247
 2988TIP3   OH2 8916   7.321   2.449   2.261
 2988TIP3    H1 8917   7.360   2.500   2.332
 2988TIP3    H2 8918   7.331   2.358   2.289
 2989TIP3   OH2 8919   6.981   1.975   1.885
 2989TIP3    H1 8920   7.058   1.996   1.937
 2989TIP3    H2 8921   7.016   1.934   1.806
 2990TIP3   OH2 8922   6.961   1.984   1.465
 2990TIP3    H1 8923   7.011   2.030   1.398
 2990TIP3    H2 8924   6.879   2.033   1.471
 2991TIP3   OH2 8925   7.212   2.151   1.694
 2991TIP3    H1 8926   7.135   2.187   1.651
 2991TIP3    H2 8927   7.242   2.080   1.637
 2992TIP3   OH2 8928   7.364   3.024   2.451
 2992TIP3    H1 8929   7.398   3.112   2.468
 2992TIP3    H2 8930   7.313   3.002   2.528
 2993TIP3   OH2 8931   7.266   2.732   1.820
 2993TIP3    H1 8932   7.352   2.731   1.777
 2993TIP3    H2 8933   7.285   2.710   1.912
 2994TIP3   OH2 8934   7.147   2.692   2.413
 2994TIP3    H1 8935   7.171   2.674   2.504
 2994TIP3    H2 8936   7.079   2.628   2.394
 2995TIP3   OH2 8937   7.300   3.070   1.418
 2995TIP3    H1 8938   7.316   3.146   1.362
 2995TIP3    H2 8939   7.214   3.038   1.391
 2996TIP3   OH2 8940   6.978   2.387   1.200
 2996TIP3    H1 8941   7.019   2.471   1.220
 2996TIP3    H2 8942   6.900   2.385   1.255
 2997TIP3   OH2 8943   7.289   3.323   1.270
 2997TIP3    H1 8944   7.214   3.326   1.329
 2997TIP3    H2 8945   7.323   3.412   1.270
 2998TIP3   OH2 8946   7.319   2.191   2.362
 2998TIP3    H1 8947   7.231   2.212   2.393
 2998TIP3    H2 8948   7.338   2.106   2.401
 2999TIP3   OH2 8949   7.072   3.283   2.070
 2999TIP3    H1 8950   7.124   3.229   2.130
 2999TIP3    H2 8951   7.091   3.373   2.097
 3000TIP3   OH2 8952   7.064   2.640   1.250
 3000TIP3    H1 8953   7.005   2.685   1.311
 3000TIP3    H2 8954   7.092   2.708   1.189
 3001TIP3   OH2 8955   7.301   3.214   1.017
 3001TIP3    H1 8956   7.386   3.248   0.988
 3001TIP3    H2 8957   7.293   3.244   1.108
 3002TIP3   OH2 8958   7.098   2.839   1.058
 3002TIP3    H1 8959   7.169   2.900   1.034
 3002TIP3    H2 8960   7.094   2.778   0.985
 3003TIP3   OH2 8961   7.063   2.129   1.257
 3003TIP3    H1 8962   7.070   2.224   1.259
 3003TIP3    H2 8963   6.992   2.111   1.195
 3004TIP3   OH2 8964   6.926   3.068   1.434
 3004TIP3    H1 8965   6.885   3.099   1.515
 3004TIP3    H2 8966   6.871   3.106   1.364
 3005TIP3   OH2 8967   7.046   3.585   2.455
 3005TIP3    H1 8968   7.119   3.588   2.517
 3005TIP3    H2 8969   7.024   3.492   2.448
 3006TIP3   OH2 8970   7.504   3.583   2.595
 3006TIP3    H1 8971   7.571   3.521   2.624
 3006TIP3    H2 8972   7.536   3.616   2.512
 3007TIP3   OH2 8973   7.202   2.985   2.684
 3007TIP3    H1 8974   7.170   2.909   2.731
 3007TIP3    H2 8975   7.128   3.013   2.629
 3008TIP3   OH2 8976   7.313   2.700   2.657
 3008TIP3    H1 8977   7.271   2.619   2.685
 3008TIP3    H2 8978   7.361   2.731   2.734
 3009TIP3   OH2 8979   6.824   2.843   1.090
 3009TIP3    H1 8980   6.919   2.854   1.085
 3009TIP3    H2 8981   6.808   2.758   1.048
 3010TIP3   OH2 8982   6.710   3.365   1.511
 3010TIP3    H1 8983   6.645   3.313   1.464
 3010TIP3    H2 8984   6.753   3.303   1.569
 3011TIP3   OH2 8985   6.849   3.191   1.676
 3011TIP3    H1 8986   6.839   3.124   1.744
 3011TIP3    H2 8987   6.899   3.261   1.718
 3012TIP3   OH2 8988   7.026   2.647   2.052
 3012TIP3    H1 8989   7.015   2.606   1.966
 3012TIP3    H2 8990   7.120   2.660   2.061
 3013TIP3   OH2 8991   7.223   2.305   2.676
 3013TIP3    H1 8992   7.277   2.354   2.737
 3013TIP3    H2 8993   7.213   2.218   2.717
 3014TIP3   OH2 8994   7.179   2.021   2.078
 3014TIP3    H1 8995   7.262   1.979   2.100
 3014TIP3    H2 8996   7.197   2.115   2.082
 3015TIP3   OH2 8997   7.022   2.292   2.129
 3015TIP3    H1 8998   7.063   2.301   2.043
 3015TIP3    H2 8999   7.066   2.358   2.183
 3016TIP3   OH2 9000   6.998   1.801   1.659
 3016TIP3    H1 9001   6.910   1.764   1.653
 3016TIP3    H2 9002   6.999   1.871   1.593
 3017TIP3   OH2 9003   7.231   1.939   2.468
 3017TIP3    H1 9004   7.192   1.896   2.544
 3017TIP3    H2 9005   7.157   1.954   2.408
 3018TIP3   OH2 9006   7.169   3.359   2.626
 3018TIP3    H1 9007   7.082   3.340   2.590
 3018TIP3    H2 9008   7.168   3.320   2.713
 3019TIP3   OH2 9009   7.477   3.329   2.012
 3019TIP3    H1 9010   7.411   3.383   1.968
 3019TIP3    H2 9011   7.561   3.360   1.977
 3020TIP3   OH2 9012   7.113   3.554   2.083
 3020TIP3    H1 9013   7.029   3.599   2.083
 3020TIP3    H2 9014   7.175   3.621   2.113
 3021TIP3   OH2 9015   7.302   3.494   1.888
 3021TIP3    H1 9016   7.225   3.506   1.945
 3021TIP3    H2 9017   7.289   3.558   1.817
 3022TIP3   OH2 9018   7.012   3.373   1.817
 3022TIP3    H1 9019   7.033   3.346   1.906
 3022TIP3    H2 9020   7.085   3.341   1.764
 3023TIP3   OH2 9021   7.219   3.253   1.691
 3023TIP3    H1 9022   7.218   3.163   1.722
 3023TIP3    H2 9023   7.307   3.285   1.713
 3024TIP3   OH2 9024   7.076   1.584   1.503
 3024TIP3    H1 9025   7.170   1.588   1.485
 3024TIP3    H2 9026   7.062   1.649   1.572
 3025TIP3   OH2 9027   6.780   3.183   1.235
 3025TIP3    H1 9028   6.704   3.147   1.189
 3025TIP3    H2 9029   6.792   3.269   1.196
 3026TIP3   OH2 9030   6.809   3.200   0.909
 3026TIP3    H1 9031   6.794   3.268   0.974
 3026TIP3    H2 9032   6.905   3.191   0.905
 3027TIP3   OH2 9033   0.468   3.529   3.042
 3027TIP3    H1 9034   0.432   3.612   3.012
 3027TIP3    H2 9035   0.402   3.464   3.019
 3028TIP3   OH2 9036   0.467   3.511   3.443
 3028TIP3    H1 9037   0.511   3.498   3.527
 3028TIP3    H2 9038   0.421   3.429   3.427
 3029TIP3   OH2 9039   7.620   3.517   3.848
 3029TIP3    H1 9040   7.586   3.437   3.808
 3029TIP3    H2 9041   7.671   3.559   3.779
 3030TIP3   OH2 9042   0.733   3.828   3.132
 3030TIP3    H1 9043   0.715   3.762   3.198
 3030TIP3    H2 9044   0.747   3.908   3.182
 3031TIP3   OH2 9045   7.760   3.684   3.680
 3031TIP3    H1 9046   7.755   3.648   3.591
 3031TIP3    H2 9047   7.718   3.770   3.673
 3032TIP3   OH2 9048   0.318   4.262   3.105
 3032TIP3    H1 9049   0.366   4.204   3.047
 3032TIP3    H2 9050   0.341   4.232   3.193
 3033TIP3   OH2 9051   0.285   3.724   3.441
 3033TIP3    H1 9052   0.329   3.642   3.420
 3033TIP3    H2 9053   0.354   3.781   3.473
 3034TIP3   OH2 9054   1.294   3.060   3.475
 3034TIP3    H1 9055   1.311   3.144   3.517
 3034TIP3    H2 9056   1.334   3.068   3.388
 3035TIP3   OH2 9057   0.688   3.240   3.498
 3035TIP3    H1 9058   0.712   3.153   3.528
 3035TIP3    H2 9059   0.651   3.226   3.411
 3036TIP3   OH2 9060   0.075   2.879   3.460
 3036TIP3    H1 9061   0.053   2.960   3.415
 3036TIP3    H2 9062   0.027   2.811   3.413
 3037TIP3   OH2 9063   0.728   2.989   3.087
 3037TIP3    H1 9064   0.791   2.984   3.159
 3037TIP3    H2 9065   0.777   3.026   3.014
 3038TIP3   OH2 9066   7.673   3.093   3.487
 3038TIP3    H1 9067   7.617   3.159   3.527
 3038TIP3    H2 9068   7.620   3.056   3.416
 3039TIP3   OH2 9069   0.126   3.305   3.338
 3039TIP3    H1 9070   0.217   3.289   3.361
 3039TIP3    H2 9071   0.089   3.217   3.325
 3040TIP3   OH2 9072   1.348   3.289   3.625
 3040TIP3    H1 9073   1.257   3.317   3.632
 3040TIP3    H2 9074   1.390   3.321   3.705
 3041TIP3   OH2 9075   0.067   2.825   3.908
 3041TIP3    H1 9076   0.020   2.877   3.843
 3041TIP3    H2 9077   0.010   2.826   3.985
 3042TIP3   OH2 9078   0.354   3.735   2.903
 3042TIP3    H1 9079   0.330   3.720   2.812
 3042TIP3    H2 9080   0.310   3.816   2.927
 3043TIP3   OH2 9081   0.184   3.714   3.699
 3043TIP3    H1 9082   0.153   3.805   3.695
 3043TIP3    H2 9083   0.224   3.698   3.613
 3044TIP3   OH2 9084   0.882   3.022   3.310
 3044TIP3    H1 9085   0.838   3.001   3.393
 3044TIP3    H2 9086   0.938   3.097   3.332
 3045TIP3   OH2 9087   7.871   2.963   3.699
 3045TIP3    H1 9088   7.902   3.053   3.711
 3045TIP3    H2 9089   7.913   2.933   3.619
 3046TIP3   OH2 9090   7.936   3.948   3.688
 3046TIP3    H1 9091   7.856   3.986   3.725
 3046TIP3    H2 9092   7.907   3.908   3.606
 3047TIP3   OH2 9093   0.754   4.073   3.272
 3047TIP3    H1 9094   0.664   4.065   3.304
 3047TIP3    H2 9095   0.755   4.155   3.223
 3048TIP3   OH2 9096   1.089   2.959   3.642
 3048TIP3    H1 9097   1.004   2.982   3.603
 3048TIP3    H2 9098   1.153   2.984   3.576
 3049TIP3   OH2 9099   0.382   2.571   3.605
 3049TIP3    H1 9100   0.381   2.481   3.635
 3049TIP3    H2 9101   0.303   2.610   3.642
 3050TIP3   OH2 9102   0.474   4.120   2.929
 3050TIP3    H1 9103   0.522   4.038   2.922
 3050TIP3    H2 9104   0.537   4.187   2.903
 3051TIP3   OH2 9105   0.612   3.891   2.892
 3051TIP3    H1 9106   0.575   3.808   2.861
 3051TIP3    H2 9107   0.663   3.866   2.970
 3052TIP3   OH2 9108   0.998   3.965   3.603
 3052TIP3    H1 9109   0.983   3.891   3.543
 3052TIP3    H2 9110   0.979   4.042   3.550
 3053TIP3   OH2 9111   0.312   3.356   2.886
 3053TIP3    H1 9112   0.238   3.412   2.864
 3053TIP3    H2 9113   0.365   3.352   2.807
 3054TIP3   OH2 9114   0.267   3.181   2.572
 3054TIP3    H1 9115   0.331   3.232   2.623
 3054TIP3    H2 9116   0.321   3.119   2.523
 3055TIP3   OH2 9117   1.177   3.615   3.482
 3055TIP3    H1 9118   1.100   3.667   3.461
 3055TIP3    H2 9119   1.194   3.564   3.403
 3056TIP3   OH2 9120   0.648   3.469   2.845
 3056TIP3    H1 9121   0.594   3.494   2.920
 3056TIP3    H2 9122   0.731   3.439   2.883
 3057TIP3   OH2 9123   0.867   3.490   3.789
 3057TIP3    H1 9124   0.866   3.572   3.838
 3057TIP3    H2 9125   0.784   3.490   3.741
 3058TIP3   OH2 9126   7.765   3.347   3.254
 3058TIP3    H1 9127   7.780   3.405   3.179
 3058TIP3    H2 9128   7.852   3.335   3.293
 3059TIP3   OH2 9129   0.013   3.819   3.430
 3059TIP3    H1 9130   0.047   3.887   3.372
 3059TIP3    H2 9131   0.086   3.757   3.439
 3060TIP3   OH2 9132   0.190   3.409   3.588
 3060TIP3    H1 9133   0.140   3.387   3.509
 3060TIP3    H2 9134   0.127   3.450   3.646
 3061TIP3   OH2 9135   0.506   4.056   3.389
 3061TIP3    H1 9136   0.502   4.140   3.435
 3061TIP3    H2 9137   0.500   3.990   3.458
 3062TIP3   OH2 9138   0.177   3.993   3.922
 3062TIP3    H1 9139   0.108   4.015   3.984
 3062TIP3    H2 9140   0.131   3.979   3.839
 3063TIP3   OH2 9141   0.490   3.320   2.678
 3063TIP3    H1 9142   0.549   3.380   2.724
 3063TIP3    H2 9143   0.519   3.324   2.586
 3064TIP3   OH2 9144   7.821   3.489   4.039
 3064TIP3    H1 9145   7.839   3.551   4.110
 3064TIP3    H2 9146   7.742   3.523   3.997
 3065TIP3   OH2 9147   0.229   3.986   2.921
 3065TIP3    H1 9148   0.307   4.041   2.921
 3065TIP3    H2 9149   0.201   3.984   2.829
 3066TIP3   OH2 9150   0.983   2.548   2.731
 3066TIP3    H1 9151   0.907   2.569   2.785
 3066TIP3    H2 9152   0.994   2.625   2.674
 3067TIP3   OH2 9153   7.643   3.230   3.025
 3067TIP3    H1 9154   7.634   3.324   3.036
 3067TIP3    H2 9155   7.673   3.199   3.110
 3068TIP3   OH2 9156   0.807   3.917   2.287
 3068TIP3    H1 9157   0.802   4.010   2.263
 3068TIP3    H2 9158   0.897   3.892   2.267
 3069TIP3   OH2 9159   1.226   4.323   3.677
 3069TIP3    H1 9160   1.231   4.228   3.690
 3069TIP3    H2 9161   1.148   4.350   3.726
 3070TIP3   OH2 9162   0.393   4.119   3.816
 3070TIP3    H1 9163   0.376   4.213   3.822
 3070TIP3    H2 9164   0.313   4.078   3.851
 3071TIP3   OH2 9165   0.179   4.264   2.765
 3071TIP3    H1 9166   0.098   4.214   2.763
 3071TIP3    H2 9167   0.151   4.356   2.762
 3072TIP3   OH2 9168   0.308   4.139   2.394
 3072TIP3    H1 9169   0.357   4.066   2.357
 3072TIP3    H2 9170   0.351   4.156   2.478
 3073TIP3   OH2 9171   0.407   4.187   2.645
 3073TIP3    H1 9172   0.328   4.207   2.695
 3073TIP3    H2 9173   0.469   4.155   2.710
 3074TIP3   OH2 9174   1.115   3.444   3.954
 3074TIP3    H1 9175   1.033   3.445   3.904
 3074TIP3    H2 9176   1.137   3.352   3.963
 3075TIP3   OH2 9177   0.147   2.650   3.713
 3075TIP3    H1 9178   0.065   2.614   3.678
 3075TIP3    H2 9179   0.119   2.722   3.770
 3076TIP3   OH2 9180   0.671   2.802   3.961
 3076TIP3    H1 9181   0.740   2.775   4.022
 3076TIP3    H2 9182   0.589   2.786   4.009
 3077TIP3   OH2 9183   0.877   3.228   3.876
 3077TIP3    H1 9184   0.836   3.219   3.962
 3077TIP3    H2 9185   0.855   3.316   3.847
 3078TIP3   OH2 9186   0.568   3.312   2.418
 3078TIP3    H1 9187   0.514   3.312   2.339
 3078TIP3    H2 9188   0.648   3.357   2.392
 3079TIP3   OH2 9189   0.245   2.716   2.716
 3079TIP3    H1 9190   0.229   2.728   2.810
 3079TIP3    H2 9191   0.216   2.627   2.697
 3080TIP3   OH2 9192   0.106   3.197   3.762
 3080TIP3    H1 9193   0.032   3.221   3.818
 3080TIP3    H2 9194   0.123   3.275   3.709
 3081TIP3   OH2 9195   7.885   3.076   3.303
 3081TIP3    H1 9196   7.806   3.095   3.353
 3081TIP3    H2 9197   7.852   3.042   3.220
 3082TIP3   OH2 9198   0.428   3.154   3.025
 3082TIP3    H1 9199   0.381   3.228   2.985
 3082TIP3    H2 9200   0.484   3.121   2.954
 3083TIP3   OH2 9201   0.612   3.434   4.090
 3083TIP3    H1 9202   0.581   3.370   4.154
 3083TIP3    H2 9203   0.704   3.448   4.111
 3084TIP3   OH2 9204   0.594   3.178   3.246
 3084TIP3    H1 9205   0.523   3.197   3.184
 3084TIP3    H2 9206   0.640   3.103   3.208
 3085TIP3   OH2 9207   7.778   3.248   3.906
 3085TIP3    H1 9208   7.783   3.331   3.954
 3085TIP3    H2 9209   7.770   3.181   3.974
 3086TIP3   OH2 9210   7.800   2.693   2.677
 3086TIP3    H1 9211   7.806   2.767   2.738
 3086TIP3    H2 9212   7.726   2.715   2.620
 3087TIP3   OH2 9213   7.455   2.719   3.182
 3087TIP3    H1 9214   7.441   2.737   3.089
 3087TIP3    H2 9215   7.378   2.754   3.226
 3088TIP3   OH2 9216   0.615   3.435   3.671
 3088TIP3    H1 9217   0.646   3.372   3.606
 3088TIP3    H2 9218   0.582   3.381   3.742
 3089TIP3   OH2 9219   0.320   2.879   3.334
 3089TIP3    H1 9220   0.243   2.880   3.392
 3089TIP3    H2 9221   0.394   2.871   3.394
 3090TIP3   OH2 9222   7.607   2.950   3.267
 3090TIP3    H1 9223   7.540   2.897   3.224
 3090TIP3    H2 9224   7.684   2.893   3.271
 3091TIP3   OH2 9225   7.852   2.975   3.044
 3091TIP3    H1 9226   7.946   2.990   3.045
 3091TIP3    H2 9227   7.828   2.982   2.951
 3092TIP3   OH2 9228   0.739   2.972   3.547
 3092TIP3    H1 9229   0.723   2.987   3.640
 3092TIP3    H2 9230   0.671   2.910   3.520
 3093TIP3   OH2 9231   7.761   2.950   2.786
 3093TIP3    H1 9232   7.669   2.953   2.762
 3093TIP3    H2 9233   7.804   3.008   2.722
 3094TIP3   OH2 9234   0.946   4.677   3.769
 3094TIP3    H1 9235   0.941   4.689   3.674
 3094TIP3    H2 9236   1.024   4.726   3.795
 3095TIP3   OH2 9237   7.844   3.689   4.225
 3095TIP3    H1 9238   7.927   3.693   4.271
 3095TIP3    H2 9239   7.784   3.743   4.277
 3096TIP3   OH2 9240   0.376   3.234   3.427
 3096TIP3    H1 9241   0.448   3.184   3.387
 3096TIP3    H2 9242   0.371   3.201   3.517
 3097TIP3   OH2 9243   7.803   2.751   3.288
 3097TIP3    H1 9244   7.739   2.696   3.333
 3097TIP3    H2 9245   7.807   2.714   3.199
 3098TIP3   OH2 9246   0.364   3.137   3.695
 3098TIP3    H1 9247   0.274   3.162   3.718
 3098TIP3    H2 9248   0.419   3.189   3.753
 3099TIP3   OH2 9249   0.108   3.521   2.813
 3099TIP3    H1 9250   0.038   3.457   2.801
 3099TIP3    H2 9251   0.091   3.559   2.899
 3100TIP3   OH2 9252   0.949   3.763   3.420
 3100TIP3    H1 9253   0.981   3.809   3.342
 3100TIP3    H2 9254   0.867   3.723   3.391
 3101TIP3   OH2 9255   0.504   2.821   2.734
 3101TIP3    H1 9256   0.411   2.806   2.722
 3101TIP3    H2 9257   0.513   2.916   2.741
 3102TIP3   OH2 9258   0.479   3.852   3.846
 3102TIP3    H1 9259   0.523   3.831   3.928
 3102TIP3    H2 9260   0.456   3.945   3.854
 3103TIP3   OH2 9261   0.577   3.083   2.798
 3103TIP3    H1 9262   0.672   3.087   2.810
 3103TIP3    H2 9263   0.556   3.162   2.749
 3104TIP3   OH2 9264   7.676   3.524   3.443
 3104TIP3    H1 9265   7.679   3.469   3.365
 3104TIP3    H2 9266   7.702   3.466   3.514
 3105TIP3   OH2 9267   0.243   3.690   2.642
 3105TIP3    H1 9268   0.202   3.776   2.648
 3105TIP3    H2 9269   0.189   3.634   2.697
 3106TIP3   OH2 9270   0.378   3.587   4.139
 3106TIP3    H1 9271   0.309   3.528   4.108
 3106TIP3    H2 9272   0.458   3.556   4.097
 3107TIP3   OH2 9273   0.641   4.137   3.708
 3107TIP3    H1 9274   0.548   4.120   3.718
 3107TIP3    H2 9275   0.668   4.175   3.792
 3108TIP3   OH2 9276   0.990   3.176   2.617
 3108TIP3    H1 9277   0.933   3.130   2.555
 3108TIP3    H2 9278   0.992   3.266   2.584
 3109TIP3   OH2 9279   1.242   4.042   3.696
 3109TIP3    H1 9280   1.148   4.029   3.690
 3109TIP3    H2 9281   1.276   4.009   3.613
 3110TIP3   OH2 9282   0.729   3.988   2.549
 3110TIP3    H1 9283   0.705   3.914   2.605
 3110TIP3    H2 9284   0.751   3.948   2.465
 3111TIP3   OH2 9285   0.711   3.627   3.331
 3111TIP3    H1 9286   0.622   3.603   3.358
 3111TIP3    H2 9287   0.747   3.548   3.292
 3112TIP3   OH2 9288   7.670   4.039   3.245
 3112TIP3    H1 9289   7.743   4.030   3.184
 3112TIP3    H2 9290   7.663   3.953   3.287
 3113TIP3   OH2 9291   0.045   3.604   3.065
 3113TIP3    H1 9292  -0.026   3.668   3.068
 3113TIP3    H2 9293   0.093   3.619   3.147
 3114TIP3   OH2 9294   0.208   4.159   3.507
 3114TIP3    H1 9295   0.237   4.249   3.489
 3114TIP3    H2 9296   0.201   4.155   3.602
 3115TIP3   OH2 9297   7.582   4.008   2.972
 3115TIP3    H1 9298   7.537   3.999   3.056
 3115TIP3    H2 9299   7.626   4.092   2.977
 3116TIP3   OH2 9300   0.502   3.840   3.571
 3116TIP3    H1 9301   0.488   3.841   3.666
 3116TIP3    H2 9302   0.585   3.793   3.560
 3117TIP3   OH2 9303   0.491   3.735   2.463
 3117TIP3    H1 9304   0.553   3.714   2.532
 3117TIP3    H2 9305   0.405   3.718   2.502
 3118TIP3   OH2 9306   0.760   4.369   3.613
 3118TIP3    H1 9307   0.698   4.298   3.622
 3118TIP3    H2 9308   0.734   4.413   3.532
 3119TIP3   OH2 9309   0.807   4.188   2.238
 3119TIP3    H1 9310   0.826   4.245   2.162
 3119TIP3    H2 9311   0.738   4.234   2.285
 3120TIP3   OH2 9312   7.770   2.979   4.039
 3120TIP3    H1 9313   7.725   2.943   4.115
 3120TIP3    H2 9314   7.828   3.046   4.074
 3121TIP3   OH2 9315   0.672   3.670   2.655
 3121TIP3    H1 9316   0.657   3.604   2.723
 3121TIP3    H2 9317   0.767   3.668   2.641
 3122TIP3   OH2 9318   7.680   3.658   2.387
 3122TIP3    H1 9319   7.730   3.577   2.376
 3122TIP3    H2 9320   7.733   3.711   2.446
 3123TIP3   OH2 9321   7.818   3.760   2.604
 3123TIP3    H1 9322   7.810   3.685   2.663
 3123TIP3    H2 9323   7.748   3.820   2.632
 3124TIP3   OH2 9324   0.695   3.028   3.810
 3124TIP3    H1 9325   0.770   3.076   3.843
 3124TIP3    H2 9326   0.687   2.952   3.867
 3125TIP3   OH2 9327   0.576   2.775   2.998
 3125TIP3    H1 9328   0.552   2.795   2.907
 3125TIP3    H2 9329   0.620   2.854   3.030
 3126TIP3   OH2 9330   0.134   3.945   2.668
 3126TIP3    H1 9331   0.042   3.923   2.684
 3126TIP3    H2 9332   0.131   4.019   2.608
 3127TIP3   OH2 9333   0.228   2.980   3.090
 3127TIP3    H1 9334   0.293   3.045   3.066
 3127TIP3    H2 9335   0.249   2.957   3.181
 3128TIP3   OH2 9336   0.536   3.269   3.871
 3128TIP3    H1 9337   0.553   3.318   3.951
 3128TIP3    H2 9338   0.584   3.187   3.882
 3129TIP3   OH2 9339   0.395   2.668   3.173
 3129TIP3    H1 9340   0.375   2.743   3.228
 3129TIP3    H2 9341   0.467   2.697   3.117
 3130TIP3   OH2 9342   7.642   3.933   2.713
 3130TIP3    H1 9343   7.699   4.009   2.698
 3130TIP3    H2 9344   7.611   3.945   2.803
 3131TIP3   OH2 9345   7.829   2.700   3.013
 3131TIP3    H1 9346   7.818   2.795   3.020
 3131TIP3    H2 9347   7.923   2.688   2.995
 3132TIP3   OH2 9348   1.136   3.157   3.851
 3132TIP3    H1 9349   1.044   3.178   3.863
 3132TIP3    H2 9350   1.138   3.091   3.782
 3133TIP3   OH2 9351   0.804   3.374   3.240
 3133TIP3    H1 9352   0.728   3.318   3.250
 3133TIP3    H2 9353   0.870   3.335   3.298
 3134TIP3   OH2 9354   7.477   3.702   2.845
 3134TIP3    H1 9355   7.442   3.790   2.837
 3134TIP3    H2 9356   7.481   3.669   2.755
 3135TIP3   OH2 9357   7.486   2.972   2.721
 3135TIP3    H1 9358   7.487   3.061   2.756
 3135TIP3    H2 9359   7.393   2.953   2.707
 3136TIP3   OH2 9360   0.784   4.334   3.181
 3136TIP3    H1 9361   0.745   4.393   3.116
 3136TIP3    H2 9362   0.879   4.348   3.172
 3137TIP3   OH2 9363   7.803   2.537   3.663
 3137TIP3    H1 9364   7.716   2.575   3.657
 3137TIP3    H2 9365   7.798   2.475   3.736
 3138TIP3   OH2 9366   0.097   4.277   4.036
 3138TIP3    H1 9367   0.171   4.229   4.073
 3138TIP3    H2 9368   0.034   4.283   4.108
 3139TIP3   OH2 9369   0.058   3.859   2.384
 3139TIP3    H1 9370   0.018   3.828   2.465
 3139TIP3    H2 9371   0.118   3.789   2.358
 3140TIP3   OH2 9372   0.687   4.242   3.957
 3140TIP3    H1 9373   0.681   4.167   4.017
 3140TIP3    H2 9374   0.766   4.288   3.984
 3141TIP3   OH2 9375   0.449   3.938   2.276
 3141TIP3    H1 9376   0.484   3.875   2.339
 3141TIP3    H2 9377   0.509   3.934   2.202
 3142TIP3   OH2 9378   7.653   3.347   2.608
 3142TIP3    H1 9379   7.724   3.348   2.672
 3142TIP3    H2 9380   7.697   3.353   2.523
 3143TIP3   OH2 9381   0.299   3.855   4.135
 3143TIP3    H1 9382   0.265   3.876   4.049
 3143TIP3    H2 9383   0.338   3.768   4.125
 3144TIP3   OH2 9384   0.202   3.614   2.379
 3144TIP3    H1 9385   0.214   3.623   2.474
 3144TIP3    H2 9386   0.195   3.520   2.364
 3145TIP3   OH2 9387   0.782   3.900   3.759
 3145TIP3    H1 9388   0.860   3.926   3.710
 3145TIP3    H2 9389   0.719   3.970   3.741
 3146TIP3   OH2 9390   7.825   3.307   2.823
 3146TIP3    H1 9391   7.783   3.264   2.897
 3146TIP3    H2 9392   7.861   3.235   2.771
 3147TIP3   OH2 9393   0.193   3.398   4.043
 3147TIP3    H1 9394   0.101   3.421   4.045
 3147TIP3    H2 9395   0.225   3.433   3.959
 3148TIP3   OH2 9396   0.001   3.127   2.628
 3148TIP3    H1 9397  -0.036   3.130   2.540
 3148TIP3    H2 9398   0.095   3.141   2.616
 3149TIP3   OH2 9399   0.655   3.785   4.112
 3149TIP3    H1 9400   0.725   3.747   4.059
 3149TIP3    H2 9401   0.651   3.731   4.190
 3150TIP3   OH2 9402   0.782   3.433   2.291
 3150TIP3    H1 9403   0.761   3.396   2.205
 3150TIP3    H2 9404   0.754   3.524   2.285
 3151TIP3   OH2 9405   0.295   3.162   4.131
 3151TIP3    H1 9406   0.297   3.094   4.064
 3151TIP3    H2 9407   0.259   3.239   4.087
 3152TIP3   OH2 9408   0.299   2.973   3.926
 3152TIP3    H1 9409   0.322   3.007   3.840
 3152TIP3    H2 9410   0.215   2.928   3.912
 3153TIP3   OH2 9411   0.333   3.526   3.844
 3153TIP3    H1 9412   0.405   3.496   3.788
 3153TIP3    H2 9413   0.288   3.593   3.793
 3154TIP3   OH2 9414   0.877   3.456   4.190
 3154TIP3    H1 9415   0.911   3.368   4.206
 3154TIP3    H2 9416   0.954   3.508   4.167
 3155TIP3   OH2 9417   0.896   3.730   3.933
 3155TIP3    H1 9418   0.844   3.790   3.880
 3155TIP3    H2 9419   0.985   3.742   3.902
 3156TIP3   OH2 9420   0.186   3.254   4.371
 3156TIP3    H1 9421   0.127   3.182   4.395
 3156TIP3    H2 9422   0.214   3.233   4.282
 3157TIP3   OH2 9423   0.411   2.748   4.040
 3157TIP3    H1 9424   0.372   2.828   4.004
 3157TIP3    H2 9425   0.352   2.678   4.014
 3158TIP3   OH2 9426   0.534   3.226   4.249
 3158TIP3    H1 9427   0.523   3.213   4.343
 3158TIP3    H2 9428   0.452   3.197   4.210
 3159TIP3   OH2 9429   0.764   3.169   4.111
 3159TIP3    H1 9430   0.688   3.176   4.168
 3159TIP3    H2 9431   0.836   3.146   4.170
 3160TIP3   OH2 9432   0.997   3.144   4.263
 3160TIP3    H1 9433   1.011   3.049   4.270
 3160TIP3    H2 9434   0.995   3.175   4.354
 3161TIP3   OH2 9435   0.047   3.037   4.474
 3161TIP3    H1 9436   0.051   2.950   4.434
 3161TIP3    H2 9437   0.087   3.026   4.560
 3162TIP3   OH2 9438   0.475   2.725   4.302
 3162TIP3    H1 9439   0.542   2.657   4.294
 3162TIP3    H2 9440   0.442   2.737   4.212
 3163TIP3   OH2 9441   0.574   2.938   4.443
 3163TIP3    H1 9442   0.544   2.868   4.387
 3163TIP3    H2 9443   0.502   3.001   4.444
 3164TIP3   OH2 9444   7.674   4.225   2.560
 3164TIP3    H1 9445   7.734   4.175   2.505
 3164TIP3    H2 9446   7.693   4.317   2.540
 3165TIP3   OH2 9447   1.050   4.400   3.179
 3165TIP3    H1 9448   1.073   4.430   3.267
 3165TIP3    H2 9449   1.103   4.455   3.121
 3166TIP3   OH2 9450   1.068   4.427   3.459
 3166TIP3    H1 9451   1.021   4.344   3.452
 3166TIP3    H2 9452   1.139   4.409   3.521
 3167TIP3   OH2 9453   1.117   4.131   4.033
 3167TIP3    H1 9454   1.050   4.137   4.102
 3167TIP3    H2 9455   1.165   4.214   4.038
 3168TIP3   OH2 9456   0.946   3.643   2.631
 3168TIP3    H1 9457   1.004   3.714   2.601
 3168TIP3    H2 9458   0.992   3.605   2.706
 3169TIP3   OH2 9459   1.067   3.498   2.833
 3169TIP3    H1 9460   1.000   3.459   2.889
 3169TIP3    H2 9461   1.133   3.532   2.894
 3170TIP3   OH2 9462   1.124   3.893   3.240
 3170TIP3    H1 9463   1.132   3.840   3.160
 3170TIP3    H2 9464   1.126   3.983   3.209
 3171TIP3   OH2 9465   0.923   4.189   3.461
 3171TIP3    H1 9466   0.858   4.232   3.515
 3171TIP3    H2 9467   0.873   4.148   3.390
 3172TIP3   OH2 9468   0.980   3.415   2.481
 3172TIP3    H1 9469   0.912   3.417   2.414
 3172TIP3    H2 9470   0.967   3.494   2.532
 3173TIP3   OH2 9471   0.841   3.063   2.422
 3173TIP3    H1 9472   0.776   3.097   2.360
 3173TIP3    H2 9473   0.834   2.968   2.413
 3174TIP3   OH2 9474   0.870   3.360   2.972
 3174TIP3    H1 9475   0.873   3.265   2.960
 3174TIP3    H2 9476   0.852   3.371   3.066
 3175TIP3   OH2 9477   1.151   3.778   3.834
 3175TIP3    H1 9478   1.213   3.707   3.815
 3175TIP3    H2 9479   1.162   3.839   3.761
 3176TIP3   OH2 9480   1.318   3.563   3.812
 3176TIP3    H1 9481   1.249   3.520   3.862
 3176TIP3    H2 9482   1.397   3.511   3.831
 3177TIP3   OH2 9483   0.796   2.792   2.390
 3177TIP3    H1 9484   0.860   2.768   2.458
 3177TIP3    H2 9485   0.714   2.754   2.420
 3178TIP3   OH2 9486   0.863   3.086   2.856
 3178TIP3    H1 9487   0.907   3.002   2.870
 3178TIP3    H2 9488   0.906   3.124   2.780
 3179TIP3   OH2 9489   1.019   3.258   3.382
 3179TIP3    H1 9490   1.098   3.289   3.337
 3179TIP3    H2 9491   1.028   3.291   3.471
 3180TIP3   OH2 9492   1.083   3.395   3.619
 3180TIP3    H1 9493   1.008   3.421   3.674
 3180TIP3    H2 9494   1.118   3.477   3.586
 3181TIP3   OH2 9495   1.545   3.003   4.146
 3181TIP3    H1 9496   1.613   2.944   4.113
 3181TIP3    H2 9497   1.513   3.048   4.068
 3182TIP3   OH2 9498   0.974   2.838   2.912
 3182TIP3    H1 9499   1.021   2.823   2.994
 3182TIP3    H2 9500   0.913   2.764   2.905
 3183TIP3   OH2 9501   7.648   2.776   3.887
 3183TIP3    H1 9502   7.651   2.805   3.796
 3183TIP3    H2 9503   7.690   2.846   3.936
 3184TIP3   OH2 9504   1.402   3.115   3.943
 3184TIP3    H1 9505   1.320   3.154   3.975
 3184TIP3    H2 9506   1.373   3.038   3.894
 3185TIP3   OH2 9507   1.023   2.750   2.544
 3185TIP3    H1 9508   1.066   2.689   2.485
 3185TIP3    H2 9509   1.081   2.826   2.546
 3186TIP3   OH2 9510   0.652   4.294   2.821
 3186TIP3    H1 9511   0.699   4.278   2.739
 3186TIP3    H2 9512   0.656   4.389   2.833
 3187TIP3   OH2 9513   7.783   4.152   3.835
 3187TIP3    H1 9514   7.770   4.216   3.905
 3187TIP3    H2 9515   7.869   4.174   3.799
 3188TIP3   OH2 9516   0.387   4.396   3.878
 3188TIP3    H1 9517   0.436   4.372   3.957
 3188TIP3    H2 9518   0.452   4.438   3.822
 3189TIP3   OH2 9519   0.571   4.541   3.736
 3189TIP3    H1 9520   0.641   4.486   3.700
 3189TIP3    H2 9521   0.616   4.599   3.797
 3190TIP3   OH2 9522   1.313   2.860   3.849
 3190TIP3    H1 9523   1.224   2.846   3.817
 3190TIP3    H2 9524   1.354   2.773   3.846
 3191TIP3   OH2 9525   0.254   4.426   3.429
 3191TIP3    H1 9526   0.176   4.449   3.379
 3191TIP3    H2 9527   0.279   4.507   3.473
 3192TIP3   OH2 9528   0.506   4.323   3.465
 3192TIP3    H1 9529   0.416   4.357   3.455
 3192TIP3    H2 9530   0.561   4.391   3.428
 3193TIP3   OH2 9531   0.697   4.504   3.379
 3193TIP3    H1 9532   0.695   4.592   3.340
 3193TIP3    H2 9533   0.727   4.447   3.308
 3194TIP3   OH2 9534   7.865   4.228   3.402
 3194TIP3    H1 9535   7.785   4.178   3.420
 3194TIP3    H2 9536   7.936   4.175   3.438
 3195TIP3   OH2 9537   0.537   2.783   3.479
 3195TIP3    H1 9538   0.492   2.711   3.523
 3195TIP3    H2 9539   0.604   2.740   3.425
 3196TIP3   OH2 9540   1.025   2.702   3.365
 3196TIP3    H1 9541   1.061   2.751   3.292
 3196TIP3    H2 9542   0.932   2.726   3.367
 3197TIP3   OH2 9543   1.136   2.785   3.129
 3197TIP3    H1 9544   1.204   2.723   3.102
 3197TIP3    H2 9545   1.177   2.871   3.119
 3198TIP3   OH2 9546   7.670   2.344   3.409
 3198TIP3    H1 9547   7.578   2.319   3.423
 3198TIP3    H2 9548   7.717   2.300   3.479
 3199TIP3   OH2 9549   7.620   2.497   3.150
 3199TIP3    H1 9550   7.626   2.507   3.055
 3199TIP3    H2 9551   7.571   2.574   3.179
 3200TIP3   OH2 9552   0.236   2.527   3.355
 3200TIP3    H1 9553   0.290   2.575   3.292
 3200TIP3    H2 9554   0.279   2.543   3.440
 3201TIP3   OH2 9555   0.740   2.657   3.343
 3201TIP3    H1 9556   0.766   2.617   3.260
 3201TIP3    H2 9557   0.744   2.585   3.406
 3202TIP3   OH2 9558   0.794   2.623   2.917
 3202TIP3    H1 9559   0.715   2.672   2.942
 3202TIP3    H2 9560   0.783   2.537   2.957
 3203TIP3   OH2 9561   7.645   2.538   2.886
 3203TIP3    H1 9562   7.641   2.540   2.790
 3203TIP3    H2 9563   7.715   2.600   2.908
 3204TIP3   OH2 9564   0.201   2.731   2.983
 3204TIP3    H1 9565   0.261   2.683   3.040
 3204TIP3    H2 9566   0.208   2.822   3.014
 3205TIP3   OH2 9567   0.041   4.133   2.472
 3205TIP3    H1 9568   0.127   4.161   2.439
 3205TIP3    H2 9569   0.024   4.051   2.426
 3206TIP3   OH2 9570   0.771   4.256   2.576
 3206TIP3    H1 9571   0.761   4.161   2.569
 3206TIP3    H2 9572   0.726   4.291   2.499
 3207TIP3   OH2 9573   0.048   2.779   4.386
 3207TIP3    H1 9574   0.012   2.699   4.424
 3207TIP3    H2 9575   0.141   2.776   4.407
 3208TIP3   OH2 9576   0.298   2.760   4.507
 3208TIP3    H1 9577   0.362   2.751   4.436
 3208TIP3    H2 9578   0.311   2.682   4.560
 3209TIP3   OH2 9579   1.059   2.874   4.275
 3209TIP3    H1 9580   1.075   2.843   4.364
 3209TIP3    H2 9581   1.144   2.868   4.232
 3210TIP3   OH2 9582   0.983   4.403   3.780
 3210TIP3    H1 9583   0.908   4.377   3.726
 3210TIP3    H2 9584   0.975   4.498   3.788
 3211TIP3   OH2 9585   2.205   3.792   2.962
 3211TIP3    H1 9586   2.280   3.760   3.012
 3211TIP3    H2 9587   2.235   3.790   2.871
 3212TIP3   OH2 9588   1.543   4.081   2.972
 3212TIP3    H1 9589   1.526   3.989   2.951
 3212TIP3    H2 9590   1.637   4.093   2.956
 3213TIP3   OH2 9591   1.218   3.268   2.757
 3213TIP3    H1 9592   1.184   3.354   2.780
 3213TIP3    H2 9593   1.143   3.223   2.716
 3214TIP3   OH2 9594   1.289   3.575   2.976
 3214TIP3    H1 9595   1.338   3.507   3.022
 3214TIP3    H2 9596   1.355   3.619   2.922
 3215TIP3   OH2 9597   2.195   4.508   2.644
 3215TIP3    H1 9598   2.197   4.447   2.571
 3215TIP3    H2 9599   2.208   4.453   2.722
 3216TIP3   OH2 9600   2.030   3.997   3.006
 3216TIP3    H1 9601   2.073   3.915   2.981
 3216TIP3    H2 9602   2.101   4.062   3.004
 3217TIP3   OH2 9603   3.090   3.317   2.963
 3217TIP3    H1 9604   3.106   3.403   3.002
 3217TIP3    H2 9605   3.116   3.328   2.871
 3218TIP3   OH2 9606   2.448   3.495   2.981
 3218TIP3    H1 9607   2.484   3.410   3.007
 3218TIP3    H2 9608   2.413   3.481   2.893
 3219TIP3   OH2 9609   1.817   3.153   2.946
 3219TIP3    H1 9610   1.796   3.228   2.891
 3219TIP3    H2 9611   1.761   3.082   2.913
 3220TIP3   OH2 9612   2.515   3.250   2.579
 3220TIP3    H1 9613   2.577   3.244   2.652
 3220TIP3    H2 9614   2.565   3.287   2.507
 3221TIP3   OH2 9615   1.438   3.364   3.083
 3221TIP3    H1 9616   1.525   3.346   3.119
 3221TIP3    H2 9617   1.435   3.314   3.002
 3222TIP3   OH2 9618   1.840   3.550   2.921
 3222TIP3    H1 9619   1.933   3.528   2.917
 3222TIP3    H2 9620   1.796   3.478   2.876
 3223TIP3   OH2 9621   3.144   3.543   3.119
 3223TIP3    H1 9622   3.055   3.578   3.118
 3223TIP3    H2 9623   3.181   3.576   3.201
 3224TIP3   OH2 9624   1.800   3.144   3.392
 3224TIP3    H1 9625   1.750   3.183   3.321
 3224TIP3    H2 9626   1.745   3.155   3.470
 3225TIP3   OH2 9627   1.868   3.946   3.224
 3225TIP3    H1 9628   1.817   4.025   3.236
 3225TIP3    H2 9629   1.932   3.969   3.157
 3226TIP3   OH2 9630   2.670   3.266   2.805
 3226TIP3    H1 9631   2.623   3.252   2.888
 3226TIP3    H2 9632   2.730   3.338   2.824
 3227TIP3   OH2 9633   1.687   3.259   3.166
 3227TIP3    H1 9634   1.747   3.330   3.191
 3227TIP3    H2 9635   1.730   3.216   3.093
 3228TIP3   OH2 9636   1.714   4.154   3.286
 3228TIP3    H1 9637   1.707   4.243   3.251
 3228TIP3    H2 9638   1.630   4.139   3.330
 3229TIP3   OH2 9639   1.117   3.832   2.517
 3229TIP3    H1 9640   1.087   3.849   2.428
 3229TIP3    H2 9641   1.140   3.919   2.551
 3230TIP3   OH2 9642   2.551   4.385   2.785
 3230TIP3    H1 9643   2.462   4.350   2.793
 3230TIP3    H2 9644   2.542   4.460   2.726
 3231TIP3   OH2 9645   2.897   3.206   3.132
 3231TIP3    H1 9646   2.812   3.234   3.098
 3231TIP3    H2 9647   2.960   3.232   3.065
 3232TIP3   OH2 9648   2.140   2.844   3.123
 3232TIP3    H1 9649   2.135   2.752   3.149
 3232TIP3    H2 9650   2.062   2.884   3.162
 3233TIP3   OH2 9651   2.240   4.365   2.406
 3233TIP3    H1 9652   2.281   4.278   2.402
 3233TIP3    H2 9653   2.312   4.426   2.386
 3234TIP3   OH2 9654   2.366   4.125   2.380
 3234TIP3    H1 9655   2.399   4.070   2.309
 3234TIP3    H2 9656   2.356   4.065   2.454
 3235TIP3   OH2 9657   2.782   4.230   3.107
 3235TIP3    H1 9658   2.769   4.155   3.049
 3235TIP3    H2 9659   2.773   4.306   3.049
 3236TIP3   OH2 9660   2.058   3.594   2.343
 3236TIP3    H1 9661   1.990   3.661   2.339
 3236TIP3    H2 9662   2.130   3.629   2.290
 3237TIP3   OH2 9663   2.056   3.436   2.059
 3237TIP3    H1 9664   2.109   3.483   2.123
 3237TIP3    H2 9665   2.117   3.377   2.016
 3238TIP3   OH2 9666   2.972   3.884   2.965
 3238TIP3    H1 9667   2.889   3.931   2.968
 3238TIP3    H2 9668   3.005   3.897   2.877
 3239TIP3   OH2 9669   2.432   3.747   2.337
 3239TIP3    H1 9670   2.390   3.789   2.412
 3239TIP3    H2 9671   2.513   3.710   2.372
 3240TIP3   OH2 9672   2.662   3.736   3.267
 3240TIP3    H1 9673   2.667   3.822   3.309
 3240TIP3    H2 9674   2.579   3.738   3.219
 3241TIP3   OH2 9675   1.660   3.706   2.747
 3241TIP3    H1 9676   1.623   3.643   2.684
 3241TIP3    H2 9677   1.725   3.655   2.795
 3242TIP3   OH2 9678   1.800   4.119   2.884
 3242TIP3    H1 9679   1.789   4.103   2.790
 3242TIP3    H2 9680   1.882   4.076   2.906
 3243TIP3   OH2 9681   1.797   3.695   3.146
 3243TIP3    H1 9682   1.792   3.636   3.072
 3243TIP3    H2 9683   1.836   3.775   3.111
 3244TIP3   OH2 9684   2.287   4.348   2.883
 3244TIP3    H1 9685   2.308   4.405   2.957
 3244TIP3    H2 9686   2.283   4.260   2.920
 3245TIP3   OH2 9687   1.934   4.234   3.437
 3245TIP3    H1 9688   1.881   4.297   3.487
 3245TIP3    H2 9689   1.871   4.188   3.382
 3246TIP3   OH2 9690   2.287   3.577   2.172
 3246TIP3    H1 9691   2.338   3.643   2.219
 3246TIP3    H2 9692   2.313   3.586   2.080
 3247TIP3   OH2 9693   1.659   3.845   3.454
 3247TIP3    H1 9694   1.669   3.919   3.514
 3247TIP3    H2 9695   1.585   3.796   3.489
 3248TIP3   OH2 9696   1.943   4.334   2.468
 3248TIP3    H1 9697   2.035   4.310   2.457
 3248TIP3    H2 9698   1.919   4.378   2.387
 3249TIP3   OH2 9699   1.725   4.398   3.518
 3249TIP3    H1 9700   1.703   4.411   3.426
 3249TIP3    H2 9701   1.641   4.383   3.562
 3250TIP3   OH2 9702   2.775   2.807   2.224
 3250TIP3    H1 9703   2.699   2.840   2.272
 3250TIP3    H2 9704   2.791   2.874   2.156
 3251TIP3   OH2 9705   1.536   3.544   2.548
 3251TIP3    H1 9706   1.457   3.583   2.510
 3251TIP3    H2 9707   1.524   3.450   2.537
 3252TIP3   OH2 9708   2.600   4.179   1.773
 3252TIP3    H1 9709   2.595   4.272   1.749
 3252TIP3    H2 9710   2.689   4.153   1.748
 3253TIP3   OH2 9711   1.312   3.925   3.457
 3253TIP3    H1 9712   1.248   3.906   3.387
 3253TIP3    H2 9713   1.344   3.839   3.483
 3254TIP3   OH2 9714   1.161   4.148   3.136
 3254TIP3    H1 9715   1.250   4.177   3.155
 3254TIP3    H2 9716   1.106   4.225   3.155
 3255TIP3   OH2 9717   3.024   4.587   3.173
 3255TIP3    H1 9718   3.027   4.492   3.184
 3255TIP3    H2 9719   2.945   4.614   3.220
 3256TIP3   OH2 9720   2.123   4.369   3.291
 3256TIP3    H1 9721   2.115   4.461   3.318
 3256TIP3    H2 9722   2.059   4.323   3.344
 3257TIP3   OH2 9723   1.894   4.485   2.233
 3257TIP3    H1 9724   1.850   4.457   2.153
 3257TIP3    H2 9725   1.853   4.569   2.255
 3258TIP3   OH2 9726   1.337   4.330   2.627
 3258TIP3    H1 9727   1.385   4.322   2.710
 3258TIP3    H2 9728   1.292   4.247   2.617
 3259TIP3   OH2 9729   2.110   4.405   1.876
 3259TIP3    H1 9730   2.158   4.329   1.842
 3259TIP3    H2 9731   2.142   4.415   1.966
 3260TIP3   OH2 9732   2.152   4.449   2.149
 3260TIP3    H1 9733   2.062   4.457   2.179
 3260TIP3    H2 9734   2.197   4.405   2.222
 3261TIP3   OH2 9735   2.904   3.691   3.426
 3261TIP3    H1 9736   2.822   3.702   3.377
 3261TIP3    H2 9737   2.927   3.599   3.412
 3262TIP3   OH2 9738   1.484   4.143   3.436
 3262TIP3    H1 9739   1.534   4.136   3.518
 3262TIP3    H2 9740   1.423   4.069   3.438
 3263TIP3   OH2 9741   1.900   2.929   3.247
 3263TIP3    H1 9742   1.815   2.899   3.215
 3263TIP3    H2 9743   1.881   3.011   3.293
 3264TIP3   OH2 9744   2.446   3.059   3.449
 3264TIP3    H1 9745   2.518   3.035   3.507
 3264TIP3    H2 9746   2.367   3.037   3.499
 3265TIP3   OH2 9747   2.666   3.472   3.356
 3265TIP3    H1 9748   2.629   3.472   3.445
 3265TIP3    H2 9749   2.655   3.562   3.325
 3266TIP3   OH2 9750   2.352   3.561   1.903
 3266TIP3    H1 9751   2.303   3.570   1.821
 3266TIP3    H2 9752   2.435   3.605   1.885
 3267TIP3   OH2 9753   2.017   3.007   2.205
 3267TIP3    H1 9754   1.993   3.009   2.298
 3267TIP3    H2 9755   2.048   2.918   2.190
 3268TIP3   OH2 9756   1.856   3.453   3.270
 3268TIP3    H1 9757   1.807   3.458   3.352
 3268TIP3    H2 9758   1.842   3.538   3.228
 3269TIP3   OH2 9759   1.704   3.353   2.797
 3269TIP3    H1 9760   1.615   3.320   2.811
 3269TIP3    H2 9761   1.723   3.333   2.705
 3270TIP3   OH2 9762   2.204   3.422   2.500
 3270TIP3    H1 9763   2.150   3.489   2.458
 3270TIP3    H2 9764   2.263   3.393   2.431
 3271TIP3   OH2 9765   2.401   3.696   3.595
 3271TIP3    H1 9766   2.372   3.623   3.650
 3271TIP3    H2 9767   2.490   3.714   3.624
 3272TIP3   OH2 9768   2.364   3.437   2.729
 3272TIP3    H1 9769   2.299   3.463   2.664
 3272TIP3    H2 9770   2.411   3.364   2.688
 3273TIP3   OH2 9771   1.700   3.460   3.495
 3273TIP3    H1 9772   1.654   3.523   3.551
 3273TIP3    H2 9773   1.681   3.375   3.534
 3274TIP3   OH2 9774   1.272   3.008   3.067
 3274TIP3    H1 9775   1.342   3.047   3.120
 3274TIP3    H2 9776   1.311   2.999   2.980
 3275TIP3   OH2 9777   1.183   2.982   2.548
 3275TIP3    H1 9778   1.242   3.019   2.483
 3275TIP3    H2 9779   1.122   3.053   2.569
 3276TIP3   OH2 9780   2.393   3.689   3.162
 3276TIP3    H1 9781   2.421   3.630   3.091
 3276TIP3    H2 9782   2.367   3.630   3.233
 3277TIP3   OH2 9783   2.083   3.128   2.831
 3277TIP3    H1 9784   2.006   3.142   2.885
 3277TIP3    H2 9785   2.156   3.130   2.892
 3278TIP3   OH2 9786   1.471   3.216   2.853
 3278TIP3    H1 9787   1.387   3.221   2.808
 3278TIP3    H2 9788   1.506   3.130   2.829
 3279TIP3   OH2 9789   1.747   3.270   2.547
 3279TIP3    H1 9790   1.840   3.260   2.528
 3279TIP3    H2 9791   1.704   3.268   2.461
 3280TIP3   OH2 9792   2.520   3.234   3.040
 3280TIP3    H1 9793   2.503   3.251   3.133
 3280TIP3    H2 9794   2.452   3.172   3.014
 3281TIP3   OH2 9795   1.582   3.270   2.327
 3281TIP3    H1 9796   1.618   3.280   2.239
 3281TIP3    H2 9797   1.505   3.214   2.315
 3282TIP3   OH2 9798   2.736   4.936   3.265
 3282TIP3    H1 9799   2.736   4.941   3.169
 3282TIP3    H2 9800   2.816   4.981   3.292
 3283TIP3   OH2 9801   1.664   4.042   3.656
 3283TIP3    H1 9802   1.747   4.059   3.701
 3283TIP3    H2 9803   1.599   4.041   3.726
 3284TIP3   OH2 9804   2.096   3.446   2.932
 3284TIP3    H1 9805   2.178   3.450   2.883
 3284TIP3    H2 9806   2.122   3.415   3.019
 3285TIP3   OH2 9807   1.629   2.975   2.834
 3285TIP3    H1 9808   1.599   2.898   2.881
 3285TIP3    H2 9809   1.676   2.940   2.758
 3286TIP3   OH2 9810   2.119   3.382   3.209
 3286TIP3    H1 9811   2.031   3.417   3.226
 3286TIP3    H2 9812   2.177   3.442   3.257
 3287TIP3   OH2 9813   1.844   3.776   2.306
 3287TIP3    H1 9814   1.771   3.719   2.284
 3287TIP3    H2 9815   1.821   3.813   2.391
 3288TIP3   OH2 9816   2.739   4.025   2.930
 3288TIP3    H1 9817   2.768   4.073   2.852
 3288TIP3    H2 9818   2.661   3.978   2.902
 3289TIP3   OH2 9819   2.288   3.085   2.224
 3289TIP3    H1 9820   2.193   3.088   2.213
 3289TIP3    H2 9821   2.314   3.177   2.234
 3290TIP3   OH2 9822   2.241   4.081   3.312
 3290TIP3    H1 9823   2.319   4.086   3.366
 3290TIP3    H2 9824   2.208   4.171   3.309
 3291TIP3   OH2 9825   2.373   3.340   2.286
 3291TIP3    H1 9826   2.467   3.347   2.301
 3291TIP3    H2 9827   2.350   3.421   2.241
 3292TIP3   OH2 9828   1.997   3.923   2.122
 3292TIP3    H1 9829   1.961   4.010   2.137
 3292TIP3    H2 9830   1.956   3.868   2.189
 3293TIP3   OH2 9831   1.459   3.716   3.600
 3293TIP3    H1 9832   1.507   3.723   3.682
 3293TIP3    H2 9833   1.386   3.657   3.620
 3294TIP3   OH2 9834   2.183   3.861   3.584
 3294TIP3    H1 9835   2.165   3.857   3.490
 3294TIP3    H2 9836   2.266   3.815   3.594
 3295TIP3   OH2 9837   2.390   4.405   3.213
 3295TIP3    H1 9838   2.296   4.390   3.221
 3295TIP3    H2 9839   2.416   4.439   3.298
 3296TIP3   OH2 9840   2.782   3.435   2.107
 3296TIP3    H1 9841   2.724   3.392   2.044
 3296TIP3    H2 9842   2.789   3.525   2.074
 3297TIP3   OH2 9843   3.032   4.306   3.190
 3297TIP3    H1 9844   2.938   4.291   3.185
 3297TIP3    H2 9845   3.066   4.278   3.105
 3298TIP3   OH2 9846   2.523   4.240   2.036
 3298TIP3    H1 9847   2.498   4.163   2.086
 3298TIP3    H2 9848   2.546   4.207   1.949
 3299TIP3   OH2 9849   2.527   3.873   2.839
 3299TIP3    H1 9850   2.467   3.900   2.770
 3299TIP3    H2 9851   2.562   3.789   2.809
 3300TIP3   OH2 9852   1.694   4.135   2.623
 3300TIP3    H1 9853   1.738   4.204   2.572
 3300TIP3    H2 9854   1.601   4.147   2.604
 3301TIP3   OH2 9855   1.220   3.390   2.345
 3301TIP3    H1 9856   1.265   3.473   2.362
 3301TIP3    H2 9857   1.139   3.396   2.396
 3302TIP3   OH2 9858   1.738   3.874   2.537
 3302TIP3    H1 9859   1.735   3.964   2.569
 3302TIP3    H2 9860   1.714   3.821   2.612
 3303TIP3   OH2 9861   1.939   4.439   3.084
 3303TIP3    H1 9862   1.977   4.511   3.033
 3303TIP3    H2 9863   2.013   4.403   3.133
 3304TIP3   OH2 9864   1.563   4.355   2.470
 3304TIP3    H1 9865   1.479   4.359   2.516
 3304TIP3    H2 9866   1.599   4.443   2.479
 3305TIP3   OH2 9867   2.291   4.107   3.029
 3305TIP3    H1 9868   2.297   4.086   3.122
 3305TIP3    H2 9869   2.349   4.044   2.986
 3306TIP3   OH2 9870   2.279   3.989   1.954
 3306TIP3    H1 9871   2.336   3.979   2.030
 3306TIP3    H2 9872   2.193   3.960   1.986
 3307TIP3   OH2 9873   2.560   4.614   3.105
 3307TIP3    H1 9874   2.486   4.556   3.121
 3307TIP3    H2 9875   2.528   4.675   3.038
 3308TIP3   OH2 9876   2.597   4.453   1.731
 3308TIP3    H1 9877   2.613   4.513   1.658
 3308TIP3    H2 9878   2.527   4.495   1.781
 3309TIP3   OH2 9879   1.632   3.210   3.604
 3309TIP3    H1 9880   1.537   3.217   3.612
 3309TIP3    H2 9881   1.658   3.158   3.681
 3310TIP3   OH2 9882   2.467   3.957   2.159
 3310TIP3    H1 9883   2.443   3.886   2.219
 3310TIP3    H2 9884   2.560   3.944   2.141
 3311TIP3   OH2 9885   1.363   4.340   3.253
 3311TIP3    H1 9886   1.407   4.280   3.313
 3311TIP3    H2 9887   1.383   4.427   3.287
 3312TIP3   OH2 9888   1.632   3.958   1.940
 3312TIP3    H1 9889   1.647   3.868   1.913
 3312TIP3    H2 9890   1.621   3.953   2.035
 3313TIP3   OH2 9891   1.583   3.969   2.214
 3313TIP3    H1 9892   1.656   3.941   2.270
 3313TIP3    H2 9893   1.586   4.065   2.219
 3314TIP3   OH2 9894   1.308   3.648   2.419
 3314TIP3    H1 9895   1.246   3.699   2.471
 3314TIP3    H2 9896   1.334   3.707   2.348
 3315TIP3   OH2 9897   2.463   3.292   3.304
 3315TIP3    H1 9898   2.545   3.335   3.329
 3315TIP3    H2 9899   2.459   3.213   3.358
 3316TIP3   OH2 9900   2.364   3.034   2.490
 3316TIP3    H1 9901   2.336   3.055   2.401
 3316TIP3    H2 9902   2.407   3.114   2.521
 3317TIP3   OH2 9903   1.862   4.160   2.154
 3317TIP3    H1 9904   1.778   4.182   2.194
 3317TIP3    H2 9905   1.878   4.231   2.092
 3318TIP3   OH2 9906   2.025   3.228   2.576
 3318TIP3    H1 9907   2.084   3.299   2.551
 3318TIP3    H2 9908   2.045   3.211   2.668
 3319TIP3   OH2 9909   2.310   3.522   3.364
 3319TIP3    H1 9910   2.345   3.563   3.443
 3319TIP3    H2 9911   2.361   3.441   3.356
 3320TIP3   OH2 9912   2.179   2.926   2.666
 3320TIP3    H1 9913   2.152   3.002   2.718
 3320TIP3    H2 9914   2.247   2.960   2.608
 3321TIP3   OH2 9915   1.607   4.243   2.226
 3321TIP3    H1 9916   1.586   4.313   2.164
 3321TIP3    H2 9917   1.591   4.281   2.312
 3322TIP3   OH2 9918   2.933   3.424   3.336
 3322TIP3    H1 9919   2.838   3.428   3.345
 3322TIP3    H2 9920   2.948   3.362   3.264
 3323TIP3   OH2 9921   2.608   3.618   2.731
 3323TIP3    H1 9922   2.525   3.571   2.745
 3323TIP3    H2 9923   2.671   3.572   2.786
 3324TIP3   OH2 9924   1.339   3.836   2.210
 3324TIP3    H1 9925   1.410   3.899   2.221
 3324TIP3    H2 9926   1.371   3.774   2.144
 3325TIP3   OH2 9927   1.301   3.123   2.317
 3325TIP3    H1 9928   1.270   3.213   2.329
 3325TIP3    H2 9929   1.232   3.081   2.265
 3326TIP3   OH2 9930   2.566   4.643   2.671
 3326TIP3    H1 9931   2.528   4.703   2.606
 3326TIP3    H2 9932   2.661   4.649   2.656
 3327TIP3   OH2 9933   1.632   2.853   3.213
 3327TIP3    H1 9934   1.606   2.819   3.127
 3327TIP3    H2 9935   1.628   2.777   3.271
 3328TIP3   OH2 9936   1.162   4.104   2.600
 3328TIP3    H1 9937   1.119   4.143   2.676
 3328TIP3    H2 9938   1.121   4.147   2.525
 3329TIP3   OH2 9939   1.372   4.647   3.672
 3329TIP3    H1 9940   1.452   4.654   3.723
 3329TIP3    H2 9941   1.362   4.553   3.656
 3330TIP3   OH2 9942   1.835   4.559   3.710
 3330TIP3    H1 9943   1.925   4.530   3.721
 3330TIP3    H2 9944   1.800   4.506   3.639
 3331TIP3   OH2 9945   1.784   4.157   1.822
 3331TIP3    H1 9946   1.739   4.085   1.866
 3331TIP3    H2 9947   1.858   4.115   1.776
 3332TIP3   OH2 9948   2.449   4.491   3.467
 3332TIP3    H1 9949   2.461   4.422   3.531
 3332TIP3    H2 9950   2.524   4.549   3.480
 3333TIP3   OH2 9951   2.235   4.188   1.764
 3333TIP3    H1 9952   2.264   4.122   1.828
 3333TIP3    H2 9953   2.294   4.177   1.690
 3334TIP3   OH2 9954   1.471   4.046   3.859
 3334TIP3    H1 9955   1.476   3.969   3.916
 3334TIP3    H2 9956   1.385   4.039   3.817
 3335TIP3   OH2 9957   1.460   3.645   2.057
 3335TIP3    H1 9958   1.513   3.623   2.133
 3335TIP3    H2 9959   1.524   3.662   1.987
 3336TIP3   OH2 9960   2.093   4.129   3.638
 3336TIP3    H1 9961   2.050   4.151   3.556
 3336TIP3    H2 9962   2.141   4.049   3.619
 3337TIP3   OH2 9963   1.982   3.861   1.857
 3337TIP3    H1 9964   1.979   3.876   1.952
 3337TIP3    H2 9965   1.986   3.766   1.848
 3338TIP3   OH2 9966   2.552   4.180   3.253
 3338TIP3    H1 9967   2.634   4.199   3.207
 3338TIP3    H2 9968   2.494   4.253   3.230
 3339TIP3   OH2 9969   1.624   3.723   3.827
 3339TIP3    H1 9970   1.709   3.679   3.832
 3339TIP3    H2 9971   1.621   3.776   3.907
 3340TIP3   OH2 9972   1.635   3.590   2.268
 3340TIP3    H1 9973   1.625   3.561   2.358
 3340TIP3    H2 9974   1.688   3.521   2.227
 3341TIP3   OH2 9975   1.929   3.716   3.440
 3341TIP3    H1 9976   1.945   3.724   3.534
 3341TIP3    H2 9977   2.014   3.735   3.401
 3342TIP3   OH2 9978   1.780   3.409   2.117
 3342TIP3    H1 9979   1.756   3.422   2.025
 3342TIP3    H2 9980   1.875   3.418   2.118
 3343TIP3   OH2 9981   2.461   4.045   3.642
 3343TIP3    H1 9982   2.552   4.027   3.619
 3343TIP3    H2 9983   2.444   3.992   3.719
 3344TIP3   OH2 9984   2.569   3.694   1.792
 3344TIP3    H1 9985   2.556   3.654   1.706
 3344TIP3    H2 9986   2.540   3.785   1.781
 3345TIP3   OH2 9987   2.040   3.441   3.606
 3345TIP3    H1 9988   2.055   3.354   3.568
 3345TIP3    H2 9989   2.005   3.492   3.533
 3346TIP3   OH2 9990   2.061   3.221   3.433
 3346TIP3    H1 9991   2.093   3.255   3.350
 3346TIP3    H2 9992   1.970   3.196   3.416
 3347TIP3   OH2 9993   2.151   3.812   3.313
 3347TIP3    H1 9994   2.213   3.763   3.259
 3347TIP3    H2 9995   2.168   3.904   3.291
 3348TIP3   OH2 9996   2.659   3.738   3.718
 3348TIP3    H1 9997   2.721   3.671   3.689
 3348TIP3    H2 9998   2.701   3.821   3.697
 3349TIP3   OH2 9999   2.694   3.983   3.382
 3349TIP3    H110000   2.636   4.050   3.346
 3349TIP3    H210001   2.782   4.010   3.354
 3350TIP3   OH210002   1.904   3.529   3.837
 3350TIP3    H110003   1.848   3.458   3.868
 3350TIP3    H210004   1.944   3.496   3.757
 3351TIP3   OH210005   2.185   2.997   3.535
 3351TIP3    H110006   2.144   3.076   3.500
 3351TIP3    H210007   2.119   2.928   3.521
 3352TIP3   OH210008   2.298   3.477   3.727
 3352TIP3    H110009   2.280   3.468   3.820
 3352TIP3    H210010   2.214   3.461   3.684
 3353TIP3   OH210011   2.553   3.438   3.599
 3353TIP3    H110012   2.476   3.434   3.656
 3353TIP3    H210013   2.626   3.420   3.658
 3354TIP3   OH210014   2.778   3.397   3.755
 3354TIP3    H110015   2.794   3.303   3.763
 3354TIP3    H210016   2.772   3.429   3.845
 3355TIP3   OH210017   1.765   3.305   3.924
 3355TIP3    H110018   1.769   3.215   3.891
 3355TIP3    H210019   1.796   3.299   4.014
 3356TIP3   OH210020   2.253   2.991   3.800
 3356TIP3    H110021   2.322   2.925   3.796
 3356TIP3    H210022   2.222   2.998   3.709
 3357TIP3   OH210023   2.319   3.210   3.956
 3357TIP3    H110024   2.301   3.138   3.896
 3357TIP3    H210025   2.246   3.271   3.944
 3358TIP3   OH210026   1.599   4.454   2.044
 3358TIP3    H110027   1.686   4.428   2.013
 3358TIP3    H210028   1.558   4.495   1.968
 3359TIP3   OH210029   1.065   3.831   2.233
 3359TIP3    H110030   1.159   3.845   2.225
 3359TIP3    H210031   1.050   3.745   2.193
 3360TIP3   OH210032   0.969   4.414   2.681
 3360TIP3    H110033   0.909   4.359   2.631
 3360TIP3    H210034   1.013   4.354   2.741
 3361TIP3   OH210035   1.109   4.249   2.854
 3361TIP3    H110036   1.097   4.182   2.921
 3361TIP3    H210037   1.164   4.315   2.896
 3362TIP3   OH210038   2.838   4.684   2.660
 3362TIP3    H110039   2.872   4.699   2.748
 3362TIP3    H210040   2.910   4.706   2.601
 3363TIP3   OH210041   2.890   4.690   2.944
 3363TIP3    H110042   2.838   4.610   2.937
 3363TIP3    H210043   2.956   4.670   3.010
 3364TIP3   OH210044   2.904   4.393   3.513
 3364TIP3    H110045   2.841   4.403   3.584
 3364TIP3    H210046   2.957   4.473   3.517
 3365TIP3   OH210047   2.738   3.905   2.124
 3365TIP3    H110048   2.799   3.973   2.093
 3365TIP3    H210049   2.783   3.864   2.197
 3366TIP3   OH210050   2.866   3.759   2.323
 3366TIP3    H110051   2.797   3.722   2.378
 3366TIP3    H210052   2.930   3.793   2.384
 3367TIP3   OH210053   2.918   4.160   2.758
 3367TIP3    H110054   2.967   4.086   2.722
 3367TIP3    H210055   2.919   4.226   2.690
 3368TIP3   OH210056   2.739   4.460   2.962
 3368TIP3    H110057   2.677   4.507   3.018
 3368TIP3    H210058   2.686   4.425   2.891
 3369TIP3   OH210059   2.776   3.677   1.972
 3369TIP3    H110060   2.705   3.675   1.907
 3369TIP3    H210061   2.758   3.755   2.024
 3370TIP3   OH210062   2.625   3.331   1.909
 3370TIP3    H110063   2.583   3.361   1.829
 3370TIP3    H210064   2.618   3.235   1.906
 3371TIP3   OH210065   2.658   3.626   2.457
 3371TIP3    H110066   2.661   3.531   2.446
 3371TIP3    H210067   2.640   3.639   2.550
 3372TIP3   OH210068   2.954   4.046   3.322
 3372TIP3    H110069   3.018   3.974   3.313
 3372TIP3    H210070   2.986   4.113   3.262
 3373TIP3   OH210071   3.118   3.826   3.320
 3373TIP3    H110072   3.044   3.786   3.365
 3373TIP3    H210073   3.191   3.766   3.334
 3374TIP3   OH210074   2.588   3.062   1.893
 3374TIP3    H110075   2.661   3.023   1.942
 3374TIP3    H210076   2.511   3.011   1.921
 3375TIP3   OH210077   2.657   3.343   2.347
 3375TIP3    H110078   2.704   3.261   2.361
 3375TIP3    H210079   2.699   3.383   2.271
 3376TIP3   OH210080   2.815   3.493   2.876
 3376TIP3    H110081   2.894   3.512   2.825
 3376TIP3    H210082   2.829   3.539   2.959
 3377TIP3   OH210083   2.883   3.655   3.094
 3377TIP3    H110084   2.810   3.684   3.148
 3377TIP3    H210085   2.916   3.735   3.053
 3378TIP3   OH210086   1.500   3.358   3.857
 3378TIP3    H110087   1.592   3.363   3.882
 3378TIP3    H210088   1.468   3.278   3.899
 3379TIP3   OH210089   3.327   3.211   3.638
 3379TIP3    H110090   3.399   3.170   3.590
 3379TIP3    H210091   3.301   3.285   3.584
 3380TIP3   OH210092   2.777   3.097   2.399
 3380TIP3    H110093   2.820   3.087   2.485
 3380TIP3    H210094   2.715   3.024   2.396
 3381TIP3   OH210095   1.476   3.081   3.247
 3381TIP3    H110096   1.527   3.000   3.246
 3381TIP3    H210097   1.539   3.148   3.219
 3382TIP3   OH210098   1.262   3.384   3.308
 3382TIP3    H110099   1.307   3.375   3.223
 3382TIP3    H210100   1.331   3.369   3.372
 3383TIP3   OH210101   3.202   3.387   3.467
 3383TIP3    H110102   3.141   3.420   3.533
 3383TIP3    H210103   3.149   3.333   3.410
 3384TIP3   OH210104   2.826   2.988   2.022
 3384TIP3    H110105   2.879   2.927   1.970
 3384TIP3    H210106   2.880   3.067   2.027
 3385TIP3   OH210107   1.234   2.858   2.792
 3385TIP3    H110108   1.147   2.851   2.832
 3385TIP3    H210109   1.219   2.909   2.713
 3386TIP3   OH210110   2.420   4.557   2.320
 3386TIP3    H110111   2.454   4.540   2.232
 3386TIP3    H210112   2.494   4.595   2.368
 3387TIP3   OH210113   1.473   2.905   3.620
 3387TIP3    H110114   1.422   2.895   3.700
 3387TIP3    H210115   1.413   2.949   3.560
 3388TIP3   OH210116   1.497   4.367   3.677
 3388TIP3    H110117   1.405   4.342   3.672
 3388TIP3    H210118   1.521   4.352   3.768
 3389TIP3   OH210119   1.713   4.422   3.238
 3389TIP3    H110120   1.663   4.497   3.203
 3389TIP3    H210121   1.796   4.424   3.191
 3390TIP3   OH210122   2.105   4.637   3.369
 3390TIP3    H110123   2.147   4.632   3.456
 3390TIP3    H210124   2.162   4.696   3.319
 3391TIP3   OH210125   2.278   4.803   3.231
 3391TIP3    H110126   2.321   4.749   3.164
 3391TIP3    H210127   2.349   4.844   3.279
 3392TIP3   OH210128   3.098   3.137   3.332
 3392TIP3    H110129   3.021   3.138   3.275
 3392TIP3    H210130   3.133   3.048   3.324
 3393TIP3   OH210131   1.373   4.642   3.285
 3393TIP3    H110132   1.282   4.660   3.261
 3393TIP3    H210133   1.395   4.710   3.348
 3394TIP3   OH210134   1.599   4.645   3.129
 3394TIP3    H110135   1.515   4.645   3.175
 3394TIP3    H210136   1.577   4.665   3.038
 3395TIP3   OH210137   2.021   4.651   2.926
 3395TIP3    H110138   1.956   4.654   2.856
 3395TIP3    H210139   2.025   4.741   2.959
 3396TIP3   OH210140   2.290   4.625   2.993
 3396TIP3    H110141   2.198   4.619   2.967
 3396TIP3    H210142   2.335   4.657   2.915
 3397TIP3   OH210143   2.515   4.799   2.890
 3397TIP3    H110144   2.490   4.882   2.850
 3397TIP3    H210145   2.534   4.741   2.816
 3398TIP3   OH210146   1.282   4.428   3.000
 3398TIP3    H110147   1.307   4.403   3.089
 3398TIP3    H210148   1.355   4.398   2.945
 3399TIP3   OH210149   1.488   4.324   2.859
 3399TIP3    H110150   1.501   4.238   2.900
 3399TIP3    H210151   1.576   4.363   2.857
 3400TIP3   OH210152   1.758   4.401   2.874
 3400TIP3    H110153   1.777   4.310   2.851
 3400TIP3    H210154   1.811   4.418   2.951
 3401TIP3   OH210155   2.307   3.052   2.982
 3401TIP3    H110156   2.264   2.980   3.028
 3401TIP3    H210157   2.374   3.010   2.928
 3402TIP3   OH210158   2.797   2.949   2.847
 3402TIP3    H110159   2.841   3.006   2.784
 3402TIP3    H210160   2.711   2.988   2.859
 3403TIP3   OH210161   2.923   3.057   2.631
 3403TIP3    H110162   2.988   2.994   2.601
 3403TIP3    H210163   2.963   3.142   2.616
 3404TIP3   OH210164   1.554   2.745   2.970
 3404TIP3    H110165   1.465   2.709   2.980
 3404TIP3    H210166   1.609   2.667   2.962
 3405TIP3   OH210167   1.351   2.644   2.659
 3405TIP3    H110168   1.379   2.695   2.583
 3405TIP3    H210169   1.314   2.709   2.719
 3406TIP3   OH210170   2.028   2.788   2.864
 3406TIP3    H110171   2.076   2.836   2.795
 3406TIP3    H210172   2.069   2.818   2.946
 3407TIP3   OH210173   2.507   2.932   2.841
 3407TIP3    H110174   2.518   2.904   2.750
 3407TIP3    H210175   2.522   2.853   2.893
 3408TIP3   OH210176   2.588   2.891   2.409
 3408TIP3    H110177   2.508   2.938   2.432
 3408TIP3    H210178   2.576   2.804   2.448
 3409TIP3   OH210179   1.046   4.228   2.384
 3409TIP3    H110180   0.965   4.194   2.345
 3409TIP3    H210181   1.052   4.318   2.352
 3410TIP3   OH210182   1.979   2.980   2.471
 3410TIP3    H110183   2.031   2.931   2.534
 3410TIP3    H210184   1.983   3.071   2.502
 3411TIP3   OH210185   1.851   4.375   1.970
 3411TIP3    H110186   1.935   4.402   1.932
 3411TIP3    H210187   1.820   4.306   1.912
 3412TIP3   OH210188   2.548   4.510   2.078
 3412TIP3    H110189   2.543   4.415   2.067
 3412TIP3    H210190   2.506   4.545   1.999
 3413TIP3   OH210191   1.778   3.034   3.843
 3413TIP3    H110192   1.743   2.970   3.905
 3413TIP3    H210193   1.871   3.041   3.867
 3414TIP3   OH210194   2.027   3.035   3.963
 3414TIP3    H110195   2.107   3.015   3.915
 3414TIP3    H210196   2.021   2.967   4.031
 3415TIP3   OH210197   1.152   4.208   2.037
 3415TIP3    H110198   1.164   4.233   2.128
 3415TIP3    H210199   1.236   4.171   2.011
 3416TIP3   OH210200   2.842   3.127   3.764
 3416TIP3    H110201   2.862   3.098   3.853
 3416TIP3    H210202   2.925   3.120   3.717
 3417TIP3   OH210203   2.776   4.662   3.272
 3417TIP3    H110204   2.702   4.633   3.219
 3417TIP3    H210205   2.763   4.756   3.282
 3418TIP3   OH210206   4.031   4.068   2.000
 3418TIP3    H110207   4.008   4.155   1.969
 3418TIP3    H210208   3.956   4.013   1.977
 3419TIP3   OH210209   4.041   4.035   2.433
 3419TIP3    H110210   4.095   4.019   2.510
 3419TIP3    H210211   3.997   3.952   2.417
 3420TIP3   OH210212   3.342   3.903   2.772
 3420TIP3    H110213   3.378   3.849   2.843
 3420TIP3    H210214   3.418   3.930   2.721
 3421TIP3   OH210215   4.303   4.416   2.053
 3421TIP3    H110216   4.271   4.369   2.130
 3421TIP3    H210217   4.303   4.508   2.080
 3422TIP3   OH210218   3.331   4.327   2.462
 3422TIP3    H110219   3.316   4.233   2.466
 3422TIP3    H210220   3.426   4.336   2.454
 3423TIP3   OH210221   3.020   3.534   2.242
 3423TIP3    H110222   2.978   3.617   2.267
 3423TIP3    H210223   2.949   3.483   2.203
 3424TIP3   OH210224   3.097   3.840   2.465
 3424TIP3    H110225   3.146   3.762   2.491
 3424TIP3    H210226   3.164   3.903   2.438
 3425TIP3   OH210227   3.974   4.694   2.122
 3425TIP3    H110228   4.070   4.702   2.120
 3425TIP3    H210229   3.955   4.658   2.208
 3426TIP3   OH210230   3.851   4.259   2.431
 3426TIP3    H110231   3.896   4.178   2.407
 3426TIP3    H210232   3.921   4.318   2.458
 3427TIP3   OH210233   4.890   3.581   2.442
 3427TIP3    H110234   4.899   3.662   2.492
 3427TIP3    H210235   4.915   3.605   2.353
 3428TIP3   OH210236   4.270   3.749   2.465
 3428TIP3    H110237   4.302   3.661   2.487
 3428TIP3    H210238   4.232   3.740   2.378
 3429TIP3   OH210239   3.617   3.407   2.423
 3429TIP3    H110240   3.592   3.479   2.366
 3429TIP3    H210241   3.561   3.334   2.395
 3430TIP3   OH210242   4.269   3.507   2.038
 3430TIP3    H110243   4.351   3.457   2.040
 3430TIP3    H210244   4.268   3.548   1.952
 3431TIP3   OH210245   3.238   3.620   2.557
 3431TIP3    H110246   3.321   3.600   2.602
 3431TIP3    H210247   3.242   3.569   2.477
 3432TIP3   OH210248   3.659   3.822   2.370
 3432TIP3    H110249   3.753   3.805   2.377
 3432TIP3    H210250   3.622   3.740   2.337
 3433TIP3   OH210251   4.933   3.799   2.609
 3433TIP3    H110252   4.845   3.836   2.604
 3433TIP3    H210253   4.970   3.834   2.690
 3434TIP3   OH210254   3.598   3.410   2.877
 3434TIP3    H110255   3.546   3.443   2.804
 3434TIP3    H210256   3.542   3.422   2.953
 3435TIP3   OH210257   3.960   4.293   1.853
 3435TIP3    H110258   3.907   4.263   1.778
 3435TIP3    H210259   3.921   4.377   1.877
 3436TIP3   OH210260   3.688   4.186   2.643
 3436TIP3    H110261   3.635   4.258   2.677
 3436TIP3    H210262   3.737   4.225   2.571
 3437TIP3   OH210263   4.543   3.528   2.247
 3437TIP3    H110264   4.475   3.490   2.303
 3437TIP3    H210265   4.559   3.614   2.284
 3438TIP3   OH210266   3.486   3.515   2.646
 3438TIP3    H110267   3.541   3.590   2.669
 3438TIP3    H210268   3.533   3.472   2.574
 3439TIP3   OH210269   3.533   4.391   2.747
 3439TIP3    H110270   3.522   4.482   2.718
 3439TIP3    H210271   3.454   4.372   2.798
 3440TIP3   OH210272   2.910   4.092   2.003
 3440TIP3    H110273   2.875   4.110   1.916
 3440TIP3    H210274   2.934   4.178   2.038
 3441TIP3   OH210275   4.686   3.472   2.618
 3441TIP3    H110276   4.598   3.489   2.583
 3441TIP3    H210277   4.745   3.499   2.547
 3442TIP3   OH210278   3.939   3.100   2.613
 3442TIP3    H110279   3.931   3.009   2.641
 3442TIP3    H210280   3.861   3.143   2.650
 3443TIP3   OH210281   4.221   4.379   1.788
 3443TIP3    H110282   4.132   4.350   1.806
 3443TIP3    H210283   4.260   4.394   1.875
 3444TIP3   OH210284   4.573   4.506   2.562
 3444TIP3    H110285   4.560   4.424   2.514
 3444TIP3    H210286   4.549   4.574   2.499
 3445TIP3   OH210287   3.869   3.889   1.854
 3445TIP3    H110288   3.784   3.930   1.836
 3445TIP3    H210289   3.915   3.890   1.770
 3446TIP3   OH210290   3.841   3.698   1.544
 3446TIP3    H110291   3.908   3.745   1.594
 3446TIP3    H210292   3.890   3.631   1.497
 3447TIP3   OH210293   4.765   4.140   2.447
 3447TIP3    H110294   4.682   4.187   2.452
 3447TIP3    H210295   4.797   4.156   2.358
 3448TIP3   OH210296   4.223   3.976   1.834
 3448TIP3    H110297   4.158   4.012   1.894
 3448TIP3    H210298   4.303   3.970   1.886
 3449TIP3   OH210299   4.461   4.005   2.763
 3449TIP3    H110300   4.458   4.089   2.809
 3449TIP3    H210301   4.380   4.002   2.713
 3450TIP3   OH210302   3.459   3.954   2.222
 3450TIP3    H110303   3.422   3.894   2.158
 3450TIP3    H210304   3.531   3.907   2.261
 3451TIP3   OH210305   3.595   4.376   2.363
 3451TIP3    H110306   3.573   4.362   2.271
 3451TIP3    H210307   3.683   4.339   2.373
 3452TIP3   OH210308   3.558   3.950   2.596
 3452TIP3    H110309   3.597   3.914   2.516
 3452TIP3    H210310   3.606   4.031   2.612
 3453TIP3   OH210311   3.993   4.597   2.413
 3453TIP3    H110312   4.054   4.668   2.432
 3453TIP3    H210313   4.035   4.519   2.449
 3454TIP3   OH210314   3.729   4.482   2.922
 3454TIP3    H110315   3.669   4.542   2.965
 3454TIP3    H210316   3.674   4.432   2.862
 3455TIP3   OH210317   4.066   3.834   1.652
 3455TIP3    H110318   4.122   3.895   1.700
 3455TIP3    H210319   4.095   3.841   1.561
 3456TIP3   OH210320   3.485   4.028   3.052
 3456TIP3    H110321   3.492   4.119   3.080
 3456TIP3    H210322   3.391   4.011   3.050
 3457TIP3   OH210323   3.856   4.543   1.909
 3457TIP3    H110324   3.893   4.596   1.980
 3457TIP3    H210325   3.794   4.601   1.865
 3458TIP3   OH210326   3.523   4.649   2.999
 3458TIP3    H110327   3.502   4.659   2.906
 3458TIP3    H210328   3.439   4.636   3.041
 3459TIP3   OH210329   3.333   3.796   2.022
 3459TIP3    H110330   3.255   3.843   1.992
 3459TIP3    H210331   3.302   3.707   2.040
 3460TIP3   OH210332   4.388   4.431   1.245
 3460TIP3    H110333   4.383   4.526   1.242
 3460TIP3    H210334   4.481   4.411   1.230
 3461TIP3   OH210335   3.116   4.200   2.954
 3461TIP3    H110336   3.047   4.181   2.891
 3461TIP3    H210337   3.150   4.114   2.978
 3462TIP3   OH210338   2.986   4.378   2.588
 3462TIP3    H110339   3.081   4.372   2.575
 3462TIP3    H210340   2.974   4.450   2.650
 3463TIP3   OH210341   4.810   4.834   2.654
 3463TIP3    H110342   4.812   4.740   2.670
 3463TIP3    H210343   4.731   4.865   2.700
 3464TIP3   OH210344   3.931   4.618   2.793
 3464TIP3    H110345   3.913   4.712   2.804
 3464TIP3    H210346   3.857   4.575   2.836
 3465TIP3   OH210347   3.714   4.727   1.741
 3465TIP3    H110348   3.671   4.706   1.658
 3465TIP3    H210349   3.679   4.812   1.766
 3466TIP3   OH210350   3.133   4.586   2.113
 3466TIP3    H110351   3.177   4.578   2.197
 3466TIP3    H210352   3.085   4.504   2.103
 3467TIP3   OH210353   3.903   4.659   1.370
 3467TIP3    H110354   3.954   4.588   1.331
 3467TIP3    H210355   3.944   4.674   1.455
 3468TIP3   OH210356   3.974   4.709   1.640
 3468TIP3    H110357   3.891   4.700   1.686
 3468TIP3    H210358   4.041   4.709   1.709
 3469TIP3   OH210359   4.715   3.946   2.904
 3469TIP3    H110360   4.626   3.966   2.875
 3469TIP3    H210361   4.725   3.852   2.890
 3470TIP3   OH210362   3.314   4.388   2.917
 3470TIP3    H110363   3.368   4.374   2.996
 3470TIP3    H210364   3.243   4.324   2.925
 3471TIP3   OH210365   3.702   3.193   2.733
 3471TIP3    H110366   3.618   3.154   2.706
 3471TIP3    H210367   3.678   3.272   2.781
 3472TIP3   OH210368   4.237   3.315   2.936
 3472TIP3    H110369   4.303   3.293   3.001
 3472TIP3    H210370   4.153   3.302   2.981
 3473TIP3   OH210371   4.465   3.741   2.856
 3473TIP3    H110372   4.416   3.735   2.938
 3473TIP3    H210373   4.446   3.830   2.824
 3474TIP3   OH210374   4.144   3.808   1.388
 3474TIP3    H110375   4.097   3.814   1.305
 3474TIP3    H210376   4.225   3.858   1.373
 3475TIP3   OH210377   3.848   3.229   1.703
 3475TIP3    H110378   3.811   3.238   1.791
 3475TIP3    H210379   3.810   3.148   1.669
 3476TIP3   OH210380   3.638   3.727   2.742
 3476TIP3    H110381   3.591   3.732   2.825
 3476TIP3    H210382   3.614   3.808   2.697
 3477TIP3   OH210383   3.518   3.607   2.263
 3477TIP3    H110384   3.429   3.583   2.289
 3477TIP3    H210385   3.528   3.573   2.174
 3478TIP3   OH210386   3.999   3.687   1.988
 3478TIP3    H110387   3.949   3.760   1.950
 3478TIP3    H210388   4.064   3.665   1.920
 3479TIP3   OH210389   4.182   3.944   3.066
 3479TIP3    H110390   4.157   3.881   3.133
 3479TIP3    H210391   4.274   3.964   3.085
 3480TIP3   OH210392   4.171   3.704   2.213
 3480TIP3    H110393   4.099   3.731   2.156
 3480TIP3    H210394   4.206   3.625   2.170
 3481TIP3   OH210395   3.474   3.740   2.962
 3481TIP3    H110396   3.483   3.804   3.032
 3481TIP3    H210397   3.455   3.658   3.007
 3482TIP3   OH210398   3.520   3.218   1.680
 3482TIP3    H110399   3.508   3.219   1.775
 3482TIP3    H210400   3.442   3.261   1.645
 3483TIP3   OH210401   3.066   3.267   2.541
 3483TIP3    H110402   3.139   3.297   2.595
 3483TIP3    H210403   3.106   3.239   2.459
 3484TIP3   OH210404   2.966   3.231   2.048
 3484TIP3    H110405   3.015   3.270   1.975
 3484TIP3    H210406   2.902   3.298   2.073
 3485TIP3   OH210407   4.212   3.946   2.642
 3485TIP3    H110408   4.238   3.880   2.578
 3485TIP3    H210409   4.167   3.896   2.711
 3486TIP3   OH210410   3.883   3.397   2.318
 3486TIP3    H110411   3.803   3.398   2.372
 3486TIP3    H210412   3.954   3.389   2.382
 3487TIP3   OH210413   3.279   3.484   2.323
 3487TIP3    H110414   3.191   3.488   2.287
 3487TIP3    H210415   3.306   3.393   2.309
 3488TIP3   OH210416   3.536   3.484   2.019
 3488TIP3    H110417   3.630   3.492   2.006
 3488TIP3    H210418   3.498   3.501   1.933
 3489TIP3   OH210419   4.340   3.482   2.505
 3489TIP3    H110420   4.325   3.496   2.599
 3489TIP3    H210421   4.271   3.422   2.479
 3490TIP3   OH210422   3.420   3.509   1.772
 3490TIP3    H110423   3.357   3.459   1.721
 3490TIP3    H210424   3.474   3.554   1.707
 3491TIP3   OH210425   4.528   5.189   2.741
 3491TIP3    H110426   4.523   5.201   2.646
 3491TIP3    H210427   4.607   5.237   2.767
 3492TIP3   OH210428   3.469   4.300   3.149
 3492TIP3    H110429   3.549   4.319   3.198
 3492TIP3    H210430   3.399   4.303   3.215
 3493TIP3   OH210431   3.932   3.767   2.425
 3493TIP3    H110432   4.000   3.716   2.381
 3493TIP3    H210433   3.926   3.730   2.513
 3494TIP3   OH210434   3.421   3.235   2.312
 3494TIP3    H110435   3.391   3.162   2.366
 3494TIP3    H210436   3.439   3.194   2.227
 3495TIP3   OH210437   3.905   3.675   2.688
 3495TIP3    H110438   3.817   3.705   2.711
 3495TIP3    H210439   3.963   3.728   2.743
 3496TIP3   OH210440   3.632   4.022   1.799
 3496TIP3    H110441   3.557   3.967   1.776
 3496TIP3    H210442   3.607   4.063   1.882
 3497TIP3   OH210443   4.530   4.277   2.412
 3497TIP3    H110444   4.561   4.325   2.335
 3497TIP3    H210445   4.448   4.236   2.383
 3498TIP3   OH210446   4.088   3.351   1.700
 3498TIP3    H110447   3.999   3.317   1.694
 3498TIP3    H210448   4.077   3.446   1.708
 3499TIP3   OH210449   4.052   4.360   2.810
 3499TIP3    H110450   4.098   4.353   2.893
 3499TIP3    H210451   4.012   4.447   2.812
 3500TIP3   OH210452   4.189   3.617   1.776
 3500TIP3    H110453   4.260   3.593   1.716
 3500TIP3    H210454   4.148   3.693   1.734
 3501TIP3   OH210455   3.328   4.040   2.450
 3501TIP3    H110456   3.366   4.021   2.365
 3501TIP3    H210457   3.392   4.008   2.514
 3502TIP3   OH210458   3.791   4.184   1.648
 3502TIP3    H110459   3.742   4.266   1.645
 3502TIP3    H210460   3.736   4.126   1.701
 3503TIP3   OH210461   3.210   3.966   3.086
 3503TIP3    H110462   3.211   3.944   3.179
 3503TIP3    H210463   3.136   3.918   3.050
 3504TIP3   OH210464   3.949   4.102   3.101
 3504TIP3    H110465   3.879   4.043   3.074
 3504TIP3    H210466   4.029   4.060   3.071
 3505TIP3   OH210467   4.197   4.645   2.710
 3505TIP3    H110468   4.103   4.632   2.714
 3505TIP3    H210469   4.220   4.686   2.794
 3506TIP3   OH210470   4.617   3.694   1.560
 3506TIP3    H110471   4.546   3.643   1.520
 3506TIP3    H210472   4.607   3.781   1.523
 3507TIP3   OH210473   4.818   4.549   2.675
 3507TIP3    H110474   4.724   4.545   2.656
 3507TIP3    H210475   4.860   4.525   2.592
 3508TIP3   OH210476   4.316   4.505   1.560
 3508TIP3    H110477   4.284   4.460   1.639
 3508TIP3    H210478   4.306   4.440   1.490
 3509TIP3   OH210479   4.299   4.142   2.328
 3509TIP3    H110480   4.208   4.121   2.346
 3509TIP3    H210481   4.331   4.066   2.279
 3510TIP3   OH210482   3.453   4.380   2.117
 3510TIP3    H110483   3.448   4.456   2.060
 3510TIP3    H210484   3.363   4.368   2.148
 3511TIP3   OH210485   3.013   3.665   1.831
 3511TIP3    H110486   3.056   3.748   1.854
 3511TIP3    H210487   2.933   3.665   1.883
 3512TIP3   OH210488   3.540   4.135   2.025
 3512TIP3    H110489   3.522   4.224   2.055
 3512TIP3    H210490   3.513   4.080   2.099
 3513TIP3   OH210491   3.743   4.700   2.559
 3513TIP3    H110492   3.776   4.777   2.513
 3513TIP3    H210493   3.817   4.640   2.563
 3514TIP3   OH210494   3.368   4.603   1.968
 3514TIP3    H110495   3.281   4.611   2.007
 3514TIP3    H210496   3.404   4.692   1.972
 3515TIP3   OH210497   4.091   4.363   2.534
 3515TIP3    H110498   4.081   4.357   2.629
 3515TIP3    H210499   4.173   4.318   2.515
 3516TIP3   OH210500   4.085   4.238   1.414
 3516TIP3    H110501   4.136   4.199   1.485
 3516TIP3    H210502   3.998   4.199   1.423
 3517TIP3   OH210503   4.350   4.881   2.566
 3517TIP3    H110504   4.270   4.830   2.576
 3517TIP3    H210505   4.335   4.935   2.488
 3518TIP3   OH210506   4.390   4.706   1.226
 3518TIP3    H110507   4.389   4.767   1.152
 3518TIP3    H210508   4.325   4.743   1.287
 3519TIP3   OH210509   3.420   3.488   3.078
 3519TIP3    H110510   3.324   3.496   3.080
 3519TIP3    H210511   3.441   3.435   3.155
 3520TIP3   OH210512   4.258   4.111   1.589
 3520TIP3    H110513   4.239   4.086   1.680
 3520TIP3    H210514   4.351   4.135   1.590
 3521TIP3   OH210515   3.157   4.590   2.741
 3521TIP3    H110516   3.209   4.527   2.791
 3521TIP3    H210517   3.173   4.673   2.785
 3522TIP3   OH210518   3.434   4.209   1.427
 3522TIP3    H110519   3.444   4.117   1.401
 3522TIP3    H210520   3.418   4.205   1.522
 3523TIP3   OH210521   3.373   4.226   1.699
 3523TIP3    H110522   3.439   4.200   1.763
 3523TIP3    H210523   3.371   4.321   1.704
 3524TIP3   OH210524   3.108   3.916   1.912
 3524TIP3    H110525   3.042   3.964   1.963
 3524TIP3    H210526   3.127   3.974   1.838
 3525TIP3   OH210527   4.297   3.529   2.770
 3525TIP3    H110528   4.359   3.585   2.817
 3525TIP3    H210529   4.275   3.460   2.833
 3526TIP3   OH210530   4.104   3.292   1.971
 3526TIP3    H110531   4.095   3.305   1.876
 3526TIP3    H210532   4.142   3.373   2.003
 3527TIP3   OH210533   3.644   4.410   1.645
 3527TIP3    H110534   3.559   4.435   1.680
 3527TIP3    H210535   3.672   4.485   1.593
 3528TIP3   OH210536   3.820   3.488   2.061
 3528TIP3    H110537   3.879   3.559   2.037
 3528TIP3    H210538   3.840   3.470   2.153
 3529TIP3   OH210539   4.112   3.786   2.844
 3529TIP3    H110540   4.130   3.838   2.922
 3529TIP3    H210541   4.158   3.704   2.858
 3530TIP3   OH210542   3.956   3.175   2.167
 3530TIP3    H110543   3.934   3.254   2.217
 3530TIP3    H210544   4.015   3.206   2.098
 3531TIP3   OH210545   3.392   4.498   1.716
 3531TIP3    H110546   3.374   4.569   1.655
 3531TIP3    H210547   3.382   4.537   1.802
 3532TIP3   OH210548   3.485   3.209   1.958
 3532TIP3    H110549   3.472   3.300   1.987
 3532TIP3    H210550   3.580   3.196   1.964
 3533TIP3   OH210551   4.724   3.668   2.828
 3533TIP3    H110552   4.631   3.685   2.844
 3533TIP3    H210553   4.725   3.609   2.752
 3534TIP3   OH210554   4.387   3.901   2.209
 3534TIP3    H110555   4.313   3.840   2.209
 3534TIP3    H210556   4.455   3.857   2.260
 3535TIP3   OH210557   3.130   4.092   1.694
 3535TIP3    H110558   3.201   4.155   1.702
 3535TIP3    H210559   3.161   4.029   1.629
 3536TIP3   OH210560   3.045   3.388   1.838
 3536TIP3    H110561   3.050   3.484   1.841
 3536TIP3    H210562   2.995   3.370   1.758
 3537TIP3   OH210563   3.442   3.102   2.701
 3537TIP3    H110564   3.408   3.073   2.616
 3537TIP3    H210565   3.430   3.026   2.759
 3538TIP3   OH210566   2.959   4.363   2.085
 3538TIP3    H110567   2.914   4.397   2.162
 3538TIP3    H210568   2.916   4.406   2.011
 3539TIP3   OH210569   3.169   4.903   3.159
 3539TIP3    H110570   3.251   4.910   3.208
 3539TIP3    H210571   3.159   4.809   3.144
 3540TIP3   OH210572   3.631   4.814   3.191
 3540TIP3    H110573   3.721   4.784   3.203
 3540TIP3    H210574   3.596   4.759   3.120
 3541TIP3   OH210575   3.588   4.412   1.321
 3541TIP3    H110576   3.540   4.342   1.365
 3541TIP3    H210577   3.663   4.369   1.280
 3542TIP3   OH210578   4.246   4.744   2.965
 3542TIP3    H110579   4.261   4.676   3.030
 3542TIP3    H210580   4.320   4.804   2.975
 3543TIP3   OH210581   4.032   4.449   1.245
 3543TIP3    H110582   4.064   4.385   1.309
 3543TIP3    H210583   4.095   4.444   1.173
 3544TIP3   OH210584   3.265   4.304   3.341
 3544TIP3    H110585   3.284   4.211   3.352
 3544TIP3    H210586   3.177   4.306   3.302
 3545TIP3   OH210587   3.254   3.903   1.541
 3545TIP3    H110588   3.304   3.878   1.618
 3545TIP3    H210589   3.320   3.916   1.473
 3546TIP3   OH210590   3.883   4.379   3.126
 3546TIP3    H110591   3.839   4.402   3.044
 3546TIP3    H210592   3.917   4.291   3.110
 3547TIP3   OH210593   3.825   4.128   1.381
 3547TIP3    H110594   3.802   4.139   1.474
 3547TIP3    H210595   3.805   4.036   1.362
 3548TIP3   OH210596   4.372   4.428   2.739
 3548TIP3    H110597   4.444   4.459   2.684
 3548TIP3    H210598   4.303   4.493   2.728
 3549TIP3   OH210599   3.362   4.045   3.356
 3549TIP3    H110600   3.411   3.967   3.330
 3549TIP3    H210601   3.395   4.067   3.443
 3550TIP3   OH210602   3.425   3.844   1.754
 3550TIP3    H110603   3.403   3.813   1.842
 3550TIP3    H210604   3.473   3.771   1.715
 3551TIP3   OH210605   3.746   3.925   3.007
 3551TIP3    H110606   3.659   3.964   3.016
 3551TIP3    H210607   3.776   3.955   2.921
 3552TIP3   OH210608   3.570   3.662   1.600
 3552TIP3    H110609   3.539   3.665   1.509
 3552TIP3    H210610   3.665   3.671   1.593
 3553TIP3   OH210611   4.244   4.304   3.092
 3553TIP3    H110612   4.312   4.265   3.036
 3553TIP3    H210613   4.237   4.245   3.167
 3554TIP3   OH210614   4.358   3.947   1.272
 3554TIP3    H110615   4.343   3.906   1.187
 3554TIP3    H210616   4.331   4.038   1.260
 3555TIP3   OH210617   3.861   3.696   3.109
 3555TIP3    H110618   3.857   3.624   3.045
 3555TIP3    H210619   3.820   3.770   3.064
 3556TIP3   OH210620   3.857   3.495   2.910
 3556TIP3    H110621   3.881   3.534   2.825
 3556TIP3    H210622   3.766   3.467   2.898
 3557TIP3   OH210623   3.863   4.026   2.782
 3557TIP3    H110624   3.949   4.067   2.773
 3557TIP3    H210625   3.803   4.084   2.734
 3558TIP3   OH210626   4.455   3.983   3.162
 3558TIP3    H110627   4.509   3.906   3.179
 3558TIP3    H210628   4.517   4.056   3.162
 3559TIP3   OH210629   4.485   4.249   2.910
 3559TIP3    H110630   4.433   4.311   2.859
 3559TIP3    H210631   4.575   4.263   2.880
 3560TIP3   OH210632   3.775   3.806   3.358
 3560TIP3    H110633   3.683   3.808   3.386
 3560TIP3    H210634   3.771   3.767   3.270
 3561TIP3   OH210635   3.975   3.269   3.023
 3561TIP3    H110636   3.934   3.347   2.986
 3561TIP3    H210637   3.912   3.199   3.008
 3562TIP3   OH210638   4.103   3.738   3.234
 3562TIP3    H110639   4.085   3.740   3.328
 3562TIP3    H210640   4.019   3.718   3.193
 3563TIP3   OH210641   4.330   3.677   3.081
 3563TIP3    H110642   4.256   3.685   3.141
 3563TIP3    H210643   4.406   3.664   3.138
 3564TIP3   OH210644   4.576   3.660   3.218
 3564TIP3    H110645   4.590   3.567   3.234
 3564TIP3    H210646   4.569   3.699   3.306
 3565TIP3   OH210647   3.559   3.570   3.394
 3565TIP3    H110648   3.562   3.478   3.365
 3565TIP3    H210649   3.617   3.573   3.470
 3566TIP3   OH210650   4.049   3.254   3.287
 3566TIP3    H110651   4.113   3.183   3.278
 3566TIP3    H210652   4.014   3.266   3.199
 3567TIP3   OH210653   4.136   3.473   3.442
 3567TIP3    H110654   4.107   3.405   3.380
 3567TIP3    H210655   4.060   3.531   3.451
 3568TIP3   OH210656   3.390   4.706   1.532
 3568TIP3    H110657   3.482   4.688   1.510
 3568TIP3    H210658   3.356   4.752   1.455
 3569TIP3   OH210659   2.856   4.091   1.710
 3569TIP3    H110660   2.951   4.102   1.707
 3569TIP3    H210661   2.840   4.004   1.671
 3570TIP3   OH210662   2.754   4.667   2.172
 3570TIP3    H110663   2.692   4.611   2.126
 3570TIP3    H210664   2.802   4.608   2.230
 3571TIP3   OH210665   2.902   4.506   2.341
 3571TIP3    H110666   2.897   4.435   2.406
 3571TIP3    H210667   2.953   4.574   2.384
 3572TIP3   OH210668   4.671   4.920   2.154
 3572TIP3    H110669   4.663   4.936   2.248
 3572TIP3    H210670   4.639   5.001   2.113
 3573TIP3   OH210671   4.649   4.934   2.432
 3573TIP3    H110672   4.596   4.856   2.417
 3573TIP3    H210673   4.715   4.906   2.496
 3574TIP3   OH210674   4.720   4.644   2.997
 3574TIP3    H110675   4.645   4.652   3.056
 3574TIP3    H210676   4.764   4.729   3.003
 3575TIP3   OH210677   4.540   4.144   1.614
 3575TIP3    H110678   4.589   4.222   1.587
 3575TIP3    H210679   4.584   4.114   1.694
 3576TIP3   OH210680   4.670   4.032   1.840
 3576TIP3    H110681   4.613   4.045   1.916
 3576TIP3    H210682   4.754   4.068   1.867
 3577TIP3   OH210683   4.714   4.418   2.250
 3577TIP3    H110684   4.762   4.355   2.196
 3577TIP3    H210685   4.714   4.499   2.198
 3578TIP3   OH210686   4.487   4.708   2.391
 3578TIP3    H110687   4.425   4.750   2.451
 3578TIP3    H210688   4.441   4.704   2.307
 3579TIP3   OH210689   4.575   3.936   1.440
 3579TIP3    H110690   4.499   3.935   1.381
 3579TIP3    H210691   4.558   4.009   1.500
 3580TIP3   OH210692   4.418   3.566   1.414
 3580TIP3    H110693   4.371   3.593   1.336
 3580TIP3    H210694   4.420   3.471   1.409
 3581TIP3   OH210695   3.078   3.938   2.719
 3581TIP3    H110696   3.068   3.904   2.631
 3581TIP3    H210697   3.172   3.934   2.737
 3582TIP3   OH210698   4.742   4.299   2.813
 3582TIP3    H110699   4.811   4.235   2.794
 3582TIP3    H210700   4.766   4.376   2.760
 3583TIP3   OH210701   4.924   4.088   2.804
 3583TIP3    H110702   4.847   4.047   2.842
 3583TIP3    H210703   4.996   4.027   2.821
 3584TIP3   OH210704   4.409   3.291   1.400
 3584TIP3    H110705   4.458   3.246   1.469
 3584TIP3    H210706   4.320   3.255   1.407
 3585TIP3   OH210707   4.608   3.774   2.347
 3585TIP3    H110708   4.691   3.800   2.306
 3585TIP3    H210709   4.612   3.811   2.435
 3586TIP3   OH210710   4.676   3.915   2.583
 3586TIP3    H110711   4.605   3.943   2.640
 3586TIP3    H210712   4.706   3.996   2.541
 3587TIP3   OH210713   3.293   3.617   3.348
 3587TIP3    H110714   3.388   3.618   3.361
 3587TIP3    H210715   3.262   3.541   3.397
 3588TIP3   OH210716   5.141   3.502   3.125
 3588TIP3    H110717   5.208   3.449   3.081
 3588TIP3    H210718   5.101   3.552   3.054
 3589TIP3   OH210719   4.545   3.353   1.980
 3589TIP3    H110720   4.616   3.290   1.969
 3589TIP3    H210721   4.466   3.306   1.952
 3590TIP3   OH210722   3.277   3.327   2.712
 3590TIP3    H110723   3.329   3.248   2.722
 3590TIP3    H210724   3.341   3.396   2.694
 3591TIP3   OH210725   3.053   3.590   2.772
 3591TIP3    H110726   3.105   3.583   2.692
 3591TIP3    H210727   3.080   3.674   2.811
 3592TIP3   OH210728   4.987   3.638   2.949
 3592TIP3    H110729   4.920   3.679   3.003
 3592TIP3    H210730   4.937   3.588   2.884
 3593TIP3   OH210731   4.704   3.269   1.569
 3593TIP3    H110732   4.707   3.207   1.496
 3593TIP3    H210733   4.731   3.352   1.530
 3594TIP3   OH210734   3.045   3.101   2.274
 3594TIP3    H110735   2.960   3.092   2.318
 3594TIP3    H210736   3.026   3.153   2.196
 3595TIP3   OH210737   4.168   4.803   1.836
 3595TIP3    H110738   4.236   4.802   1.769
 3595TIP3    H210739   4.212   4.774   1.916
 3596TIP3   OH210740   3.279   3.183   3.118
 3596TIP3    H110741   3.226   3.177   3.198
 3596TIP3    H210742   3.219   3.216   3.051
 3597TIP3   OH210743   3.297   4.627   3.160
 3597TIP3    H110744   3.205   4.601   3.164
 3597TIP3    H210745   3.332   4.603   3.245
 3598TIP3   OH210746   3.517   4.668   2.717
 3598TIP3    H110747   3.467   4.743   2.685
 3598TIP3    H210748   3.603   4.677   2.675
 3599TIP3   OH210749   3.900   4.893   2.857
 3599TIP3    H110750   3.939   4.885   2.944
 3599TIP3    H210751   3.962   4.947   2.807
 3600TIP3   OH210752   4.087   5.050   2.726
 3600TIP3    H110753   4.140   5.003   2.663
 3600TIP3    H210754   4.151   5.099   2.778
 3601TIP3   OH210755   4.897   3.382   2.817
 3601TIP3    H110756   4.812   3.384   2.773
 3601TIP3    H210757   4.926   3.291   2.810
 3602TIP3   OH210758   3.163   4.915   2.766
 3602TIP3    H110759   3.071   4.936   2.748
 3602TIP3    H210760   3.189   4.978   2.833
 3603TIP3   OH210761   3.396   4.896   2.619
 3603TIP3    H110762   3.313   4.901   2.666
 3603TIP3    H210763   3.375   4.918   2.529
 3604TIP3   OH210764   3.820   4.917   2.404
 3604TIP3    H110765   3.746   4.927   2.344
 3604TIP3    H210766   3.828   5.002   2.447
 3605TIP3   OH210767   4.090   4.863   2.458
 3605TIP3    H110768   3.997   4.874   2.436
 3605TIP3    H210769   4.137   4.893   2.381
 3606TIP3   OH210770   4.313   5.012   2.319
 3606TIP3    H110771   4.296   5.091   2.269
 3606TIP3    H210772   4.314   4.942   2.254
 3607TIP3   OH210773   3.076   4.682   2.491
 3607TIP3    H110774   3.104   4.657   2.580
 3607TIP3    H210775   3.146   4.651   2.434
 3608TIP3   OH210776   3.279   4.570   2.347
 3608TIP3    H110777   3.291   4.485   2.390
 3608TIP3    H210778   3.365   4.611   2.350
 3609TIP3   OH210779   3.547   4.653   2.368
 3609TIP3    H110780   3.566   4.560   2.353
 3609TIP3    H210781   3.604   4.678   2.440
 3610TIP3   OH210782   4.124   3.297   2.445
 3610TIP3    H110783   4.083   3.228   2.497
 3610TIP3    H210784   4.184   3.251   2.387
 3611TIP3   OH210785   4.623   3.223   2.360
 3611TIP3    H110786   4.665   3.253   2.279
 3611TIP3    H210787   4.530   3.216   2.337
 3612TIP3   OH210788   4.774   3.306   2.137
 3612TIP3    H110789   4.804   3.231   2.086
 3612TIP3    H210790   4.853   3.355   2.158
 3613TIP3   OH210791   3.339   3.015   2.458
 3613TIP3    H110792   3.249   2.983   2.466
 3613TIP3    H210793   3.392   2.936   2.457
 3614TIP3   OH210794   3.152   2.897   2.100
 3614TIP3    H110795   3.187   2.944   2.025
 3614TIP3    H210796   3.129   2.966   2.163
 3615TIP3   OH210797   3.816   3.033   2.362
 3615TIP3    H110798   3.861   3.081   2.292
 3615TIP3    H210799   3.859   3.063   2.442
 3616TIP3   OH210800   4.353   3.189   2.283
 3616TIP3    H110801   4.359   3.145   2.198
 3616TIP3    H210802   4.342   3.118   2.346
 3617TIP3   OH210803   4.351   3.177   1.934
 3617TIP3    H110804   4.258   3.198   1.940
 3617TIP3    H210805   4.355   3.082   1.943
 3618TIP3   OH210806   2.840   4.485   1.869
 3618TIP3    H110807   2.757   4.452   1.834
 3618TIP3    H210808   2.845   4.575   1.838
 3619TIP3   OH210809   3.270   3.043   1.875
 3619TIP3    H110810   3.311   2.978   1.817
 3619TIP3    H210811   3.342   3.096   1.908
 3620TIP3   OH210812   3.760   3.237   1.965
 3620TIP3    H110813   3.811   3.179   2.022
 3620TIP3    H210814   3.782   3.325   1.996
 3621TIP3   OH210815   3.650   4.633   1.472
 3621TIP3    H110816   3.734   4.659   1.435
 3621TIP3    H210817   3.619   4.563   1.414
 3622TIP3   OH210818   4.335   4.774   1.599
 3622TIP3    H110819   4.334   4.679   1.591
 3622TIP3    H210820   4.291   4.806   1.520
 3623TIP3   OH210821   3.580   3.298   3.341
 3623TIP3    H110822   3.542   3.229   3.395
 3623TIP3    H210823   3.672   3.300   3.367
 3624TIP3   OH210824   3.829   3.289   3.462
 3624TIP3    H110825   3.905   3.268   3.409
 3624TIP3    H210826   3.822   3.215   3.523
 3625TIP3   OH210827   2.955   4.477   1.520
 3625TIP3    H110828   2.957   4.486   1.615
 3625TIP3    H210829   3.035   4.430   1.499
 3626TIP3   OH210830   4.644   3.389   3.247
 3626TIP3    H110831   4.661   3.358   3.336
 3626TIP3    H210832   4.729   3.381   3.203
 3627TIP3   OH210833   4.562   4.915   2.748
 3627TIP3    H110834   4.491   4.887   2.689
 3627TIP3    H210835   4.551   5.009   2.756
 3628TIP3   OH210836   5.837   4.294   1.513
 3628TIP3    H110837   5.812   4.382   1.486
 3628TIP3    H210838   5.762   4.240   1.492
 3629TIP3   OH210839   5.841   4.292   1.915
 3629TIP3    H110840   5.894   4.276   1.993
 3629TIP3    H210841   5.797   4.209   1.898
 3630TIP3   OH210842   5.140   4.162   2.258
 3630TIP3    H110843   5.176   4.110   2.329
 3630TIP3    H210844   5.216   4.195   2.210
 3631TIP3   OH210845   6.119   4.601   1.597
 3631TIP3    H110846   6.104   4.536   1.665
 3631TIP3    H210847   6.137   4.682   1.645
 3632TIP3   OH210848   5.145   4.572   1.937
 3632TIP3    H110849   5.124   4.480   1.950
 3632TIP3    H210850   5.240   4.576   1.935
 3633TIP3   OH210851   4.797   3.784   1.758
 3633TIP3    H110852   4.754   3.864   1.788
 3633TIP3    H210853   4.734   3.744   1.698
 3634TIP3   OH210854   4.912   4.112   1.941
 3634TIP3    H110855   4.961   4.035   1.970
 3634TIP3    H210856   4.979   4.179   1.928
 3635TIP3   OH210857   5.751   5.042   1.594
 3635TIP3    H110858   5.788   4.971   1.542
 3635TIP3    H210859   5.749   5.009   1.684
 3636TIP3   OH210860   5.657   4.514   1.916
 3636TIP3    H110861   5.702   4.433   1.892
 3636TIP3    H210862   5.725   4.572   1.948
 3637TIP3   OH210863   6.683   3.829   1.940
 3637TIP3    H110864   6.696   3.914   1.982
 3637TIP3    H210865   6.716   3.841   1.851
 3638TIP3   OH210866   6.052   4.003   1.953
 3638TIP3    H110867   6.085   3.919   1.983
 3638TIP3    H210868   6.013   3.985   1.868
 3639TIP3   OH210869   5.403   3.658   1.913
 3639TIP3    H110870   5.380   3.732   1.856
 3639TIP3    H210871   5.346   3.587   1.884
 3640TIP3   OH210872   6.107   3.764   1.559
 3640TIP3    H110873   6.170   3.757   1.631
 3640TIP3    H210874   6.158   3.797   1.486
 3641TIP3   OH210875   5.036   3.885   2.041
 3641TIP3    H110876   5.120   3.866   2.083
 3641TIP3    H210877   5.037   3.834   1.961
 3642TIP3   OH210878   5.456   4.073   1.854
 3642TIP3    H110879   5.550   4.058   1.862
 3642TIP3    H210880   5.420   3.991   1.822
 3643TIP3   OH210881   6.719   4.045   2.114
 3643TIP3    H110882   6.638   4.094   2.100
 3643TIP3    H210883   6.764   4.093   2.184
 3644TIP3   OH210884   5.386   3.666   2.366
 3644TIP3    H110885   5.337   3.702   2.292
 3644TIP3    H210886   5.332   3.685   2.442
 3645TIP3   OH210887   5.736   4.512   1.377
 3645TIP3    H110888   5.693   4.489   1.294
 3645TIP3    H210889   5.690   4.591   1.405
 3646TIP3   OH210890   5.487   4.444   2.126
 3646TIP3    H110891   5.435   4.515   2.160
 3646TIP3    H210892   5.537   4.483   2.054
 3647TIP3   OH210893   6.267   3.784   1.779
 3647TIP3    H110894   6.223   3.767   1.862
 3647TIP3    H210895   6.324   3.859   1.797
 3648TIP3   OH210896   5.276   3.774   2.134
 3648TIP3    H110897   5.332   3.848   2.158
 3648TIP3    H210898   5.324   3.729   2.064
 3649TIP3   OH210899   5.333   4.646   2.233
 3649TIP3    H110900   5.318   4.736   2.204
 3649TIP3    H210901   5.256   4.625   2.285
 3650TIP3   OH210902   4.700   4.347   1.497
 3650TIP3    H110903   4.658   4.368   1.414
 3650TIP3    H210904   4.722   4.432   1.536
 3651TIP3   OH210905   6.146   4.849   1.728
 3651TIP3    H110906   6.058   4.842   1.767
 3651TIP3    H210907   6.146   4.934   1.683
 3652TIP3   OH210908   6.487   3.709   2.103
 3652TIP3    H110909   6.404   3.742   2.070
 3652TIP3    H210910   6.552   3.740   2.039
 3653TIP3   OH210911   5.727   3.358   2.095
 3653TIP3    H110912   5.722   3.266   2.122
 3653TIP3    H210913   5.650   3.398   2.135
 3654TIP3   OH210914   5.854   4.859   1.411
 3654TIP3    H110915   5.912   4.784   1.398
 3654TIP3    H210916   5.907   4.935   1.388
 3655TIP3   OH210917   6.021   4.652   1.348
 3655TIP3    H110918   5.979   4.570   1.322
 3655TIP3    H210919   6.063   4.632   1.432
 3656TIP3   OH210920   6.375   4.741   2.073
 3656TIP3    H110921   6.361   4.665   2.016
 3656TIP3    H210922   6.362   4.816   2.016
 3657TIP3   OH210923   5.652   4.135   1.374
 3657TIP3    H110924   5.571   4.183   1.354
 3657TIP3    H210925   5.699   4.131   1.291
 3658TIP3   OH210926   5.631   3.909   1.070
 3658TIP3    H110927   5.689   3.974   1.111
 3658TIP3    H210928   5.691   3.851   1.023
 3659TIP3   OH210929   6.559   4.395   1.943
 3659TIP3    H110930   6.476   4.443   1.940
 3659TIP3    H210931   6.597   4.408   1.856
 3660TIP3   OH210932   6.016   4.199   1.331
 3660TIP3    H110933   5.969   4.232   1.408
 3660TIP3    H210934   6.105   4.185   1.362
 3661TIP3   OH210935   6.256   4.259   2.252
 3661TIP3    H110936   6.253   4.344   2.297
 3661TIP3    H210937   6.174   4.256   2.202
 3662TIP3   OH210938   5.260   4.209   1.704
 3662TIP3    H110939   5.221   4.146   1.643
 3662TIP3    H210940   5.333   4.162   1.744
 3663TIP3   OH210941   5.408   4.632   1.849
 3663TIP3    H110942   5.382   4.618   1.757
 3663TIP3    H210943   5.495   4.593   1.855
 3664TIP3   OH210944   5.360   4.206   2.079
 3664TIP3    H110945   5.399   4.170   2.000
 3664TIP3    H210946   5.408   4.288   2.095
 3665TIP3   OH210947   5.909   4.842   1.861
 3665TIP3    H110948   5.895   4.923   1.910
 3665TIP3    H210949   5.893   4.772   1.925
 3666TIP3   OH210950   5.527   4.741   2.408
 3666TIP3    H110951   5.465   4.797   2.455
 3666TIP3    H210952   5.472   4.691   2.348
 3667TIP3   OH210953   5.825   4.093   1.166
 3667TIP3    H110954   5.891   4.140   1.218
 3667TIP3    H210955   5.869   4.076   1.083
 3668TIP3   OH210956   5.278   4.280   2.547
 3668TIP3    H110957   5.286   4.372   2.573
 3668TIP3    H210958   5.183   4.265   2.542
 3669TIP3   OH210959   5.600   4.754   1.411
 3669TIP3    H110960   5.683   4.799   1.424
 3669TIP3    H210961   5.540   4.823   1.381
 3670TIP3   OH210962   5.315   4.899   2.493
 3670TIP3    H110963   5.293   4.911   2.401
 3670TIP3    H210964   5.231   4.886   2.536
 3671TIP3   OH210965   6.364   3.317   1.196
 3671TIP3    H110966   6.286   3.334   1.247
 3671TIP3    H210967   6.377   3.396   1.144
 3672TIP3   OH210968   5.123   4.049   1.512
 3672TIP3    H110969   5.051   4.103   1.482
 3672TIP3    H210970   5.082   3.966   1.538
 3673TIP3   OH210971   6.225   4.713   0.827
 3673TIP3    H110972   6.214   4.803   0.797
 3673TIP3    H210973   6.218   4.660   0.747
 3674TIP3   OH210974   4.918   4.454   2.440
 3674TIP3    H110975   4.846   4.440   2.378
 3674TIP3    H210976   4.949   4.366   2.461
 3675TIP3   OH210977   4.755   4.659   2.114
 3675TIP3    H110978   4.842   4.693   2.137
 3675TIP3    H210979   4.696   4.734   2.128
 3676TIP3   OH210980   6.602   5.089   2.144
 3676TIP3    H110981   6.608   4.995   2.161
 3676TIP3    H210982   6.524   5.117   2.191
 3677TIP3   OH210983   5.716   4.886   2.271
 3677TIP3    H110984   5.708   4.977   2.299
 3677TIP3    H210985   5.648   4.839   2.319
 3678TIP3   OH210986   5.489   4.989   1.258
 3678TIP3    H110987   5.447   4.994   1.173
 3678TIP3    H210988   5.465   5.071   1.302
 3679TIP3   OH210989   4.925   4.833   1.602
 3679TIP3    H110990   4.968   4.829   1.688
 3679TIP3    H210991   4.872   4.754   1.598
 3680TIP3   OH210992   5.636   4.856   0.919
 3680TIP3    H110993   5.670   4.775   0.879
 3680TIP3    H210994   5.685   4.865   1.000
 3681TIP3   OH210995   5.734   4.914   1.163
 3681TIP3    H110996   5.653   4.937   1.209
 3681TIP3    H210997   5.791   4.878   1.231
 3682TIP3   OH210998   6.493   4.224   2.422
 3682TIP3    H110999   6.414   4.231   2.368
 3682TIP3    H211000   6.515   4.131   2.420
 3683TIP3   OH211001   5.118   4.639   2.405
 3683TIP3    H111002   5.168   4.627   2.486
 3683TIP3    H211003   5.045   4.579   2.413
 3684TIP3   OH211004   5.488   3.447   2.224
 3684TIP3    H111005   5.405   3.419   2.187
 3684TIP3    H211006   5.468   3.529   2.270
 3685TIP3   OH211007   6.038   3.571   2.425
 3685TIP3    H111008   6.109   3.545   2.484
 3685TIP3    H211009   5.958   3.555   2.475
 3686TIP3   OH211010   6.255   3.990   2.330
 3686TIP3    H111011   6.219   3.987   2.418
 3686TIP3    H211012   6.244   4.081   2.302
 3687TIP3   OH211013   5.961   3.962   0.967
 3687TIP3    H111014   5.946   4.025   0.896
 3687TIP3    H211015   6.050   3.931   0.952
 3688TIP3   OH211016   5.627   3.544   1.171
 3688TIP3    H111017   5.592   3.628   1.200
 3688TIP3    H211018   5.599   3.537   1.079
 3689TIP3   OH211019   5.431   3.983   2.227
 3689TIP3    H111020   5.386   3.992   2.311
 3689TIP3    H211021   5.411   4.064   2.180
 3690TIP3   OH211022   5.308   3.858   1.751
 3690TIP3    H111023   5.218   3.838   1.776
 3690TIP3    H211024   5.318   3.822   1.663
 3691TIP3   OH211025   5.787   3.916   1.474
 3691TIP3    H111026   5.740   3.994   1.445
 3691TIP3    H211027   5.853   3.901   1.406
 3692TIP3   OH211028   5.979   4.204   2.550
 3692TIP3    H111029   5.955   4.135   2.611
 3692TIP3    H211030   6.072   4.221   2.568
 3693TIP3   OH211031   5.953   3.946   1.705
 3693TIP3    H111032   5.883   3.964   1.642
 3693TIP3    H211033   6.004   3.876   1.665
 3694TIP3   OH211034   5.272   4.004   2.448
 3694TIP3    H111035   5.277   4.072   2.515
 3694TIP3    H211036   5.251   3.924   2.496
 3695TIP3   OH211037   5.321   3.477   1.185
 3695TIP3    H111038   5.302   3.479   1.279
 3695TIP3    H211039   5.242   3.514   1.145
 3696TIP3   OH211040   4.807   3.561   2.033
 3696TIP3    H111041   4.890   3.593   2.068
 3696TIP3    H211042   4.826   3.536   1.942
 3697TIP3   OH211043   4.826   3.518   1.530
 3697TIP3    H111044   4.865   3.548   1.448
 3697TIP3    H211045   4.754   3.580   1.546
 3698TIP3   OH211046   6.006   4.205   2.129
 3698TIP3    H111047   6.030   4.139   2.064
 3698TIP3    H211048   5.961   4.157   2.198
 3699TIP3   OH211049   5.669   3.661   1.799
 3699TIP3    H111050   5.591   3.658   1.854
 3699TIP3    H211051   5.742   3.655   1.860
 3700TIP3   OH211052   5.065   3.739   1.811
 3700TIP3    H111053   4.973   3.744   1.783
 3700TIP3    H211054   5.089   3.647   1.799
 3701TIP3   OH211055   5.332   3.724   1.512
 3701TIP3    H111056   5.425   3.737   1.497
 3701TIP3    H211057   5.291   3.747   1.428
 3702TIP3   OH211058   6.117   3.740   2.010
 3702TIP3    H111059   6.100   3.755   2.103
 3702TIP3    H211060   6.048   3.680   1.982
 3703TIP3   OH211061   5.213   3.753   1.268
 3703TIP3    H111062   5.144   3.706   1.221
 3703TIP3    H211063   5.260   3.802   1.200
 3704TIP3   OH211064   6.325   5.444   2.236
 3704TIP3    H111065   6.323   5.459   2.141
 3704TIP3    H211066   6.404   5.489   2.265
 3705TIP3   OH211067   5.269   4.551   2.639
 3705TIP3    H111068   5.348   4.569   2.690
 3705TIP3    H211069   5.197   4.561   2.702
 3706TIP3   OH211070   5.727   4.022   1.909
 3706TIP3    H111071   5.795   3.974   1.862
 3706TIP3    H211072   5.725   3.982   1.996
 3707TIP3   OH211073   5.205   3.484   1.802
 3707TIP3    H111074   5.176   3.410   1.856
 3707TIP3    H211075   5.209   3.449   1.713
 3708TIP3   OH211076   5.698   3.926   2.175
 3708TIP3    H111077   5.611   3.959   2.197
 3708TIP3    H211078   5.758   3.979   2.227
 3709TIP3   OH211079   5.430   4.278   1.296
 3709TIP3    H111080   5.357   4.222   1.268
 3709TIP3    H211081   5.396   4.324   1.372
 3710TIP3   OH211082   6.325   4.535   1.896
 3710TIP3    H111083   6.360   4.584   1.821
 3710TIP3    H211084   6.245   4.493   1.861
 3711TIP3   OH211085   5.905   3.599   1.199
 3711TIP3    H111086   5.812   3.603   1.181
 3711TIP3    H211087   5.932   3.690   1.210
 3712TIP3   OH211088   5.840   4.619   2.307
 3712TIP3    H111089   5.893   4.612   2.387
 3712TIP3    H211090   5.799   4.705   2.313
 3713TIP3   OH211091   5.974   3.856   1.265
 3713TIP3    H111092   6.066   3.861   1.288
 3713TIP3    H211093   5.960   3.927   1.203
 3714TIP3   OH211094   5.131   4.285   1.936
 3714TIP3    H111095   5.169   4.271   1.849
 3714TIP3    H211096   5.199   4.257   1.997
 3715TIP3   OH211097   5.583   4.451   1.146
 3715TIP3    H111098   5.534   4.533   1.143
 3715TIP3    H211099   5.529   4.392   1.198
 3716TIP3   OH211100   5.005   4.212   2.568
 3716TIP3    H111101   4.997   4.186   2.659
 3716TIP3    H211102   4.929   4.173   2.525
 3717TIP3   OH211103   5.747   4.354   2.608
 3717TIP3    H111104   5.676   4.297   2.577
 3717TIP3    H211105   5.826   4.315   2.572
 3718TIP3   OH211106   5.986   4.907   2.194
 3718TIP3    H111107   5.892   4.894   2.199
 3718TIP3    H211108   6.010   4.943   2.280
 3719TIP3   OH211109   6.370   3.907   1.089
 3719TIP3    H111110   6.313   3.867   1.024
 3719TIP3    H211111   6.371   4.000   1.067
 3720TIP3   OH211112   6.621   4.809   2.170
 3720TIP3    H111113   6.526   4.798   2.159
 3720TIP3    H211114   6.658   4.786   2.084
 3721TIP3   OH211115   6.077   4.717   1.071
 3721TIP3    H111116   6.079   4.670   1.155
 3721TIP3    H211117   6.147   4.677   1.020
 3722TIP3   OH211118   6.095   4.399   1.795
 3722TIP3    H111119   6.004   4.378   1.819
 3722TIP3    H211120   6.130   4.318   1.758
 3723TIP3   OH211121   5.243   4.639   1.618
 3723TIP3    H111122   5.231   4.710   1.556
 3723TIP3    H211123   5.169   4.646   1.678
 3724TIP3   OH211124   4.818   3.927   1.315
 3724TIP3    H111125   4.858   4.011   1.338
 3724TIP3    H211126   4.734   3.927   1.360
 3725TIP3   OH211127   5.307   4.399   1.503
 3725TIP3    H111128   5.294   4.486   1.541
 3725TIP3    H211129   5.291   4.339   1.576
 3726TIP3   OH211130   5.536   4.961   2.062
 3726TIP3    H111131   5.572   5.034   2.012
 3726TIP3    H211132   5.610   4.928   2.113
 3727TIP3   OH211133   5.155   4.846   1.456
 3727TIP3    H111134   5.068   4.849   1.494
 3727TIP3    H211135   5.191   4.934   1.470
 3728TIP3   OH211136   5.885   4.622   2.034
 3728TIP3    H111137   5.870   4.618   2.129
 3728TIP3    H211138   5.967   4.574   2.021
 3729TIP3   OH211139   5.824   4.518   1.010
 3729TIP3    H111140   5.895   4.504   1.074
 3729TIP3    H211141   5.745   4.492   1.056
 3730TIP3   OH211142   6.139   5.117   2.076
 3730TIP3    H111143   6.069   5.054   2.094
 3730TIP3    H211144   6.106   5.170   2.004
 3731TIP3   OH211145   6.204   4.858   0.541
 3731TIP3    H111146   6.300   4.860   0.536
 3731TIP3    H211147   6.182   4.908   0.619
 3732TIP3   OH211148   5.212   3.755   2.567
 3732TIP3    H111149   5.117   3.761   2.570
 3732TIP3    H211150   5.238   3.737   2.657
 3733TIP3   OH211151   6.021   4.424   1.172
 3733TIP3    H111152   6.003   4.348   1.227
 3733TIP3    H211153   6.115   4.416   1.153
 3734TIP3   OH211154   4.973   4.814   2.211
 3734TIP3    H111155   5.029   4.762   2.270
 3734TIP3    H211156   4.972   4.901   2.249
 3735TIP3   OH211157   5.197   4.443   0.951
 3735TIP3    H111158   5.213   4.352   0.928
 3735TIP3    H211159   5.200   4.444   1.047
 3736TIP3   OH211160   5.173   4.477   1.228
 3736TIP3    H111161   5.217   4.454   1.310
 3736TIP3    H211162   5.177   4.572   1.223
 3737TIP3   OH211163   4.902   4.178   1.405
 3737TIP3    H111164   4.835   4.222   1.457
 3737TIP3    H211165   4.919   4.238   1.332
 3738TIP3   OH211166   6.063   3.800   2.272
 3738TIP3    H111167   6.141   3.846   2.300
 3738TIP3    H211168   6.058   3.724   2.330
 3739TIP3   OH211169   5.962   3.547   1.468
 3739TIP3    H111170   5.945   3.568   1.376
 3739TIP3    H211171   6.006   3.624   1.503
 3740TIP3   OH211172   5.449   4.683   1.131
 3740TIP3    H111173   5.363   4.707   1.167
 3740TIP3    H211174   5.490   4.767   1.109
 3741TIP3   OH211175   5.612   3.711   1.529
 3741TIP3    H111176   5.671   3.782   1.505
 3741TIP3    H211177   5.625   3.699   1.623
 3742TIP3   OH211178   5.905   4.040   2.325
 3742TIP3    H111179   5.930   4.084   2.406
 3742TIP3    H211180   5.955   3.958   2.325
 3743TIP3   OH211181   5.780   3.447   1.653
 3743TIP3    H111182   5.761   3.527   1.703
 3743TIP3    H211183   5.856   3.471   1.599
 3744TIP3   OH211184   5.192   4.749   1.205
 3744TIP3    H111185   5.157   4.818   1.148
 3744TIP3    H211186   5.179   4.782   1.294
 3745TIP3   OH211187   5.291   3.454   1.460
 3745TIP3    H111188   5.283   3.545   1.487
 3745TIP3    H211189   5.375   3.426   1.496
 3746TIP3   OH211190   6.525   3.957   2.332
 3746TIP3    H111191   6.429   3.950   2.331
 3746TIP3    H211192   6.552   3.936   2.243
 3747TIP3   OH211193   6.186   4.141   1.708
 3747TIP3    H111194   6.109   4.087   1.725
 3747TIP3    H211195   6.254   4.103   1.763
 3748TIP3   OH211196   4.924   4.357   1.193
 3748TIP3    H111197   4.998   4.415   1.211
 3748TIP3    H211198   4.957   4.294   1.129
 3749TIP3   OH211199   4.861   3.653   1.293
 3749TIP3    H111200   4.862   3.747   1.308
 3749TIP3    H211201   4.788   3.639   1.233
 3750TIP3   OH211202   6.166   5.114   1.648
 3750TIP3    H111203   6.118   5.168   1.585
 3750TIP3    H211204   6.257   5.140   1.637
 3751TIP3   OH211205   5.223   3.370   2.170
 3751TIP3    H111206   5.196   3.336   2.085
 3751TIP3    H211207   5.220   3.294   2.229
 3752TIP3   OH211208   4.744   4.616   1.575
 3752TIP3    H111209   4.700   4.656   1.650
 3752TIP3    H211210   4.705   4.659   1.498
 3753TIP3   OH211211   4.958   5.156   2.645
 3753TIP3    H111212   5.040   5.159   2.694
 3753TIP3    H211213   4.943   5.063   2.628
 3754TIP3   OH211214   5.425   5.061   2.687
 3754TIP3    H111215   5.517   5.035   2.692
 3754TIP3    H211216   5.389   5.008   2.616
 3755TIP3   OH211217   5.312   4.757   0.881
 3755TIP3    H111218   5.244   4.723   0.940
 3755TIP3    H211219   5.387   4.699   0.895
 3756TIP3   OH211220   6.043   5.004   2.445
 3756TIP3    H111221   6.059   4.934   2.509
 3756TIP3    H211222   6.117   5.064   2.457
 3757TIP3   OH211223   5.800   4.677   0.792
 3757TIP3    H111224   5.824   4.609   0.854
 3757TIP3    H211225   5.855   4.661   0.715
 3758TIP3   OH211226   5.056   4.569   2.823
 3758TIP3    H111227   5.082   4.478   2.840
 3758TIP3    H211228   4.967   4.562   2.788
 3759TIP3   OH211229   5.047   4.158   1.052
 3759TIP3    H111230   5.101   4.135   1.128
 3759TIP3    H211231   5.109   4.165   0.980
 3760TIP3   OH211232   5.682   4.635   2.612
 3760TIP3    H111233   5.637   4.655   2.530
 3760TIP3    H211234   5.716   4.547   2.600
 3761TIP3   OH211235   5.620   4.288   0.927
 3761TIP3    H111236   5.600   4.338   1.006
 3761TIP3    H211237   5.550   4.311   0.866
 3762TIP3   OH211238   6.154   4.682   2.226
 3762TIP3    H111239   6.232   4.708   2.177
 3762TIP3    H211240   6.091   4.752   2.211
 3763TIP3   OH211241   5.173   4.323   2.854
 3763TIP3    H111242   5.221   4.249   2.817
 3763TIP3    H211243   5.209   4.333   2.942
 3764TIP3   OH211244   5.227   4.094   1.251
 3764TIP3    H111245   5.202   4.064   1.339
 3764TIP3    H211246   5.271   4.019   1.211
 3765TIP3   OH211247   5.543   4.185   2.502
 3765TIP3    H111248   5.455   4.223   2.509
 3765TIP3    H211249   5.574   4.215   2.416
 3766TIP3   OH211250   5.357   3.905   1.093
 3766TIP3    H111251   5.331   3.913   1.002
 3766TIP3    H211252   5.453   3.911   1.091
 3767TIP3   OH211253   6.038   4.557   2.581
 3767TIP3    H111254   6.106   4.518   2.526
 3767TIP3    H211255   6.032   4.498   2.657
 3768TIP3   OH211256   6.221   4.236   0.777
 3768TIP3    H111257   6.207   4.245   0.683
 3768TIP3    H211258   6.155   4.293   0.816
 3769TIP3   OH211259   5.645   3.953   2.609
 3769TIP3    H111260   5.645   3.882   2.544
 3769TIP3    H211261   5.611   4.029   2.562
 3770TIP3   OH211262   5.648   3.751   2.403
 3770TIP3    H111263   5.676   3.790   2.320
 3770TIP3    H211264   5.557   3.726   2.388
 3771TIP3   OH211265   5.655   4.285   2.274
 3771TIP3    H111266   5.743   4.321   2.264
 3771TIP3    H211267   5.599   4.342   2.223
 3772TIP3   OH211268   6.248   4.241   2.648
 3772TIP3    H111269   6.289   4.154   2.649
 3772TIP3    H211270   6.320   4.301   2.632
 3773TIP3   OH211271   6.278   4.505   2.391
 3773TIP3    H111272   6.224   4.566   2.341
 3773TIP3    H211273   6.367   4.519   2.360
 3774TIP3   OH211274   5.526   4.068   2.859
 3774TIP3    H111275   5.437   4.046   2.886
 3774TIP3    H211276   5.531   4.036   2.768
 3775TIP3   OH211277   5.771   3.521   2.507
 3775TIP3    H111278   5.731   3.601   2.473
 3775TIP3    H211279   5.705   3.453   2.492
 3776TIP3   OH211280   5.904   3.991   2.705
 3776TIP3    H111281   5.899   3.980   2.800
 3776TIP3    H211282   5.815   3.970   2.675
 3777TIP3   OH211283   6.149   3.952   2.574
 3777TIP3    H111284   6.070   3.950   2.628
 3777TIP3    H211285   6.219   3.925   2.633
 3778TIP3   OH211286   6.375   3.906   2.728
 3778TIP3    H111287   6.392   3.812   2.736
 3778TIP3    H211288   6.373   3.938   2.819
 3779TIP3   OH211289   5.350   3.802   2.877
 3779TIP3    H111290   5.364   3.711   2.853
 3779TIP3    H211291   5.407   3.816   2.953
 3780TIP3   OH211292   5.846   3.501   2.771
 3780TIP3    H111293   5.917   3.436   2.764
 3780TIP3    H211294   5.814   3.511   2.681
 3781TIP3   OH211295   5.932   3.719   2.919
 3781TIP3    H111296   5.909   3.646   2.862
 3781TIP3    H211297   5.859   3.779   2.913
 3782TIP3   OH211298   5.130   4.959   1.046
 3782TIP3    H111299   5.214   5.004   1.032
 3782TIP3    H211300   5.067   5.010   0.993
 3783TIP3   OH211301   4.649   4.349   1.195
 3783TIP3    H111302   4.744   4.360   1.199
 3783TIP3    H211303   4.637   4.259   1.164
 3784TIP3   OH211304   4.551   4.933   1.655
 3784TIP3    H111305   4.477   4.880   1.626
 3784TIP3    H211306   4.598   4.876   1.717
 3785TIP3   OH211307   4.694   4.765   1.822
 3785TIP3    H111308   4.670   4.706   1.894
 3785TIP3    H211309   4.750   4.831   1.862
 3786TIP3   OH211310   6.422   5.207   1.646
 3786TIP3    H111311   6.447   5.209   1.739
 3786TIP3    H211312   6.498   5.243   1.600
 3787TIP3   OH211313   6.458   5.195   1.923
 3787TIP3    H111314   6.410   5.112   1.915
 3787TIP3    H211315   6.527   5.177   1.987
 3788TIP3   OH211316   6.512   4.898   2.493
 3788TIP3    H111317   6.442   4.909   2.557
 3788TIP3    H211318   6.558   4.982   2.494
 3789TIP3   OH211319   6.290   4.383   1.149
 3789TIP3    H111320   6.328   4.464   1.115
 3789TIP3    H211321   6.355   4.351   1.212
 3790TIP3   OH211322   6.472   4.259   1.311
 3790TIP3    H111323   6.409   4.223   1.374
 3790TIP3    H211324   6.540   4.299   1.366
 3791TIP3   OH211325   6.500   4.673   1.730
 3791TIP3    H111326   6.555   4.602   1.697
 3791TIP3    H211327   6.518   4.747   1.671
 3792TIP3   OH211328   6.312   4.960   1.922
 3792TIP3    H111329   6.244   5.004   1.973
 3792TIP3    H211330   6.265   4.920   1.849
 3793TIP3   OH211331   6.345   4.155   1.004
 3793TIP3    H111332   6.308   4.180   0.919
 3793TIP3    H211333   6.329   4.231   1.060
 3794TIP3   OH211334   6.192   3.840   0.884
 3794TIP3    H111335   6.160   3.856   0.795
 3794TIP3    H211336   6.191   3.744   0.893
 3795TIP3   OH211337   6.262   4.127   1.444
 3795TIP3    H111338   6.271   4.032   1.433
 3795TIP3    H211339   6.242   4.138   1.537
 3796TIP3   OH211340   4.875   4.185   2.203
 3796TIP3    H111341   4.871   4.164   2.109
 3796TIP3    H211342   4.969   4.187   2.222
 3797TIP3   OH211343   6.535   4.551   2.297
 3797TIP3    H111344   6.600   4.483   2.280
 3797TIP3    H211345   6.559   4.622   2.236
 3798TIP3   OH211346   6.706   4.338   2.291
 3798TIP3    H111347   6.633   4.299   2.339
 3798TIP3    H211348   6.780   4.280   2.310
 3799TIP3   OH211349   6.178   3.572   0.890
 3799TIP3    H111350   6.254   3.540   0.938
 3799TIP3    H211351   6.111   3.504   0.903
 3800TIP3   OH211352   6.251   3.844   1.332
 3800TIP3    H111353   6.293   3.760   1.348
 3800TIP3    H211354   6.293   3.879   1.254
 3801TIP3   OH211355   6.401   4.021   1.846
 3801TIP3    H111356   6.481   4.041   1.798
 3801TIP3    H211357   6.415   4.061   1.932
 3802TIP3   OH211358   6.471   4.171   2.076
 3802TIP3    H111359   6.399   4.202   2.130
 3802TIP3    H211360   6.504   4.249   2.031
 3803TIP3   OH211361   5.087   3.868   2.836
 3803TIP3    H111362   5.181   3.871   2.855
 3803TIP3    H211363   5.055   3.791   2.882
 3804TIP3   OH211364   6.928   3.775   2.612
 3804TIP3    H111365   6.981   3.713   2.563
 3804TIP3    H211366   6.886   3.829   2.545
 3805TIP3   OH211367   6.357   3.594   1.378
 3805TIP3    H111368   6.406   3.580   1.459
 3805TIP3    H211369   6.297   3.519   1.373
 3806TIP3   OH211370   5.050   3.588   2.179
 3806TIP3    H111371   5.109   3.513   2.184
 3806TIP3    H211372   5.108   3.663   2.170
 3807TIP3   OH211373   4.853   3.863   2.255
 3807TIP3    H111374   4.907   3.863   2.176
 3807TIP3    H211375   4.864   3.951   2.291
 3808TIP3   OH211376   6.776   3.881   2.414
 3808TIP3    H111377   6.689   3.920   2.425
 3808TIP3    H211378   6.761   3.802   2.363
 3809TIP3   OH211379   6.417   3.515   1.015
 3809TIP3    H111380   6.465   3.452   0.961
 3809TIP3    H211381   6.476   3.590   1.024
 3810TIP3   OH211382   4.808   3.420   1.791
 3810TIP3    H111383   4.749   3.351   1.761
 3810TIP3    H211384   4.837   3.464   1.710
 3811TIP3   OH211385   5.988   5.072   1.326
 3811TIP3    H111386   6.048   5.049   1.255
 3811TIP3    H211387   6.028   5.149   1.367
 3812TIP3   OH211388   5.057   3.406   2.580
 3812TIP3    H111389   5.011   3.409   2.664
 3812TIP3    H211390   5.005   3.463   2.523
 3813TIP3   OH211391   5.085   4.874   2.652
 3813TIP3    H111392   4.992   4.851   2.643
 3813TIP3    H211393   5.106   4.857   2.744
 3814TIP3   OH211394   5.307   4.923   2.211
 3814TIP3    H111395   5.253   4.995   2.179
 3814TIP3    H211396   5.392   4.934   2.166
 3815TIP3   OH211397   5.702   5.154   2.345
 3815TIP3    H111398   5.739   5.147   2.433
 3815TIP3    H211399   5.765   5.208   2.297
 3816TIP3   OH211400   5.893   5.309   2.220
 3816TIP3    H111401   5.956   5.256   2.171
 3816TIP3    H211402   5.947   5.367   2.274
 3817TIP3   OH211403   6.693   3.641   2.301
 3817TIP3    H111404   6.613   3.649   2.250
 3817TIP3    H211405   6.720   3.549   2.290
 3818TIP3   OH211406   4.965   5.175   2.250
 3818TIP3    H111407   4.872   5.184   2.229
 3818TIP3    H211408   4.981   5.240   2.318
 3819TIP3   OH211409   5.196   5.153   2.106
 3819TIP3    H111410   5.114   5.159   2.155
 3819TIP3    H211411   5.173   5.176   2.016
 3820TIP3   OH211412   5.613   5.171   1.896
 3820TIP3    H111413   5.537   5.180   1.838
 3820TIP3    H211414   5.621   5.257   1.937
 3821TIP3   OH211415   5.873   5.103   1.948
 3821TIP3    H111416   5.782   5.126   1.928
 3821TIP3    H211417   5.925   5.170   1.903
 3822TIP3   OH211418   6.075   5.274   1.854
 3822TIP3    H111419   6.068   5.362   1.817
 3822TIP3    H211420   6.105   5.219   1.782
 3823TIP3   OH211421   4.875   4.942   1.946
 3823TIP3    H111422   4.863   4.917   2.037
 3823TIP3    H211423   4.955   4.896   1.919
 3824TIP3   OH211424   5.087   4.813   1.828
 3824TIP3    H111425   5.097   4.731   1.877
 3824TIP3    H211426   5.171   4.857   1.838
 3825TIP3   OH211427   5.352   4.907   1.860
 3825TIP3    H111428   5.373   4.815   1.845
 3825TIP3    H211429   5.405   4.931   1.936
 3826TIP3   OH211430   5.898   3.564   1.937
 3826TIP3    H111431   5.857   3.494   1.988
 3826TIP3    H211432   5.965   3.519   1.885
 3827TIP3   OH211433   6.398   3.458   1.815
 3827TIP3    H111434   6.445   3.507   1.748
 3827TIP3    H211435   6.315   3.505   1.826
 3828TIP3   OH211436   6.523   3.552   1.592
 3828TIP3    H111437   6.592   3.490   1.568
 3828TIP3    H211438   6.562   3.638   1.578
 3829TIP3   OH211439   5.132   3.252   1.940
 3829TIP3    H111440   5.043   3.216   1.932
 3829TIP3    H211441   5.190   3.176   1.934
 3830TIP3   OH211442   4.988   3.183   1.593
 3830TIP3    H111443   5.008   3.219   1.506
 3830TIP3    H211444   4.900   3.216   1.611
 3831TIP3   OH211445   5.634   3.292   1.830
 3831TIP3    H111446   5.690   3.337   1.767
 3831TIP3    H211447   5.666   3.323   1.916
 3832TIP3   OH211448   6.103   3.430   1.811
 3832TIP3    H111449   6.134   3.395   1.728
 3832TIP3    H211450   6.113   3.358   1.873
 3833TIP3   OH211451   6.168   3.384   1.377
 3833TIP3    H111452   6.094   3.435   1.410
 3833TIP3    H211453   6.152   3.295   1.410
 3834TIP3   OH211454   4.645   4.730   1.339
 3834TIP3    H111455   4.558   4.703   1.313
 3834TIP3    H211456   4.648   4.824   1.319
 3835TIP3   OH211457   5.074   3.303   1.349
 3835TIP3    H111458   5.119   3.240   1.291
 3835TIP3    H211459   5.145   3.352   1.390
 3836TIP3   OH211460   5.595   3.446   1.453
 3836TIP3    H111461   5.647   3.412   1.526
 3836TIP3    H211462   5.590   3.540   1.469
 3837TIP3   OH211463   5.409   4.987   0.994
 3837TIP3    H111464   5.497   4.974   0.961
 3837TIP3    H211465   5.355   4.924   0.946
 3838TIP3   OH211466   6.129   4.983   1.115
 3838TIP3    H111467   6.115   4.890   1.097
 3838TIP3    H211468   6.092   5.028   1.039
 3839TIP3   OH211469   5.389   3.530   2.826
 3839TIP3    H111470   5.352   3.466   2.887
 3839TIP3    H211471   5.481   3.537   2.852
 3840TIP3   OH211472   5.637   3.528   2.952
 3840TIP3    H111473   5.712   3.515   2.895
 3840TIP3    H211474   5.641   3.455   3.014
 3841TIP3   OH211475   4.747   4.729   1.031
 3841TIP3    H111476   4.730   4.739   1.125
 3841TIP3    H211477   4.830   4.681   1.027
 3842TIP3   OH211478   6.444   3.638   2.734
 3842TIP3    H111479   6.463   3.607   2.823
 3842TIP3    H211480   6.528   3.634   2.689
 3843TIP3   OH211481   6.358   5.170   2.242
 3843TIP3    H111482   6.284   5.141   2.188
 3843TIP3    H211483   6.347   5.264   2.249
 3844TIP3   OH211484   7.549   4.558   1.337
 3844TIP3    H111485   7.562   4.469   1.369
 3844TIP3    H211486   7.542   4.550   1.242
 3845TIP3   OH211487   6.927   4.402   1.751
 3845TIP3    H111488   6.955   4.343   1.821
 3845TIP3    H211489   7.008   4.422   1.703
 3846TIP3   OH211490   6.881   4.818   1.466
 3846TIP3    H111491   6.870   4.724   1.454
 3846TIP3    H211492   6.975   4.831   1.468
 3847TIP3   OH211493   6.609   4.034   1.214
 3847TIP3    H111494   6.570   4.117   1.239
 3847TIP3    H211495   6.537   3.983   1.177
 3848TIP3   OH211496   6.693   4.358   1.445
 3848TIP3    H111497   6.742   4.281   1.472
 3848TIP3    H211498   6.759   4.423   1.425
 3849TIP3   OH211499   7.436   4.783   1.454
 3849TIP3    H111500   7.472   4.707   1.408
 3849TIP3    H211501   7.512   4.822   1.499
 3850TIP3   OH211502   7.187   3.915   1.408
 3850TIP3    H111503   7.174   3.989   1.349
 3850TIP3    H211504   7.134   3.845   1.371
 3851TIP3   OH211505   6.822   4.131   1.534
 3851TIP3    H111506   6.903   4.111   1.580
 3851TIP3    H211507   6.828   4.081   1.452
 3852TIP3   OH211508   7.263   4.319   1.345
 3852TIP3    H111509   7.357   4.312   1.332
 3852TIP3    H211510   7.227   4.238   1.310
 3853TIP3   OH211511   7.152   3.921   1.874
 3853TIP3    H111512   7.104   3.961   1.801
 3853TIP3    H211513   7.100   3.942   1.951
 3854TIP3   OH211514   7.266   4.675   1.642
 3854TIP3    H111515   7.209   4.744   1.675
 3854TIP3    H211516   7.322   4.719   1.578
 3855TIP3   OH211517   7.060   4.016   1.631
 3855TIP3    H111518   7.114   4.092   1.652
 3855TIP3    H211519   7.104   3.974   1.557
 3856TIP3   OH211520   7.108   4.886   1.733
 3856TIP3    H111521   7.096   4.973   1.695
 3856TIP3    H211522   7.029   4.873   1.786
 3857TIP3   OH211523   6.383   4.594   1.009
 3857TIP3    H111524   6.327   4.631   0.941
 3857TIP3    H211525   6.465   4.644   1.002
 3858TIP3   OH211526   7.438   3.681   1.526
 3858TIP3    H111527   7.515   3.685   1.584
 3858TIP3    H211528   7.363   3.692   1.584
 3859TIP3   OH211529   7.442   4.196   0.781
 3859TIP3    H111530   7.408   4.283   0.801
 3859TIP3    H211531   7.534   4.211   0.757
 3860TIP3   OH211532   7.058   4.451   1.214
 3860TIP3    H111533   7.015   4.390   1.154
 3860TIP3    H211534   7.127   4.399   1.254
 3861TIP3   OH211535   7.154   4.840   1.401
 3861TIP3    H111536   7.144   4.845   1.306
 3861TIP3    H211537   7.248   4.833   1.416
 3862TIP3   OH211538   7.139   4.448   1.558
 3862TIP3    H111539   7.185   4.419   1.480
 3862TIP3    H211540   7.183   4.530   1.582
 3863TIP3   OH211541   7.305   4.985   1.897
 3863TIP3    H111542   7.255   5.045   1.952
 3863TIP3    H211543   7.239   4.943   1.842
 3864TIP3   OH211544   7.062   4.577   2.019
 3864TIP3    H111545   7.065   4.668   2.047
 3864TIP3    H211546   6.969   4.553   2.026
 3865TIP3   OH211547   7.407   5.086   0.961
 3865TIP3    H111548   7.476   5.021   0.950
 3865TIP3    H211549   7.393   5.121   0.873
 3866TIP3   OH211550   7.098   5.157   1.980
 3866TIP3    H111551   7.077   5.158   1.887
 3866TIP3    H211552   7.014   5.143   2.023
 3867TIP3   OH211553   6.914   4.285   1.044
 3867TIP3    H111554   6.847   4.350   1.025
 3867TIP3    H211555   6.866   4.202   1.047
 3868TIP3   OH211556   6.700   4.719   1.926
 3868TIP3    H111557   6.632   4.696   1.863
 3868TIP3    H211558   6.734   4.634   1.956
 3869TIP3   OH211559   6.614   4.887   1.581
 3869TIP3    H111560   6.697   4.861   1.542
 3869TIP3    H211561   6.637   4.956   1.643
 3870TIP3   OH211562   7.488   5.099   1.730
 3870TIP3    H111563   7.556   5.138   1.785
 3870TIP3    H211564   7.427   5.060   1.792
 3871TIP3   OH211565   6.672   5.140   1.158
 3871TIP3    H111566   6.740   5.131   1.224
 3871TIP3    H211567   6.614   5.065   1.173
 3872TIP3   OH211568   6.890   4.913   1.900
 3872TIP3    H111569   6.944   4.900   1.979
 3872TIP3    H211570   6.823   4.845   1.907
 3873TIP3   OH211571   7.241   3.709   1.723
 3873TIP3    H111572   7.160   3.673   1.688
 3873TIP3    H211573   7.214   3.786   1.773
 3874TIP3   OH211574   7.227   4.222   1.691
 3874TIP3    H111575   7.226   4.258   1.779
 3874TIP3    H211576   7.201   4.294   1.634
 3875TIP3   OH211577   7.105   4.116   1.241
 3875TIP3    H111578   7.016   4.096   1.270
 3875TIP3    H211579   7.108   4.086   1.150
 3876TIP3   OH211580   7.012   4.219   1.944
 3876TIP3    H111581   7.094   4.265   1.964
 3876TIP3    H211582   7.012   4.145   2.005
 3877TIP3   OH211583   7.096   3.720   0.638
 3877TIP3    H111584   7.084   3.729   0.732
 3877TIP3    H211585   7.029   3.776   0.600
 3878TIP3   OH211586   6.651   3.777   1.517
 3878TIP3    H111587   6.715   3.814   1.577
 3878TIP3    H211588   6.700   3.762   1.436
 3879TIP3   OH211589   6.579   3.736   1.037
 3879TIP3    H111590   6.620   3.770   0.958
 3879TIP3    H211591   6.512   3.801   1.059
 3880TIP3   OH211592   7.444   3.932   1.264
 3880TIP3    H111593   7.375   3.912   1.327
 3880TIP3    H211594   7.524   3.899   1.304
 3881TIP3   OH211595   6.866   3.991   1.304
 3881TIP3    H111596   6.779   3.994   1.263
 3881TIP3    H211597   6.899   3.904   1.283
 3882TIP3   OH211598   7.082   3.991   0.995
 3882TIP3    H111599   7.177   3.992   0.985
 3882TIP3    H211600   7.049   4.018   0.909
 3883TIP3   OH211601   6.991   4.037   0.739
 3883TIP3    H111602   6.938   3.974   0.690
 3883TIP3    H211603   7.067   4.053   0.684
 3884TIP3   OH211604   7.048   4.837   2.124
 3884TIP3    H111605   7.132   4.853   2.166
 3884TIP3    H211606   6.986   4.834   2.197
 3885TIP3   OH211607   7.540   4.270   1.351
 3885TIP3    H111608   7.615   4.225   1.313
 3885TIP3    H211609   7.524   4.225   1.434
 3886TIP3   OH211610   7.004   3.745   1.280
 3886TIP3    H111611   6.974   3.667   1.327
 3886TIP3    H211612   7.040   3.712   1.198
 3887TIP3   OH211613   7.490   4.179   1.605
 3887TIP3    H111614   7.397   4.176   1.627
 3887TIP3    H211615   7.522   4.261   1.642
 3888TIP3   OH211616   7.325   4.442   0.840
 3888TIP3    H111617   7.259   4.374   0.850
 3888TIP3    H211618   7.276   4.524   0.845
 3889TIP3   OH211619   7.672   4.908   1.651
 3889TIP3    H111620   7.674   4.869   1.739
 3889TIP3    H211621   7.608   4.979   1.657
 3890TIP3   OH211622   6.906   4.539   1.425
 3890TIP3    H111623   6.948   4.523   1.341
 3890TIP3    H211624   6.970   4.512   1.491
 3891TIP3   OH211625   6.794   4.501   2.070
 3891TIP3    H111626   6.813   4.473   2.159
 3891TIP3    H211627   6.727   4.439   2.039
 3892TIP3   OH211628   7.466   4.437   2.064
 3892TIP3    H111629   7.390   4.492   2.043
 3892TIP3    H211630   7.539   4.499   2.070
 3893TIP3   OH211631   7.089   4.859   1.123
 3893TIP3    H111632   7.091   4.896   1.035
 3893TIP3    H211633   7.010   4.806   1.125
 3894TIP3   OH211634   6.640   4.146   0.810
 3894TIP3    H111635   6.708   4.211   0.792
 3894TIP3    H211636   6.570   4.195   0.852
 3895TIP3   OH211637   7.245   4.635   1.133
 3895TIP3    H111638   7.199   4.719   1.132
 3895TIP3    H211639   7.179   4.572   1.161
 3896TIP3   OH211640   7.304   5.197   1.558
 3896TIP3    H111641   7.346   5.266   1.507
 3896TIP3    H211642   7.375   5.159   1.610
 3897TIP3   OH211643   6.872   5.165   0.830
 3897TIP3    H111644   6.780   5.192   0.824
 3897TIP3    H211645   6.922   5.245   0.812
 3898TIP3   OH211646   7.000   3.979   2.090
 3898TIP3    H111647   6.905   3.979   2.104
 3898TIP3    H211648   7.034   3.925   2.162
 3899TIP3   OH211649   6.743   5.097   1.738
 3899TIP3    H111650   6.798   5.036   1.788
 3899TIP3    H211651   6.759   5.182   1.779
 3900TIP3   OH211652   6.964   4.770   0.647
 3900TIP3    H111653   7.039   4.734   0.693
 3900TIP3    H211654   6.990   4.859   0.623
 3901TIP3   OH211655   6.730   4.472   0.960
 3901TIP3    H111656   6.638   4.445   0.959
 3901TIP3    H211657   6.762   4.451   0.872
 3902TIP3   OH211658   7.358   3.993   1.000
 3902TIP3    H111659   7.401   4.059   0.946
 3902TIP3    H211660   7.402   3.997   1.084
 3903TIP3   OH211661   6.958   5.038   0.594
 3903TIP3    H111662   7.035   5.084   0.561
 3903TIP3    H211663   6.922   5.095   0.662
 3904TIP3   OH211664   7.044   3.726   0.914
 3904TIP3    H111665   7.030   3.815   0.946
 3904TIP3    H211666   7.131   3.703   0.947
 3905TIP3   OH211667   6.718   4.646   0.697
 3905TIP3    H111668   6.794   4.704   0.701
 3905TIP3    H211669   6.730   4.597   0.616
 3906TIP3   OH211670   6.637   3.870   0.810
 3906TIP3    H111671   6.644   3.965   0.821
 3906TIP3    H211672   6.626   3.858   0.715
 3907TIP3   OH211673   6.993   3.611   1.671
 3907TIP3    H111674   6.970   3.581   1.583
 3907TIP3    H211675   6.987   3.532   1.725
 3908TIP3   OH211676   6.561   4.888   1.176
 3908TIP3    H111677   6.531   4.895   1.267
 3908TIP3    H211678   6.481   4.893   1.124
 3909TIP3   OH211679   6.760   5.415   2.127
 3909TIP3    H111680   6.835   5.430   2.185
 3909TIP3    H211681   6.763   5.321   2.108
 3910TIP3   OH211682   7.189   5.334   2.167
 3910TIP3    H111683   7.275   5.298   2.187
 3910TIP3    H211684   7.157   5.281   2.095
 3911TIP3   OH211685   6.855   4.808   2.323
 3911TIP3    H111686   6.880   4.716   2.329
 3911TIP3    H211687   6.767   4.807   2.284
 3912TIP3   OH211688   7.408   4.737   1.994
 3912TIP3    H111689   7.368   4.805   1.939
 3912TIP3    H211690   7.448   4.785   2.067
 3913TIP3   OH211691   6.975   4.555   2.325
 3913TIP3    H111692   7.050   4.520   2.277
 3913TIP3    H211693   7.010   4.575   2.412
 3914TIP3   OH211694   7.123   4.268   0.865
 3914TIP3    H111695   7.053   4.273   0.931
 3914TIP3    H211696   7.087   4.212   0.796
 3915TIP3   OH211697   7.225   4.392   1.908
 3915TIP3    H111698   7.172   4.463   1.943
 3915TIP3    H211699   7.294   4.437   1.857
 3916TIP3   OH211700   7.220   4.101   0.610
 3916TIP3    H111701   7.260   4.086   0.525
 3916TIP3    H211702   7.293   4.127   0.666
 3917TIP3   OH211703   7.317   4.195   2.121
 3917TIP3    H111704   7.391   4.138   2.138
 3917TIP3    H211705   7.354   4.268   2.070
 3918TIP3   OH211706   7.417   3.983   1.839
 3918TIP3    H111707   7.437   3.923   1.767
 3918TIP3    H211708   7.322   3.977   1.850
 3919TIP3   OH211709   7.426   4.476   1.745
 3919TIP3    H111710   7.508   4.522   1.766
 3919TIP3    H211711   7.371   4.543   1.703
 3920TIP3   OH211712   7.225   4.319   2.348
 3920TIP3    H111713   7.177   4.245   2.385
 3920TIP3    H211714   7.249   4.291   2.260
 3921TIP3   OH211715   7.599   3.828   1.988
 3921TIP3    H111716   7.519   3.879   1.974
 3921TIP3    H211717   7.573   3.759   2.049
 3922TIP3   OH211718   7.767   4.316   2.070
 3922TIP3    H111719   7.754   4.239   2.126
 3922TIP3    H211720   7.688   4.320   2.016
 3923TIP3   OH211721   7.128   4.070   2.424
 3923TIP3    H111722   7.134   3.987   2.376
 3923TIP3    H211723   7.170   4.052   2.509
 3924TIP3   OH211724   7.699   3.985   2.378
 3924TIP3    H111725   7.766   3.938   2.328
 3924TIP3    H211726   7.646   4.027   2.311
 3925TIP3   OH211727   6.455   4.573   0.671
 3925TIP3    H111728   6.546   4.599   0.686
 3925TIP3    H211729   6.459   4.513   0.597
 3926TIP3   OH211730   6.313   5.171   1.178
 3926TIP3    H111731   6.260   5.104   1.135
 3926TIP3    H211732   6.359   5.125   1.248
 3927TIP3   OH211733   6.459   5.048   1.381
 3927TIP3    H111734   6.443   4.986   1.453
 3927TIP3    H211735   6.517   5.114   1.419
 3928TIP3   OH211736   6.669   4.459   1.699
 3928TIP3    H111737   6.659   4.424   1.610
 3928TIP3    H211738   6.762   4.450   1.719
 3929TIP3   OH211739   6.873   4.128   2.340
 3929TIP3    H111740   6.967   4.125   2.359
 3929TIP3    H211741   6.839   4.046   2.377
 3930TIP3   OH211742   6.848   3.843   1.703
 3930TIP3    H111743   6.896   3.761   1.702
 3930TIP3    H211744   6.913   3.910   1.681
 3931TIP3   OH211745   6.643   4.115   1.750
 3931TIP3    H111746   6.691   4.107   1.668
 3931TIP3    H211747   6.690   4.182   1.800
 3932TIP3   OH211748   6.637   3.596   1.261
 3932TIP3    H111749   6.551   3.593   1.303
 3932TIP3    H211750   6.626   3.655   1.187
 3933TIP3   OH211751   6.871   3.680   2.083
 3933TIP3    H111752   6.819   3.671   2.163
 3933TIP3    H211753   6.812   3.723   2.020
 3934TIP3   OH211754   6.870   5.145   2.141
 3934TIP3    H111755   6.779   5.115   2.138
 3934TIP3    H211756   6.897   5.127   2.231
 3935TIP3   OH211757   7.079   5.162   1.704
 3935TIP3    H111758   7.031   5.239   1.673
 3935TIP3    H211759   7.166   5.171   1.665
 3936TIP3   OH211760   7.537   5.485   1.808
 3936TIP3    H111761   7.542   5.444   1.894
 3936TIP3    H211762   7.610   5.446   1.759
 3937TIP3   OH211763   6.749   5.412   1.757
 3937TIP3    H111764   6.660   5.437   1.733
 3937TIP3    H211765   6.777   5.480   1.819
 3938TIP3   OH211766   6.976   5.395   1.606
 3938TIP3    H111767   6.895   5.404   1.655
 3938TIP3    H211768   6.952   5.414   1.515
 3939TIP3   OH211769   7.411   5.399   1.413
 3939TIP3    H111770   7.341   5.426   1.354
 3939TIP3    H211771   7.446   5.481   1.449
 3940TIP3   OH211772   6.669   5.202   1.495
 3940TIP3    H111773   6.692   5.174   1.584
 3940TIP3    H211774   6.733   5.159   1.439
 3941TIP3   OH211775   6.851   5.065   1.344
 3941TIP3    H111776   6.856   4.976   1.381
 3941TIP3    H211777   6.938   5.101   1.357
 3942TIP3   OH211778   7.098   5.165   1.381
 3942TIP3    H111779   7.153   5.129   1.311
 3942TIP3    H211780   7.156   5.166   1.458
 3943TIP3   OH211781   6.927   3.518   1.420
 3943TIP3    H111782   6.839   3.482   1.428
 3943TIP3    H211783   6.985   3.441   1.419
 3944TIP3   OH211784   6.760   3.416   1.082
 3944TIP3    H111785   6.781   3.474   1.009
 3944TIP3    H211786   6.725   3.475   1.150
 3945TIP3   OH211787   7.400   3.586   1.271
 3945TIP3    H111788   7.492   3.576   1.248
 3945TIP3    H211789   7.401   3.621   1.360
 3946TIP3   OH211790   6.392   4.951   0.964
 3946TIP3    H111791   6.439   4.873   0.934
 3946TIP3    H211792   6.446   5.024   0.935
 3947TIP3   OH211793   6.842   3.551   0.850
 3947TIP3    H111794   6.887   3.487   0.795
 3947TIP3    H211795   6.910   3.614   0.875
 3948TIP3   OH211796   7.287   3.720   1.036
 3948TIP3    H111797   7.331   3.685   1.113
 3948TIP3    H211798   7.326   3.806   1.022
 3949TIP3   OH211799   7.114   3.819   2.294
 3949TIP3    H111800   7.076   3.744   2.340
 3949TIP3    H211801   7.201   3.790   2.268
 3950TIP3   OH211802   7.343   3.659   2.349
 3950TIP3    H111803   7.392   3.739   2.371
 3950TIP3    H211804   7.300   3.635   2.431
 3951TIP3   OH211805   0.144   5.327   2.706
 3951TIP3    H111806   0.109   5.415   2.698
 3951TIP3    H211807   0.079   5.271   2.663
 3952TIP3   OH211808   0.168   5.395   3.057
 3952TIP3    H111809   0.196   5.345   3.134
 3952TIP3    H211810   0.080   5.363   3.038
 3953TIP3   OH211811   0.375   5.667   2.747
 3953TIP3    H111812   0.386   5.593   2.806
 3953TIP3    H211813   0.385   5.745   2.802
 3954TIP3   OH211814   0.939   4.875   3.107
 3954TIP3    H111815   0.954   4.961   3.147
 3954TIP3    H211816   0.968   4.885   3.016
 3955TIP3   OH211817   0.469   5.128   3.182
 3955TIP3    H111818   0.481   5.034   3.188
 3955TIP3    H211819   0.381   5.138   3.145
 3956TIP3   OH211820   0.390   4.800   2.718
 3956TIP3    H111821   0.455   4.795   2.788
 3956TIP3    H211822   0.435   4.844   2.646
 3957TIP3   OH211823   0.997   5.092   3.281
 3957TIP3    H111824   0.914   5.136   3.264
 3957TIP3    H211825   1.032   5.134   3.359
 3958TIP3   OH211826   0.011   5.545   2.615
 3958TIP3    H111827  -0.042   5.513   2.543
 3958TIP3    H211828   0.076   5.602   2.574
 3959TIP3   OH211829   0.545   4.837   2.932
 3959TIP3    H111830   0.531   4.802   3.020
 3959TIP3    H211831   0.607   4.909   2.945
 3960TIP3   OH211832   0.383   5.903   2.904
 3960TIP3    H111833   0.309   5.898   2.964
 3960TIP3    H211834   0.379   5.992   2.868
 3961TIP3   OH211835   0.737   4.762   3.275
 3961TIP3    H111836   0.650   4.764   3.233
 3961TIP3    H211837   0.797   4.791   3.206
 3962TIP3   OH211838   7.923   4.452   3.275
 3962TIP3    H111839   7.905   4.367   3.315
 3962TIP3    H211840   7.837   4.493   3.266
 3963TIP3   OH211841   0.099   5.918   2.605
 3963TIP3    H111842   0.134   5.831   2.585
 3963TIP3    H211843   0.168   5.978   2.578
 3964TIP3   OH211844   0.228   5.683   2.518
 3964TIP3    H111845   0.273   5.637   2.447
 3964TIP3    H211846   0.287   5.677   2.593
 3965TIP3   OH211847   0.626   5.793   3.254
 3965TIP3    H111848   0.612   5.717   3.197
 3965TIP3    H211849   0.609   5.869   3.197
 3966TIP3   OH211850   7.882   5.166   2.551
 3966TIP3    H111851   7.792   5.134   2.549
 3966TIP3    H211852   7.907   5.177   2.459
 3967TIP3   OH211853   0.022   4.901   2.297
 3967TIP3    H111854   0.064   4.986   2.313
 3967TIP3    H211855   0.035   4.886   2.203
 3968TIP3   OH211856   0.818   5.445   3.117
 3968TIP3    H111857   0.735   5.493   3.121
 3968TIP3    H211858   0.849   5.456   3.027
 3969TIP3   OH211859   0.310   5.306   2.486
 3969TIP3    H111860   0.259   5.319   2.566
 3969TIP3    H211861   0.392   5.266   2.516
 3970TIP3   OH211862   0.530   5.286   3.415
 3970TIP3    H111863   0.529   5.373   3.455
 3970TIP3    H211864   0.471   5.294   3.340
 3971TIP3   OH211865   0.193   5.886   3.102
 3971TIP3    H111866   0.197   5.925   3.190
 3971TIP3    H211867   0.205   5.793   3.117
 3972TIP3   OH211868   0.176   5.131   2.318
 3972TIP3    H111869   0.223   5.199   2.367
 3972TIP3    H211870   0.212   5.137   2.230
 3973TIP3   OH211871   0.630   4.358   2.358
 3973TIP3    H111872   0.555   4.378   2.415
 3973TIP3    H211873   0.639   4.435   2.302
 3974TIP3   OH211874   0.447   5.718   1.927
 3974TIP3    H111875   0.449   5.813   1.917
 3974TIP3    H211876   0.537   5.691   1.908
 3975TIP3   OH211877   0.874   6.145   3.324
 3975TIP3    H111878   0.875   6.051   3.338
 3975TIP3    H211879   0.795   6.175   3.369
 3976TIP3   OH211880   0.012   6.075   2.391
 3976TIP3    H111881  -0.002   6.003   2.452
 3976TIP3    H211882   0.103   6.101   2.406
 3977TIP3   OH211883   0.764   5.256   3.583
 3977TIP3    H111884   0.686   5.282   3.534
 3977TIP3    H211885   0.775   5.163   3.564
 3978TIP3   OH211886   0.353   4.628   3.590
 3978TIP3    H111887   0.435   4.603   3.631
 3978TIP3    H211888   0.287   4.615   3.658
 3979TIP3   OH211889   0.484   5.025   3.479
 3979TIP3    H111890   0.501   5.025   3.573
 3979TIP3    H211891   0.503   5.115   3.452
 3980TIP3   OH211892   0.241   5.115   2.052
 3980TIP3    H111893   0.185   5.100   1.975
 3980TIP3    H211894   0.316   5.163   2.018
 3981TIP3   OH211895   7.846   4.482   2.289
 3981TIP3    H111896   7.797   4.457   2.367
 3981TIP3    H211897   7.806   4.432   2.219
 3982TIP3   OH211898   0.124   4.990   2.697
 3982TIP3    H111899   0.075   5.059   2.653
 3982TIP3    H211900   0.183   4.957   2.629
 3983TIP3   OH211901   0.329   5.277   3.719
 3983TIP3    H111902   0.325   5.206   3.782
 3983TIP3    H211903   0.421   5.306   3.721
 3984TIP3   OH211904   0.272   4.975   2.922
 3984TIP3    H111905   0.215   4.990   2.847
 3984TIP3    H211906   0.330   4.904   2.894
 3985TIP3   OH211907   0.221   5.264   3.289
 3985TIP3    H111908   0.231   5.169   3.287
 3985TIP3    H211909   0.203   5.284   3.381
 3986TIP3   OH211910   7.812   4.669   2.953
 3986TIP3    H111911   7.722   4.654   2.983
 3986TIP3    H211912   7.832   4.758   2.981
 3987TIP3   OH211913   0.467   4.765   3.185
 3987TIP3    H111914   0.422   4.791   3.266
 3987TIP3    H211915   0.410   4.698   3.147
 3988TIP3   OH211916   0.580   6.492   3.404
 3988TIP3    H111917   0.584   6.506   3.309
 3988TIP3    H211918   0.657   6.538   3.438
 3989TIP3   OH211919   7.853   4.934   2.975
 3989TIP3    H111920   7.896   4.998   2.919
 3989TIP3    H211921   7.836   4.981   3.057
 3990TIP3   OH211922   7.824   4.993   3.247
 3990TIP3    H111923   7.821   4.995   3.342
 3990TIP3    H211924   7.876   4.916   3.225
 3991TIP3   OH211925   0.592   5.591   3.071
 3991TIP3    H111926   0.634   5.642   3.001
 3991TIP3    H211927   0.519   5.546   3.027
 3992TIP3   OH211928   0.144   4.655   2.342
 3992TIP3    H111929   0.066   4.602   2.327
 3992TIP3    H211930   0.114   4.746   2.337
 3993TIP3   OH211931   0.270   4.924   2.477
 3993TIP3    H111932   0.364   4.912   2.464
 3993TIP3    H211933   0.245   4.986   2.409
 3994TIP3   OH211934   0.181   5.920   3.379
 3994TIP3    H111935   0.157   5.837   3.420
 3994TIP3    H211936   0.237   5.963   3.444
 3995TIP3   OH211937   0.637   4.998   2.257
 3995TIP3    H111938   0.577   4.952   2.199
 3995TIP3    H211939   0.641   5.087   2.221
 3996TIP3   OH211940   0.878   5.862   3.339
 3996TIP3    H111941   0.783   5.851   3.334
 3996TIP3    H211942   0.910   5.836   3.253
 3997TIP3   OH211943   0.383   5.792   2.193
 3997TIP3    H111944   0.343   5.720   2.242
 3997TIP3    H211945   0.402   5.754   2.107
 3998TIP3   OH211946   0.403   5.449   2.923
 3998TIP3    H111947   0.316   5.438   2.959
 3998TIP3    H211948   0.428   5.362   2.893
 3999TIP3   OH211949   0.215   5.633   3.187
 3999TIP3    H111950   0.173   5.620   3.272
 3999TIP3    H211951   0.198   5.553   3.138
 4000TIP3   OH211952   0.143   5.547   2.077
 4000TIP3    H111953   0.196   5.536   2.156
 4000TIP3    H211954   0.056   5.517   2.102
 4001TIP3   OH211955   0.403   6.167   3.248
 4001TIP3    H111956   0.342   6.162   3.322
 4001TIP3    H211957   0.368   6.237   3.193
 4002TIP3   OH211958   0.442   5.985   1.902
 4002TIP3    H111959   0.462   6.010   1.811
 4002TIP3    H211960   0.378   6.050   1.931
 4003TIP3   OH211961   0.318   5.515   2.302
 4003TIP3    H111962   0.299   5.444   2.364
 4003TIP3    H211963   0.410   5.503   2.279
 4004TIP3   OH211964   0.319   4.828   3.403
 4004TIP3    H111965   0.382   4.894   3.431
 4004TIP3    H211966   0.326   4.759   3.469
 4005TIP3   OH211967   0.238   4.608   2.593
 4005TIP3    H111968   0.204   4.627   2.505
 4005TIP3    H211969   0.282   4.689   2.619
 4006TIP3   OH211970   7.861   4.772   2.700
 4006TIP3    H111971   7.923   4.845   2.701
 4006TIP3    H211972   7.835   4.762   2.792
 4007TIP3   OH211973   0.198   5.052   3.582
 4007TIP3    H111974   0.207   5.147   3.587
 4007TIP3    H211975   0.283   5.022   3.550
 4008TIP3   OH211976   0.195   4.576   2.859
 4008TIP3    H111977   0.110   4.617   2.872
 4008TIP3    H211978   0.214   4.587   2.766
 4009TIP3   OH211979   0.773   4.995   3.486
 4009TIP3    H111980   0.680   4.972   3.483
 4009TIP3    H211981   0.807   4.970   3.400
 4010TIP3   OH211982   0.463   5.175   2.870
 4010TIP3    H111983   0.391   5.116   2.891
 4010TIP3    H211984   0.537   5.141   2.921
 4011TIP3   OH211985   0.411   6.172   2.839
 4011TIP3    H111986   0.372   6.217   2.764
 4011TIP3    H211987   0.505   6.180   2.826
 4012TIP3   OH211988   0.325   6.081   3.548
 4012TIP3    H111989   0.356   6.048   3.633
 4012TIP3    H211990   0.337   6.176   3.553
 4013TIP3   OH211991   0.160   5.749   1.877
 4013TIP3    H111992   0.129   5.691   1.947
 4013TIP3    H211993   0.251   5.768   1.901
 4014TIP3   OH211994   7.795   5.436   2.147
 4014TIP3    H111995   7.709   5.422   2.108
 4014TIP3    H211996   7.838   5.351   2.141
 4015TIP3   OH211997   0.424   5.714   3.430
 4015TIP3    H111998   0.488   5.757   3.373
 4015TIP3    H211999   0.343   5.712   3.378
 4016TIP3   OH212000   0.370   5.668   3.705
 4016TIP3    H112001   0.358   5.676   3.610
 4016TIP3    H212002   0.296   5.615   3.734
 4017TIP3   OH212003   0.438   5.248   1.918
 4017TIP3    H112004   0.445   5.203   1.834
 4017TIP3    H212005   0.400   5.333   1.897
 4018TIP3   OH212006   0.592   5.310   3.810
 4018TIP3    H112007   0.661   5.263   3.763
 4018TIP3    H212008   0.621   5.401   3.812
 4019TIP3   OH212009   0.575   5.518   3.540
 4019TIP3    H112010   0.516   5.588   3.514
 4019TIP3    H212011   0.662   5.551   3.519
 4020TIP3   OH212012   0.102   4.595   3.718
 4020TIP3    H112013   0.085   4.657   3.648
 4020TIP3    H212014   0.060   4.514   3.689
 4021TIP3   OH212015   0.281   5.082   3.917
 4021TIP3    H112016   0.190   5.071   3.889
 4021TIP3    H212017   0.321   4.996   3.902
 4022TIP3   OH212018   0.505   4.986   3.741
 4022TIP3    H112019   0.448   4.916   3.770
 4022TIP3    H212020   0.566   4.999   3.814
 4023TIP3   OH212021   0.653   4.947   3.972
 4023TIP3    H112022   0.669   4.854   3.953
 4023TIP3    H212023   0.653   4.952   4.068
 4024TIP3   OH212024   0.207   4.583   3.970
 4024TIP3    H112025   0.266   4.509   3.958
 4024TIP3    H212026   0.155   4.585   3.890
 4025TIP3   OH212027   0.062   4.848   4.056
 4025TIP3    H112028   0.106   4.764   4.073
 4025TIP3    H212029  -0.031   4.826   4.050
 4026TIP3   OH212030   0.685   6.212   2.818
 4026TIP3    H112031   0.709   6.225   2.910
 4026TIP3    H212032   0.720   6.290   2.774
 4027TIP3   OH212033   0.730   6.223   3.091
 4027TIP3    H112034   0.677   6.143   3.092
 4027TIP3    H212035   0.795   6.208   3.161
 4028TIP3   OH212036   0.777   5.946   3.655
 4028TIP3    H112037   0.713   5.961   3.724
 4028TIP3    H212038   0.822   6.030   3.645
 4029TIP3   OH212039   0.586   5.464   2.269
 4029TIP3    H112040   0.646   5.532   2.240
 4029TIP3    H212041   0.630   5.422   2.343
 4030TIP3   OH212042   0.716   5.322   2.468
 4030TIP3    H112043   0.653   5.278   2.525
 4030TIP3    H212044   0.782   5.357   2.528
 4031TIP3   OH212045   0.768   5.722   2.904
 4031TIP3    H112046   0.814   5.653   2.858
 4031TIP3    H212047   0.768   5.796   2.843
 4032TIP3   OH212048   0.563   6.005   3.093
 4032TIP3    H112049   0.498   6.054   3.145
 4032TIP3    H212050   0.513   5.966   3.022
 4033TIP3   OH212051   0.626   5.236   2.118
 4033TIP3    H112052   0.560   5.236   2.049
 4033TIP3    H212053   0.607   5.315   2.169
 4034TIP3   OH212054   0.476   4.889   2.072
 4034TIP3    H112055   0.411   4.931   2.016
 4034TIP3    H212056   0.468   4.795   2.051
 4035TIP3   OH212057   0.525   5.171   2.601
 4035TIP3    H112058   0.535   5.078   2.584
 4035TIP3    H212059   0.505   5.176   2.695
 4036TIP3   OH212060   0.823   5.605   3.467
 4036TIP3    H112061   0.886   5.536   3.446
 4036TIP3    H212062   0.844   5.676   3.407
 4037TIP3   OH212063   0.977   5.378   3.457
 4037TIP3    H112064   0.900   5.340   3.500
 4037TIP3    H212065   1.050   5.321   3.483
 4038TIP3   OH212066   0.444   4.620   2.020
 4038TIP3    H112067   0.513   4.594   2.082
 4038TIP3    H212068   0.365   4.576   2.052
 4039TIP3   OH212069   0.545   4.902   2.503
 4039TIP3    H112070   0.586   4.816   2.515
 4039TIP3    H212071   0.584   4.934   2.421
 4040TIP3   OH212072   0.685   5.062   3.001
 4040TIP3    H112073   0.769   5.087   2.964
 4040TIP3    H212074   0.684   5.103   3.088
 4041TIP3   OH212075   0.752   5.207   3.240
 4041TIP3    H112076   0.665   5.220   3.278
 4041TIP3    H212077   0.774   5.291   3.200
 4042TIP3   OH212078   1.188   4.821   3.779
 4042TIP3    H112079   1.253   4.762   3.742
 4042TIP3    H212080   1.150   4.866   3.704
 4043TIP3   OH212081   0.635   4.643   2.547
 4043TIP3    H112082   0.671   4.625   2.634
 4043TIP3    H212083   0.568   4.575   2.534
 4044TIP3   OH212084   1.031   4.927   3.581
 4044TIP3    H112085   0.945   4.966   3.595
 4044TIP3    H212086   1.013   4.847   3.531
 4045TIP3   OH212087   0.666   4.565   2.181
 4045TIP3    H112088   0.715   4.504   2.126
 4045TIP3    H212089   0.722   4.642   2.188
 4046TIP3   OH212090   0.270   6.097   2.472
 4046TIP3    H112091   0.335   6.090   2.402
 4046TIP3    H212092   0.300   6.171   2.525
 4047TIP3   OH212093   0.950   4.679   3.480
 4047TIP3    H112094   0.866   4.678   3.434
 4047TIP3    H212095   0.982   4.589   3.475
 4048TIP3   OH212096   0.341   6.353   3.042
 4048TIP3    H112097   0.326   6.433   2.992
 4048TIP3    H212098   0.354   6.285   2.976
 4049TIP3   OH212099   0.244   4.606   3.128
 4049TIP3    H112100   0.243   4.518   3.164
 4049TIP3    H212101   0.242   4.594   3.033
 4050TIP3   OH212102   0.681   4.539   3.034
 4050TIP3    H112103   0.721   4.572   2.953
 4050TIP3    H212104   0.590   4.520   3.010
 4051TIP3   OH212105   0.776   4.584   2.779
 4051TIP3    H112106   0.846   4.526   2.748
 4051TIP3    H212107   0.810   4.672   2.765
 4052TIP3   OH212108   7.694   4.261   2.976
 4052TIP3    H112109   7.781   4.278   3.010
 4052TIP3    H212110   7.672   4.338   2.924
 4053TIP3   OH212111   0.433   4.467   2.952
 4053TIP3    H112112   0.362   4.499   2.896
 4053TIP3    H212113   0.396   4.391   2.997
 4054TIP3   OH212114   0.447   4.439   2.541
 4054TIP3    H112115   0.366   4.487   2.558
 4054TIP3    H212116   0.433   4.353   2.582
 4055TIP3   OH212117   7.745   4.491   2.557
 4055TIP3    H112118   7.807   4.486   2.630
 4055TIP3    H212119   7.751   4.581   2.527
 4056TIP3   OH212120   0.412   6.065   2.230
 4056TIP3    H112121   0.407   5.970   2.221
 4056TIP3    H212122   0.373   6.099   2.150
 4057TIP3   OH212123   0.715   4.687   3.917
 4057TIP3    H112124   0.736   4.649   4.003
 4057TIP3    H212125   0.798   4.685   3.870
 4058TIP3   OH212126   0.627   6.219   3.416
 4058TIP3    H112127   0.552   6.185   3.366
 4058TIP3    H212128   0.611   6.313   3.423
 4059TIP3   OH212129   1.867   5.602   2.195
 4059TIP3    H112130   1.851   5.689   2.159
 4059TIP3    H212131   1.810   5.543   2.145
 4060TIP3   OH212132   1.868   5.596   2.484
 4060TIP3    H112133   1.843   5.509   2.513
 4060TIP3    H212134   1.867   5.591   2.388
 4061TIP3   OH212135   1.184   5.460   2.922
 4061TIP3    H112136   1.222   5.410   2.994
 4061TIP3    H212137   1.259   5.486   2.869
 4062TIP3   OH212138   2.150   5.884   2.237
 4062TIP3    H112139   2.144   5.827   2.313
 4062TIP3    H212140   2.164   5.972   2.275
 4063TIP3   OH212141   1.177   5.882   2.606
 4063TIP3    H112142   1.158   5.789   2.614
 4063TIP3    H212143   1.272   5.888   2.600
 4064TIP3   OH212144   0.867   5.095   2.392
 4064TIP3    H112145   0.828   5.179   2.415
 4064TIP3    H212146   0.796   5.046   2.350
 4065TIP3   OH212147   0.944   5.402   2.611
 4065TIP3    H112148   0.994   5.324   2.634
 4065TIP3    H212149   1.010   5.467   2.588
 4066TIP3   OH212150   1.829   6.333   2.275
 4066TIP3    H112151   1.848   6.259   2.217
 4066TIP3    H212152   1.853   6.302   2.362
 4067TIP3   OH212153   1.697   5.810   2.587
 4067TIP3    H112154   1.742   5.738   2.543
 4067TIP3    H212155   1.768   5.867   2.619
 4068TIP3   OH212156   2.705   5.135   2.602
 4068TIP3    H112157   2.725   5.216   2.649
 4068TIP3    H212158   2.740   5.149   2.514
 4069TIP3   OH212159   2.091   5.298   2.641
 4069TIP3    H112160   2.131   5.214   2.665
 4069TIP3    H212161   2.058   5.285   2.552
 4070TIP3   OH212162   1.457   4.962   2.574
 4070TIP3    H112163   1.436   5.035   2.516
 4070TIP3    H212164   1.404   4.889   2.541
 4071TIP3   OH212165   2.154   5.073   2.223
 4071TIP3    H112166   2.220   5.064   2.291
 4071TIP3    H212167   2.202   5.105   2.146
 4072TIP3   OH212168   1.084   5.179   2.699
 4072TIP3    H112169   1.165   5.154   2.743
 4072TIP3    H212170   1.084   5.128   2.618
 4073TIP3   OH212171   1.501   5.375   2.525
 4073TIP3    H112172   1.595   5.358   2.529
 4073TIP3    H212173   1.464   5.294   2.488
 4074TIP3   OH212174   2.764   5.346   2.779
 4074TIP3    H112175   2.694   5.405   2.753
 4074TIP3    H212176   2.817   5.397   2.840
 4075TIP3   OH212177   1.437   4.967   3.027
 4075TIP3    H112178   1.383   4.995   2.953
 4075TIP3    H212179   1.383   4.984   3.104
 4076TIP3   OH212180   1.792   5.811   2.020
 4076TIP3    H112181   1.754   5.783   1.937
 4076TIP3    H212182   1.739   5.887   2.045
 4077TIP3   OH212183   1.535   5.736   2.801
 4077TIP3    H112184   1.482   5.808   2.836
 4077TIP3    H212185   1.584   5.776   2.729
 4078TIP3   OH212186   2.329   5.078   2.440
 4078TIP3    H112187   2.393   5.009   2.453
 4078TIP3    H212188   2.378   5.160   2.453
 4079TIP3   OH212189   1.320   5.062   2.794
 4079TIP3    H112190   1.373   5.138   2.816
 4079TIP3    H212191   1.368   5.020   2.722
 4080TIP3   OH212192   1.376   5.940   2.904
 4080TIP3    H112193   1.368   6.030   2.872
 4080TIP3    H212194   1.296   5.925   2.953
 4081TIP3   OH212195   0.760   5.650   2.160
 4081TIP3    H112196   0.727   5.668   2.072
 4081TIP3    H212197   0.782   5.736   2.195
 4082TIP3   OH212198   2.168   6.135   2.352
 4082TIP3    H112199   2.090   6.130   2.406
 4082TIP3    H212200   2.194   6.228   2.355
 4083TIP3   OH212201   2.482   5.054   2.776
 4083TIP3    H112202   2.397   5.059   2.733
 4083TIP3    H212203   2.545   5.072   2.706
 4084TIP3   OH212204   1.782   4.659   2.757
 4084TIP3    H112205   1.776   4.567   2.780
 4084TIP3    H212206   1.704   4.699   2.795
 4085TIP3   OH212207   1.899   6.179   2.046
 4085TIP3    H112208   1.954   6.101   2.036
 4085TIP3    H212209   1.956   6.252   2.022
 4086TIP3   OH212210   2.037   5.949   1.995
 4086TIP3    H112211   1.963   5.888   1.995
 4086TIP3    H212212   2.089   5.924   2.071
 4087TIP3   OH212213   2.446   6.007   2.764
 4087TIP3    H112214   2.418   5.958   2.687
 4087TIP3    H212215   2.410   6.095   2.751
 4088TIP3   OH212216   1.722   5.450   2.013
 4088TIP3    H112217   1.639   5.492   1.991
 4088TIP3    H212218   1.768   5.442   1.929
 4089TIP3   OH212219   1.688   5.250   1.695
 4089TIP3    H112220   1.755   5.299   1.744
 4089TIP3    H212221   1.737   5.179   1.653
 4090TIP3   OH212222   2.611   5.713   2.596
 4090TIP3    H112223   2.527   5.759   2.594
 4090TIP3    H212224   2.647   5.725   2.507
 4091TIP3   OH212225   2.060   5.543   1.983
 4091TIP3    H112226   2.012   5.570   2.062
 4091TIP3    H212227   2.146   5.515   2.016
 4092TIP3   OH212228   1.302   5.509   2.373
 4092TIP3    H112229   1.265   5.448   2.309
 4092TIP3    H212230   1.375   5.461   2.412
 4093TIP3   OH212231   1.442   5.931   2.516
 4093TIP3    H112232   1.421   5.918   2.424
 4093TIP3    H212233   1.529   5.895   2.526
 4094TIP3   OH212234   1.396   5.507   2.744
 4094TIP3    H112235   1.436   5.471   2.665
 4094TIP3    H212236   1.446   5.588   2.761
 4095TIP3   OH212237   1.940   6.132   2.504
 4095TIP3    H112238   1.940   6.216   2.550
 4095TIP3    H212239   1.929   6.067   2.573
 4096TIP3   OH212240   1.562   6.031   3.089
 4096TIP3    H112241   1.502   6.094   3.130
 4096TIP3    H212242   1.508   5.983   3.026
 4097TIP3   OH212243   1.906   5.396   1.805
 4097TIP3    H112244   1.962   5.456   1.853
 4097TIP3    H212245   1.935   5.403   1.714
 4098TIP3   OH212246   1.332   5.589   3.209
 4098TIP3    H112247   1.337   5.682   3.229
 4098TIP3    H212248   1.238   5.570   3.203
 4099TIP3   OH212249   1.655   6.052   2.055
 4099TIP3    H112250   1.735   6.104   2.064
 4099TIP3    H212251   1.595   6.109   2.006
 4100TIP3   OH212252   1.363   6.207   3.157
 4100TIP3    H112253   1.337   6.214   3.065
 4100TIP3    H212254   1.282   6.188   3.203
 4101TIP3   OH212255   2.414   4.618   1.859
 4101TIP3    H112256   2.337   4.637   1.912
 4101TIP3    H212257   2.423   4.694   1.801
 4102TIP3   OH212258   1.176   5.348   2.176
 4102TIP3    H112259   1.100   5.396   2.144
 4102TIP3    H212260   1.145   5.259   2.190
 4103TIP3   OH212261   2.241   5.994   1.418
 4103TIP3    H112262   2.235   6.086   1.395
 4103TIP3    H212263   2.329   5.967   1.392
 4104TIP3   OH212264   0.962   5.758   3.102
 4104TIP3    H112265   0.893   5.742   3.038
 4104TIP3    H212266   0.996   5.671   3.123
 4105TIP3   OH212267   0.805   5.960   2.755
 4105TIP3    H112268   0.896   5.982   2.772
 4105TIP3    H212269   0.755   6.035   2.785
 4106TIP3   OH212270   2.682   6.426   2.800
 4106TIP3    H112271   2.682   6.331   2.801
 4106TIP3    H212272   2.610   6.452   2.858
 4107TIP3   OH212273   1.738   6.174   2.932
 4107TIP3    H112274   1.747   6.264   2.961
 4107TIP3    H212275   1.675   6.135   2.993
 4108TIP3   OH212276   1.540   6.275   1.889
 4108TIP3    H112277   1.493   6.261   1.807
 4108TIP3    H212278   1.507   6.358   1.923
 4109TIP3   OH212279   0.974   6.140   2.266
 4109TIP3    H112280   1.021   6.133   2.350
 4109TIP3    H212281   0.926   6.058   2.258
 4110TIP3   OH212282   1.747   6.214   1.519
 4110TIP3    H112283   1.796   6.139   1.483
 4110TIP3    H212284   1.780   6.223   1.608
 4111TIP3   OH212285   1.795   6.251   1.788
 4111TIP3    H112286   1.707   6.257   1.826
 4111TIP3    H212287   1.849   6.213   1.857
 4112TIP3   OH212288   2.550   5.527   3.083
 4112TIP3    H112289   2.460   5.556   3.074
 4112TIP3    H212290   2.548   5.434   3.060
 4113TIP3   OH212291   1.156   5.951   3.070
 4113TIP3    H112292   1.204   5.942   3.153
 4113TIP3    H212293   1.085   5.887   3.077
 4114TIP3   OH212294   1.541   4.751   2.881
 4114TIP3    H112295   1.458   4.717   2.849
 4114TIP3    H212296   1.518   4.832   2.927
 4115TIP3   OH212297   2.061   4.887   3.074
 4115TIP3    H112298   2.132   4.858   3.132
 4115TIP3    H212299   1.981   4.862   3.120
 4116TIP3   OH212300   1.985   5.391   1.544
 4116TIP3    H112301   1.939   5.383   1.461
 4116TIP3    H212302   2.068   5.434   1.523
 4117TIP3   OH212303   1.694   4.790   1.857
 4117TIP3    H112304   1.651   4.797   1.943
 4117TIP3    H212305   1.658   4.710   1.819
 4118TIP3   OH212306   1.461   5.278   2.885
 4118TIP3    H112307   1.418   5.287   2.970
 4118TIP3    H212308   1.439   5.359   2.839
 4119TIP3   OH212309   1.361   5.163   2.413
 4119TIP3    H112310   1.272   5.137   2.438
 4119TIP3    H212311   1.371   5.132   2.323
 4120TIP3   OH212312   1.842   5.243   2.150
 4120TIP3    H112313   1.795   5.315   2.108
 4120TIP3    H212314   1.899   5.208   2.081
 4121TIP3   OH212315   2.068   5.461   3.173
 4121TIP3    H112316   2.012   5.445   3.249
 4121TIP3    H212317   2.135   5.521   3.204
 4122TIP3   OH212318   2.001   5.249   2.379
 4122TIP3    H112319   1.937   5.271   2.312
 4122TIP3    H212320   2.052   5.178   2.342
 4123TIP3   OH212321   1.316   5.302   3.116
 4123TIP3    H112322   1.325   5.367   3.186
 4123TIP3    H212323   1.299   5.220   3.162
 4124TIP3   OH212324   1.362   4.778   1.830
 4124TIP3    H112325   1.347   4.781   1.924
 4124TIP3    H212326   1.283   4.818   1.792
 4125TIP3   OH212327   0.898   4.810   2.698
 4125TIP3    H112328   0.972   4.848   2.747
 4125TIP3    H212329   0.935   4.791   2.611
 4126TIP3   OH212330   0.819   4.796   2.202
 4126TIP3    H112331   0.865   4.829   2.125
 4126TIP3    H212332   0.756   4.864   2.223
 4127TIP3   OH212333   1.727   4.954   2.467
 4127TIP3    H112334   1.647   4.950   2.520
 4127TIP3    H212335   1.798   4.941   2.530
 4128TIP3   OH212336   1.124   5.036   2.471
 4128TIP3    H112337   1.036   5.041   2.433
 4128TIP3    H212338   1.151   4.945   2.455
 4129TIP3   OH212339   1.372   5.045   2.165
 4129TIP3    H112340   1.467   5.052   2.154
 4129TIP3    H212341   1.337   5.060   2.077
 4130TIP3   OH212342   2.185   5.040   2.690
 4130TIP3    H112343   2.110   4.981   2.695
 4130TIP3    H212344   2.220   5.027   2.602
 4131TIP3   OH212345   1.259   5.068   1.914
 4131TIP3    H112346   1.198   5.014   1.864
 4131TIP3    H212347   1.314   5.109   1.848
 4132TIP3   OH212348   2.364   6.744   2.897
 4132TIP3    H112349   2.358   6.743   2.801
 4132TIP3    H212350   2.448   6.787   2.915
 4133TIP3   OH212351   1.315   5.851   3.307
 4133TIP3    H112352   1.395   5.875   3.354
 4133TIP3    H212353   1.245   5.865   3.371
 4134TIP3   OH212354   1.774   5.316   2.563
 4134TIP3    H112355   1.843   5.273   2.513
 4134TIP3    H212356   1.784   5.282   2.652
 4135TIP3   OH212357   1.266   4.788   2.456
 4135TIP3    H112358   1.237   4.714   2.508
 4135TIP3    H212359   1.289   4.751   2.371
 4136TIP3   OH212360   1.732   5.256   2.861
 4136TIP3    H112361   1.636   5.255   2.860
 4136TIP3    H212362   1.755   5.348   2.878
 4137TIP3   OH212363   1.483   5.581   1.953
 4137TIP3    H112364   1.412   5.522   1.931
 4137TIP3    H212365   1.456   5.622   2.035
 4138TIP3   OH212366   2.372   5.842   2.556
 4138TIP3    H112367   2.404   5.897   2.484
 4138TIP3    H212368   2.291   5.802   2.521
 4139TIP3   OH212369   1.944   4.897   1.861
 4139TIP3    H112370   1.852   4.871   1.857
 4139TIP3    H212371   1.942   4.992   1.871
 4140TIP3   OH212372   1.883   5.937   2.967
 4140TIP3    H112373   1.939   5.948   3.044
 4140TIP3    H212374   1.840   6.021   2.957
 4141TIP3   OH212375   2.001   5.164   1.932
 4141TIP3    H112376   2.096   5.166   1.938
 4141TIP3    H212377   1.979   5.240   1.878
 4142TIP3   OH212378   1.165   5.591   2.599
 4142TIP3    H112379   1.204   5.574   2.513
 4142TIP3    H212380   1.232   5.563   2.661
 4143TIP3   OH212381   1.635   5.741   1.793
 4143TIP3    H112382   1.589   5.825   1.793
 4143TIP3    H212383   1.581   5.683   1.845
 4144TIP3   OH212384   1.060   5.522   3.231
 4144TIP3    H112385   1.064   5.492   3.322
 4144TIP3    H212386   0.983   5.479   3.194
 4145TIP3   OH212387   1.792   5.660   3.255
 4145TIP3    H112388   1.721   5.600   3.232
 4145TIP3    H212389   1.853   5.656   3.182
 4146TIP3   OH212390   2.418   5.251   1.746
 4146TIP3    H112391   2.362   5.206   1.683
 4146TIP3    H212392   2.424   5.341   1.713
 4147TIP3   OH212393   2.686   6.151   2.819
 4147TIP3    H112394   2.595   6.127   2.834
 4147TIP3    H212395   2.709   6.109   2.735
 4148TIP3   OH212396   2.160   6.066   1.685
 4148TIP3    H112397   2.132   5.998   1.746
 4148TIP3    H212398   2.179   6.020   1.604
 4149TIP3   OH212399   2.146   5.699   2.457
 4149TIP3    H112400   2.056   5.680   2.482
 4149TIP3    H212401   2.179   5.616   2.422
 4150TIP3   OH212402   1.298   5.937   2.271
 4150TIP3    H112403   1.294   6.013   2.213
 4150TIP3    H212404   1.209   5.929   2.306
 4151TIP3   OH212405   0.868   5.218   1.986
 4151TIP3    H112406   0.908   5.303   2.006
 4151TIP3    H212407   0.786   5.219   2.035
 4152TIP3   OH212408   1.381   5.692   2.176
 4152TIP3    H112409   1.364   5.781   2.207
 4152TIP3    H212410   1.354   5.636   2.249
 4153TIP3   OH212411   1.580   6.263   2.717
 4153TIP3    H112412   1.623   6.332   2.668
 4153TIP3    H212413   1.648   6.225   2.773
 4154TIP3   OH212414   1.208   6.159   2.122
 4154TIP3    H112415   1.121   6.161   2.162
 4154TIP3    H212416   1.239   6.249   2.128
 4155TIP3   OH212417   1.931   5.921   2.696
 4155TIP3    H112418   1.915   5.924   2.790
 4155TIP3    H212419   2.023   5.895   2.689
 4156TIP3   OH212420   1.921   5.800   1.568
 4156TIP3    H112421   1.974   5.771   1.642
 4156TIP3    H212422   1.836   5.757   1.581
 4157TIP3   OH212423   2.241   6.265   1.367
 4157TIP3    H112424   2.264   6.329   1.299
 4157TIP3    H212425   2.169   6.306   1.415
 4158TIP3   OH212426   1.270   5.045   3.236
 4158TIP3    H112427   1.175   5.050   3.241
 4158TIP3    H212428   1.295   4.993   3.313
 4159TIP3   OH212429   2.095   5.712   1.760
 4159TIP3    H112430   2.079   5.666   1.843
 4159TIP3    H212431   2.190   5.719   1.756
 4160TIP3   OH212432   1.006   6.148   2.881
 4160TIP3    H112433   1.059   6.094   2.940
 4160TIP3    H212434   1.011   6.236   2.919
 4161TIP3   OH212435   1.279   5.767   1.592
 4161TIP3    H112436   1.290   5.677   1.562
 4161TIP3    H212437   1.266   5.760   1.686
 4162TIP3   OH212438   1.222   5.782   1.863
 4162TIP3    H112439   1.289   5.755   1.927
 4162TIP3    H212440   1.222   5.877   1.867
 4163TIP3   OH212441   0.954   5.473   2.063
 4163TIP3    H112442   0.890   5.521   2.116
 4163TIP3    H212443   0.975   5.532   1.991
 4164TIP3   OH212444   2.117   5.140   2.986
 4164TIP3    H112445   2.150   5.129   2.897
 4164TIP3    H212446   2.093   5.052   3.014
 4165TIP3   OH212447   2.006   4.852   2.129
 4165TIP3    H112448   1.985   4.869   2.037
 4165TIP3    H212449   2.048   4.933   2.158
 4166TIP3   OH212450   1.488   5.969   1.794
 4166TIP3    H112451   1.404   5.993   1.831
 4166TIP3    H212452   1.512   6.043   1.738
 4167TIP3   OH212453   1.653   5.050   2.215
 4167TIP3    H112454   1.716   5.118   2.189
 4167TIP3    H212455   1.677   5.028   2.305
 4168TIP3   OH212456   1.812   4.748   2.297
 4168TIP3    H112457   1.789   4.824   2.350
 4168TIP3    H212458   1.884   4.779   2.241
 4169TIP3   OH212459   1.239   6.054   1.871
 4169TIP3    H112460   1.219   6.126   1.811
 4169TIP3    H212461   1.226   6.092   1.958
 4170TIP3   OH212462   1.324   4.768   2.109
 4170TIP3    H112463   1.313   4.859   2.137
 4170TIP3    H212464   1.419   4.754   2.114
 4171TIP3   OH212465   2.547   5.270   2.959
 4171TIP3    H112466   2.508   5.190   2.922
 4171TIP3    H212467   2.623   5.288   2.903
 4172TIP3   OH212468   2.227   5.437   2.368
 4172TIP3    H112469   2.152   5.381   2.386
 4172TIP3    H212470   2.298   5.398   2.419
 4173TIP3   OH212471   0.976   5.655   1.849
 4173TIP3    H112472   1.045   5.720   1.860
 4173TIP3    H212473   1.013   5.590   1.788
 4174TIP3   OH212474   0.893   4.940   1.983
 4174TIP3    H112475   0.901   5.035   1.992
 4174TIP3    H212476   0.851   4.927   1.899
 4175TIP3   OH212477   2.210   6.423   2.330
 4175TIP3    H112478   2.172   6.472   2.257
 4175TIP3    H212479   2.304   6.428   2.316
 4176TIP3   OH212480   1.278   4.664   2.846
 4176TIP3    H112481   1.250   4.633   2.760
 4176TIP3    H212482   1.269   4.588   2.903
 4177TIP3   OH212483   0.800   5.920   2.236
 4177TIP3    H112484   0.749   5.957   2.308
 4177TIP3    H212485   0.762   5.958   2.158
 4178TIP3   OH212486   1.003   6.437   3.302
 4178TIP3    H112487   1.083   6.440   3.354
 4178TIP3    H212488   0.976   6.345   3.305
 4179TIP3   OH212489   1.468   6.372   3.351
 4179TIP3    H112490   1.560   6.346   3.361
 4179TIP3    H212491   1.436   6.317   3.280
 4180TIP3   OH212492   1.451   5.954   1.487
 4180TIP3    H112493   1.394   5.890   1.531
 4180TIP3    H212494   1.525   5.902   1.456
 4181TIP3   OH212495   2.072   6.329   3.134
 4181TIP3    H112496   2.092   6.248   3.180
 4181TIP3    H212497   2.156   6.374   3.126
 4182TIP3   OH212498   1.872   6.005   1.394
 4182TIP3    H112499   1.903   5.940   1.456
 4182TIP3    H212500   1.933   5.999   1.320
 4183TIP3   OH212501   1.108   5.854   3.496
 4183TIP3    H112502   1.125   5.760   3.507
 4183TIP3    H212503   1.022   5.858   3.456
 4184TIP3   OH212504   1.113   5.465   1.709
 4184TIP3    H112505   1.166   5.440   1.785
 4184TIP3    H212506   1.176   5.478   1.638
 4185TIP3   OH212507   1.735   5.943   3.282
 4185TIP3    H112508   1.685   5.963   3.202
 4185TIP3    H212509   1.771   5.856   3.266
 4186TIP3   OH212510   1.652   5.691   1.522
 4186TIP3    H112511   1.636   5.700   1.616
 4186TIP3    H212512   1.643   5.598   1.505
 4187TIP3   OH212513   2.199   5.969   2.893
 4187TIP3    H112514   2.283   5.986   2.852
 4187TIP3    H212515   2.152   6.052   2.889
 4188TIP3   OH212516   1.225   5.597   3.505
 4188TIP3    H112517   1.301   5.590   3.447
 4188TIP3    H212518   1.261   5.621   3.590
 4189TIP3   OH212519   1.284   5.396   1.914
 4189TIP3    H112520   1.261   5.361   2.000
 4189TIP3    H212521   1.326   5.322   1.869
 4190TIP3   OH212522   1.592   5.490   3.150
 4190TIP3    H112523   1.504   5.528   3.160
 4190TIP3    H212524   1.618   5.515   3.062
 4191TIP3   OH212525   1.411   5.217   1.739
 4191TIP3    H112526   1.383   5.222   1.648
 4191TIP3    H212527   1.507   5.223   1.734
 4192TIP3   OH212528   2.080   5.845   3.244
 4192TIP3    H112529   2.157   5.819   3.192
 4192TIP3    H212530   2.087   5.794   3.324
 4193TIP3   OH212531   2.207   5.510   1.427
 4193TIP3    H112532   2.192   5.468   1.342
 4193TIP3    H212533   2.181   5.601   1.413
 4194TIP3   OH212534   1.680   5.259   3.270
 4194TIP3    H112535   1.682   5.186   3.208
 4194TIP3    H212536   1.648   5.333   3.219
 4195TIP3   OH212537   1.692   5.061   3.071
 4195TIP3    H112538   1.719   5.108   2.992
 4195TIP3    H212539   1.604   5.030   3.052
 4196TIP3   OH212540   1.718   5.562   2.913
 4196TIP3    H112541   1.802   5.602   2.891
 4196TIP3    H212542   1.653   5.622   2.876
 4197TIP3   OH212543   2.308   5.552   3.315
 4197TIP3    H112544   2.366   5.478   3.334
 4197TIP3    H212545   2.366   5.628   3.313
 4198TIP3   OH212546   2.314   5.797   3.074
 4198TIP3    H112547   2.258   5.847   3.015
 4198TIP3    H212548   2.402   5.805   3.036
 4199TIP3   OH212549   1.569   5.337   3.514
 4199TIP3    H112550   1.501   5.274   3.536
 4199TIP3    H212551   1.596   5.314   3.425
 4200TIP3   OH212552   1.808   4.825   3.170
 4200TIP3    H112553   1.767   4.905   3.138
 4200TIP3    H212554   1.743   4.756   3.155
 4201TIP3   OH212555   1.935   5.313   3.364
 4201TIP3    H112556   1.934   5.299   3.458
 4201TIP3    H212557   1.847   5.290   3.335
 4202TIP3   OH212558   2.203   5.226   3.275
 4202TIP3    H112559   2.153   5.230   3.356
 4202TIP3    H212560   2.293   5.211   3.304
 4203TIP3   OH212561   2.448   5.203   3.394
 4203TIP3    H112562   2.457   5.108   3.402
 4203TIP3    H212563   2.439   5.234   3.484
 4204TIP3   OH212564   1.406   5.115   3.578
 4204TIP3    H112565   1.414   5.027   3.540
 4204TIP3    H212566   1.446   5.107   3.665
 4205TIP3   OH212567   1.882   4.799   3.433
 4205TIP3    H112568   1.950   4.731   3.426
 4205TIP3    H212569   1.852   4.810   3.343
 4206TIP3   OH212570   1.980   5.015   3.574
 4206TIP3    H112571   1.949   4.941   3.521
 4206TIP3    H212572   1.907   5.076   3.574
 4207TIP3   OH212573   1.234   6.265   1.691
 4207TIP3    H112574   1.322   6.246   1.656
 4207TIP3    H212575   1.187   6.305   1.618
 4208TIP3   OH212576   0.706   5.638   1.875
 4208TIP3    H112577   0.800   5.655   1.871
 4208TIP3    H212578   0.698   5.548   1.845
 4209TIP3   OH212579   0.592   6.241   2.336
 4209TIP3    H112580   0.535   6.183   2.286
 4209TIP3    H212581   0.641   6.181   2.394
 4210TIP3   OH212582   0.742   6.073   2.494
 4210TIP3    H112583   0.736   6.002   2.558
 4210TIP3    H212584   0.798   6.138   2.536
 4211TIP3   OH212585   2.482   6.465   2.314
 4211TIP3    H112586   2.492   6.469   2.409
 4211TIP3    H212587   2.521   6.546   2.282
 4212TIP3   OH212588   2.499   6.484   2.589
 4212TIP3    H112589   2.433   6.421   2.619
 4212TIP3    H212590   2.576   6.467   2.642
 4213TIP3   OH212591   2.562   6.192   3.160
 4213TIP3    H112592   2.485   6.203   3.215
 4213TIP3    H212593   2.606   6.277   3.161
 4214TIP3   OH212594   2.375   5.716   1.760
 4214TIP3    H112595   2.433   5.786   1.731
 4214TIP3    H212596   2.421   5.677   1.835
 4215TIP3   OH212597   2.503   5.571   1.960
 4215TIP3    H112598   2.435   5.536   2.018
 4215TIP3    H212599   2.569   5.607   2.020
 4216TIP3   OH212600   2.558   5.976   2.394
 4216TIP3    H112601   2.608   5.910   2.346
 4216TIP3    H212602   2.555   6.051   2.335
 4217TIP3   OH212603   2.412   5.490   1.608
 4217TIP3    H112604   2.342   5.489   1.543
 4217TIP3    H212605   2.396   5.568   1.660
 4218TIP3   OH212606   2.270   5.144   1.546
 4218TIP3    H112607   2.224   5.180   1.469
 4218TIP3    H212608   2.258   5.050   1.538
 4219TIP3   OH212609   2.294   5.436   2.097
 4219TIP3    H112610   2.300   5.342   2.080
 4219TIP3    H212611   2.277   5.442   2.191
 4220TIP3   OH212612   0.921   5.487   2.869
 4220TIP3    H112613   0.912   5.459   2.778
 4220TIP3    H212614   1.015   5.488   2.885
 4221TIP3   OH212615   2.560   5.842   2.957
 4221TIP3    H112616   2.633   5.791   2.921
 4221TIP3    H212617   2.534   5.900   2.885
 4222TIP3   OH212618   2.757   5.639   2.938
 4222TIP3    H112619   2.686   5.606   2.993
 4222TIP3    H212620   2.833   5.587   2.963
 4223TIP3   OH212621   2.219   4.878   1.516
 4223TIP3    H112622   2.287   4.844   1.575
 4223TIP3    H212623   2.139   4.833   1.544
 4224TIP3   OH212624   2.293   5.158   1.986
 4224TIP3    H112625   2.337   5.074   1.998
 4224TIP3    H212626   2.335   5.196   1.909
 4225TIP3   OH212627   2.452   5.321   2.495
 4225TIP3    H112628   2.531   5.342   2.445
 4225TIP3    H212629   2.466   5.360   2.581
 4226TIP3   OH212630   2.531   5.481   2.714
 4226TIP3    H112631   2.454   5.510   2.763
 4226TIP3    H212632   2.563   5.560   2.671
 4227TIP3   OH212633   1.145   5.170   3.515
 4227TIP3    H112634   1.238   5.167   3.536
 4227TIP3    H212635   1.109   5.089   3.551
 4228TIP3   OH212636   2.984   5.073   3.267
 4228TIP3    H112637   3.050   5.013   3.231
 4228TIP3    H212638   2.951   5.121   3.191
 4229TIP3   OH212639   2.407   4.907   2.038
 4229TIP3    H112640   2.454   4.888   2.119
 4229TIP3    H212641   2.345   4.834   2.029
 4230TIP3   OH212642   1.110   4.884   2.867
 4230TIP3    H112643   1.164   4.805   2.870
 4230TIP3    H212644   1.172   4.954   2.845
 4231TIP3   OH212645   0.921   5.170   2.924
 4231TIP3    H112646   0.969   5.158   2.842
 4231TIP3    H212647   0.934   5.263   2.946
 4232TIP3   OH212648   2.829   5.195   3.074
 4232TIP3    H112649   2.763   5.229   3.135
 4232TIP3    H212650   2.785   5.121   3.030
 4233TIP3   OH212651   2.450   4.819   1.671
 4233TIP3    H112652   2.499   4.759   1.615
 4233TIP3    H212653   2.506   4.897   1.676
 4234TIP3   OH212654   0.895   4.672   2.432
 4234TIP3    H112655   0.809   4.652   2.470
 4234TIP3    H212656   0.875   4.722   2.353
 4235TIP3   OH212657   2.032   6.392   1.943
 4235TIP3    H112658   2.088   6.375   1.867
 4235TIP3    H212659   2.087   6.443   2.002
 4236TIP3   OH212660   1.112   4.713   3.249
 4236TIP3    H112661   1.060   4.709   3.329
 4236TIP3    H212662   1.057   4.763   3.188
 4237TIP3   OH212663   1.149   6.159   3.326
 4237TIP3    H112664   1.055   6.147   3.317
 4237TIP3    H212665   1.165   6.163   3.420
 4238TIP3   OH212666   1.355   6.216   2.871
 4238TIP3    H112667   1.298   6.284   2.836
 4238TIP3    H212668   1.439   6.229   2.828
 4239TIP3   OH212669   1.751   6.441   3.006
 4239TIP3    H112670   1.787   6.441   3.095
 4239TIP3    H212671   1.820   6.480   2.953
 4240TIP3   OH212672   1.947   6.570   2.862
 4240TIP3    H112673   2.004   6.508   2.815
 4240TIP3    H212674   2.007   6.618   2.919
 4241TIP3   OH212675   2.749   4.926   2.984
 4241TIP3    H112676   2.662   4.895   2.958
 4241TIP3    H212677   2.805   4.849   2.975
 4242TIP3   OH212678   0.999   6.444   2.908
 4242TIP3    H112679   0.907   6.464   2.891
 4242TIP3    H212680   1.025   6.504   2.977
 4243TIP3   OH212681   1.231   6.434   2.759
 4243TIP3    H112682   1.147   6.439   2.804
 4243TIP3    H212683   1.211   6.455   2.667
 4244TIP3   OH212684   1.656   6.478   2.553
 4244TIP3    H112685   1.580   6.489   2.496
 4244TIP3    H212686   1.657   6.558   2.607
 4245TIP3   OH212687   1.918   6.393   2.581
 4245TIP3    H112688   1.832   6.433   2.565
 4245TIP3    H212689   1.980   6.465   2.571
 4246TIP3   OH212690   2.117   6.597   2.526
 4246TIP3    H112691   2.114   6.671   2.465
 4246TIP3    H212692   2.150   6.524   2.473
 4247TIP3   OH212693   0.924   6.242   2.630
 4247TIP3    H112694   0.941   6.218   2.721
 4247TIP3    H212695   0.999   6.205   2.582
 4248TIP3   OH212696   1.128   6.126   2.494
 4248TIP3    H112697   1.139   6.041   2.539
 4248TIP3    H212698   1.215   6.166   2.499
 4249TIP3   OH212699   1.396   6.210   2.517
 4249TIP3    H112700   1.415   6.117   2.504
 4249TIP3    H212701   1.451   6.237   2.591
 4250TIP3   OH212702   1.948   4.857   2.619
 4250TIP3    H112703   1.902   4.785   2.663
 4250TIP3    H212704   2.017   4.813   2.569
 4251TIP3   OH212705   2.439   4.823   2.501
 4251TIP3    H112706   2.477   4.824   2.413
 4251TIP3    H212707   2.350   4.790   2.489
 4252TIP3   OH212708   2.564   4.847   2.259
 4252TIP3    H112709   2.630   4.784   2.230
 4252TIP3    H212710   2.606   4.932   2.247
 4253TIP3   OH212711   1.192   4.565   2.603
 4253TIP3    H112712   1.103   4.531   2.610
 4253TIP3    H212713   1.247   4.486   2.595
 4254TIP3   OH212714   1.019   4.474   2.262
 4254TIP3    H112715   1.043   4.519   2.182
 4254TIP3    H212716   0.985   4.543   2.320
 4255TIP3   OH212717   1.663   4.610   2.498
 4255TIP3    H112718   1.716   4.649   2.428
 4255TIP3    H212719   1.713   4.628   2.578
 4256TIP3   OH212720   2.168   4.733   2.490
 4256TIP3    H112721   2.163   4.694   2.403
 4256TIP3    H212722   2.178   4.659   2.549
 4257TIP3   OH212723   2.224   4.695   2.045
 4257TIP3    H112724   2.144   4.742   2.069
 4257TIP3    H212725   2.212   4.607   2.083
 4258TIP3   OH212726   0.694   6.030   2.009
 4258TIP3    H112727   0.609   5.999   1.977
 4258TIP3    H212728   0.688   6.125   2.003
 4259TIP3   OH212729   1.123   4.592   2.016
 4259TIP3    H112730   1.168   4.531   1.958
 4259TIP3    H212731   1.191   4.649   2.051
 4260TIP3   OH212732   1.598   4.799   2.117
 4260TIP3    H112733   1.657   4.744   2.169
 4260TIP3    H212734   1.617   4.888   2.145
 4261TIP3   OH212735   1.488   6.192   1.614
 4261TIP3    H112736   1.573   6.220   1.578
 4261TIP3    H212737   1.465   6.115   1.562
 4262TIP3   OH212738   2.188   6.336   1.718
 4262TIP3    H112739   2.184   6.240   1.713
 4262TIP3    H212740   2.148   6.366   1.637
 4263TIP3   OH212741   1.421   4.846   3.485
 4263TIP3    H112742   1.387   4.780   3.545
 4263TIP3    H212743   1.513   4.854   3.507
 4264TIP3   OH212744   1.668   4.850   3.609
 4264TIP3    H112745   1.745   4.829   3.556
 4264TIP3    H212746   1.664   4.781   3.675
 4265TIP3   OH212747   0.812   6.047   1.691
 4265TIP3    H112748   0.813   6.044   1.787
 4265TIP3    H212749   0.889   5.997   1.665
 4266TIP3   OH212750   2.486   4.927   3.388
 4266TIP3    H112751   2.501   4.897   3.478
 4266TIP3    H212752   2.573   4.925   3.348
 4267TIP3   OH212753   2.456   6.484   2.939
 4267TIP3    H112754   2.407   6.420   2.887
 4267TIP3    H212755   2.408   6.566   2.926
 4268TIP3   OH212756   3.681   5.860   1.651
 4268TIP3    H112757   3.647   5.946   1.627
 4268TIP3    H212758   3.612   5.799   1.627
 4269TIP3   OH212759   3.686   5.855   2.067
 4269TIP3    H112760   3.741   5.833   2.142
 4269TIP3    H212761   3.642   5.774   2.044
 4270TIP3   OH212762   2.982   5.708   2.408
 4270TIP3    H112763   3.020   5.658   2.481
 4270TIP3    H212764   3.058   5.734   2.355
 4271TIP3   OH212765   3.953   6.162   1.736
 4271TIP3    H112766   3.939   6.093   1.801
 4271TIP3    H212767   3.971   6.240   1.788
 4272TIP3   OH212768   2.980   6.140   2.092
 4272TIP3    H112769   2.960   6.047   2.102
 4272TIP3    H212770   3.076   6.144   2.085
 4273TIP3   OH212771   2.655   5.344   1.882
 4273TIP3    H112772   2.617   5.428   1.905
 4273TIP3    H212773   2.583   5.296   1.841
 4274TIP3   OH212774   2.737   5.653   2.095
 4274TIP3    H112775   2.787   5.576   2.122
 4274TIP3    H212776   2.804   5.717   2.068
 4275TIP3   OH212777   3.610   6.585   1.756
 4275TIP3    H112778   3.640   6.521   1.692
 4275TIP3    H212779   3.608   6.538   1.839
 4276TIP3   OH212780   3.491   6.075   2.066
 4276TIP3    H112781   3.536   5.994   2.040
 4276TIP3    H212782   3.561   6.132   2.096
 4277TIP3   OH212783   4.524   5.387   2.073
 4277TIP3    H112784   4.534   5.474   2.112
 4277TIP3    H212785   4.548   5.398   1.981
 4278TIP3   OH212786   3.910   5.558   2.107
 4278TIP3    H112787   3.964   5.484   2.132
 4278TIP3    H212788   3.871   5.533   2.023
 4279TIP3   OH212789   3.247   5.220   2.068
 4279TIP3    H112790   3.229   5.293   2.008
 4279TIP3    H212791   3.193   5.148   2.035
 4280TIP3   OH212792   3.943   5.325   1.690
 4280TIP3    H112793   4.009   5.321   1.759
 4280TIP3    H212794   3.991   5.349   1.611
 4281TIP3   OH212795   2.876   5.433   2.190
 4281TIP3    H112796   2.959   5.415   2.235
 4281TIP3    H212797   2.881   5.381   2.110
 4282TIP3   OH212798   3.297   5.634   2.011
 4282TIP3    H112799   3.391   5.620   2.016
 4282TIP3    H212800   3.262   5.552   1.977
 4283TIP3   OH212801   4.565   5.605   2.251
 4283TIP3    H112802   4.485   5.652   2.228
 4283TIP3    H212803   4.554   5.581   2.343
 4284TIP3   OH212804   3.233   5.222   2.516
 4284TIP3    H112805   3.182   5.258   2.443
 4284TIP3    H212806   3.178   5.236   2.593
 4285TIP3   OH212807   3.554   6.071   1.529
 4285TIP3    H112808   3.527   6.050   1.440
 4285TIP3    H212809   3.510   6.153   1.550
 4286TIP3   OH212810   3.328   5.999   2.277
 4286TIP3    H112811   3.274   6.071   2.312
 4286TIP3    H212812   3.376   6.039   2.204
 4287TIP3   OH212813   4.117   5.349   1.895
 4287TIP3    H112814   4.155   5.271   1.937
 4287TIP3    H212815   4.168   5.422   1.930
 4288TIP3   OH212816   3.120   5.331   2.288
 4288TIP3    H112817   3.175   5.405   2.311
 4288TIP3    H212818   3.166   5.288   2.216
 4289TIP3   OH212819   3.172   6.200   2.386
 4289TIP3    H112820   3.158   6.290   2.356
 4289TIP3    H212821   3.095   6.179   2.438
 4290TIP3   OH212822   2.548   5.905   1.641
 4290TIP3    H112823   2.513   5.924   1.554
 4290TIP3    H212824   2.572   5.990   1.677
 4291TIP3   OH212825   3.984   6.409   1.880
 4291TIP3    H112826   3.897   6.403   1.919
 4291TIP3    H212827   3.984   6.493   1.833
 4292TIP3   OH212828   4.311   5.301   2.252
 4292TIP3    H112829   4.220   5.309   2.224
 4292TIP3    H212830   4.362   5.316   2.173
 4293TIP3   OH212831   3.574   4.911   2.248
 4293TIP3    H112832   3.566   4.819   2.273
 4293TIP3    H212833   3.498   4.953   2.286
 4294TIP3   OH212834   3.704   6.430   1.546
 4294TIP3    H112835   3.750   6.348   1.530
 4294TIP3    H212836   3.767   6.499   1.525
 4295TIP3   OH212837   3.859   6.216   1.482
 4295TIP3    H112838   3.847   6.132   1.436
 4295TIP3    H212839   3.894   6.191   1.567
 4296TIP3   OH212840   4.227   6.290   2.223
 4296TIP3    H112841   4.204   6.216   2.166
 4296TIP3    H212842   4.212   6.367   2.169
 4297TIP3   OH212843   3.505   5.698   1.506
 4297TIP3    H112844   3.424   5.744   1.483
 4297TIP3    H212845   3.553   5.692   1.423
 4298TIP3   OH212846   3.483   5.501   1.180
 4298TIP3    H112847   3.547   5.550   1.233
 4298TIP3    H212848   3.535   5.433   1.138
 4299TIP3   OH212849   4.403   5.965   2.084
 4299TIP3    H112850   4.317   6.006   2.080
 4299TIP3    H212851   4.439   5.974   1.995
 4300TIP3   OH212852   3.864   5.787   1.463
 4300TIP3    H112853   3.813   5.813   1.539
 4300TIP3    H212854   3.945   5.750   1.500
 4301TIP3   OH212855   4.099   5.818   2.399
 4301TIP3    H112856   4.092   5.901   2.447
 4301TIP3    H212857   4.018   5.813   2.348
 4302TIP3   OH212858   3.099   5.767   1.858
 4302TIP3    H112859   3.063   5.706   1.794
 4302TIP3    H212860   3.172   5.719   1.898
 4303TIP3   OH212861   3.242   6.192   1.997
 4303TIP3    H112862   3.217   6.176   1.906
 4303TIP3    H212863   3.329   6.151   2.005
 4304TIP3   OH212864   3.196   5.762   2.235
 4304TIP3    H112865   3.235   5.725   2.156
 4304TIP3    H212866   3.245   5.843   2.250
 4305TIP3   OH212867   3.747   6.409   2.014
 4305TIP3    H112868   3.739   6.485   2.071
 4305TIP3    H212869   3.735   6.334   2.072
 4306TIP3   OH212870   3.370   6.300   2.554
 4306TIP3    H112871   3.310   6.358   2.600
 4306TIP3    H212872   3.314   6.247   2.497
 4307TIP3   OH212873   3.689   5.653   1.302
 4307TIP3    H112874   3.751   5.705   1.352
 4307TIP3    H212875   3.710   5.671   1.210
 4308TIP3   OH212876   3.125   5.848   2.701
 4308TIP3    H112877   3.128   5.942   2.718
 4308TIP3    H212878   3.031   5.828   2.692
 4309TIP3   OH212879   3.444   6.326   1.552
 4309TIP3    H112880   3.530   6.367   1.557
 4309TIP3    H212881   3.390   6.387   1.504
 4310TIP3   OH212882   3.164   6.461   2.642
 4310TIP3    H112883   3.133   6.466   2.552
 4310TIP3    H212884   3.087   6.439   2.693
 4311TIP3   OH212885   4.216   4.866   1.366
 4311TIP3    H112886   4.135   4.896   1.406
 4311TIP3    H212887   4.253   4.945   1.324
 4312TIP3   OH212888   2.973   5.609   1.658
 4312TIP3    H112889   2.894   5.655   1.629
 4312TIP3    H212890   2.944   5.519   1.673
 4313TIP3   OH212891   3.988   6.232   0.947
 4313TIP3    H112892   3.985   6.322   0.916
 4313TIP3    H212893   4.081   6.211   0.952
 4314TIP3   OH212894   2.756   6.021   2.588
 4314TIP3    H112895   2.684   6.002   2.527
 4314TIP3    H212896   2.788   5.935   2.615
 4315TIP3   OH212897   2.593   6.216   2.246
 4315TIP3    H112898   2.680   6.243   2.274
 4315TIP3    H212899   2.536   6.289   2.272
 4316TIP3   OH212900   4.457   6.666   2.294
 4316TIP3    H112901   4.464   6.571   2.304
 4316TIP3    H212902   4.378   6.690   2.341
 4317TIP3   OH212903   3.559   6.441   2.416
 4317TIP3    H112904   3.550   6.532   2.446
 4317TIP3    H212905   3.492   6.393   2.464
 4318TIP3   OH212906   3.328   6.537   1.389
 4318TIP3    H112907   3.284   6.512   1.308
 4318TIP3    H212908   3.290   6.621   1.412
 4319TIP3   OH212909   2.771   6.397   1.752
 4319TIP3    H112910   2.817   6.389   1.835
 4319TIP3    H212911   2.723   6.315   1.743
 4320TIP3   OH212912   3.530   6.469   1.068
 4320TIP3    H112913   3.582   6.395   1.036
 4320TIP3    H212914   3.568   6.489   1.154
 4321TIP3   OH212915   3.591   6.547   1.318
 4321TIP3    H112916   3.501   6.542   1.350
 4321TIP3    H212917   3.643   6.506   1.388
 4322TIP3   OH212918   4.344   5.770   2.550
 4322TIP3    H112919   4.262   5.782   2.502
 4322TIP3    H212920   4.360   5.676   2.546
 4323TIP3   OH212921   2.955   6.207   2.558
 4323TIP3    H112922   3.004   6.194   2.639
 4323TIP3    H212923   2.883   6.144   2.564
 4324TIP3   OH212924   3.336   5.004   2.372
 4324TIP3    H112925   3.251   4.972   2.341
 4324TIP3    H212926   3.315   5.086   2.418
 4325TIP3   OH212927   3.869   5.133   2.572
 4325TIP3    H112928   3.938   5.105   2.632
 4325TIP3    H212929   3.788   5.113   2.619
 4326TIP3   OH212930   4.102   5.555   2.499
 4326TIP3    H112931   4.064   5.555   2.587
 4326TIP3    H212932   4.084   5.642   2.464
 4327TIP3   OH212933   3.747   5.688   1.043
 4327TIP3    H112934   3.709   5.660   0.960
 4327TIP3    H212935   3.838   5.710   1.022
 4328TIP3   OH212936   3.481   5.055   1.344
 4328TIP3    H112937   3.449   5.059   1.434
 4328TIP3    H212938   3.447   4.972   1.310
 4329TIP3   OH212939   3.274   5.540   2.384
 4329TIP3    H112940   3.229   5.547   2.468
 4329TIP3    H212941   3.254   5.622   2.339
 4330TIP3   OH212942   3.155   5.421   1.903
 4330TIP3    H112943   3.066   5.395   1.927
 4330TIP3    H212944   3.166   5.388   1.814
 4331TIP3   OH212945   3.637   5.493   1.634
 4331TIP3    H112946   3.588   5.566   1.594
 4331TIP3    H212947   3.695   5.462   1.564
 4332TIP3   OH212948   3.812   5.763   2.702
 4332TIP3    H112949   3.789   5.693   2.763
 4332TIP3    H212950   3.903   5.783   2.721
 4333TIP3   OH212951   3.805   5.505   1.856
 4333TIP3    H112952   3.737   5.524   1.792
 4333TIP3    H212953   3.854   5.432   1.818
 4334TIP3   OH212954   3.112   5.552   2.607
 4334TIP3    H112955   3.126   5.616   2.677
 4334TIP3    H212956   3.095   5.470   2.653
 4335TIP3   OH212957   3.148   5.027   1.323
 4335TIP3    H112958   3.142   5.032   1.419
 4335TIP3    H212959   3.069   5.072   1.292
 4336TIP3   OH212960   2.697   5.070   2.192
 4336TIP3    H112961   2.770   5.108   2.242
 4336TIP3    H212962   2.733   5.057   2.104
 4337TIP3   OH212963   2.605   5.052   1.686
 4337TIP3    H112964   2.650   5.086   1.609
 4337TIP3    H212965   2.542   5.120   1.709
 4338TIP3   OH212966   3.850   5.762   2.276
 4338TIP3    H112967   3.877   5.694   2.214
 4338TIP3    H212968   3.804   5.714   2.345
 4339TIP3   OH212969   3.515   5.218   1.954
 4339TIP3    H112970   3.441   5.213   2.013
 4339TIP3    H212971   3.590   5.191   2.007
 4340TIP3   OH212972   2.916   5.293   1.959
 4340TIP3    H112973   2.828   5.297   1.922
 4340TIP3    H212974   2.945   5.203   1.943
 4341TIP3   OH212975   3.168   5.298   1.657
 4341TIP3    H112976   3.263   5.309   1.648
 4341TIP3    H212977   3.134   5.316   1.570
 4342TIP3   OH212978   4.025   5.320   2.199
 4342TIP3    H112979   3.966   5.328   2.274
 4342TIP3    H212980   3.988   5.248   2.148
 4343TIP3   OH212981   3.056   5.322   1.408
 4343TIP3    H112982   2.993   5.274   1.355
 4343TIP3    H212983   3.112   5.367   1.344
 4344TIP3   OH212984   4.166   7.000   2.381
 4344TIP3    H112985   4.162   7.009   2.285
 4344TIP3    H212986   4.246   7.048   2.406
 4345TIP3   OH212987   3.110   6.114   2.791
 4345TIP3    H112988   3.190   6.134   2.840
 4345TIP3    H212989   3.040   6.124   2.855
 4346TIP3   OH212990   3.572   5.585   2.058
 4346TIP3    H112991   3.637   5.536   2.008
 4346TIP3    H212992   3.569   5.541   2.143
 4347TIP3   OH212993   3.058   5.044   1.949
 4347TIP3    H112994   3.029   4.970   2.001
 4347TIP3    H212995   3.085   5.007   1.865
 4348TIP3   OH212996   3.539   5.484   2.321
 4348TIP3    H112997   3.452   5.514   2.346
 4348TIP3    H212998   3.598   5.537   2.375
 4349TIP3   OH212999   3.273   5.836   1.435
 4349TIP3    H113000   3.199   5.780   1.411
 4349TIP3    H213001   3.246   5.877   1.517
 4350TIP3   OH213002   4.162   6.093   2.042
 4350TIP3    H113003   4.197   6.140   1.966
 4350TIP3    H213004   4.084   6.049   2.008
 4351TIP3   OH213005   3.733   5.159   1.339
 4351TIP3    H113006   3.640   5.138   1.342
 4351TIP3    H213007   3.738   5.253   1.356
 4352TIP3   OH213008   3.691   6.179   2.451
 4352TIP3    H113009   3.737   6.165   2.533
 4352TIP3    H213010   3.647   6.263   2.462
 4353TIP3   OH213011   3.796   5.418   1.413
 4353TIP3    H113012   3.891   5.415   1.416
 4353TIP3    H213013   3.775   5.496   1.361
 4354TIP3   OH213014   2.967   5.851   2.086
 4354TIP3    H113015   3.006   5.833   2.001
 4354TIP3    H213016   3.033   5.821   2.149
 4355TIP3   OH213017   3.434   5.995   1.283
 4355TIP3    H113018   3.386   6.078   1.282
 4355TIP3    H213019   3.380   5.937   1.336
 4356TIP3   OH213020   2.852   5.786   2.717
 4356TIP3    H113021   2.851   5.759   2.809
 4356TIP3    H213022   2.776   5.743   2.678
 4357TIP3   OH213023   3.586   5.921   2.743
 4357TIP3    H113024   3.516   5.861   2.717
 4357TIP3    H213025   3.666   5.878   2.714
 4358TIP3   OH213026   3.829   6.471   2.339
 4358TIP3    H113027   3.736   6.451   2.344
 4358TIP3    H213028   3.852   6.502   2.426
 4359TIP3   OH213029   4.471   6.391   2.309
 4359TIP3    H113030   4.378   6.366   2.312
 4359TIP3    H213031   4.502   6.354   2.227
 4360TIP3   OH213032   3.960   6.314   1.213
 4360TIP3    H113033   3.927   6.258   1.284
 4360TIP3    H213034   3.953   6.260   1.134
 4361TIP3   OH213035   3.938   5.953   1.936
 4361TIP3    H113036   3.849   5.931   1.960
 4361TIP3    H213037   3.973   5.872   1.898
 4362TIP3   OH213038   3.093   6.193   1.758
 4362TIP3    H113039   3.088   6.269   1.701
 4362TIP3    H213040   3.005   6.183   1.794
 4363TIP3   OH213041   2.651   5.477   1.470
 4363TIP3    H113042   2.694   5.559   1.492
 4363TIP3    H213043   2.570   5.478   1.520
 4364TIP3   OH213044   3.170   5.948   1.657
 4364TIP3    H113045   3.156   6.037   1.690
 4364TIP3    H213046   3.148   5.892   1.731
 4365TIP3   OH213047   3.373   6.517   2.212
 4365TIP3    H113048   3.411   6.587   2.160
 4365TIP3    H213049   3.447   6.481   2.261
 4366TIP3   OH213050   3.006   6.416   1.611
 4366TIP3    H113051   2.919   6.420   1.649
 4366TIP3    H213052   3.039   6.505   1.615
 4367TIP3   OH213053   3.725   6.181   2.177
 4367TIP3    H113054   3.715   6.177   2.272
 4367TIP3    H213055   3.790   6.113   2.157
 4368TIP3   OH213056   3.701   6.044   1.099
 4368TIP3    H113057   3.758   6.031   1.175
 4368TIP3    H213058   3.619   6.001   1.123
 4369TIP3   OH213059   3.989   6.672   2.222
 4369TIP3    H113060   3.920   6.610   2.246
 4369TIP3    H213061   3.950   6.726   2.153
 4370TIP3   OH213062   4.028   6.491   0.869
 4370TIP3    H113063   4.046   6.513   0.778
 4370TIP3    H213064   3.951   6.542   0.892
 4371TIP3   OH213065   3.064   5.293   2.729
 4371TIP3    H113066   2.969   5.282   2.734
 4371TIP3    H213067   3.098   5.241   2.802
 4372TIP3   OH213068   3.884   6.003   1.299
 4372TIP3    H113069   3.868   5.926   1.353
 4372TIP3    H213070   3.978   6.001   1.280
 4373TIP3   OH213071   2.803   6.388   2.368
 4373TIP3    H113072   2.858   6.330   2.422
 4373TIP3    H213073   2.811   6.474   2.410
 4374TIP3   OH213074   3.068   6.017   1.072
 4374TIP3    H113075   3.077   5.926   1.045
 4374TIP3    H213076   3.053   6.014   1.166
 4375TIP3   OH213077   3.012   6.037   1.343
 4375TIP3    H113078   3.076   6.009   1.409
 4375TIP3    H213079   3.012   6.132   1.349
 4376TIP3   OH213080   2.745   5.728   1.550
 4376TIP3    H113081   2.680   5.776   1.602
 4376TIP3    H213082   2.765   5.787   1.477
 4377TIP3   OH213083   3.894   5.374   2.442
 4377TIP3    H113084   3.980   5.409   2.468
 4377TIP3    H213085   3.886   5.291   2.490
 4378TIP3   OH213086   3.794   5.106   1.606
 4378TIP3    H113087   3.776   5.126   1.513
 4378TIP3    H213088   3.838   5.185   1.638
 4379TIP3   OH213089   3.283   6.220   1.286
 4379TIP3    H113090   3.200   6.244   1.327
 4379TIP3    H213091   3.301   6.291   1.225
 4380TIP3   OH213092   3.446   5.307   1.702
 4380TIP3    H113093   3.510   5.373   1.677
 4380TIP3    H213094   3.469   5.284   1.792
 4381TIP3   OH213095   3.740   5.605   2.473
 4381TIP3    H113096   3.764   5.646   2.556
 4381TIP3    H213097   3.789   5.523   2.472
 4382TIP3   OH213098   3.618   4.995   1.785
 4382TIP3    H113099   3.610   5.067   1.847
 4382TIP3    H213100   3.685   5.024   1.723
 4383TIP3   OH213101   3.032   6.311   1.360
 4383TIP3    H113102   3.006   6.382   1.301
 4383TIP3    H213103   3.023   6.347   1.448
 4384TIP3   OH213104   3.128   5.024   1.601
 4384TIP3    H113105   3.117   5.115   1.629
 4384TIP3    H213106   3.222   5.008   1.608
 4385TIP3   OH213107   4.363   5.492   2.452
 4385TIP3    H113108   4.271   5.506   2.474
 4385TIP3    H213109   4.361   5.427   2.382
 4386TIP3   OH213110   4.027   5.693   1.849
 4386TIP3    H113111   3.951   5.637   1.863
 4386TIP3    H213112   4.096   5.654   1.903
 4387TIP3   OH213113   2.767   5.907   1.335
 4387TIP3    H113114   2.840   5.968   1.343
 4387TIP3    H213115   2.797   5.842   1.271
 4388TIP3   OH213116   2.670   5.198   1.463
 4388TIP3    H113117   2.685   5.292   1.472
 4388TIP3    H213118   2.607   5.190   1.392
 4389TIP3   OH213119   4.008   6.677   1.799
 4389TIP3    H113120   3.966   6.728   1.729
 4389TIP3    H213121   4.102   6.686   1.782
 4390TIP3   OH213122   3.071   4.921   2.336
 4390TIP3    H113123   3.041   4.889   2.251
 4390TIP3    H213124   3.062   4.846   2.395
 4391TIP3   OH213125   2.597   6.175   1.725
 4391TIP3    H113126   2.552   6.210   1.802
 4391TIP3    H213127   2.555   6.218   1.650
 4392TIP3   OH213128   2.798   6.692   2.791
 4392TIP3    H113129   2.880   6.687   2.841
 4392TIP3    H213130   2.766   6.602   2.788
 4393TIP3   OH213131   3.271   6.626   2.833
 4393TIP3    H113132   3.360   6.593   2.845
 4393TIP3    H213133   3.234   6.573   2.763
 4394TIP3   OH213134   3.231   6.220   0.981
 4394TIP3    H113135   3.184   6.147   1.022
 4394TIP3    H213136   3.305   6.178   0.936
 4395TIP3   OH213137   3.888   6.560   2.591
 4395TIP3    H113138   3.902   6.490   2.654
 4395TIP3    H213139   3.961   6.620   2.604
 4396TIP3   OH213140   3.659   6.266   0.947
 4396TIP3    H113141   3.685   6.195   1.005
 4396TIP3    H213142   3.718   6.260   0.872
 4397TIP3   OH213143   2.906   6.113   2.982
 4397TIP3    H113144   2.917   6.019   2.992
 4397TIP3    H213145   2.822   6.122   2.937
 4398TIP3   OH213146   2.886   5.713   1.185
 4398TIP3    H113147   2.937   5.688   1.262
 4398TIP3    H213148   2.952   5.727   1.117
 4399TIP3   OH213149   3.523   6.196   2.759
 4399TIP3    H113150   3.478   6.216   2.677
 4399TIP3    H213151   3.557   6.108   2.746
 4400TIP3   OH213152   3.434   5.920   1.021
 4400TIP3    H113153   3.422   5.932   1.115
 4400TIP3    H213154   3.418   5.827   1.006
 4401TIP3   OH213155   4.004   6.246   2.384
 4401TIP3    H113156   4.080   6.271   2.332
 4401TIP3    H213157   3.937   6.311   2.361
 4402TIP3   OH213158   3.018   5.853   2.990
 4402TIP3    H113159   3.094   5.843   2.932
 4402TIP3    H213160   3.056   5.877   3.075
 4403TIP3   OH213161   3.065   5.657   1.391
 4403TIP3    H113162   3.046   5.627   1.480
 4403TIP3    H213163   3.115   5.585   1.352
 4404TIP3   OH213164   3.380   5.742   2.653
 4404TIP3    H113165   3.294   5.783   2.662
 4404TIP3    H213166   3.411   5.769   2.566
 4405TIP3   OH213167   3.211   5.474   1.239
 4405TIP3    H113168   3.179   5.478   1.149
 4405TIP3    H213169   3.306   5.478   1.231
 4406TIP3   OH213170   3.882   6.115   2.728
 4406TIP3    H113171   3.952   6.077   2.674
 4406TIP3    H213172   3.879   6.059   2.806
 4407TIP3   OH213173   3.998   5.757   0.950
 4407TIP3    H113174   3.978   5.705   0.872
 4407TIP3    H213175   3.977   5.847   0.924
 4408TIP3   OH213176   3.482   5.508   2.756
 4408TIP3    H113177   3.485   5.438   2.691
 4408TIP3    H213178   3.449   5.584   2.708
 4409TIP3   OH213179   3.490   5.312   2.552
 4409TIP3    H113180   3.519   5.347   2.467
 4409TIP3    H213181   3.400   5.284   2.536
 4410TIP3   OH213182   3.491   5.834   2.424
 4410TIP3    H113183   3.582   5.857   2.404
 4410TIP3    H213184   3.439   5.897   2.373
 4411TIP3   OH213185   4.080   5.800   2.795
 4411TIP3    H113186   4.090   5.704   2.790
 4411TIP3    H213187   4.168   5.834   2.780
 4412TIP3   OH213188   4.117   6.061   2.547
 4412TIP3    H113189   4.067   6.126   2.497
 4412TIP3    H213190   4.207   6.072   2.516
 4413TIP3   OH213191   3.369   5.591   3.000
 4413TIP3    H113192   3.299   5.528   3.019
 4413TIP3    H213193   3.397   5.569   2.911
 4414TIP3   OH213194   3.608   5.080   2.657
 4414TIP3    H113195   3.568   5.160   2.622
 4414TIP3    H213196   3.542   5.012   2.643
 4415TIP3   OH213197   3.739   5.548   2.857
 4415TIP3    H113198   3.728   5.534   2.951
 4415TIP3    H213199   3.654   5.526   2.819
 4416TIP3   OH213200   4.001   5.531   2.749
 4416TIP3    H113201   3.918   5.515   2.795
 4416TIP3    H213202   4.067   5.486   2.802
 4417TIP3   OH213203   4.233   5.460   2.885
 4417TIP3    H113204   4.243   5.365   2.891
 4417TIP3    H213205   4.227   5.489   2.976
 4418TIP3   OH213206   3.198   5.375   3.064
 4418TIP3    H113207   3.205   5.287   3.027
 4418TIP3    H213208   3.237   5.367   3.151
 4419TIP3   OH213209   3.678   5.056   2.921
 4419TIP3    H113210   3.745   4.987   2.914
 4419TIP3    H213211   3.648   5.068   2.831
 4420TIP3   OH213212   3.776   5.269   3.066
 4420TIP3    H113213   3.746   5.197   3.011
 4420TIP3    H213214   3.703   5.331   3.065
 4421TIP3   OH213215   3.013   6.531   1.187
 4421TIP3    H113216   3.102   6.507   1.163
 4421TIP3    H213217   2.979   6.576   1.109
 4422TIP3   OH213218   2.494   5.906   1.345
 4422TIP3    H113219   2.589   5.915   1.345
 4422TIP3    H213220   2.478   5.819   1.308
 4423TIP3   OH213221   2.397   6.486   1.812
 4423TIP3    H113222   2.333   6.431   1.768
 4423TIP3    H213223   2.444   6.427   1.871
 4424TIP3   OH213224   2.543   6.322   1.979
 4424TIP3    H113225   2.533   6.253   2.045
 4424TIP3    H213226   2.597   6.389   2.022
 4425TIP3   OH213227   4.281   6.715   1.786
 4425TIP3    H113228   4.304   6.741   1.875
 4425TIP3    H213229   4.345   6.759   1.731
 4426TIP3   OH213230   4.312   6.740   2.064
 4426TIP3    H113231   4.263   6.658   2.061
 4426TIP3    H213232   4.379   6.725   2.132
 4427TIP3   OH213233   4.351   6.460   2.635
 4427TIP3    H113234   4.279   6.468   2.698
 4427TIP3    H213235   4.398   6.543   2.642
 4428TIP3   OH213236   4.155   5.975   1.277
 4428TIP3    H113237   4.225   6.037   1.257
 4428TIP3    H213238   4.192   5.920   1.347
 4429TIP3   OH213239   4.282   5.817   1.459
 4429TIP3    H113240   4.214   5.767   1.506
 4429TIP3    H213241   4.343   5.843   1.528
 4430TIP3   OH213242   4.351   6.226   1.881
 4430TIP3    H113243   4.404   6.158   1.840
 4430TIP3    H213244   4.353   6.299   1.820
 4431TIP3   OH213245   4.158   6.511   2.073
 4431TIP3    H113246   4.093   6.558   2.124
 4431TIP3    H213247   4.108   6.471   2.001
 4432TIP3   OH213248   4.232   5.784   1.090
 4432TIP3    H113249   4.154   5.759   1.040
 4432TIP3    H213250   4.199   5.844   1.157
 4433TIP3   OH213251   4.086   5.667   1.578
 4433TIP3    H113252   4.093   5.573   1.559
 4433TIP3    H213253   4.071   5.671   1.673
 4434TIP3   OH213254   2.721   5.749   2.351
 4434TIP3    H113255   2.712   5.720   2.260
 4434TIP3    H213256   2.815   5.745   2.368
 4435TIP3   OH213257   4.373   6.102   2.445
 4435TIP3    H113258   4.443   6.038   2.432
 4435TIP3    H213259   4.370   6.152   2.363
 4436TIP3   OH213260   4.560   5.898   2.440
 4436TIP3    H113261   4.484   5.852   2.476
 4436TIP3    H213262   4.635   5.845   2.465
 4437TIP3   OH213263   4.045   5.120   1.029
 4437TIP3    H113264   4.086   5.193   1.075
 4437TIP3    H213265   3.955   5.117   1.063
 4438TIP3   OH213266   4.083   5.393   1.450
 4438TIP3    H113267   4.130   5.316   1.482
 4438TIP3    H213268   4.111   5.403   1.360
 4439TIP3   OH213269   4.244   5.580   1.989
 4439TIP3    H113270   4.327   5.595   1.945
 4439TIP3    H213271   4.256   5.617   2.077
 4440TIP3   OH213272   4.318   5.734   2.215
 4440TIP3    H113273   4.244   5.760   2.270
 4440TIP3    H213274   4.346   5.816   2.173
 4441TIP3   OH213275   2.937   5.435   2.991
 4441TIP3    H113276   3.030   5.431   3.012
 4441TIP3    H213277   2.901   5.354   3.027
 4442TIP3   OH213278   4.776   5.329   2.753
 4442TIP3    H113279   4.841   5.271   2.713
 4442TIP3    H213280   4.741   5.379   2.681
 4443TIP3   OH213281   4.197   5.160   1.542
 4443TIP3    H113282   4.247   5.143   1.622
 4443TIP3    H213283   4.136   5.087   1.535
 4444TIP3   OH213284   2.908   5.147   2.359
 4444TIP3    H113285   2.962   5.068   2.362
 4444TIP3    H213286   2.971   5.217   2.338
 4445TIP3   OH213287   2.690   5.423   2.401
 4445TIP3    H113288   2.747   5.406   2.325
 4445TIP3    H213289   2.707   5.515   2.423
 4446TIP3   OH213290   4.629   5.449   2.553
 4446TIP3    H113291   4.549   5.485   2.591
 4446TIP3    H213292   4.601   5.374   2.502
 4447TIP3   OH213293   4.337   5.063   1.218
 4447TIP3    H113294   4.329   5.019   1.133
 4447TIP3    H213295   4.294   5.148   1.205
 4448TIP3   OH213296   2.678   4.926   1.917
 4448TIP3    H113297   2.592   4.911   1.955
 4448TIP3    H213298   2.661   4.978   1.838
 4449TIP3   OH213299   3.851   6.634   1.451
 4449TIP3    H113300   3.895   6.626   1.366
 4449TIP3    H213301   3.887   6.714   1.489
 4450TIP3   OH213302   2.901   5.002   2.753
 4450TIP3    H113303   2.850   4.983   2.831
 4450TIP3    H213304   2.837   5.032   2.689
 4451TIP3   OH213305   2.957   6.417   2.821
 4451TIP3    H113306   2.863   6.411   2.803
 4451TIP3    H213307   2.964   6.406   2.915
 4452TIP3   OH213308   3.145   6.474   2.360
 4452TIP3    H113309   3.091   6.545   2.325
 4452TIP3    H213310   3.230   6.486   2.317
 4453TIP3   OH213311   3.546   6.705   2.499
 4453TIP3    H113312   3.586   6.696   2.586
 4453TIP3    H213313   3.608   6.758   2.449
 4454TIP3   OH213314   3.733   6.856   2.366
 4454TIP3    H113315   3.784   6.802   2.306
 4454TIP3    H213316   3.798   6.902   2.419
 4455TIP3   OH213317   4.536   5.190   2.454
 4455TIP3    H113318   4.450   5.184   2.413
 4455TIP3    H213319   4.572   5.101   2.450
 4456TIP3   OH213320   2.798   6.704   2.395
 4456TIP3    H113321   2.705   6.720   2.382
 4456TIP3    H213322   2.823   6.765   2.465
 4457TIP3   OH213323   3.031   6.697   2.248
 4457TIP3    H113324   2.945   6.701   2.291
 4457TIP3    H213325   3.012   6.717   2.156
 4458TIP3   OH213326   3.456   6.720   2.043
 4458TIP3    H113327   3.386   6.728   1.978
 4458TIP3    H213328   3.461   6.806   2.085
 4459TIP3   OH213329   3.722   6.679   2.103
 4459TIP3    H113330   3.630   6.686   2.079
 4459TIP3    H213331   3.767   6.740   2.045
 4460TIP3   OH213332   3.933   6.848   2.000
 4460TIP3    H113333   3.922   6.932   1.955
 4460TIP3    H213334   3.957   6.786   1.931
 4461TIP3   OH213335   2.724   6.492   2.117
 4461TIP3    H113336   2.737   6.464   2.208
 4461TIP3    H213337   2.798   6.456   2.069
 4462TIP3   OH213338   2.927   6.380   1.978
 4462TIP3    H113339   2.938   6.296   2.023
 4462TIP3    H213340   3.014   6.421   1.982
 4463TIP3   OH213341   3.194   6.467   2.004
 4463TIP3    H113342   3.213   6.374   1.989
 4463TIP3    H213343   3.245   6.490   2.082
 4464TIP3   OH213344   3.727   5.079   2.065
 4464TIP3    H113345   3.696   5.017   2.131
 4464TIP3    H213346   3.806   5.038   2.029
 4465TIP3   OH213347   4.227   5.113   2.000
 4465TIP3    H113348   4.280   5.105   1.921
 4465TIP3    H213349   4.186   5.027   2.010
 4466TIP3   OH213350   4.364   5.112   1.760
 4466TIP3    H113351   4.433   5.055   1.726
 4466TIP3    H213352   4.399   5.201   1.749
 4467TIP3   OH213353   2.982   4.818   2.095
 4467TIP3    H113354   2.893   4.784   2.101
 4467TIP3    H213355   3.037   4.741   2.086
 4468TIP3   OH213356   2.809   4.732   1.749
 4468TIP3    H113357   2.834   4.780   1.670
 4468TIP3    H213358   2.772   4.798   1.807
 4469TIP3   OH213359   3.466   4.858   1.984
 4469TIP3    H113360   3.515   4.902   1.914
 4469TIP3    H213361   3.508   4.887   2.065
 4470TIP3   OH213362   3.950   4.932   1.976
 4470TIP3    H113363   4.012   4.912   1.906
 4470TIP3    H213364   3.951   4.854   2.032
 4471TIP3   OH213365   4.012   4.954   1.526
 4471TIP3    H113366   3.933   5.001   1.553
 4471TIP3    H213367   4.003   4.868   1.567
 4472TIP3   OH213368   2.481   6.298   1.508
 4472TIP3    H113369   2.399   6.262   1.473
 4472TIP3    H213370   2.483   6.388   1.475
 4473TIP3   OH213371   2.917   4.857   1.509
 4473TIP3    H113372   2.963   4.795   1.452
 4473TIP3    H213373   2.986   4.912   1.545
 4474TIP3   OH213374   3.403   5.053   1.609
 4474TIP3    H113375   3.465   5.002   1.662
 4474TIP3    H213376   3.417   5.144   1.637
 4475TIP3   OH213377   3.265   6.451   1.121
 4475TIP3    H113378   3.355   6.474   1.095
 4475TIP3    H213379   3.241   6.380   1.062
 4476TIP3   OH213380   3.969   6.583   1.204
 4476TIP3    H113381   3.971   6.488   1.212
 4476TIP3    H213382   3.920   6.599   1.123
 4477TIP3   OH213383   3.216   5.106   2.974
 4477TIP3    H113384   3.182   5.039   3.033
 4477TIP3    H213385   3.309   5.114   2.997
 4478TIP3   OH213386   3.464   5.109   3.098
 4478TIP3    H113387   3.540   5.087   3.045
 4478TIP3    H213388   3.459   5.040   3.164
 4479TIP3   OH213389   2.596   6.290   1.160
 4479TIP3    H113390   2.596   6.291   1.256
 4479TIP3    H213391   2.675   6.243   1.137
 4480TIP3   OH213392   4.285   5.187   2.880
 4480TIP3    H113393   4.303   5.159   2.969
 4480TIP3    H213394   4.370   5.184   2.836
 4481TIP3   OH213395   4.206   6.728   2.389
 4481TIP3    H113396   4.132   6.697   2.336
 4481TIP3    H213397   4.192   6.822   2.396
 4482TIP3   OH213398   5.456   6.229   1.306
 4482TIP3    H113399   5.398   6.287   1.257
 4482TIP3    H213400   5.457   6.148   1.256
 4483TIP3   OH213401   5.479   6.106   1.569
 4483TIP3    H113402   5.521   6.085   1.652
 4483TIP3    H213403   5.421   6.032   1.551
 4484TIP3   OH213404   4.791   5.981   1.870
 4484TIP3    H113405   4.814   5.926   1.946
 4484TIP3    H213406   4.876   6.007   1.834
 4485TIP3   OH213407   5.697   6.381   1.350
 4485TIP3    H113408   5.775   6.338   1.315
 4485TIP3    H213409   5.729   6.464   1.384
 4486TIP3   OH213410   4.758   6.414   1.574
 4486TIP3    H113411   4.742   6.322   1.597
 4486TIP3    H213412   4.854   6.420   1.567
 4487TIP3   OH213413   4.468   5.640   1.339
 4487TIP3    H113414   4.396   5.697   1.369
 4487TIP3    H213415   4.424   5.562   1.306
 4488TIP3   OH213416   4.516   5.887   1.594
 4488TIP3    H113417   4.566   5.812   1.626
 4488TIP3    H213418   4.554   5.907   1.509
 4489TIP3   OH213419   5.235   6.856   1.276
 4489TIP3    H113420   5.316   6.848   1.226
 4489TIP3    H213421   5.264   6.881   1.364
 4490TIP3   OH213422   6.289   5.652   1.611
 4490TIP3    H113423   6.311   5.738   1.649
 4490TIP3    H213424   6.333   5.652   1.526
 4491TIP3   OH213425   5.710   5.824   1.621
 4491TIP3    H113426   5.743   5.738   1.646
 4491TIP3    H213427   5.652   5.807   1.546
 4492TIP3   OH213428   5.038   5.473   1.562
 4492TIP3    H113429   5.018   5.546   1.504
 4492TIP3    H213430   4.983   5.401   1.531
 4493TIP3   OH213431   5.742   5.613   1.253
 4493TIP3    H113432   5.809   5.582   1.315
 4493TIP3    H213433   5.791   5.630   1.172
 4494TIP3   OH213434   4.671   5.681   1.683
 4494TIP3    H113435   4.754   5.663   1.727
 4494TIP3    H213436   4.674   5.629   1.603
 4495TIP3   OH213437   5.089   5.900   1.501
 4495TIP3    H113438   5.183   5.883   1.509
 4495TIP3    H213439   5.052   5.817   1.472
 4496TIP3   OH213440   6.367   5.877   1.757
 4496TIP3    H113441   6.275   5.903   1.765
 4496TIP3    H213442   6.409   5.915   1.834
 4497TIP3   OH213443   5.026   5.483   2.009
 4497TIP3    H113444   4.976   5.516   1.934
 4497TIP3    H213445   4.968   5.497   2.084
 4498TIP3   OH213446   5.297   6.361   1.124
 4498TIP3    H113447   5.233   6.338   1.056
 4498TIP3    H213448   5.252   6.429   1.176
 4499TIP3   OH213449   5.162   6.290   1.773
 4499TIP3    H113450   5.088   6.341   1.806
 4499TIP3    H213451   5.238   6.345   1.792
 4500TIP3   OH213452   5.929   5.574   1.444
 4500TIP3    H113453   5.874   5.554   1.520
 4500TIP3    H213454   5.975   5.654   1.468
 4501TIP3   OH213455   4.918   5.591   1.779
 4501TIP3    H113456   4.974   5.665   1.799
 4501TIP3    H213457   4.963   5.545   1.708
 4502TIP3   OH213458   4.964   6.454   1.873
 4502TIP3    H113459   4.950   6.545   1.847
 4502TIP3    H213460   4.886   6.431   1.923
 4503TIP3   OH213461   4.360   6.139   1.191
 4503TIP3    H113462   4.306   6.154   1.114
 4503TIP3    H213463   4.377   6.226   1.226
 4504TIP3   OH213464   5.802   6.617   1.439
 4504TIP3    H113465   5.713   6.631   1.469
 4504TIP3    H213466   5.803   6.653   1.350
 4505TIP3   OH213467   6.092   5.536   1.760
 4505TIP3    H113468   6.007   5.553   1.718
 4505TIP3    H213469   6.156   5.568   1.697
 4506TIP3   OH213470   5.370   5.169   1.749
 4506TIP3    H113471   5.361   5.077   1.776
 4506TIP3    H213472   5.294   5.212   1.786
 4507TIP3   OH213473   5.449   6.668   1.155
 4507TIP3    H113474   5.516   6.600   1.151
 4507TIP3    H213475   5.394   6.652   1.079
 4508TIP3   OH213476   5.615   6.449   1.092
 4508TIP3    H113477   5.586   6.370   1.047
 4508TIP3    H213478   5.630   6.421   1.182
 4509TIP3   OH213479   6.007   6.551   1.732
 4509TIP3    H113480   6.002   6.478   1.670
 4509TIP3    H213481   6.000   6.629   1.677
 4510TIP3   OH213482   5.214   5.895   1.029
 4510TIP3    H113483   5.176   5.982   1.041
 4510TIP3    H213484   5.279   5.907   0.960
 4511TIP3   OH213485   5.292   5.698   0.820
 4511TIP3    H113486   5.382   5.688   0.851
 4511TIP3    H213487   5.297   5.683   0.726
 4512TIP3   OH213488   6.201   6.195   1.618
 4512TIP3    H113489   6.119   6.244   1.614
 4512TIP3    H213490   6.249   6.223   1.541
 4513TIP3   OH213491   5.715   6.146   1.114
 4513TIP3    H113492   5.624   6.118   1.120
 4513TIP3    H213493   5.764   6.064   1.101
 4514TIP3   OH213494   5.889   6.075   1.906
 4514TIP3    H113495   5.892   6.160   1.950
 4514TIP3    H213496   5.804   6.075   1.861
 4515TIP3   OH213497   4.877   6.028   1.373
 4515TIP3    H113498   4.828   5.963   1.322
 4515TIP3    H213499   4.952   5.980   1.407
 4516TIP3   OH213500   5.021   6.441   1.483
 4516TIP3    H113501   5.048   6.417   1.394
 4516TIP3    H213502   5.082   6.394   1.539
 4517TIP3   OH213503   5.025   6.036   1.735
 4517TIP3    H113504   5.047   5.999   1.649
 4517TIP3    H213505   5.069   6.121   1.735
 4518TIP3   OH213506   5.543   6.638   1.505
 4518TIP3    H113507   5.521   6.726   1.534
 4518TIP3    H213508   5.514   6.581   1.575
 4519TIP3   OH213509   5.161   6.550   2.045
 4519TIP3    H113510   5.105   6.610   2.094
 4519TIP3    H213511   5.100   6.500   1.989
 4520TIP3   OH213512   5.417   5.984   0.854
 4520TIP3    H113513   5.497   5.934   0.836
 4520TIP3    H213514   5.369   5.982   0.770
 4521TIP3   OH213515   4.917   6.104   2.182
 4521TIP3    H113516   4.922   6.197   2.205
 4521TIP3    H213517   4.823   6.084   2.181
 4522TIP3   OH213518   5.196   6.573   1.264
 4522TIP3    H113519   5.284   6.610   1.270
 4522TIP3    H213520   5.141   6.647   1.239
 4523TIP3   OH213521   4.956   6.713   2.129
 4523TIP3    H113522   4.930   6.724   2.038
 4523TIP3    H213523   4.874   6.700   2.176
 4524TIP3   OH213524   6.055   5.199   0.962
 4524TIP3    H113525   5.995   5.246   1.019
 4524TIP3    H213526   6.034   5.229   0.874
 4525TIP3   OH213527   4.715   5.864   1.216
 4525TIP3    H113528   4.639   5.902   1.171
 4525TIP3    H213529   4.690   5.773   1.233
 4526TIP3   OH213530   4.549   6.268   2.078
 4526TIP3    H113531   4.479   6.249   2.016
 4526TIP3    H213532   4.582   6.182   2.104
 4527TIP3   OH213533   4.397   6.461   1.732
 4527TIP3    H113534   4.487   6.484   1.754
 4527TIP3    H213535   4.346   6.535   1.765
 4528TIP3   OH213536   6.238   6.887   1.802
 4528TIP3    H113537   6.241   6.793   1.821
 4528TIP3    H213538   6.152   6.915   1.834
 4529TIP3   OH213539   5.341   6.698   1.900
 4529TIP3    H113540   5.342   6.789   1.930
 4529TIP3    H213541   5.280   6.654   1.959
 4530TIP3   OH213542   5.136   6.875   0.789
 4530TIP3    H113543   5.052   6.830   0.775
 4530TIP3    H213544   5.113   6.967   0.797
 4531TIP3   OH213545   4.538   6.647   1.253
 4531TIP3    H113546   4.592   6.651   1.331
 4531TIP3    H213547   4.493   6.562   1.259
 4532TIP3   OH213548   5.388   6.787   0.724
 4532TIP3    H113549   5.295   6.797   0.743
 4532TIP3    H213550   5.413   6.705   0.767
 4533TIP3   OH213551   6.134   6.020   2.061
 4533TIP3    H113552   6.051   6.027   2.015
 4533TIP3    H213553   6.154   5.926   2.059
 4534TIP3   OH213554   4.745   6.458   2.043
 4534TIP3    H113555   4.797   6.449   2.124
 4534TIP3    H213556   4.675   6.394   2.052
 4535TIP3   OH213557   5.135   5.269   1.863
 4535TIP3    H113558   5.053   5.234   1.827
 4535TIP3    H213559   5.108   5.346   1.912
 4536TIP3   OH213560   5.673   5.387   2.061
 4536TIP3    H113561   5.742   5.363   2.122
 4536TIP3    H213562   5.591   5.370   2.108
 4537TIP3   OH213563   5.894   5.809   1.982
 4537TIP3    H113564   5.856   5.802   2.069
 4537TIP3    H213565   5.878   5.900   1.956
 4538TIP3   OH213566   5.321   5.311   0.891
 4538TIP3    H113567   5.268   5.308   0.971
 4538TIP3    H213568   5.283   5.244   0.835
 4539TIP3   OH213569   5.075   5.800   1.872
 4539TIP3    H113570   5.023   5.806   1.952
 4539TIP3    H213571   5.065   5.886   1.830
 4540TIP3   OH213572   4.949   5.682   1.408
 4540TIP3    H113573   4.859   5.656   1.430
 4540TIP3    H213574   4.965   5.642   1.323
 4541TIP3   OH213575   5.404   5.761   1.178
 4541TIP3    H113576   5.319   5.783   1.140
 4541TIP3    H213577   5.455   5.727   1.105
 4542TIP3   OH213578   5.616   6.018   2.193
 4542TIP3    H113579   5.590   5.951   2.256
 4542TIP3    H213580   5.708   6.036   2.213
 4543TIP3   OH213581   5.577   5.776   1.388
 4543TIP3    H113582   5.504   5.783   1.326
 4543TIP3    H213583   5.634   5.709   1.350
 4544TIP3   OH213584   4.898   5.818   2.081
 4544TIP3    H113585   4.903   5.882   2.151
 4544TIP3    H213586   4.878   5.735   2.125
 4545TIP3   OH213587   4.980   5.158   0.923
 4545TIP3    H113588   4.967   5.178   1.015
 4545TIP3    H213589   4.949   5.236   0.877
 4546TIP3   OH213590   4.478   5.351   1.699
 4546TIP3    H113591   4.565   5.373   1.733
 4546TIP3    H213592   4.495   5.321   1.609
 4547TIP3   OH213593   4.518   5.367   1.210
 4547TIP3    H113594   4.557   5.361   1.123
 4547TIP3    H213595   4.424   5.357   1.195
 4548TIP3   OH213596   5.640   6.025   1.782
 4548TIP3    H113597   5.670   5.953   1.726
 4548TIP3    H213598   5.597   5.981   1.856
 4549TIP3   OH213599   5.303   5.464   1.474
 4549TIP3    H113600   5.224   5.466   1.529
 4549TIP3    H213601   5.375   5.464   1.536
 4550TIP3   OH213602   4.709   5.553   1.446
 4550TIP3    H113603   4.626   5.563   1.400
 4550TIP3    H213604   4.733   5.461   1.434
 4551TIP3   OH213605   4.958   5.540   1.176
 4551TIP3    H113606   5.037   5.560   1.126
 4551TIP3    H213607   4.886   5.561   1.116
 4552TIP3   OH213608   5.762   5.553   1.664
 4552TIP3    H113609   5.739   5.571   1.755
 4552TIP3    H213610   5.693   5.493   1.633
 4553TIP3   OH213611   4.723   5.578   1.043
 4553TIP3    H113612   4.631   5.595   1.061
 4553TIP3    H213613   4.741   5.626   0.963
 4554TIP3   OH213614   5.949   7.247   1.889
 4554TIP3    H113615   5.944   7.260   1.794
 4554TIP3    H213616   6.032   7.288   1.914
 4555TIP3   OH213617   4.904   6.372   2.276
 4555TIP3    H113618   4.985   6.390   2.325
 4555TIP3    H213619   4.834   6.379   2.341
 4556TIP3   OH213620   5.359   5.850   1.559
 4556TIP3    H113621   5.427   5.803   1.510
 4556TIP3    H213622   5.354   5.804   1.643
 4557TIP3   OH213623   4.850   5.304   1.443
 4557TIP3    H113624   4.820   5.227   1.492
 4557TIP3    H213625   4.860   5.273   1.353
 4558TIP3   OH213626   5.338   5.742   1.814
 4558TIP3    H113627   5.250   5.770   1.839
 4558TIP3    H213628   5.396   5.792   1.871
 4559TIP3   OH213629   5.077   6.133   1.028
 4559TIP3    H113630   4.997   6.080   1.023
 4559TIP3    H213631   5.065   6.185   1.107
 4560TIP3   OH213632   5.968   6.332   1.567
 4560TIP3    H113633   6.004   6.384   1.495
 4560TIP3    H213634   5.893   6.286   1.529
 4561TIP3   OH213635   5.493   5.483   0.747
 4561TIP3    H113636   5.424   5.432   0.789
 4561TIP3    H213637   5.573   5.458   0.794
 4562TIP3   OH213638   5.415   6.421   1.857
 4562TIP3    H113639   5.471   6.399   1.931
 4562TIP3    H213640   5.394   6.514   1.869
 4563TIP3   OH213641   5.556   5.696   0.962
 4563TIP3    H113642   5.614   5.622   0.943
 4563TIP3    H213643   5.606   5.773   0.935
 4564TIP3   OH213644   4.761   6.143   1.600
 4564TIP3    H113645   4.799   6.101   1.522
 4564TIP3    H213646   4.777   6.080   1.671
 4565TIP3   OH213647   5.226   6.317   0.853
 4565TIP3    H113648   5.207   6.379   0.783
 4565TIP3    H213649   5.140   6.293   0.888
 4566TIP3   OH213650   4.645   6.033   2.206
 4566TIP3    H113651   4.646   6.006   2.298
 4566TIP3    H213652   4.569   5.989   2.168
 4567TIP3   OH213653   5.385   6.176   2.227
 4567TIP3    H113654   5.315   6.114   2.205
 4567TIP3    H213655   5.466   6.131   2.203
 4568TIP3   OH213656   5.613   6.699   1.837
 4568TIP3    H113657   5.518   6.706   1.840
 4568TIP3    H213658   5.643   6.743   1.916
 4569TIP3   OH213659   6.001   5.696   0.792
 4569TIP3    H113660   5.932   5.724   0.732
 4569TIP3    H213661   6.077   5.748   0.768
 4570TIP3   OH213662   6.256   6.604   1.828
 4570TIP3    H113663   6.161   6.601   1.817
 4570TIP3    H213664   6.290   6.579   1.742
 4571TIP3   OH213665   5.752   6.154   1.504
 4571TIP3    H113666   5.742   6.107   1.587
 4571TIP3    H213667   5.789   6.089   1.444
 4572TIP3   OH213668   4.741   6.417   1.232
 4572TIP3    H113669   4.784   6.499   1.210
 4572TIP3    H213670   4.740   6.415   1.328
 4573TIP3   OH213671   4.480   5.720   1.015
 4573TIP3    H113672   4.520   5.807   1.020
 4573TIP3    H213673   4.392   5.732   1.051
 4574TIP3   OH213674   4.990   6.253   1.258
 4574TIP3    H113675   4.917   6.303   1.221
 4574TIP3    H213676   4.948   6.180   1.304
 4575TIP3   OH213677   5.166   6.771   1.694
 4575TIP3    H113678   5.199   6.848   1.648
 4575TIP3    H213679   5.238   6.745   1.751
 4576TIP3   OH213680   4.765   6.692   1.123
 4576TIP3    H113681   4.674   6.674   1.145
 4576TIP3    H213682   4.782   6.779   1.161
 4577TIP3   OH213683   5.578   6.370   1.634
 4577TIP3    H113684   5.510   6.374   1.701
 4577TIP3    H213685   5.658   6.396   1.679
 4578TIP3   OH213686   5.768   6.912   1.729
 4578TIP3    H113687   5.698   6.849   1.744
 4578TIP3    H213688   5.735   6.968   1.658
 4579TIP3   OH213689   4.842   5.569   2.207
 4579TIP3    H113690   4.747   5.581   2.212
 4579TIP3    H213691   4.865   5.515   2.282
 4580TIP3   OH213692   5.699   6.174   0.800
 4580TIP3    H113693   5.632   6.214   0.855
 4580TIP3    H213694   5.781   6.216   0.827
 4581TIP3   OH213695   4.602   6.655   1.869
 4581TIP3    H113696   4.653   6.594   1.922
 4581TIP3    H213697   4.613   6.740   1.912
 4582TIP3   OH213698   4.893   6.321   0.517
 4582TIP3    H113699   4.912   6.227   0.511
 4582TIP3    H213700   4.928   6.347   0.602
 4583TIP3   OH213701   4.785   6.306   0.966
 4583TIP3    H113702   4.836   6.246   0.911
 4583TIP3    H213703   4.792   6.391   0.921
 4584TIP3   OH213704   4.535   5.989   1.043
 4584TIP3    H113705   4.470   6.030   1.100
 4584TIP3    H213706   4.515   6.023   0.956
 4585TIP3   OH213707   5.697   5.622   1.921
 4585TIP3    H113708   5.777   5.665   1.952
 4585TIP3    H213709   5.689   5.543   1.974
 4586TIP3   OH213710   5.545   5.432   1.190
 4586TIP3    H113711   5.573   5.391   1.108
 4586TIP3    H213712   5.617   5.490   1.214
 4587TIP3   OH213713   4.989   6.438   0.745
 4587TIP3    H113714   4.933   6.516   0.743
 4587TIP3    H213715   5.066   6.463   0.693
 4588TIP3   OH213716   5.249   5.528   1.210
 4588TIP3    H113717   5.330   5.571   1.184
 4588TIP3    H213718   5.258   5.515   1.305
 4589TIP3   OH213719   5.541   5.855   1.971
 4589TIP3    H113720   5.565   5.892   2.056
 4589TIP3    H213721   5.588   5.772   1.967
 4590TIP3   OH213722   5.394   5.252   1.325
 4590TIP3    H113723   5.357   5.321   1.380
 4590TIP3    H213724   5.459   5.298   1.271
 4591TIP3   OH213725   4.769   6.565   0.882
 4591TIP3    H113726   4.762   6.633   0.815
 4591TIP3    H213727   4.766   6.614   0.965
 4592TIP3   OH213728   4.909   5.266   1.168
 4592TIP3    H113729   4.893   5.360   1.170
 4592TIP3    H213730   5.004   5.257   1.176
 4593TIP3   OH213731   6.156   5.741   1.962
 4593TIP3    H113732   6.062   5.758   1.972
 4593TIP3    H213733   6.160   5.676   1.891
 4594TIP3   OH213734   5.829   5.930   1.368
 4594TIP3    H113735   5.749   5.881   1.386
 4594TIP3    H213736   5.895   5.890   1.424
 4595TIP3   OH213737   4.507   6.320   0.946
 4595TIP3    H113738   4.442   6.383   0.915
 4595TIP3    H213739   4.546   6.283   0.867
 4596TIP3   OH213740   4.383   5.472   0.942
 4596TIP3    H113741   4.417   5.553   0.980
 4596TIP3    H213742   4.325   5.437   1.010
 4597TIP3   OH213743   5.861   6.965   1.322
 4597TIP3    H113744   5.822   7.020   1.255
 4597TIP3    H213745   5.955   6.973   1.309
 4598TIP3   OH213746   4.879   5.180   1.809
 4598TIP3    H113747   4.847   5.150   1.724
 4598TIP3    H213748   4.871   5.103   1.866
 4599TIP3   OH213749   4.415   6.402   1.243
 4599TIP3    H113750   4.376   6.431   1.325
 4599TIP3    H213751   4.354   6.433   1.176
 4600TIP3   OH213752   4.594   6.968   2.285
 4600TIP3    H113753   4.676   6.972   2.333
 4600TIP3    H213754   4.576   6.875   2.275
 4601TIP3   OH213755   5.059   6.881   2.322
 4601TIP3    H113756   5.151   6.856   2.333
 4601TIP3    H213757   5.028   6.825   2.251
 4602TIP3   OH213758   5.681   6.819   2.071
 4602TIP3    H113759   5.689   6.750   2.137
 4602TIP3    H213760   5.754   6.878   2.088
 4603TIP3   OH213761   4.699   6.375   2.466
 4603TIP3    H113762   4.719   6.283   2.477
 4603TIP3    H213763   4.612   6.376   2.426
 4604TIP3   OH213764   4.710   5.960   0.683
 4604TIP3    H113765   4.744   6.011   0.756
 4604TIP3    H213766   4.784   5.950   0.623
 4605TIP3   OH213767   5.318   6.452   2.249
 4605TIP3    H113768   5.272   6.472   2.168
 4605TIP3    H213769   5.355   6.364   2.236
 4606TIP3   OH213770   5.763   6.469   1.827
 4606TIP3    H113771   5.849   6.499   1.797
 4606TIP3    H213772   5.711   6.549   1.835
 4607TIP3   OH213773   4.816   6.124   2.475
 4607TIP3    H113774   4.892   6.091   2.427
 4607TIP3    H213775   4.849   6.137   2.564
 4608TIP3   OH213776   4.855   5.969   0.994
 4608TIP3    H113777   4.804   5.943   1.070
 4608TIP3    H213778   4.866   5.888   0.943
 4609TIP3   OH213779   5.178   6.001   2.138
 4609TIP3    H113780   5.090   6.038   2.147
 4609TIP3    H213781   5.204   6.024   2.049
 4610TIP3   OH213782   5.038   5.623   0.778
 4610TIP3    H113783   5.036   5.717   0.759
 4610TIP3    H213784   5.127   5.606   0.809
 4611TIP3   OH213785   5.682   6.370   2.225
 4611TIP3    H113786   5.751   6.334   2.169
 4611TIP3    H213787   5.680   6.313   2.302
 4612TIP3   OH213788   5.281   5.768   2.241
 4612TIP3    H113789   5.281   5.697   2.177
 4612TIP3    H213790   5.245   5.843   2.194
 4613TIP3   OH213791   5.286   5.567   2.040
 4613TIP3    H113792   5.312   5.601   1.955
 4613TIP3    H213793   5.195   5.540   2.029
 4614TIP3   OH213794   5.291   6.080   1.902
 4614TIP3    H113795   5.384   6.100   1.892
 4614TIP3    H213796   5.246   6.148   1.852
 4615TIP3   OH213797   5.885   6.057   2.286
 4615TIP3    H113798   5.932   5.974   2.293
 4615TIP3    H213799   5.954   6.123   2.281
 4616TIP3   OH213800   5.906   6.327   2.024
 4616TIP3    H113801   5.850   6.380   1.967
 4616TIP3    H213802   5.995   6.344   1.993
 4617TIP3   OH213803   5.167   5.850   2.486
 4617TIP3    H113804   5.097   5.787   2.507
 4617TIP3    H213805   5.193   5.826   2.397
 4618TIP3   OH213806   5.408   5.335   2.141
 4618TIP3    H113807   5.367   5.415   2.109
 4618TIP3    H213808   5.342   5.267   2.129
 4619TIP3   OH213809   5.535   5.806   2.346
 4619TIP3    H113810   5.524   5.792   2.440
 4619TIP3    H213811   5.449   5.785   2.309
 4620TIP3   OH213812   5.783   5.763   2.221
 4620TIP3    H113813   5.704   5.762   2.275
 4620TIP3    H213814   5.853   5.739   2.281
 4621TIP3   OH213815   6.020   5.726   2.366
 4621TIP3    H113816   6.033   5.632   2.373
 4621TIP3    H213817   6.015   5.756   2.457
 4622TIP3   OH213818   5.005   5.628   2.549
 4622TIP3    H113819   5.006   5.540   2.511
 4622TIP3    H213820   5.044   5.617   2.636
 4623TIP3   OH213821   5.476   5.311   2.407
 4623TIP3    H113822   5.544   5.245   2.399
 4623TIP3    H213823   5.444   5.324   2.317
 4624TIP3   OH213824   5.572   5.526   2.552
 4624TIP3    H113825   5.540   5.454   2.497
 4624TIP3    H213826   5.499   5.588   2.553
 4625TIP3   OH213827   4.764   6.814   0.494
 4625TIP3    H113828   4.838   6.863   0.457
 4625TIP3    H213829   4.713   6.788   0.418
 4626TIP3   OH213830   4.248   6.161   0.948
 4626TIP3    H113831   4.330   6.179   0.904
 4626TIP3    H213832   4.216   6.080   0.907
 4627TIP3   OH213833   4.172   6.722   1.319
 4627TIP3    H113834   4.106   6.674   1.269
 4627TIP3    H213835   4.217   6.655   1.370
 4628TIP3   OH213836   4.344   6.556   1.471
 4628TIP3    H113837   4.339   6.497   1.546
 4628TIP3    H213838   4.386   6.635   1.506
 4629TIP3   OH213839   6.133   6.997   1.278
 4629TIP3    H113840   6.143   7.032   1.366
 4629TIP3    H213841   6.184   7.056   1.222
 4630TIP3   OH213842   6.094   7.026   1.555
 4630TIP3    H113843   6.058   6.938   1.567
 4630TIP3    H213844   6.185   7.019   1.584
 4631TIP3   OH213845   6.141   6.712   2.126
 4631TIP3    H113846   6.070   6.720   2.189
 4631TIP3    H213847   6.187   6.796   2.130
 4632TIP3   OH213848   5.921   6.314   0.844
 4632TIP3    H113849   5.950   6.391   0.795
 4632TIP3    H213850   6.002   6.273   0.874
 4633TIP3   OH213851   6.106   6.149   0.961
 4633TIP3    H113852   6.053   6.078   0.924
 4633TIP3    H213853   6.124   6.121   1.051
 4634TIP3   OH213854   6.124   6.493   1.412
 4634TIP3    H113855   6.153   6.448   1.333
 4634TIP3    H213856   6.120   6.586   1.387
 4635TIP3   OH213857   5.966   6.781   1.588
 4635TIP3    H113858   5.899   6.826   1.639
 4635TIP3    H213859   5.918   6.731   1.522
 4636TIP3   OH213860   5.864   5.918   1.102
 4636TIP3    H113861   5.874   5.823   1.091
 4636TIP3    H213862   5.862   5.931   1.196
 4637TIP3   OH213863   4.521   6.009   1.839
 4637TIP3    H113864   4.507   5.973   1.752
 4637TIP3    H213865   4.616   6.008   1.851
 4638TIP3   OH213866   6.169   6.358   1.943
 4638TIP3    H113867   6.232   6.288   1.927
 4638TIP3    H213868   6.200   6.431   1.891
 4639TIP3   OH213869   6.343   6.146   1.939
 4639TIP3    H113870   6.270   6.103   1.984
 4639TIP3    H213871   6.419   6.094   1.962
 4640TIP3   OH213872   5.887   5.495   0.505
 4640TIP3    H113873   5.952   5.426   0.499
 4640TIP3    H213874   5.806   5.456   0.472
 4641TIP3   OH213875   5.917   5.662   1.048
 4641TIP3    H113876   5.931   5.569   1.068
 4641TIP3    H213877   5.942   5.670   0.956
 4642TIP3   OH213878   6.024   5.817   1.526
 4642TIP3    H113879   6.106   5.843   1.484
 4642TIP3    H213880   6.029   5.855   1.614
 4643TIP3   OH213881   6.097   5.976   1.743
 4643TIP3    H113882   6.026   6.009   1.797
 4643TIP3    H213883   6.136   6.055   1.704
 4644TIP3   OH213884   4.744   5.711   2.527
 4644TIP3    H113885   4.838   5.694   2.532
 4644TIP3    H213886   4.704   5.626   2.544
 4645TIP3   OH213887   6.577   5.577   2.249
 4645TIP3    H113888   6.641   5.521   2.205
 4645TIP3    H213889   6.537   5.628   2.178
 4646TIP3   OH213890   5.906   5.400   1.117
 4646TIP3    H113891   5.986   5.393   1.169
 4646TIP3    H213892   5.849   5.331   1.151
 4647TIP3   OH213893   4.714   5.401   1.835
 4647TIP3    H113894   4.765   5.320   1.837
 4647TIP3    H213895   4.778   5.470   1.820
 4648TIP3   OH213896   4.493   5.663   1.903
 4648TIP3    H113897   4.540   5.643   1.822
 4648TIP3    H213898   4.524   5.750   1.928
 4649TIP3   OH213899   6.424   5.693   2.054
 4649TIP3    H113900   6.344   5.733   2.087
 4649TIP3    H213901   6.395   5.621   1.998
 4650TIP3   OH213902   6.087   5.302   0.495
 4650TIP3    H113903   6.117   5.269   0.411
 4650TIP3    H213904   6.167   5.317   0.545
 4651TIP3   OH213905   4.492   5.235   1.451
 4651TIP3    H113906   4.407   5.192   1.439
 4651TIP3    H213907   4.511   5.274   1.366
 4652TIP3   OH213908   5.695   6.844   0.957
 4652TIP3    H113909   5.656   6.883   0.879
 4652TIP3    H213910   5.765   6.905   0.982
 4653TIP3   OH213911   4.696   5.232   2.223
 4653TIP3    H113912   4.643   5.224   2.302
 4653TIP3    H213913   4.641   5.280   2.162
 4654TIP3   OH213914   4.733   6.687   2.294
 4654TIP3    H113915   4.639   6.669   2.287
 4654TIP3    H213916   4.754   6.675   2.386
 4655TIP3   OH213917   4.941   6.727   1.846
 4655TIP3    H113918   4.886   6.799   1.815
 4655TIP3    H213919   5.025   6.741   1.801
 4656TIP3   OH213920   5.345   6.962   1.982
 4656TIP3    H113921   5.382   6.955   2.070
 4656TIP3    H213922   5.406   7.019   1.935
 4657TIP3   OH213923   5.532   7.126   1.862
 4657TIP3    H113924   5.600   7.083   1.810
 4657TIP3    H213925   5.580   7.186   1.919
 4658TIP3   OH213926   6.333   5.442   1.949
 4658TIP3    H113927   6.245   5.431   1.914
 4658TIP3    H213928   6.372   5.355   1.945
 4659TIP3   OH213929   4.598   6.969   1.904
 4659TIP3    H113930   4.507   6.989   1.881
 4659TIP3    H213931   4.622   7.037   1.967
 4660TIP3   OH213932   4.821   6.951   1.747
 4660TIP3    H113933   4.742   6.958   1.800
 4660TIP3    H213934   4.797   6.989   1.663
 4661TIP3   OH213935   5.245   6.982   1.534
 4661TIP3    H113936   5.161   6.998   1.492
 4661TIP3    H213937   5.269   7.067   1.572
 4662TIP3   OH213938   5.496   6.891   1.593
 4662TIP3    H113939   5.408   6.922   1.571
 4662TIP3    H213940   5.555   6.954   1.553
 4663TIP3   OH213941   5.694   7.066   1.516
 4663TIP3    H113942   5.690   7.158   1.491
 4663TIP3    H213943   5.750   7.026   1.450
 4664TIP3   OH213944   4.510   6.753   1.626
 4664TIP3    H113945   4.543   6.724   1.711
 4664TIP3    H213946   4.580   6.729   1.564
 4665TIP3   OH213947   4.708   6.654   1.467
 4665TIP3    H113948   4.718   6.571   1.515
 4665TIP3    H213949   4.794   6.695   1.471
 4666TIP3   OH213950   4.977   6.718   1.497
 4666TIP3    H113951   4.999   6.628   1.475
 4666TIP3    H213952   5.035   6.740   1.569
 4667TIP3   OH213953   5.550   5.377   1.594
 4667TIP3    H113954   5.510   5.301   1.636
 4667TIP3    H213955   5.611   5.340   1.530
 4668TIP3   OH213956   6.032   5.294   1.493
 4668TIP3    H113957   6.069   5.350   1.425
 4668TIP3    H213958   5.938   5.308   1.487
 4669TIP3   OH213959   6.143   5.371   1.253
 4669TIP3    H113960   6.200   5.299   1.223
 4669TIP3    H213961   6.197   5.450   1.242
 4670TIP3   OH213962   4.782   5.072   1.576
 4670TIP3    H113963   4.691   5.044   1.583
 4670TIP3    H213964   4.832   4.991   1.571
 4671TIP3   OH213965   4.602   4.975   1.225
 4671TIP3    H113966   4.631   5.035   1.156
 4671TIP3    H213967   4.515   5.008   1.249
 4672TIP3   OH213968   5.255   5.093   1.502
 4672TIP3    H113969   5.301   5.144   1.435
 4672TIP3    H213970   5.292   5.124   1.585
 4673TIP3   OH213971   5.752   5.268   1.438
 4673TIP3    H113972   5.751   5.240   1.347
 4673TIP3    H213973   5.755   5.187   1.489
 4674TIP3   OH213974   5.748   5.190   1.169
 4674TIP3    H113975   5.698   5.206   1.089
 4674TIP3    H213976   5.772   5.098   1.164
 4675TIP3   OH213977   4.251   6.506   1.055
 4675TIP3    H113978   4.169   6.474   1.017
 4675TIP3    H213979   4.260   6.594   1.020
 4676TIP3   OH213980   4.694   5.144   1.020
 4676TIP3    H113981   4.744   5.081   0.968
 4676TIP3    H213982   4.760   5.188   1.075
 4677TIP3   OH213983   5.184   5.277   1.136
 4677TIP3    H113984   5.247   5.232   1.193
 4677TIP3    H213985   5.196   5.370   1.156
 4678TIP3   OH213986   5.012   5.359   2.463
 4678TIP3    H113987   4.977   5.291   2.521
 4678TIP3    H213988   5.105   5.366   2.488
 4679TIP3   OH213989   5.261   5.364   2.586
 4679TIP3    H113990   5.337   5.341   2.533
 4679TIP3    H213991   5.253   5.294   2.650
 4680TIP3   OH213992   4.369   6.489   0.779
 4680TIP3    H113993   4.333   6.560   0.832
 4680TIP3    H213994   4.438   6.531   0.727
 4681TIP3   OH213995   6.081   5.454   2.370
 4681TIP3    H113996   6.097   5.425   2.460
 4681TIP3    H213997   6.166   5.449   2.327
 4682TIP3   OH213998   5.990   6.974   1.883
 4682TIP3    H113999   5.912   6.946   1.835
 4682TIP3    H214000   5.979   7.069   1.892
 4683TIP3   OH214001   6.606   6.249   1.458
 4683TIP3    H114002   6.617   6.176   1.518
 4683TIP3    H214003   6.655   6.321   1.498
 4684TIP3   OH214004   6.479   6.623   1.037
 4684TIP3    H114005   6.549   6.595   1.096
 4684TIP3    H214006   6.522   6.679   0.973
 4685TIP3   OH214007   6.208   5.885   0.734
 4685TIP3    H114008   6.274   5.953   0.721
 4685TIP3    H214009   6.128   5.933   0.756
 4686TIP3   OH214010   6.251   6.093   1.198
 4686TIP3    H114011   6.250   6.014   1.252
 4686TIP3    H214012   6.303   6.069   1.121
 4687TIP3   OH214013   6.790   5.713   1.121
 4687TIP3    H114014   6.851   5.786   1.115
 4687TIP3    H214015   6.807   5.662   1.042
 4688TIP3   OH214016   6.479   5.947   1.307
 4688TIP3    H114017   6.560   5.911   1.342
 4688TIP3    H214018   6.498   5.967   1.216
 4689TIP3   OH214019   6.918   6.170   1.022
 4689TIP3    H114020   6.994   6.115   1.003
 4689TIP3    H214021   6.858   6.153   0.950
 4690TIP3   OH214022   6.828   5.696   1.564
 4690TIP3    H114023   6.774   5.732   1.494
 4690TIP3    H214024   6.778   5.714   1.644
 4691TIP3   OH214025   6.708   5.815   1.358
 4691TIP3    H114026   6.757   5.898   1.356
 4691TIP3    H214027   6.736   5.769   1.278
 4692TIP3   OH214028   6.800   6.731   1.455
 4692TIP3    H114029   6.821   6.683   1.375
 4692TIP3    H214030   6.719   6.690   1.487
 4693TIP3   OH214031   7.171   5.400   1.269
 4693TIP3    H114032   7.134   5.330   1.322
 4693TIP3    H214033   7.116   5.477   1.289
 4694TIP3   OH214034   6.842   6.320   1.273
 4694TIP3    H114035   6.846   6.290   1.182
 4694TIP3    H214036   6.898   6.398   1.274
 4695TIP3   OH214037   6.732   6.384   1.662
 4695TIP3    H114038   6.743   6.471   1.701
 4695TIP3    H214039   6.644   6.357   1.688
 4696TIP3   OH214040   6.343   6.506   1.592
 4696TIP3    H114041   6.279   6.489   1.523
 4696TIP3    H214042   6.382   6.420   1.610
 4697TIP3   OH214043   6.173   6.729   1.289
 4697TIP3    H114044   6.267   6.719   1.301
 4697TIP3    H214045   6.159   6.824   1.289
 4698TIP3   OH214046   6.553   6.682   1.582
 4698TIP3    H114047   6.604   6.684   1.663
 4698TIP3    H214048   6.483   6.619   1.600
 4699TIP3   OH214049   6.909   5.521   1.369
 4699TIP3    H114050   6.820   5.492   1.349
 4699TIP3    H214051   6.898   5.585   1.439
 4700TIP3   OH214052   7.460   5.626   1.573
 4700TIP3    H114053   7.499   5.594   1.654
 4700TIP3    H214054   7.365   5.615   1.586
 4701TIP3   OH214055   6.831   6.064   1.380
 4701TIP3    H114056   6.793   6.068   1.467
 4701TIP3    H214057   6.829   6.155   1.348
 4702TIP3   OH214058   6.744   5.989   0.851
 4702TIP3    H114059   6.678   5.923   0.827
 4702TIP3    H214060   6.768   6.029   0.767
 4703TIP3   OH214061   6.706   6.051   1.627
 4703TIP3    H114062   6.749   6.096   1.699
 4703TIP3    H214063   6.684   5.965   1.662
 4704TIP3   OH214064   6.291   5.596   1.190
 4704TIP3    H114065   6.327   5.606   1.278
 4704TIP3    H214066   6.354   5.641   1.133
 4705TIP3   OH214067   6.219   5.539   0.590
 4705TIP3    H114068   6.283   5.520   0.521
 4705TIP3    H214069   6.159   5.602   0.550
 4706TIP3   OH214070   7.119   5.769   0.911
 4706TIP3    H114071   7.045   5.708   0.920
 4706TIP3    H214072   7.186   5.732   0.968
 4707TIP3   OH214073   6.539   5.820   0.803
 4707TIP3    H114074   6.474   5.878   0.843
 4707TIP3    H214075   6.537   5.741   0.856
 4708TIP3   OH214076   6.711   6.620   1.804
 4708TIP3    H114077   6.792   6.659   1.836
 4708TIP3    H214078   6.647   6.636   1.874
 4709TIP3   OH214079   7.161   6.047   0.974
 4709TIP3    H114080   7.211   5.971   0.942
 4709TIP3    H214081   7.223   6.095   1.029
 4710TIP3   OH214082   6.583   5.553   0.910
 4710TIP3    H114083   6.640   5.485   0.946
 4710TIP3    H214084   6.589   5.542   0.815
 4711TIP3   OH214085   7.099   5.991   1.382
 4711TIP3    H114086   7.021   6.047   1.389
 4711TIP3    H214087   7.167   6.040   1.429
 4712TIP3   OH214088   6.692   6.382   1.020
 4712TIP3    H114089   6.656   6.347   0.938
 4712TIP3    H214090   6.642   6.338   1.089
 4713TIP3   OH214091   6.471   6.296   1.732
 4713TIP3    H114092   6.501   6.299   1.822
 4713TIP3    H214093   6.399   6.232   1.733
 4714TIP3   OH214094   7.142   6.428   1.749
 4714TIP3    H114095   7.102   6.367   1.688
 4714TIP3    H214096   7.182   6.495   1.693
 4715TIP3   OH214097   6.645   5.800   1.742
 4715TIP3    H114098   6.549   5.808   1.738
 4715TIP3    H214099   6.661   5.744   1.818
 4716TIP3   OH214100   6.382   6.982   1.478
 4716TIP3    H114101   6.367   6.890   1.499
 4716TIP3    H214102   6.475   6.986   1.456
 4717TIP3   OH214103   7.561   5.831   1.405
 4717TIP3    H114104   7.605   5.885   1.470
 4717TIP3    H214105   7.532   5.753   1.454
 4718TIP3   OH214106   7.317   6.072   1.519
 4718TIP3    H114107   7.333   6.078   1.613
 4718TIP3    H214108   7.391   6.120   1.480
 4719TIP3   OH214109   6.648   5.447   1.369
 4719TIP3    H114110   6.600   5.425   1.289
 4719TIP3    H214111   6.649   5.366   1.420
 4720TIP3   OH214112   6.342   7.148   1.771
 4720TIP3    H114113   6.435   7.124   1.771
 4720TIP3    H214114   6.296   7.065   1.782
 4721TIP3   OH214115   6.490   6.604   1.978
 4721TIP3    H114116   6.513   6.511   1.980
 4721TIP3    H214117   6.404   6.607   1.937
 4722TIP3   OH214118   6.626   6.347   1.963
 4722TIP3    H114119   6.712   6.347   1.921
 4722TIP3    H214120   6.644   6.375   2.053
 4723TIP3   OH214121   6.986   6.260   1.571
 4723TIP3    H114122   6.907   6.312   1.584
 4723TIP3    H214123   7.017   6.285   1.483
 4724TIP3   OH214124   7.035   6.042   1.737
 4724TIP3    H114125   7.057   5.963   1.688
 4724TIP3    H214126   7.028   6.110   1.671
 4725TIP3   OH214127   7.073   5.809   1.583
 4725TIP3    H114128   7.088   5.859   1.503
 4725TIP3    H214129   6.984   5.775   1.574
 4726TIP3   OH214130   6.929   6.113   1.978
 4726TIP3    H114131   6.872   6.039   1.999
 4726TIP3    H214132   6.962   6.094   1.890
 4727TIP3   OH214133   7.195   5.569   1.627
 4727TIP3    H114134   7.151   5.653   1.613
 4727TIP3    H214135   7.125   5.504   1.620
 4728TIP3   OH214136   7.309   6.079   1.799
 4728TIP3    H114137   7.332   6.056   1.889
 4728TIP3    H214138   7.214   6.068   1.795
 4729TIP3   OH214139   6.785   5.884   2.043
 4729TIP3    H114140   6.795   5.798   2.002
 4729TIP3    H214141   6.827   5.875   2.129
 4730TIP3   OH214142   7.278   5.577   1.887
 4730TIP3    H114143   7.364   5.537   1.878
 4730TIP3    H214144   7.240   5.573   1.799
 4731TIP3   OH214145   7.355   5.793   2.037
 4731TIP3    H114146   7.328   5.724   1.976
 4731TIP3    H214147   7.282   5.855   2.035
 4732TIP3   OH214148   6.245   6.871   0.969
 4732TIP3    H114149   6.190   6.794   0.983
 4732TIP3    H214150   6.198   6.943   1.012
 4733TIP3   OH214151   6.340   6.261   1.398
 4733TIP3    H114152   6.332   6.193   1.331
 4733TIP3    H214153   6.435   6.270   1.412
 4734TIP3   OH214154   6.522   5.944   1.988
 4734TIP3    H114155   6.616   5.940   2.004
 4734TIP3    H214156   6.488   5.862   2.023
 4735TIP3   OH214157   6.462   5.645   1.402
 4735TIP3    H114158   6.526   5.574   1.403
 4735TIP3    H214159   6.511   5.721   1.373
 4736TIP3   OH214160   6.256   5.938   1.456
 4736TIP3    H114161   6.342   5.932   1.413
 4736TIP3    H214162   6.267   6.006   1.522
 4737TIP3   OH214163   6.358   5.350   0.869
 4737TIP3    H114164   6.283   5.326   0.924
 4737TIP3    H214165   6.374   5.442   0.889
 4738TIP3   OH214166   6.495   5.505   1.728
 4738TIP3    H114167   6.445   5.483   1.807
 4738TIP3    H214168   6.432   5.548   1.671
 4739TIP3   OH214169   6.512   6.921   1.836
 4739TIP3    H114170   6.422   6.900   1.812
 4739TIP3    H214171   6.516   6.907   1.931
 4740TIP3   OH214172   7.317   5.659   1.075
 4740TIP3    H114173   7.246   5.645   1.137
 4740TIP3    H214174   7.395   5.629   1.121
 4741TIP3   OH214175   6.511   5.360   1.155
 4741TIP3    H114176   6.421   5.333   1.138
 4741TIP3    H214177   6.562   5.279   1.149
 4742TIP3   OH214178   6.325   5.211   0.641
 4742TIP3    H114179   6.412   5.200   0.601
 4742TIP3    H214180   6.341   5.264   0.719
 4743TIP3   OH214181   7.039   5.372   1.024
 4743TIP3    H114182   7.078   5.441   0.970
 4743TIP3    H214183   7.080   5.382   1.110
 4744TIP3   OH214184   6.804   5.619   1.947
 4744TIP3    H114185   6.772   5.552   2.008
 4744TIP3    H214186   6.897   5.626   1.967
 4745TIP3   OH214187   7.056   5.617   2.064
 4745TIP3    H114188   7.134   5.601   2.011
 4745TIP3    H214189   7.058   5.548   2.131
 4746TIP3   OH214190   0.561   6.678   2.726
 4746TIP3    H114191   0.551   6.768   2.757
 4746TIP3    H214192   0.617   6.685   2.649
 4747TIP3   OH214193   0.717   6.833   2.932
 4747TIP3    H114194   0.625   6.858   2.920
 4747TIP3    H214195   0.744   6.880   3.011
 4748TIP3   OH214196   0.239   6.598   2.625
 4748TIP3    H114197   0.299   6.574   2.554
 4748TIP3    H214198   0.234   6.694   2.620
 4749TIP3   OH214199   0.349   6.595   2.891
 4749TIP3    H114200   0.281   6.598   2.824
 4749TIP3    H214201   0.430   6.613   2.843
 4750TIP3   OH214202   0.272   6.174   2.009
 4750TIP3    H114203   0.198   6.194   2.067
 4750TIP3    H214204   0.267   6.241   1.941
 4751TIP3   OH214205   0.413   7.010   3.244
 4751TIP3    H114206   0.319   7.015   3.260
 4751TIP3    H214207   0.426   6.924   3.205
 4752TIP3   OH214208   0.408   6.745   3.136
 4752TIP3    H114209   0.344   6.707   3.196
 4752TIP3    H214210   0.393   6.698   3.053
 4753TIP3   OH214211   0.581   7.230   3.228
 4753TIP3    H114212   0.511   7.165   3.231
 4753TIP3    H214213   0.624   7.215   3.144
 4754TIP3   OH214214   0.287   6.872   2.636
 4754TIP3    H114215   0.382   6.880   2.643
 4754TIP3    H214216   0.254   6.901   2.721
 4755TIP3   OH214217   0.192   6.979   2.876
 4755TIP3    H114218   0.105   6.983   2.915
 4755TIP3    H214219   0.231   7.065   2.895
 4756TIP3   OH214220   0.835   6.622   3.417
 4756TIP3    H114221   0.897   6.556   3.385
 4756TIP3    H214222   0.796   6.658   3.338
 4757TIP3   OH214223   0.286   6.437   2.187
 4757TIP3    H114224   0.318   6.440   2.277
 4757TIP3    H214225   0.209   6.380   2.191
 4758TIP3   OH214226   0.688   6.725   3.219
 4758TIP3    H114227   0.680   6.812   3.259
 4758TIP3    H214228   0.604   6.712   3.174
 4759TIP3   OH214229   0.586   6.456   3.121
 4759TIP3    H114230   0.498   6.425   3.101
 4759TIP3    H214231   0.642   6.378   3.116
 4760TIP3   OH214232   0.306   6.320   2.635
 4760TIP3    H114233   0.358   6.365   2.569
 4760TIP3    H214234   0.241   6.385   2.663
 4761TIP3   OH214235   0.428   6.442   2.427
 4761TIP3    H114236   0.486   6.370   2.401
 4761TIP3    H214237   0.472   6.521   2.395
 4762TIP3   OH214238   0.070   6.259   2.186
 4762TIP3    H114239  -0.013   6.295   2.154
 4762TIP3    H214240   0.044   6.199   2.256
 4763TIP3   OH214241   0.353   6.364   3.516
 4763TIP3    H114242   0.345   6.393   3.607
 4763TIP3    H214243   0.424   6.418   3.480
 4764TIP3   OH214244   2.379   6.931   2.227
 4764TIP3    H114245   2.358   7.022   2.245
 4764TIP3    H214246   2.430   6.933   2.146
 4765TIP3   OH214247   1.890   7.088   2.320
 4765TIP3    H114248   1.892   7.082   2.415
 4765TIP3    H214249   1.834   7.015   2.293
 4766TIP3   OH214250   1.078   6.782   2.222
 4766TIP3    H114251   1.047   6.828   2.144
 4766TIP3    H214252   1.048   6.692   2.210
 4767TIP3   OH214253   1.811   6.843   1.850
 4767TIP3    H114254   1.872   6.833   1.923
 4767TIP3    H214255   1.863   6.886   1.781
 4768TIP3   OH214256   0.724   6.949   2.327
 4768TIP3    H114257   0.802   6.916   2.372
 4768TIP3    H214258   0.713   6.891   2.252
 4769TIP3   OH214259   2.517   7.126   2.446
 4769TIP3    H114260   2.430   7.154   2.416
 4769TIP3    H214261   2.498   7.069   2.521
 4770TIP3   OH214262   1.083   6.741   2.663
 4770TIP3    H114263   1.027   6.792   2.606
 4770TIP3    H214264   1.045   6.750   2.750
 4771TIP3   OH214265   1.958   6.856   2.089
 4771TIP3    H114266   1.905   6.826   2.163
 4771TIP3    H214267   2.014   6.925   2.125
 4772TIP3   OH214268   0.962   6.880   2.456
 4772TIP3    H114269   1.005   6.961   2.483
 4772TIP3    H214270   1.018   6.844   2.387
 4773TIP3   OH214271   2.134   6.836   2.378
 4773TIP3    H114272   2.051   6.831   2.331
 4773TIP3    H214273   2.199   6.849   2.308
 4774TIP3   OH214274   1.421   6.467   2.391
 4774TIP3    H114275   1.420   6.375   2.417
 4774TIP3    H214276   1.341   6.503   2.430
 4775TIP3   OH214277   1.271   7.074   1.341
 4775TIP3    H114278   1.340   7.069   1.408
 4775TIP3    H214279   1.267   6.986   1.304
 4776TIP3   OH214280   2.056   6.427   1.491
 4776TIP3    H114281   1.977   6.445   1.542
 4776TIP3    H214282   2.068   6.505   1.438
 4777TIP3   OH214283   2.136   7.253   2.776
 4777TIP3    H114284   2.140   7.332   2.723
 4777TIP3    H214285   2.213   7.202   2.749
 4778TIP3   OH214286   1.180   6.543   2.505
 4778TIP3    H114287   1.094   6.510   2.478
 4778TIP3    H214288   1.160   6.620   2.558
 4779TIP3   OH214289   1.716   6.672   2.743
 4779TIP3    H114290   1.794   6.638   2.788
 4779TIP3    H214291   1.642   6.636   2.793
 4780TIP3   OH214292   1.927   7.115   2.596
 4780TIP3    H114293   1.902   7.087   2.684
 4780TIP3    H214294   1.926   7.211   2.600
 4781TIP3   OH214295   1.343   6.617   1.475
 4781TIP3    H114296   1.316   6.613   1.566
 4781TIP3    H214297   1.316   6.533   1.438
 4782TIP3   OH214298   1.093   7.126   2.523
 4782TIP3    H114299   1.076   7.102   2.614
 4782TIP3    H214300   1.101   7.221   2.524
 4783TIP3   OH214301   0.953   6.924   2.028
 4783TIP3    H114302   0.862   6.899   2.043
 4783TIP3    H214303   0.969   6.906   1.935
 4784TIP3   OH214304   1.458   7.093   1.550
 4784TIP3    H114305   1.412   7.170   1.583
 4784TIP3    H214306   1.467   7.035   1.625
 4785TIP3   OH214307   1.665   7.247   2.897
 4785TIP3    H114308   1.624   7.183   2.955
 4785TIP3    H214309   1.757   7.250   2.926
 4786TIP3   OH214310   1.698   7.015   2.069
 4786TIP3    H114311   1.686   7.055   1.982
 4786TIP3    H214312   1.720   6.924   2.050
 4787TIP3   OH214313   1.048   7.048   2.784
 4787TIP3    H114314   0.991   7.119   2.815
 4787TIP3    H214315   1.017   6.971   2.833
 4788TIP3   OH214316   0.972   6.514   1.463
 4788TIP3    H114317   0.977   6.541   1.555
 4788TIP3    H214318   0.939   6.424   1.466
 4789TIP3   OH214319   0.585   6.627   2.318
 4789TIP3    H114320   0.644   6.662   2.385
 4789TIP3    H214321   0.643   6.598   2.247
 4790TIP3   OH214322   1.351   6.742   2.120
 4790TIP3    H114323   1.275   6.758   2.175
 4790TIP3    H214324   1.426   6.745   2.180
 4791TIP3   OH214325   0.729   6.785   2.103
 4791TIP3    H114326   0.657   6.762   2.044
 4791TIP3    H214327   0.791   6.712   2.095
 4792TIP3   OH214328   1.023   6.848   1.768
 4792TIP3    H114329   1.114   6.843   1.797
 4792TIP3    H214330   1.019   6.926   1.713
 4793TIP3   OH214331   1.816   6.810   2.315
 4793TIP3    H114332   1.804   6.822   2.409
 4793TIP3    H214333   1.743   6.755   2.289
 4794TIP3   OH214334   1.413   7.013   2.249
 4794TIP3    H114335   1.419   6.989   2.157
 4794TIP3    H214336   1.384   7.105   2.248
 4795TIP3   OH214337   0.910   6.580   2.091
 4795TIP3    H114338   0.882   6.504   2.143
 4795TIP3    H214339   0.942   6.542   2.009
 4796TIP3   OH214340   1.329   6.976   2.506
 4796TIP3    H114341   1.256   7.038   2.508
 4796TIP3    H214342   1.358   6.976   2.415
 4797TIP3   OH214343   1.602   6.692   1.520
 4797TIP3    H114344   1.509   6.679   1.500
 4797TIP3    H214345   1.621   6.781   1.492
 4798TIP3   OH214346   1.679   6.947   1.453
 4798TIP3    H114347   1.761   6.958   1.500
 4798TIP3    H214348   1.622   7.016   1.487
 4799TIP3   OH214349   2.070   7.062   1.407
 4799TIP3    H114350   2.022   7.048   1.326
 4799TIP3    H214351   2.135   7.128   1.385
 4800TIP3   OH214352   0.982   6.799   2.905
 4800TIP3    H114353   0.887   6.802   2.911
 4800TIP3    H214354   1.010   6.744   2.979
 4801TIP3   OH214355   1.751   6.877   2.571
 4801TIP3    H114356   1.811   6.932   2.623
 4801TIP3    H214357   1.734   6.801   2.627
 4802TIP3   OH214358   1.645   6.636   1.782
 4802TIP3    H114359   1.626   6.656   1.691
 4802TIP3    H214360   1.711   6.701   1.808
 4803TIP3   OH214361   1.275   6.823   1.869
 4803TIP3    H114362   1.310   6.911   1.859
 4803TIP3    H214363   1.298   6.797   1.958
 4804TIP3   OH214364   1.563   7.088   2.705
 4804TIP3    H114365   1.598   7.139   2.778
 4804TIP3    H214366   1.586   6.998   2.726
 4805TIP3   OH214367   1.456   6.540   1.954
 4805TIP3    H114368   1.432   6.616   2.007
 4805TIP3    H214369   1.528   6.570   1.899
 4806TIP3   OH214370   0.998   6.579   1.729
 4806TIP3    H114371   0.995   6.673   1.746
 4806TIP3    H214372   1.091   6.557   1.737
 4807TIP3   OH214373   2.195   7.024   2.576
 4807TIP3    H114374   2.108   7.049   2.605
 4807TIP3    H214375   2.182   6.946   2.522
 4808TIP3   OH214376   1.914   7.190   2.030
 4808TIP3    H114377   1.842   7.139   2.068
 4808TIP3    H214378   1.990   7.166   2.082
 4809TIP3   OH214379   0.912   6.473   2.480
 4809TIP3    H114380   0.882   6.437   2.397
 4809TIP3    H214381   0.908   6.399   2.541
 4810TIP3   OH214382   1.300   7.023   2.890
 4810TIP3    H114383   1.324   6.944   2.843
 4810TIP3    H214384   1.221   7.055   2.845
 4811TIP3   OH214385   1.339   6.814   2.721
 4811TIP3    H114386   1.354   6.870   2.645
 4811TIP3    H214387   1.249   6.782   2.710
 4812TIP3   OH214388   2.072   7.412   2.992
 4812TIP3    H114389   2.101   7.343   2.932
 4812TIP3    H214390   2.004   7.370   3.045
 4813TIP3   OH214391   1.211   7.104   3.134
 4813TIP3    H114392   1.145   7.045   3.168
 4813TIP3    H214393   1.231   7.070   3.047
 4814TIP3   OH214394   1.458   6.587   2.810
 4814TIP3    H114395   1.420   6.669   2.779
 4814TIP3    H214396   1.390   6.522   2.794
 4815TIP3   OH214397   1.552   7.024   3.002
 4815TIP3    H114398   1.533   6.995   3.091
 4815TIP3    H214399   1.467   7.027   2.958
 4816TIP3   OH214400   1.851   6.987   2.828
 4816TIP3    H114401   1.778   6.974   2.888
 4816TIP3    H214402   1.929   6.976   2.882
 4817TIP3   OH214403   2.057   6.973   3.034
 4817TIP3    H114404   2.074   6.880   3.026
 4817TIP3    H214405   2.061   6.990   3.128
 4818TIP3   OH214406   1.071   6.888   3.218
 4818TIP3    H114407   1.062   6.799   3.184
 4818TIP3    H214408   1.100   6.877   3.308
 4819TIP3   OH214409   1.526   6.590   3.073
 4819TIP3    H114410   1.599   6.528   3.069
 4819TIP3    H214411   1.492   6.592   2.983
 4820TIP3   OH214412   1.617   6.804   3.217
 4820TIP3    H114413   1.587   6.729   3.165
 4820TIP3    H214414   1.537   6.854   3.234
 4821TIP3   OH214415   1.940   6.981   1.186
 4821TIP3    H114416   1.937   7.006   1.094
 4821TIP3    H214417   1.908   6.890   1.187
 4822TIP3   OH214418   1.966   7.212   1.755
 4822TIP3    H114419   1.966   7.121   1.727
 4822TIP3    H214420   1.971   7.208   1.851
 4823TIP3   OH214421   5.028   0.036   2.734
 4823TIP3    H114422   4.945   0.084   2.737
 4823TIP3    H214423   5.054   0.039   2.642
 4824TIP3   OH214424   1.877   6.712   1.184
 4824TIP3    H114425   1.951   6.678   1.234
 4824TIP3    H214426   1.805   6.651   1.202
 4825TIP3   OH214427   1.926   6.949   1.607
 4825TIP3    H114428   1.973   6.868   1.625
 4825TIP3    H214429   1.977   6.992   1.538
 4826TIP3   OH214430   2.129   7.064   2.145
 4826TIP3    H114431   2.200   7.108   2.096
 4826TIP3    H214432   2.141   7.094   2.235
 4827TIP3   OH214433   1.977   7.342   2.361
 4827TIP3    H114434   1.941   7.255   2.345
 4827TIP3    H214435   2.042   7.355   2.292
 4828TIP3   OH214436   0.843   6.997   3.114
 4828TIP3    H114437   0.931   6.969   3.140
 4828TIP3    H214438   0.794   6.999   3.196
 4829TIP3   OH214439   2.620   6.871   2.893
 4829TIP3    H114440   2.685   6.809   2.861
 4829TIP3    H214441   2.586   6.913   2.814
 4830TIP3   OH214442   2.052   6.705   1.673
 4830TIP3    H114443   2.094   6.692   1.758
 4830TIP3    H214444   1.990   6.633   1.666
 4831TIP3   OH214445   0.758   6.697   2.519
 4831TIP3    H114446   0.808   6.615   2.520
 4831TIP3    H214447   0.825   6.766   2.516
 4832TIP3   OH214448   0.565   6.943   2.574
 4832TIP3    H114449   0.617   6.896   2.509
 4832TIP3    H214450   0.521   7.012   2.525
 4833TIP3   OH214451   2.484   6.962   2.670
 4833TIP3    H114452   2.431   7.035   2.702
 4833TIP3    H214453   2.421   6.894   2.648
 4834TIP3   OH214454   2.108   6.633   1.317
 4834TIP3    H114455   2.150   6.574   1.255
 4834TIP3    H214456   2.165   6.710   1.319
 4835TIP3   OH214457   0.470   6.508   1.999
 4835TIP3    H114458   0.410   6.477   2.067
 4835TIP3    H214459   0.438   6.596   1.978
 4836TIP3   OH214460   0.734   6.514   2.881
 4836TIP3    H114461   0.694   6.517   2.969
 4836TIP3    H214462   0.685   6.579   2.831
 4837TIP3   OH214463   2.356   6.716   2.617
 4837TIP3    H114464   2.267   6.686   2.600
 4837TIP3    H214465   2.410   6.637   2.612
 4838TIP3   OH214466   1.598   6.652   2.237
 4838TIP3    H114467   1.554   6.582   2.284
 4838TIP3    H214468   1.662   6.608   2.181
 4839TIP3   OH214469   2.102   6.587   2.135
 4839TIP3    H114470   2.137   6.635   2.060
 4839TIP3    H214471   2.008   6.601   2.132
 4840TIP3   OH214472   2.213   6.671   1.897
 4840TIP3    H114473   2.276   6.604   1.872
 4840TIP3    H214474   2.260   6.754   1.883
 4841TIP3   OH214475   0.823   6.369   2.243
 4841TIP3    H114476   0.734   6.334   2.252
 4841TIP3    H214477   0.878   6.291   2.235
 4842TIP3   OH214478   0.648   6.296   1.973
 4842TIP3    H114479   0.699   6.332   1.901
 4842TIP3    H214480   0.582   6.363   1.992
 4843TIP3   OH214481   1.290   6.418   2.144
 4843TIP3    H114482   1.343   6.456   2.074
 4843TIP3    H214483   1.337   6.440   2.224
 4844TIP3   OH214484   1.816   6.539   2.099
 4844TIP3    H114485   1.847   6.497   2.019
 4844TIP3    H214486   1.819   6.471   2.166
 4845TIP3   OH214487   1.866   6.495   1.678
 4845TIP3    H114488   1.782   6.536   1.699
 4845TIP3    H214489   1.862   6.409   1.720
 4846TIP3   OH214490   0.777   6.421   1.769
 4846TIP3    H114491   0.742   6.391   1.685
 4846TIP3    H214492   0.863   6.456   1.748
 4847TIP3   OH214493   1.273   6.585   1.739
 4847TIP3    H114494   1.324   6.528   1.796
 4847TIP3    H214495   1.279   6.672   1.779
 4848TIP3   OH214496   1.068   6.628   3.113
 4848TIP3    H114497   1.027   6.567   3.175
 4848TIP3    H214498   1.160   6.633   3.142
 4849TIP3   OH214499   1.312   6.638   3.242
 4849TIP3    H114500   1.390   6.616   3.191
 4849TIP3    H214501   1.305   6.568   3.307
 4850TIP3   OH214502   2.124   6.711   3.027
 4850TIP3    H114503   2.141   6.687   3.118
 4850TIP3    H214504   2.211   6.715   2.986
 4851TIP3   OH214505   2.313   7.205   1.440
 4851TIP3    H114506   2.346   7.294   1.448
 4851TIP3    H214507   2.285   7.182   1.528
 4852TIP3   OH214508   4.165   7.198   1.719
 4852TIP3    H114509   4.179   7.283   1.760
 4852TIP3    H214510   4.198   7.208   1.630
 4853TIP3   OH214511   3.578   7.388   1.699
 4853TIP3    H114512   3.595   7.309   1.749
 4853TIP3    H214513   3.498   7.370   1.650
 4854TIP3   OH214514   2.891   7.021   1.692
 4854TIP3    H114515   2.866   7.097   1.640
 4854TIP3    H214516   2.841   6.948   1.654
 4855TIP3   OH214517   3.575   7.134   1.384
 4855TIP3    H114518   3.643   7.116   1.449
 4855TIP3    H214519   3.621   7.177   1.312
 4856TIP3   OH214520   2.509   7.182   1.833
 4856TIP3    H114521   2.600   7.171   1.862
 4856TIP3    H214522   2.507   7.141   1.746
 4857TIP3   OH214523   4.213   7.421   1.881
 4857TIP3    H114524   4.123   7.454   1.873
 4857TIP3    H214525   4.244   7.459   1.963
 4858TIP3   OH214526   2.881   7.004   2.149
 4858TIP3    H114527   2.817   7.040   2.087
 4858TIP3    H214528   2.837   7.011   2.234
 4859TIP3   OH214529   3.772   7.122   1.572
 4859TIP3    H114530   3.718   7.128   1.650
 4859TIP3    H214531   3.827   7.200   1.575
 4860TIP3   OH214532   2.762   7.109   1.919
 4860TIP3    H114533   2.810   7.191   1.930
 4860TIP3    H214534   2.808   7.064   1.848
 4861TIP3   OH214535   3.950   7.100   1.875
 4861TIP3    H114536   3.867   7.115   1.831
 4861TIP3    H214537   4.017   7.123   1.810
 4862TIP3   OH214538   3.222   6.723   1.880
 4862TIP3    H114539   3.216   6.630   1.904
 4862TIP3    H214540   3.144   6.762   1.918
 4863TIP3   OH214541   3.087   7.269   0.922
 4863TIP3    H114542   3.003   7.223   0.931
 4863TIP3    H214543   3.141   7.210   0.870
 4864TIP3   OH214544   3.829   6.655   0.976
 4864TIP3    H114545   3.754   6.691   1.023
 4864TIP3    H214546   3.881   6.731   0.951
 4865TIP3   OH214547   6.633   0.082   2.204
 4865TIP3    H114548   6.541   0.107   2.207
 4865TIP3    H214549   6.633  -0.008   2.172
 4866TIP3   OH214550   2.983   6.802   1.995
 4866TIP3    H114551   2.899   6.768   1.964
 4866TIP3    H214552   2.961   6.881   2.044
 4867TIP3   OH214553   3.511   6.930   2.215
 4867TIP3    H114554   3.584   6.908   2.274
 4867TIP3    H214555   3.433   6.904   2.263
 4868TIP3   OH214556   3.731   7.343   2.099
 4868TIP3    H114557   3.704   7.329   2.190
 4868TIP3    H214558   3.671   7.410   2.067
 4869TIP3   OH214559   3.101   6.883   0.984
 4869TIP3    H114560   3.071   6.880   1.075
 4869TIP3    H214561   3.093   6.793   0.953
 4870TIP3   OH214562   2.849   7.364   1.995
 4870TIP3    H114563   2.812   7.332   2.077
 4870TIP3    H214564   2.775   7.404   1.949
 4871TIP3   OH214565   2.772   7.213   1.539
 4871TIP3    H114566   2.682   7.185   1.556
 4871TIP3    H214567   2.788   7.189   1.448
 4872TIP3   OH214568   3.260   7.319   1.276
 4872TIP3    H114569   3.228   7.389   1.219
 4872TIP3    H214570   3.329   7.277   1.225
 4873TIP3   OH214571   6.097   0.068   2.348
 4873TIP3    H114572   6.042   0.015   2.291
 4873TIP3    H214573   6.169   0.010   2.373
 4874TIP3   OH214574   3.382   7.290   1.526
 4874TIP3    H114575   3.329   7.316   1.450
 4874TIP3    H214576   3.447   7.229   1.491
 4875TIP3   OH214577   2.745   7.286   2.237
 4875TIP3    H114578   2.720   7.354   2.300
 4875TIP3    H214579   2.755   7.207   2.290
 4876TIP3   OH214580   2.755   6.850   0.954
 4876TIP3    H114581   2.762   6.845   1.049
 4876TIP3    H214582   2.682   6.909   0.938
 4877TIP3   OH214583   2.342   6.901   1.815
 4877TIP3    H114584   2.420   6.914   1.869
 4877TIP3    H214585   2.374   6.857   1.737
 4878TIP3   OH214586   2.257   6.868   1.334
 4878TIP3    H114587   2.293   6.909   1.255
 4878TIP3    H214588   2.192   6.931   1.366
 4879TIP3   OH214589   3.159   7.017   1.590
 4879TIP3    H114590   3.081   7.018   1.646
 4879TIP3    H214591   3.232   7.016   1.651
 4880TIP3   OH214592   2.538   7.071   1.584
 4880TIP3    H114593   2.472   7.074   1.514
 4880TIP3    H214594   2.585   6.989   1.569
 4881TIP3   OH214595   2.809   7.109   1.286
 4881TIP3    H114596   2.903   7.122   1.281
 4881TIP3    H214597   2.776   7.133   1.200
 4882TIP3   OH214598   3.604   7.122   1.793
 4882TIP3    H114599   3.580   7.135   1.885
 4882TIP3    H214600   3.537   7.062   1.759
 4883TIP3   OH214601   2.634   7.120   1.065
 4883TIP3    H114602   2.607   7.098   0.976
 4883TIP3    H214603   2.556   7.106   1.118
 4884TIP3   OH214604   3.257   7.405   1.754
 4884TIP3    H114605   3.290   7.364   1.674
 4884TIP3    H214606   3.227   7.331   1.808
 4885TIP3   OH214607   2.701   6.845   1.569
 4885TIP3    H114608   2.674   6.771   1.623
 4885TIP3    H214609   2.730   6.806   1.487
 4886TIP3   OH214610   3.147   7.260   1.979
 4886TIP3    H114611   3.071   7.317   1.977
 4886TIP3    H214612   3.212   7.308   2.031
 4887TIP3   OH214613   3.363   6.966   1.015
 4887TIP3    H114614   3.269   6.959   1.000
 4887TIP3    H214615   3.379   7.060   1.021
 4888TIP3   OH214616   3.449   7.214   1.109
 4888TIP3    H114617   3.543   7.219   1.124
 4888TIP3    H214618   3.432   7.280   1.042
 4889TIP3   OH214619   3.923   7.303   0.908
 4889TIP3    H114620   3.827   7.295   0.900
 4889TIP3    H214621   3.937   7.388   0.949
 4890TIP3   OH214622   2.770   7.056   2.393
 4890TIP3    H114623   2.679   7.073   2.415
 4890TIP3    H214624   2.802   6.999   2.463
 4891TIP3   OH214625   3.530   7.150   2.056
 4891TIP3    H114626   3.609   7.195   2.086
 4891TIP3    H214627   3.524   7.073   2.112
 4892TIP3   OH214628   3.443   6.916   1.273
 4892TIP3    H114629   3.413   6.942   1.186
 4892TIP3    H214630   3.481   6.995   1.310
 4893TIP3   OH214631   3.086   7.116   1.340
 4893TIP3    H114632   3.143   7.188   1.316
 4893TIP3    H214633   3.110   7.095   1.431
 4894TIP3   OH214634   3.356   7.351   2.137
 4894TIP3    H114635   3.412   7.418   2.098
 4894TIP3    H214636   3.401   7.269   2.118
 4895TIP3   OH214637   3.247   6.806   1.433
 4895TIP3    H114638   3.223   6.883   1.485
 4895TIP3    H214639   3.321   6.835   1.380
 4896TIP3   OH214640   2.764   6.836   1.238
 4896TIP3    H114641   2.759   6.928   1.264
 4896TIP3    H214642   2.857   6.815   1.241
 4897TIP3   OH214643   3.991   7.274   2.094
 4897TIP3    H114644   3.898   7.296   2.098
 4897TIP3    H214645   3.998   7.213   2.020
 4898TIP3   OH214646   6.341   0.038   1.472
 4898TIP3    H114647   6.275   0.032   1.541
 4898TIP3    H214648   6.417  -0.008   1.508
 4899TIP3   OH214649   2.316   7.007   1.100
 4899TIP3    H114650   2.267   7.083   1.068
 4899TIP3    H214651   2.323   6.949   1.024
 4900TIP3   OH214652   2.719   6.722   1.965
 4900TIP3    H114653   2.689   6.688   1.880
 4900TIP3    H214654   2.713   6.646   2.023
 4901TIP3   OH214655   3.148   7.252   2.394
 4901TIP3    H114656   3.153   7.181   2.331
 4901TIP3    H214657   3.104   7.323   2.347
 4902TIP3   OH214658   3.139   7.075   2.184
 4902TIP3    H114659   3.158   7.125   2.105
 4902TIP3    H214660   3.048   7.048   2.175
 4903TIP3   OH214661   6.537   0.183   2.484
 4903TIP3    H114662   6.459   0.135   2.511
 4903TIP3    H214663   6.600   0.114   2.462
 4904TIP3   OH214664   3.022   7.353   2.615
 4904TIP3    H114665   2.952   7.297   2.648
 4904TIP3    H214666   3.050   7.311   2.533
 4905TIP3   OH214667   3.255   6.856   2.295
 4905TIP3    H114668   3.219   6.934   2.254
 4905TIP3    H214669   3.188   6.788   2.281
 4906TIP3   OH214670   3.411   7.239   2.475
 4906TIP3    H114671   3.402   7.189   2.556
 4906TIP3    H214672   3.321   7.251   2.444
 4907TIP3   OH214673   3.643   7.268   2.342
 4907TIP3    H114674   3.559   7.245   2.382
 4907TIP3    H214675   3.709   7.235   2.402
 4908TIP3   OH214676   3.841   7.239   2.539
 4908TIP3    H114677   3.865   7.147   2.529
 4908TIP3    H214678   3.848   7.256   2.633
 4909TIP3   OH214679   2.866   7.146   2.713
 4909TIP3    H114680   2.860   7.058   2.674
 4909TIP3    H214681   2.907   7.131   2.799
 4910TIP3   OH214682   3.317   6.850   2.560
 4910TIP3    H114683   3.388   6.786   2.555
 4910TIP3    H214684   3.285   6.857   2.470
 4911TIP3   OH214685   3.413   7.061   2.704
 4911TIP3    H114686   3.379   6.985   2.656
 4911TIP3    H214687   3.336   7.115   2.721
 4912TIP3   OH214688   3.528   7.254   0.647
 4912TIP3    H114689   3.571   7.258   0.562
 4912TIP3    H214690   3.527   7.160   0.669
 4913TIP3   OH214691   6.422   0.037   1.210
 4913TIP3    H114692   6.400  -0.056   1.200
 4913TIP3    H214693   6.390   0.061   1.297
 4914TIP3   OH214694   6.836   0.257   2.165
 4914TIP3    H114695   6.753   0.210   2.171
 4914TIP3    H214696   6.898   0.191   2.134
 4915TIP3   OH214697   3.522   6.998   0.730
 4915TIP3    H114698   3.599   7.010   0.786
 4915TIP3    H214699   3.532   6.911   0.692
 4916TIP3   OH214700   3.725   7.213   1.151
 4916TIP3    H114701   3.781   7.135   1.154
 4916TIP3    H214702   3.718   7.234   1.058
 4917TIP3   OH214703   3.911   7.357   1.610
 4917TIP3    H114704   3.987   7.400   1.570
 4917TIP3    H214705   3.912   7.386   1.701
 4918TIP3   OH214706   6.586   0.068   1.838
 4918TIP3    H114707   6.507   0.087   1.888
 4918TIP3    H214708   6.586   0.134   1.768
 4919TIP3   OH214709   2.655   7.307   2.665
 4919TIP3    H114710   2.730   7.248   2.676
 4919TIP3    H214711   2.579   7.253   2.688
 4920TIP3   OH214712   4.408   7.143   2.386
 4920TIP3    H114713   4.475   7.084   2.352
 4920TIP3    H214714   4.373   7.186   2.308
 4921TIP3   OH214715   3.846   6.957   1.145
 4921TIP3    H114716   3.887   6.949   1.231
 4921TIP3    H214717   3.777   6.891   1.145
 4922TIP3   OH214718   2.550   6.933   2.003
 4922TIP3    H114719   2.605   6.854   2.002
 4922TIP3    H214720   2.610   7.003   1.977
 4923TIP3   OH214721   2.325   7.221   2.036
 4923TIP3    H114722   2.375   7.197   1.959
 4923TIP3    H214723   2.381   7.283   2.083
 4924TIP3   OH214724   4.253   7.235   2.174
 4924TIP3    H114725   4.164   7.269   2.168
 4924TIP3    H214726   4.249   7.149   2.133
 4925TIP3   OH214727   4.009   6.837   0.876
 4925TIP3    H114728   4.003   6.798   0.789
 4925TIP3    H214729   4.030   6.929   0.860
 4926TIP3   OH214730   2.322   6.747   1.570
 4926TIP3    H114731   2.234   6.720   1.597
 4926TIP3    H214732   2.308   6.794   1.488
 4927TIP3   OH214733   2.529   6.761   2.383
 4927TIP3    H114734   2.475   6.752   2.462
 4927TIP3    H214735   2.479   6.820   2.327
 4928TIP3   OH214736   4.178   6.977   2.095
 4928TIP3    H114737   4.089   6.953   2.069
 4928TIP3    H214738   4.227   6.895   2.089
 4929TIP3   OH214739   3.388   6.933   1.733
 4929TIP3    H114740   3.347   6.861   1.782
 4929TIP3    H214741   3.457   6.891   1.682
 4930TIP3   OH214742   3.888   6.853   1.625
 4930TIP3    H114743   3.918   6.909   1.554
 4930TIP3    H214744   3.794   6.871   1.632
 4931TIP3   OH214745   3.990   6.927   1.377
 4931TIP3    H114746   4.064   6.868   1.361
 4931TIP3    H214747   4.029   7.014   1.377
 4932TIP3   OH214748   2.623   6.627   1.723
 4932TIP3    H114749   2.534   6.593   1.735
 4932TIP3    H214750   2.678   6.550   1.717
 4933TIP3   OH214751   2.440   6.543   1.387
 4933TIP3    H114752   2.470   6.590   1.308
 4933TIP3    H214753   2.411   6.612   1.446
 4934TIP3   OH214754   3.095   6.673   1.629
 4934TIP3    H114755   3.143   6.717   1.559
 4934TIP3    H214756   3.141   6.698   1.709
 4935TIP3   OH214757   3.601   6.813   1.605
 4935TIP3    H114758   3.615   6.780   1.517
 4935TIP3    H214759   3.606   6.735   1.661
 4936TIP3   OH214760   3.651   6.765   1.163
 4936TIP3    H114761   3.574   6.816   1.189
 4936TIP3    H214762   3.646   6.686   1.216
 4937TIP3   OH214763   2.554   6.670   1.151
 4937TIP3    H114764   2.598   6.608   1.093
 4937TIP3    H214765   2.625   6.724   1.186
 4938TIP3   OH214766   3.039   6.862   1.250
 4938TIP3    H114767   3.098   6.808   1.302
 4938TIP3    H214768   3.054   6.952   1.280
 4939TIP3   OH214769   2.864   6.886   2.605
 4939TIP3    H114770   2.825   6.822   2.664
 4939TIP3    H214771   2.956   6.890   2.632
 4940TIP3   OH214772   3.108   6.898   2.737
 4940TIP3    H114773   3.183   6.872   2.684
 4940TIP3    H214774   3.098   6.827   2.801
 4941TIP3   OH214775   3.929   6.983   2.518
 4941TIP3    H114776   3.950   6.956   2.608
 4941TIP3    H214777   4.014   6.984   2.473
 4942TIP3   OH214778   6.677   0.054   1.106
 4942TIP3    H114779   6.590   0.061   1.147
 4942TIP3    H214780   6.725  -0.005   1.164
 4943TIP3   OH214781   0.041   0.202   1.164
 4943TIP3    H114782   0.022   0.195   1.257
 4943TIP3    H214783   0.024   0.294   1.143
 4944TIP3   OH214784   4.651   7.255   1.270
 4944TIP3    H114785   4.659   7.334   1.216
 4944TIP3    H214786   4.581   7.205   1.228
 4945TIP3   OH214787   5.356   7.294   0.841
 4945TIP3    H114788   5.394   7.344   0.913
 4945TIP3    H214789   5.331   7.360   0.776
 4946TIP3   OH214790   6.928   0.081   1.360
 4946TIP3    H114791   7.015   0.066   1.398
 4946TIP3    H214792   6.927   0.028   1.280
 4947TIP3   OH214793   4.654   7.297   1.658
 4947TIP3    H114794   4.612   7.350   1.589
 4947TIP3    H214795   4.597   7.308   1.734
 4948TIP3   OH214796   5.506   7.400   1.052
 4948TIP3    H114797   5.482   7.372   1.140
 4948TIP3    H214798   5.602   7.404   1.053
 4949TIP3   OH214799   4.540   7.433   1.449
 4949TIP3    H114800   4.594   7.511   1.459
 4949TIP3    H214801   4.586   7.380   1.384
 4950TIP3   OH214802   5.753   7.321   1.435
 4950TIP3    H114803   5.728   7.408   1.467
 4950TIP3    H214804   5.775   7.336   1.343
 4951TIP3   OH214805   4.993   6.991   1.425
 4951TIP3    H114806   4.981   6.897   1.436
 4951TIP3    H214807   4.915   7.030   1.466
 4952TIP3   OH214808   4.755   7.083   1.518
 4952TIP3    H114809   4.672   7.053   1.480
 4952TIP3    H214810   4.733   7.166   1.561
 4953TIP3   OH214811   5.309   7.192   1.702
 4953TIP3    H114812   5.382   7.176   1.762
 4953TIP3    H214813   5.231   7.164   1.750
 4954TIP3   OH214814   0.313   0.211   1.646
 4954TIP3    H114815   0.256   0.173   1.713
 4954TIP3    H214816   0.253   0.249   1.582
 4955TIP3   OH214817   7.330   0.198   1.532
 4955TIP3    H114818   7.286   0.193   1.617
 4955TIP3    H214819   7.320   0.290   1.506
 4956TIP3   OH214820   7.182  -0.017   1.015
 4956TIP3    H114821   7.106  -0.013   1.072
 4956TIP3    H214822   7.160   0.041   0.942
 4957TIP3   OH214823   0.011   0.364   1.847
 4957TIP3    H114824  -0.019   0.295   1.906
 4957TIP3    H214825   0.104   0.373   1.866
 4958TIP3   OH214826   7.772   0.087   0.897
 4958TIP3    H114827   7.842   0.151   0.909
 4958TIP3    H214828   7.783   0.025   0.970
 4959TIP3   OH214829   7.192   0.162   1.766
 4959TIP3    H114830   7.169   0.221   1.837
 4959TIP3    H214831   7.172   0.075   1.800
 4960TIP3   OH214832   4.114   7.166   1.336
 4960TIP3    H114833   4.194   7.197   1.379
 4960TIP3    H214834   4.144   7.132   1.252
 4961TIP3   OH214835   4.083   7.097   0.837
 4961TIP3    H114836   4.093   7.127   0.747
 4961TIP3    H214837   4.028   7.164   0.879
 4962TIP3   OH214838   4.929   7.252   1.262
 4962TIP3    H114839   4.836   7.247   1.284
 4962TIP3    H214840   4.955   7.340   1.287
 4963TIP3   OH214841   4.317   7.358   1.152
 4963TIP3    H114842   4.279   7.352   1.064
 4963TIP3    H214843   4.354   7.272   1.168
 4964TIP3   OH214844   4.713   7.405   0.677
 4964TIP3    H114845   4.806   7.393   0.697
 4964TIP3    H214846   4.711   7.479   0.615
 4965TIP3   OH214847   5.388   7.411   1.364
 4965TIP3    H114848   5.367   7.457   1.445
 4965TIP3    H214849   5.328   7.336   1.363
 4966TIP3   OH214850   7.637   0.097   1.204
 4966TIP3    H114851   7.712   0.051   1.167
 4966TIP3    H214852   7.629   0.176   1.151
 4967TIP3   OH214853   4.440   7.113   1.155
 4967TIP3    H114854   4.429   7.031   1.203
 4967TIP3    H214855   4.392   7.100   1.073
 4968TIP3   OH214856   7.571   0.065   1.507
 4968TIP3    H114857   7.488   0.111   1.501
 4968TIP3    H214858   7.630   0.126   1.551
 4969TIP3   OH214859   4.486   7.354   1.865
 4969TIP3    H114860   4.391   7.366   1.863
 4969TIP3    H214861   4.500   7.287   1.932
 4970TIP3   OH214862   5.301   7.460   1.622
 4970TIP3    H114863   5.350   7.485   1.701
 4970TIP3    H214864   5.291   7.365   1.629
 4971TIP3   OH214865   4.978   7.369   0.741
 4971TIP3    H114866   5.028   7.447   0.765
 4971TIP3    H214867   4.967   7.321   0.823
 4972TIP3   OH214868   7.742   0.212   1.680
 4972TIP3    H114869   7.793   0.282   1.720
 4972TIP3    H214870   7.807   0.154   1.641
 4973TIP3   OH214871   5.133   7.128   0.895
 4973TIP3    H114872   5.101   7.110   0.983
 4973TIP3    H214873   5.192   7.203   0.905
 4974TIP3   OH214874   4.561   7.044   0.681
 4974TIP3    H114875   4.549   7.121   0.738
 4974TIP3    H214876   4.606   7.079   0.604
 4975TIP3   OH214877   0.565   0.151   1.552
 4975TIP3    H114878   0.483   0.176   1.593
 4975TIP3    H214879   0.558   0.185   1.462
 4976TIP3   OH214880   0.201   0.448   0.903
 4976TIP3    H114881   0.182   0.358   0.877
 4976TIP3    H214882   0.281   0.441   0.955
 4977TIP3   OH214883   4.168   7.288   0.641
 4977TIP3    H114884   4.249   7.334   0.617
 4977TIP3    H214885   4.168   7.210   0.586
 4978TIP3   OH214886   4.492   7.000   1.493
 4978TIP3    H114887   4.459   6.961   1.412
 4978TIP3    H214888   4.492   6.928   1.556
 4979TIP3   OH214889   7.564   0.117   1.868
 4979TIP3    H114890   7.553   0.030   1.830
 4979TIP3    H214891   7.608   0.167   1.800
 4980TIP3   OH214892   4.917   7.335   1.710
 4980TIP3    H114893   4.943   7.384   1.633
 4980TIP3    H214894   4.823   7.319   1.698
 4981TIP3   OH214895   0.273   0.366   1.949
 4981TIP3    H114896   0.309   0.279   1.966
 4981TIP3    H214897   0.345   0.414   1.908
 4982TIP3   OH214898   7.434   0.199   2.100
 4982TIP3    H114899   7.366   0.132   2.113
 4982TIP3    H214900   7.468   0.182   2.012
 4983TIP3   OH214901   5.051   7.110   1.783
 4983TIP3    H114902   5.011   7.193   1.755
 4983TIP3    H214903   4.983   7.045   1.769
 4984TIP3   OH214904   7.820   0.146   1.988
 4984TIP3    H114905   7.803   0.135   2.082
 4984TIP3    H214906   7.736   0.128   1.946
 4985TIP3   OH214907   0.157   0.088   1.851
 4985TIP3    H114908   0.081   0.101   1.907
 4985TIP3    H214909   0.232   0.082   1.911
 4986TIP3   OH214910   0.380   0.101   2.014
 4986TIP3    H114911   0.399   0.008   2.021
 4986TIP3    H214912   0.380   0.133   2.104
 4987TIP3   OH214913   4.626   7.440   2.188
 4987TIP3    H114914   4.631   7.354   2.146
 4987TIP3    H214915   4.673   7.429   2.271
 4988TIP3   OH214916   5.113   7.113   2.048
 4988TIP3    H114917   5.186   7.051   2.046
 4988TIP3    H214918   5.083   7.118   1.957
 4989TIP3   OH214919   5.200   7.326   2.195
 4989TIP3    H114920   5.172   7.256   2.137
 4989TIP3    H214921   5.129   7.390   2.192
 4990TIP3   OH214922   6.993   0.037   2.118
 4990TIP3    H114923   7.087   0.035   2.137
 4990TIP3    H214924   6.960  -0.047   2.150
 4991TIP3   OH214925   6.205   7.354   1.889
 4991TIP3    H114926   6.259   7.295   1.836
 4991TIP3    H214927   6.181   7.424   1.829
 4992TIP3   OH214928   4.337   7.229   1.492
 4992TIP3    H114929   4.395   7.153   1.498
 4992TIP3    H214930   4.396   7.304   1.481
 4993TIP3   OH214931   6.750   0.086   1.565
 4993TIP3    H114932   6.798   0.080   1.482
 4993TIP3    H214933   6.804   0.145   1.619
 4994TIP3   OH214934   0.785   0.053   1.695
 4994TIP3    H114935   0.724   0.112   1.650
 4994TIP3    H214936   0.761  -0.034   1.664
 4995TIP3   OH214937   4.129   7.018   1.102
 4995TIP3    H114938   4.044   6.977   1.115
 4995TIP3    H214939   4.131   7.041   1.009
 4996TIP3   OH214940   4.339   7.050   1.873
 4996TIP3    H114941   4.278   7.027   1.944
 4996TIP3    H214942   4.285   7.094   1.808
 4997TIP3   OH214943   5.956   7.256   1.613
 4997TIP3    H114944   5.876   7.261   1.561
 4997TIP3    H214945   5.991   7.168   1.595
 4998TIP3   OH214946   5.189   7.223   1.379
 4998TIP3    H114947   5.096   7.202   1.370
 4998TIP3    H214948   5.233   7.166   1.316
 4999TIP3   OH214949   5.706   7.101   1.147
 4999TIP3    H114950   5.762   7.175   1.123
 4999TIP3    H214951   5.637   7.101   1.081
 5000TIP3   OH214952   4.394   6.875   1.273
 5000TIP3    H114953   4.306   6.836   1.278
 5000TIP3    H214954   4.451   6.802   1.250
 5001TIP3   OH214955   4.263   6.727   0.887
 5001TIP3    H114956   4.290   6.776   0.809
 5001TIP3    H214957   4.174   6.756   0.904
 5002TIP3   OH214958   4.796   6.941   1.218
 5002TIP3    H114959   4.823   6.974   1.133
 5002TIP3    H214960   4.847   6.991   1.281
 5003TIP3   OH214961   5.525   7.100   0.939
 5003TIP3    H114962   5.465   7.160   0.895
 5003TIP3    H214963   5.471   7.024   0.962
 5004TIP3   OH214964   4.353   6.865   0.668
 5004TIP3    H114965   4.398   6.792   0.626
 5004TIP3    H214966   4.420   6.933   0.677
 5005TIP3   OH214967   4.919   7.050   0.684
 5005TIP3    H114968   4.910   7.057   0.779
 5005TIP3    H214969   4.914   7.141   0.653
 5006TIP3   OH214970   4.644   7.170   2.101
 5006TIP3    H114971   4.613   7.102   2.162
 5006TIP3    H214972   4.737   7.179   2.122
 5007TIP3   OH214973   4.894   7.174   2.220
 5007TIP3    H114974   4.972   7.152   2.168
 5007TIP3    H214975   4.890   7.106   2.287
 5008TIP3   OH214976   5.709   7.277   2.020
 5008TIP3    H114977   5.725   7.245   2.109
 5008TIP3    H214978   5.794   7.268   1.976
 5009TIP3   OH214979   6.050   7.277   1.341
 5009TIP3    H114980   6.016   7.266   1.430
 5009TIP3    H214981   6.117   7.345   1.348
 5010TIP3   OH214982   1.636   0.418   5.650
 5010TIP3    H114983   1.597   0.480   5.587
 5010TIP3    H214984   1.606   0.332   5.620
 5011TIP3   OH214985   1.903   0.657   5.617
 5011TIP3    H114986   1.891   0.592   5.686
 5011TIP3    H214987   1.925   0.738   5.663
 5012TIP3   OH214988   1.536   1.077   5.625
 5012TIP3    H114989   1.572   1.013   5.563
 5012TIP3    H214990   1.509   1.025   5.700
 5013TIP3   OH214991   2.465   0.065   6.253
 5013TIP3    H114992   2.421   0.121   6.188
 5013TIP3    H214993   2.555   0.098   6.255
 5014TIP3   OH214994   1.496   0.557   5.424
 5014TIP3    H114995   1.582   0.593   5.402
 5014TIP3    H214996   1.439   0.633   5.432
 5015TIP3   OH214997   1.939   0.890   5.765
 5015TIP3    H114998   1.858   0.885   5.816
 5015TIP3    H214999   1.934   0.974   5.721
 5016TIP3   OH215000   1.635   0.912   5.422
 5016TIP3    H115001   1.680   0.829   5.411
 5016TIP3    H215002   1.700   0.978   5.400
 5017TIP3   OH215003   1.749   0.662   5.390
 5017TIP3    H115004   1.794   0.613   5.321
 5017TIP3    H215005   1.807   0.655   5.466
 5018TIP3   OH215006   2.122   0.794   6.139
 5018TIP3    H115007   2.123   0.717   6.081
 5018TIP3    H215008   2.120   0.869   6.080
 5019TIP3   OH215009   2.347   0.445   5.962
 5019TIP3    H115010   2.263   0.491   5.971
 5019TIP3    H215011   2.372   0.459   5.871
 5020TIP3   OH215012   2.068   0.328   6.231
 5020TIP3    H115013   2.069   0.408   6.283
 5020TIP3    H215014   1.986   0.332   6.182
 5021TIP3   OH215015   1.726   0.889   5.932
 5021TIP3    H115016   1.688   0.972   5.957
 5021TIP3    H215017   1.696   0.826   5.998
 5022TIP3   OH215018   1.737   0.184   5.217
 5022TIP3    H115019   1.768   0.275   5.220
 5022TIP3    H215020   1.713   0.170   5.125
 5023TIP3   OH215021   1.378   0.811   5.427
 5023TIP3    H115022   1.463   0.853   5.430
 5023TIP3    H215023   1.320   0.876   5.388
 5024TIP3   OH215024   1.974   0.737   4.786
 5024TIP3    H115025   1.970   0.830   4.760
 5024TIP3    H215026   2.066   0.713   4.776
 5025TIP3   OH215027   2.391   1.168   6.168
 5025TIP3    H115028   2.393   1.073   6.173
 5025TIP3    H215029   2.316   1.193   6.222
 5026TIP3   OH215030   1.600   0.902   6.330
 5026TIP3    H115031   1.547   0.982   6.332
 5026TIP3    H215032   1.538   0.832   6.353
 5027TIP3   OH215033   1.275   1.031   5.267
 5027TIP3    H115034   1.236   1.018   5.181
 5027TIP3    H215035   1.242   1.116   5.296
 5028TIP3   OH215036   1.481   0.964   4.894
 5028TIP3    H115037   1.535   0.893   4.860
 5028TIP3    H215038   1.516   0.982   4.981
 5029TIP3   OH215039   1.531   1.013   5.165
 5029TIP3    H115040   1.444   1.016   5.206
 5029TIP3    H215041   1.588   0.976   5.233
 5030TIP3   OH215042   2.272   0.276   6.434
 5030TIP3    H115043   2.195   0.315   6.392
 5030TIP3    H215044   2.262   0.182   6.418
 5031TIP3   OH215045   1.714   0.157   4.937
 5031TIP3    H115046   1.696   0.127   4.848
 5031TIP3    H215047   1.800   0.198   4.932
 5032TIP3   OH215048   2.103   1.497   6.253
 5032TIP3    H115049   2.093   1.518   6.160
 5032TIP3    H215050   2.181   1.545   6.281
 5033TIP3   OH215051   2.109   0.594   5.943
 5033TIP3    H115052   2.152   0.645   5.874
 5033TIP3    H215053   2.030   0.559   5.901
 5034TIP3   OH215054   7.766   5.913   2.215
 5034TIP3    H115055   7.825   5.983   2.246
 5034TIP3    H215056   7.702   5.959   2.161
 5035TIP3   OH215057   1.403   0.511   5.149
 5035TIP3    H115058   1.332   0.574   5.154
 5035TIP3    H215059   1.432   0.499   5.239
 5036TIP3   OH215060   2.386   0.895   6.188
 5036TIP3    H115061   2.298   0.858   6.202
 5036TIP3    H215062   2.415   0.857   6.105
 5037TIP3   OH215063   1.903   0.794   5.050
 5037TIP3    H115064   1.890   0.711   5.095
 5037TIP3    H215065   1.918   0.770   4.958
 5038TIP3   OH215066   1.858   0.460   5.818
 5038TIP3    H115067   1.777   0.450   5.769
 5038TIP3    H215068   1.907   0.379   5.798
 5039TIP3   OH215069   1.339   0.992   6.046
 5039TIP3    H115070   1.370   1.074   6.007
 5039TIP3    H215071   1.353   1.004   6.140
 5040TIP3   OH215072   0.907   0.946   5.470
 5040TIP3    H115073   0.880   0.924   5.559
 5040TIP3    H215074   0.954   1.029   5.479
 5041TIP3   OH215075   1.748   0.622   6.074
 5041TIP3    H115076   1.668   0.574   6.094
 5041TIP3    H215077   1.779   0.583   5.991
 5042TIP3   OH215078   1.663   0.541   4.968
 5042TIP3    H115079   1.730   0.525   5.033
 5042TIP3    H215080   1.581   0.521   5.013
 5043TIP3   OH215081   1.918   1.175   6.096
 5043TIP3    H115082   1.831   1.135   6.091
 5043TIP3    H215083   1.917   1.242   6.029
 5044TIP3   OH215084   1.972   1.011   4.744
 5044TIP3    H115085   1.988   1.074   4.674
 5044TIP3    H215086   1.902   1.051   4.796
 5045TIP3   OH215087   1.206   0.705   5.141
 5045TIP3    H115088   1.122   0.719   5.182
 5045TIP3    H215089   1.247   0.792   5.140
 5046TIP3   OH215090   0.974   0.813   5.236
 5046TIP3    H115091   0.951   0.882   5.173
 5046TIP3    H215092   0.947   0.849   5.321
 5047TIP3   OH215093   2.210   0.021   6.351
 5047TIP3    H115094   2.172   0.028   6.263
 5047TIP3    H215095   2.304   0.012   6.336
 5048TIP3   OH215096   1.974   0.208   5.751
 5048TIP3    H115097   1.912   0.136   5.757
 5048TIP3    H215098   2.054   0.174   5.791
 5049TIP3   OH215099   1.952   1.153   5.685
 5049TIP3    H115100   1.905   1.205   5.619
 5049TIP3    H215101   2.044   1.169   5.667
 5050TIP3   OH215102   1.168   0.729   4.865
 5050TIP3    H115103   1.173   0.691   4.953
 5050TIP3    H215104   1.244   0.694   4.819
 5051TIP3   OH215105   4.550   4.740  -0.016
 5051TIP3    H115106   4.592   4.709   0.064
 5051TIP3    H215107   4.590   4.825  -0.032
 5052TIP3   OH215108   1.621   0.753   4.788
 5052TIP3    H115109   1.656   0.686   4.848
 5052TIP3    H215110   1.682   0.752   4.714
 5053TIP3   OH215111   1.347   0.429   4.890
 5053TIP3    H115112   1.357   0.454   4.982
 5053TIP3    H215113   1.374   0.338   4.887
 5054TIP3   OH215114   1.878   0.771   6.267
 5054TIP3    H115115   1.965   0.785   6.231
 5054TIP3    H215116   1.834   0.715   6.203
 5055TIP3   OH215117   4.509   4.308   0.108
 5055TIP3    H115118   4.553   4.312   0.193
 5055TIP3    H215119   4.451   4.232   0.114
 5056TIP3   OH215120   1.970   0.232   4.837
 5056TIP3    H115121   1.952   0.208   4.746
 5056TIP3    H215122   1.950   0.326   4.841
 5057TIP3   OH215123   2.099   0.548   6.386
 5057TIP3    H115124   2.025   0.606   6.401
 5057TIP3    H215125   2.160   0.600   6.333
 5058TIP3   OH215126   0.960   1.022   5.056
 5058TIP3    H115127   1.053   1.013   5.036
 5058TIP3    H215128   0.924   1.070   4.981
 5059TIP3   OH215129   2.222   1.208   5.671
 5059TIP3    H115130   2.237   1.248   5.757
 5059TIP3    H215131   2.274   1.260   5.610
 5060TIP3   OH215132   2.224   1.253   5.952
 5060TIP3    H115133   2.186   1.165   5.946
 5060TIP3    H215134   2.298   1.242   6.012
 5061TIP3   OH215135   4.939   4.627   0.049
 5061TIP3    H115136   4.848   4.640   0.076
 5061TIP3    H215137   4.971   4.715   0.029
 5062TIP3   OH215138   2.220   0.380   5.303
 5062TIP3    H115139   2.166   0.326   5.361
 5062TIP3    H215140   2.301   0.395   5.352
 5063TIP3   OH215141   2.286   0.719   5.771
 5063TIP3    H115142   2.335   0.651   5.724
 5063TIP3    H215143   2.288   0.794   5.712
 5064TIP3   OH215144   2.096   1.004   5.965
 5064TIP3    H115145   2.024   1.053   6.005
 5064TIP3    H215146   2.057   0.963   5.888
 5065TIP3   OH215147   7.363   7.450   4.932
 5065TIP3    H115148   7.300   7.513   4.896
 5065TIP3    H215149   7.326   7.365   4.909
 5066TIP3   OH215150   2.102   0.200   5.473
 5066TIP3    H115151   2.081   0.110   5.447
 5066TIP3    H215152   2.056   0.211   5.557
 5067TIP3   OH215153   2.338   0.597   6.241
 5067TIP3    H115154   2.389   0.517   6.254
 5067TIP3    H215155   2.382   0.643   6.170
 5068TIP3   OH215156   2.496   0.390   6.318
 5068TIP3    H115157   2.425   0.335   6.352
 5068TIP3    H215158   2.564   0.384   6.385
 5069TIP3   OH215159   7.306   7.396   5.369
 5069TIP3    H115160   7.290   7.305   5.391
 5069TIP3    H215161   7.241   7.417   5.301
 5070TIP3   OH215162   2.193   0.097   5.870
 5070TIP3    H115163   2.272   0.109   5.817
 5070TIP3    H215164   2.220   0.120   5.959
 5071TIP3   OH215165   2.284   0.217   6.104
 5071TIP3    H115166   2.210   0.253   6.153
 5071TIP3    H215167   2.317   0.291   6.053
 5072TIP3   OH215168   1.794   1.111   5.334
 5072TIP3    H115169   1.843   1.101   5.253
 5072TIP3    H215170   1.826   1.193   5.372
 5073TIP3   OH215171   1.496   1.159   6.359
 5073TIP3    H115172   1.533   1.146   6.446
 5073TIP3    H215173   1.553   1.224   6.318
 5074TIP3   OH215174   1.673   1.346   6.260
 5074TIP3    H115175   1.729   1.321   6.187
 5074TIP3    H215176   1.729   1.399   6.316
 5075TIP3   OH215177   1.407   1.231   5.928
 5075TIP3    H115178   1.342   1.248   5.860
 5075TIP3    H215179   1.419   1.315   5.972
 5076TIP3   OH215180   1.664   1.155   5.983
 5076TIP3    H115181   1.573   1.175   5.963
 5076TIP3    H215182   1.715   1.216   5.929
 5077TIP3   OH215183   1.863   1.329   5.877
 5077TIP3    H115184   1.860   1.417   5.838
 5077TIP3    H215185   1.890   1.272   5.806
 5078TIP3   OH215186   1.154   0.993   5.841
 5078TIP3    H115187   1.139   0.905   5.807
 5078TIP3    H215188   1.210   0.980   5.917
 5079TIP3   OH215189   1.224   0.966   4.998
 5079TIP3    H115190   1.308   0.988   4.959
 5079TIP3    H215191   1.191   0.894   4.944
 5080TIP3   OH215192   1.930   1.062   5.099
 5080TIP3    H115193   1.924   0.967   5.087
 5080TIP3    H215194   1.884   1.099   5.023
 5081TIP3   OH215195   2.132   1.225   6.270
 5081TIP3    H115196   2.065   1.193   6.209
 5081TIP3    H215197   2.126   1.321   6.263
 5082TIP3   OH215198   3.406   0.594   5.038
 5082TIP3    H115199   3.391   0.687   5.018
 5082TIP3    H215200   3.335   0.549   4.992
 5083TIP3   OH215201   3.419   0.617   5.425
 5083TIP3    H115202   3.446   0.590   5.513
 5083TIP3    H215203   3.426   0.537   5.372
 5084TIP3   OH215204   2.708   0.461   5.778
 5084TIP3    H115205   2.741   0.409   5.851
 5084TIP3    H215206   2.786   0.479   5.725
 5085TIP3   OH215207   3.685   0.912   5.119
 5085TIP3    H115208   3.670   0.851   5.191
 5085TIP3    H215209   3.708   0.994   5.161
 5086TIP3   OH215210   2.704   0.882   5.476
 5086TIP3    H115211   2.686   0.788   5.483
 5086TIP3    H215212   2.799   0.887   5.467
 5087TIP3   OH215213   2.309   0.118   5.174
 5087TIP3    H115214   2.280   0.188   5.232
 5087TIP3    H215215   2.370   0.066   5.226
 5088TIP3   OH215216   2.464   0.410   5.445
 5088TIP3    H115217   2.509   0.330   5.473
 5088TIP3    H215218   2.533   0.476   5.438
 5089TIP3   OH215219   3.348   1.334   5.132
 5089TIP3    H115220   3.373   1.271   5.063
 5089TIP3    H215221   3.352   1.283   5.213
 5090TIP3   OH215222   3.223   0.822   5.448
 5090TIP3    H115223   3.269   0.743   5.419
 5090TIP3    H215224   3.292   0.880   5.480
 5091TIP3   OH215225   3.575   0.317   5.527
 5091TIP3    H115226   3.595   0.257   5.599
 5091TIP3    H215227   3.587   0.264   5.448
 5092TIP3   OH215228   0.326   7.432   5.459
 5092TIP3    H115229   0.295   7.501   5.400
 5092TIP3    H215230   0.416   7.414   5.431
 5093TIP3   OH215231   1.107   7.402   5.117
 5093TIP3    H115232   1.120   7.381   5.209
 5093TIP3    H215233   1.014   7.423   5.109
 5094TIP3   OH215234   2.600   0.187   5.537
 5094TIP3    H115235   2.679   0.174   5.589
 5094TIP3    H215236   2.602   0.118   5.471
 5095TIP3   OH215237   3.026   0.374   5.390
 5095TIP3    H115238   3.118   0.349   5.397
 5095TIP3    H215239   2.980   0.294   5.364
 5096TIP3   OH215240   4.279   0.460   5.628
 5096TIP3    H115241   4.188   0.465   5.598
 5096TIP3    H215242   4.285   0.526   5.697
 5097TIP3   OH215243   3.326   0.818   4.890
 5097TIP3    H115244   3.288   0.790   4.807
 5097TIP3    H215245   3.274   0.894   4.916
 5098TIP3   OH215246   3.058   0.744   5.657
 5098TIP3    H115247   3.005   0.816   5.691
 5098TIP3    H215248   3.107   0.783   5.585
 5099TIP3   OH215249   2.833   0.120   5.664
 5099TIP3    H115250   2.904   0.164   5.711
 5099TIP3    H215251   2.878   0.057   5.607
 5100TIP3   OH215252   2.903   0.948   5.763
 5100TIP3    H115253   2.891   1.039   5.733
 5100TIP3    H215254   2.824   0.930   5.814
 5101TIP3   OH215255   2.240   0.617   5.060
 5101TIP3    H115256   2.224   0.622   4.966
 5101TIP3    H215257   2.274   0.704   5.084
 5102TIP3   OH215258   3.721   1.156   5.256
 5102TIP3    H115259   3.634   1.148   5.295
 5102TIP3    H215260   3.719   1.240   5.210
 5103TIP3   OH215261   3.432   1.187   4.911
 5103TIP3    H115262   3.485   1.108   4.900
 5103TIP3    H215263   3.489   1.258   4.883
 5104TIP3   OH215264   3.571   0.957   4.872
 5104TIP3    H115265   3.500   0.893   4.870
 5104TIP3    H215266   3.621   0.934   4.950
 5105TIP3   OH215267   3.942   1.054   5.597
 5105TIP3    H115268   3.927   0.979   5.540
 5105TIP3    H215269   3.931   1.130   5.541
 5106TIP3   OH215270   3.229   0.466   4.872
 5106TIP3    H115271   3.146   0.510   4.852
 5106TIP3    H215272   3.279   0.470   4.791
 5107TIP3   OH215273   3.208   0.255   4.611
 5107TIP3    H115274   3.263   0.329   4.636
 5107TIP3    H215275   3.252   0.218   4.534
 5108TIP3   OH215276   4.137   0.735   5.475
 5108TIP3    H115277   4.054   0.782   5.462
 5108TIP3    H215278   4.174   0.727   5.387
 5109TIP3   OH215279   3.598   0.554   4.842
 5109TIP3    H115280   3.542   0.571   4.918
 5109TIP3    H215281   3.685   0.541   4.878
 5110TIP3   OH215282   3.794   0.596   5.764
 5110TIP3    H115283   3.801   0.677   5.815
 5110TIP3    H215284   3.705   0.597   5.729
 5111TIP3   OH215285   2.834   0.520   5.247
 5111TIP3    H115286   2.799   0.461   5.180
 5111TIP3    H215287   2.910   0.475   5.282
 5112TIP3   OH215288   2.967   0.931   5.381
 5112TIP3    H115289   2.944   0.922   5.288
 5112TIP3    H215290   3.055   0.896   5.388
 5113TIP3   OH215291   2.929   0.505   5.616
 5113TIP3    H115292   2.968   0.467   5.538
 5113TIP3    H215293   2.977   0.587   5.630
 5114TIP3   OH215294   3.483   1.149   5.387
 5114TIP3    H115295   3.471   1.229   5.438
 5114TIP3    H215296   3.468   1.078   5.450
 5115TIP3   OH215297   3.104   1.044   5.929
 5115TIP3    H115298   3.044   1.101   5.977
 5115TIP3    H215299   3.047   0.993   5.871
 5116TIP3   OH215300   3.414   0.445   4.665
 5116TIP3    H115301   3.477   0.499   4.713
 5116TIP3    H215302   3.448   0.443   4.576
 5117TIP3   OH215303   2.857   0.599   6.067
 5117TIP3    H115304   2.864   0.693   6.084
 5117TIP3    H215305   2.765   0.586   6.043
 5118TIP3   OH215306   3.188   1.058   4.924
 5118TIP3    H115307   3.267   1.111   4.927
 5118TIP3    H215308   3.126   1.109   4.873
 5119TIP3   OH215309   2.897   1.203   6.018
 5119TIP3    H115310   2.872   1.216   5.927
 5119TIP3    H215311   2.814   1.191   6.064
 5120TIP3   OH215312   2.717   0.347   5.063
 5120TIP3    H115313   2.636   0.373   5.019
 5120TIP3    H215314   2.732   0.257   5.034
 5121TIP3   OH215315   3.773   0.999   4.284
 5121TIP3    H115316   3.769   1.092   4.259
 5121TIP3    H215317   3.862   0.972   4.259
 5122TIP3   OH215318   2.476   0.760   5.971
 5122TIP3    H115319   2.413   0.745   5.900
 5122TIP3    H215320   2.521   0.676   5.981
 5123TIP3   OH215321   2.336   0.952   5.622
 5123TIP3    H115322   2.429   0.973   5.630
 5123TIP3    H215323   2.291   1.032   5.650
 5124TIP3   OH215324   4.187   1.398   5.670
 5124TIP3    H115325   4.192   1.303   5.684
 5124TIP3    H215326   4.110   1.425   5.719
 5125TIP3   OH215327   3.294   1.191   5.797
 5125TIP3    H115328   3.286   1.281   5.827
 5125TIP3    H215329   3.226   1.143   5.844
 5126TIP3   OH215330   3.076   1.289   4.749
 5126TIP3    H115331   3.030   1.269   4.667
 5126TIP3    H215332   3.038   1.371   4.779
 5127TIP3   OH215333   2.505   1.137   5.126
 5127TIP3    H115334   2.550   1.131   5.211
 5127TIP3    H215335   2.456   1.055   5.119
 5128TIP3   OH215336   3.277   1.224   4.375
 5128TIP3    H115337   3.326   1.151   4.339
 5128TIP3    H215338   3.312   1.236   4.464
 5129TIP3   OH215339   3.330   1.264   4.646
 5129TIP3    H115340   3.243   1.268   4.686
 5129TIP3    H215341   3.386   1.226   4.713
 5130TIP3   OH215342   4.083   0.561   5.976
 5130TIP3    H115343   3.996   0.587   5.947
 5130TIP3    H215344   4.094   0.472   5.943
 5131TIP3   OH215345   2.682   0.948   5.931
 5131TIP3    H115346   2.734   0.937   6.011
 5131TIP3    H215347   2.608   0.888   5.943
 5132TIP3   OH215348   3.846   0.336   5.838
 5132TIP3    H115349   3.816   0.329   5.929
 5132TIP3    H215350   3.823   0.425   5.812
 5133TIP3   OH215351   3.528   0.412   4.422
 5133TIP3    H115352   3.478   0.427   4.341
 5133TIP3    H215353   3.618   0.437   4.400
 5134TIP3   OH215354   3.020   0.294   5.787
 5134TIP3    H115355   2.963   0.302   5.863
 5134TIP3    H215356   2.997   0.369   5.732
 5135TIP3   OH215357   2.859   0.175   5.287
 5135TIP3    H115358   2.783   0.232   5.277
 5135TIP3    H215359   2.880   0.148   5.198
 5136TIP3   OH215360   3.354   0.245   4.989
 5136TIP3    H115361   3.297   0.318   4.965
 5136TIP3    H215362   3.406   0.228   4.910
 5137TIP3   OH215363   3.560   0.515   6.070
 5137TIP3    H115364   3.537   0.453   6.138
 5137TIP3    H215365   3.652   0.537   6.087
 5138TIP3   OH215366   3.449   0.409   5.238
 5138TIP3    H115367   3.442   0.481   5.176
 5138TIP3    H215368   3.432   0.330   5.186
 5139TIP3   OH215369   2.834   0.322   5.990
 5139TIP3    H115370   2.850   0.398   6.045
 5139TIP3    H215371   2.799   0.256   6.049
 5140TIP3   OH215372   0.290   7.261   4.652
 5140TIP3    H115373   0.303   7.284   4.744
 5140TIP3    H215374   0.199   7.285   4.634
 5141TIP3   OH215375   3.528   0.536   5.674
 5141TIP3    H115376   3.555   0.468   5.613
 5141TIP3    H215377   3.494   0.488   5.750
 5142TIP3   OH215378   3.221   0.009   5.346
 5142TIP3    H115379   3.238   0.097   5.378
 5142TIP3    H215380   3.304  -0.037   5.356
 5143TIP3   OH215381  -0.004   7.440   5.344
 5143TIP3    H115382   0.003   7.350   5.376
 5143TIP3    H215383   0.082   7.459   5.308
 5144TIP3   OH215384   2.867   0.101   5.027
 5144TIP3    H115385   2.962   0.086   5.028
 5144TIP3    H215386   2.840   0.073   4.939
 5145TIP3   OH215387   2.774   0.061   4.774
 5145TIP3    H115388   2.719   0.010   4.714
 5145TIP3    H215389   2.831   0.112   4.716
 5146TIP3   OH215390   3.906   1.751   5.761
 5146TIP3    H115391   3.903   1.767   5.667
 5146TIP3    H215392   3.985   1.795   5.791
 5147TIP3   OH215393   2.839   0.862   6.158
 5147TIP3    H115394   2.919   0.882   6.206
 5147TIP3    H215395   2.769   0.872   6.222
 5148TIP3   OH215396   3.279   0.265   5.424
 5148TIP3    H115397   3.357   0.313   5.394
 5148TIP3    H215398   3.289   0.260   5.519
 5149TIP3   OH215399   3.280   0.252   5.693
 5149TIP3    H115400   3.195   0.263   5.736
 5149TIP3    H215401   3.343   0.284   5.758
 5150TIP3   OH215402   2.990   0.603   4.808
 5150TIP3    H115403   2.919   0.543   4.787
 5150TIP3    H215404   2.968   0.636   4.895
 5151TIP3   OH215405   3.895   0.853   5.419
 5151TIP3    H115406   3.930   0.898   5.343
 5151TIP3    H215407   3.812   0.816   5.389
 5152TIP3   OH215408   0.852   7.428   4.673
 5152TIP3    H115409   0.929   7.377   4.699
 5152TIP3    H215410   0.873   7.518   4.701
 5153TIP3   OH215411   3.420   0.926   5.833
 5153TIP3    H115412   3.471   0.917   5.914
 5153TIP3    H215413   3.381   1.013   5.839
 5154TIP3   OH215414   3.538   0.225   4.785
 5154TIP3    H115415   3.633   0.234   4.787
 5154TIP3    H215416   3.508   0.299   4.732
 5155TIP3   OH215417   2.688   0.589   5.468
 5155TIP3    H115418   2.732   0.577   5.384
 5155TIP3    H215419   2.752   0.562   5.534
 5156TIP3   OH215420   3.168   0.751   4.666
 5156TIP3    H115421   3.126   0.836   4.660
 5156TIP3    H215422   3.105   0.696   4.712
 5157TIP3   OH215423   2.587   0.526   6.076
 5157TIP3    H115424   2.593   0.503   6.169
 5157TIP3    H215425   2.514   0.473   6.043
 5158TIP3   OH215426   3.330   0.669   6.115
 5158TIP3    H115427   3.258   0.614   6.085
 5158TIP3    H215428   3.408   0.629   6.078
 5159TIP3   OH215429   3.563   1.214   5.720
 5159TIP3    H115430   3.469   1.201   5.725
 5159TIP3    H215431   3.587   1.251   5.805
 5160TIP3   OH215432   3.919   0.317   4.593
 5160TIP3    H115433   3.859   0.279   4.528
 5160TIP3    H215434   3.940   0.403   4.558
 5161TIP3   OH215435   4.191   1.113   5.686
 5161TIP3    H115436   4.096   1.105   5.674
 5161TIP3    H215437   4.228   1.091   5.601
 5162TIP3   OH215438   3.693   1.068   4.547
 5162TIP3    H115439   3.663   0.996   4.603
 5162TIP3    H215440   3.713   1.025   4.463
 5163TIP3   OH215441   3.658   0.733   5.333
 5163TIP3    H115442   3.569   0.712   5.359
 5163TIP3    H215443   3.693   0.651   5.298
 5164TIP3   OH215444   2.829   0.943   5.136
 5164TIP3    H115445   2.829   1.018   5.077
 5164TIP3    H215446   2.737   0.934   5.163
 5165TIP3   OH215447   2.346   0.217   4.877
 5165TIP3    H115448   2.396   0.297   4.893
 5165TIP3    H215449   2.354   0.202   4.783
 5166TIP3   OH215450   2.915   0.697   5.048
 5166TIP3    H115451   2.897   0.787   5.073
 5166TIP3    H215452   2.888   0.645   5.124
 5167TIP3   OH215453   3.111   1.260   5.588
 5167TIP3    H115454   3.145   1.334   5.538
 5167TIP3    H215455   3.186   1.228   5.639
 5168TIP3   OH215456   2.743   1.162   4.984
 5168TIP3    H115457   2.655   1.170   5.022
 5168TIP3    H215458   2.779   1.251   4.989
 5169TIP3   OH215459   3.458   0.928   5.560
 5169TIP3    H115460   3.446   0.923   5.655
 5169TIP3    H215461   3.538   0.878   5.543
 5170TIP3   OH215462   3.454   0.808   4.427
 5170TIP3    H115463   3.503   0.782   4.505
 5170TIP3    H215464   3.371   0.761   4.433
 5171TIP3   OH215465   3.717   1.424   5.602
 5171TIP3    H115466   3.648   1.361   5.621
 5171TIP3    H215467   3.683   1.478   5.531
 5172TIP3   OH215468   3.766   1.271   4.233
 5172TIP3    H115469   3.775   1.327   4.156
 5172TIP3    H215470   3.698   1.312   4.285
 5173TIP3   OH215471   3.622   0.730   4.628
 5173TIP3    H115472   3.610   0.680   4.708
 5173TIP3    H215473   3.717   0.740   4.619
 5174TIP3   OH215474   2.539   1.163   5.749
 5174TIP3    H115475   2.592   1.105   5.805
 5174TIP3    H215476   2.553   1.250   5.785
 5175TIP3   OH215477   2.805   0.779   4.448
 5175TIP3    H115478   2.813   0.688   4.418
 5175TIP3    H215479   2.787   0.771   4.541
 5176TIP3   OH215480   2.749   0.785   4.720
 5176TIP3    H115481   2.830   0.760   4.765
 5176TIP3    H215482   2.747   0.880   4.725
 5177TIP3   OH215483   2.479   0.455   4.936
 5177TIP3    H115484   2.424   0.510   4.992
 5177TIP3    H215485   2.503   0.512   4.863
 5178TIP3   OH215486   3.021   0.978   4.658
 5178TIP3    H115487   2.934   1.001   4.693
 5178TIP3    H215488   3.041   1.050   4.597
 5179TIP3   OH215489   3.135   0.089   5.090
 5179TIP3    H115490   3.209   0.142   5.060
 5179TIP3    H215491   3.165   0.051   5.172
 5180TIP3   OH215492   3.480   0.338   5.864
 5180TIP3    H115493   3.518   0.385   5.939
 5180TIP3    H215494   3.546   0.272   5.842
 5181TIP3   OH215495   2.768   1.057   4.732
 5181TIP3    H115496   2.748   1.128   4.671
 5181TIP3    H215497   2.756   1.097   4.819
 5182TIP3   OH215498   4.116   0.314   5.863
 5182TIP3    H115499   4.024   0.308   5.838
 5182TIP3    H215500   4.164   0.278   5.788
 5183TIP3   OH215501   3.746   0.486   5.247
 5183TIP3    H115502   3.677   0.419   5.254
 5183TIP3    H215503   3.821   0.448   5.291
 5184TIP3   OH215504   2.505   0.648   4.730
 5184TIP3    H115505   2.575   0.713   4.736
 5184TIP3    H215506   2.533   0.589   4.660
 5185TIP3   OH215507   3.745   1.421   5.174
 5185TIP3    H115508   3.703   1.474   5.106
 5185TIP3    H215509   3.839   1.432   5.159
 5186TIP3   OH215510   2.318   0.899   5.107
 5186TIP3    H115511   2.286   0.948   5.183
 5186TIP3    H215512   2.283   0.946   5.032
 5187TIP3   OH215513   2.536   1.461   6.163
 5187TIP3    H115514   2.620   1.462   6.209
 5187TIP3    H215515   2.517   1.368   6.151
 5188TIP3   OH215516   3.013   1.361   6.211
 5188TIP3    H115517   3.105   1.334   6.219
 5188TIP3    H215518   2.978   1.308   6.139
 5189TIP3   OH215519   2.964   0.972   4.334
 5189TIP3    H115520   2.915   0.903   4.379
 5189TIP3    H215521   3.037   0.926   4.292
 5190TIP3   OH215522   3.621   1.312   5.969
 5190TIP3    H115523   3.635   1.242   6.032
 5190TIP3    H215524   3.696   1.371   5.981
 5191TIP3   OH215525   3.401   1.013   4.255
 5191TIP3    H115526   3.435   0.949   4.317
 5191TIP3    H215527   3.459   1.005   4.179
 5192TIP3   OH215528   2.621   0.864   6.333
 5192TIP3    H115529   2.637   0.770   6.341
 5192TIP3    H215530   2.533   0.870   6.296
 5193TIP3   OH215531   2.625   0.470   4.563
 5193TIP3    H115532   2.679   0.442   4.637
 5193TIP3    H215533   2.689   0.485   4.493
 5194TIP3   OH215534   3.266   0.942   6.126
 5194TIP3    H115535   3.220   0.960   6.044
 5194TIP3    H215536   3.299   0.853   6.116
 5195TIP3   OH215537   3.204   0.686   4.400
 5195TIP3    H115538   3.181   0.697   4.492
 5195TIP3    H215539   3.180   0.595   4.380
 5196TIP3   OH215540   3.729   0.988   5.756
 5196TIP3    H115541   3.805   1.015   5.705
 5196TIP3    H215542   3.663   1.056   5.741
 5197TIP3   OH215543   2.722   0.610   6.318
 5197TIP3    H115544   2.786   0.592   6.249
 5197TIP3    H215545   2.774   0.613   6.399
 5198TIP3   OH215546   2.801   0.405   4.773
 5198TIP3    H115547   2.799   0.370   4.862
 5198TIP3    H215548   2.847   0.339   4.722
 5199TIP3   OH215549   3.120   0.503   6.027
 5199TIP3    H115550   3.033   0.541   6.033
 5199TIP3    H215551   3.153   0.529   5.941
 5200TIP3   OH215552   2.928   0.224   4.612
 5200TIP3    H115553   2.901   0.228   4.520
 5200TIP3    H215554   3.023   0.231   4.610
 5201TIP3   OH215555   3.619   0.862   6.114
 5201TIP3    H115556   3.686   0.818   6.061
 5201TIP3    H215557   3.611   0.807   6.193
 5202TIP3   OH215558   3.742   0.526   4.278
 5202TIP3    H115559   3.721   0.478   4.198
 5202TIP3    H215560   3.710   0.614   4.262
 5203TIP3   OH215561   3.228   0.268   6.115
 5203TIP3    H115562   3.225   0.207   6.041
 5203TIP3    H215563   3.192   0.350   6.081
 5204TIP3   OH215564   3.240   0.600   5.804
 5204TIP3    H115565   3.327   0.627   5.774
 5204TIP3    H215566   3.180   0.654   5.753
 5205TIP3   OH215567   3.819   0.579   6.160
 5205TIP3    H115568   3.856   0.496   6.191
 5205TIP3    H215569   3.891   0.641   6.166
 5206TIP3   OH215570   3.863   0.819   5.920
 5206TIP3    H115571   3.807   0.882   5.874
 5206TIP3    H215572   3.951   0.834   5.884
 5207TIP3   OH215573   3.146   0.304   6.378
 5207TIP3    H115574   3.052   0.319   6.386
 5207TIP3    H215575   3.160   0.287   6.284
 5208TIP3   OH215576   3.480   0.311   6.239
 5208TIP3    H115577   3.467   0.284   6.330
 5208TIP3    H215578   3.397   0.292   6.195
 5209TIP3   OH215579   3.770   0.290   6.099
 5209TIP3    H115580   3.690   0.275   6.150
 5209TIP3    H215581   3.835   0.234   6.141
 5210TIP3   OH215582   2.767   1.265   4.550
 5210TIP3    H115583   2.856   1.246   4.521
 5210TIP3    H215584   2.727   1.311   4.476
 5211TIP3   OH215585   2.233   0.632   4.774
 5211TIP3    H115586   2.325   0.656   4.758
 5211TIP3    H215587   2.219   0.554   4.720
 5212TIP3   OH215588   2.137   1.224   5.183
 5212TIP3    H115589   2.072   1.171   5.138
 5212TIP3    H215590   2.182   1.162   5.241
 5213TIP3   OH215591   2.282   1.056   5.352
 5213TIP3    H115592   2.271   0.992   5.422
 5213TIP3    H215593   2.331   1.127   5.391
 5214TIP3   OH215594   4.018   1.467   5.166
 5214TIP3    H115595   4.039   1.497   5.254
 5214TIP3    H215596   4.074   1.518   5.108
 5215TIP3   OH215597   4.044   1.503   5.447
 5215TIP3    H115598   3.992   1.423   5.437
 5215TIP3    H215599   4.107   1.482   5.517
 5216TIP3   OH215600   4.093   1.205   6.021
 5216TIP3    H115601   4.022   1.219   6.084
 5216TIP3    H215602   4.145   1.285   6.025
 5217TIP3   OH215603   3.898   0.739   4.622
 5217TIP3    H115604   3.956   0.810   4.595
 5217TIP3    H215605   3.943   0.699   4.697
 5218TIP3   OH215606   4.025   0.603   4.825
 5218TIP3    H115607   3.961   0.569   4.888
 5218TIP3    H215608   4.094   0.643   4.879
 5219TIP3   OH215609   4.078   0.978   5.254
 5219TIP3    H115610   4.129   0.909   5.213
 5219TIP3    H215611   4.081   1.051   5.192
 5220TIP3   OH215612   3.890   1.274   5.444
 5220TIP3    H115613   3.823   1.316   5.497
 5220TIP3    H215614   3.841   1.231   5.373
 5221TIP3   OH215615   3.957   0.542   4.441
 5221TIP3    H115616   3.883   0.533   4.381
 5221TIP3    H215617   3.933   0.614   4.499
 5222TIP3   OH215618   3.774   0.197   4.396
 5222TIP3    H115619   3.719   0.192   4.318
 5222TIP3    H215620   3.784   0.106   4.425
 5223TIP3   OH215621   3.829   0.485   4.982
 5223TIP3    H115622   3.816   0.392   4.962
 5223TIP3    H215623   3.801   0.494   5.073
 5224TIP3   OH215624   2.446   0.500   5.711
 5224TIP3    H115625   2.437   0.467   5.622
 5224TIP3    H215626   2.540   0.496   5.729
 5225TIP3   OH215627   4.117   0.862   5.818
 5225TIP3    H115628   4.184   0.796   5.799
 5225TIP3    H215629   4.139   0.935   5.760
 5226TIP3   OH215630   4.297   0.651   5.826
 5226TIP3    H115631   4.229   0.624   5.888
 5226TIP3    H215632   4.378   0.616   5.863
 5227TIP3   OH215633   3.813   0.228   4.833
 5227TIP3    H115634   3.851   0.141   4.842
 5227TIP3    H215635   3.854   0.264   4.754
 5228TIP3   OH215636   3.983   0.394   5.361
 5228TIP3    H115637   4.067   0.419   5.323
 5228TIP3    H215638   3.983   0.433   5.448
 5229TIP3   OH215639   4.009   0.525   5.598
 5229TIP3    H115640   3.936   0.552   5.653
 5229TIP3    H215641   4.046   0.607   5.565
 5230TIP3   OH215642   2.736   0.165   6.297
 5230TIP3    H115643   2.790   0.241   6.321
 5230TIP3    H215644   2.727   0.117   6.379
 5231TIP3   OH215645   2.431   0.178   5.760
 5231TIP3    H115646   2.481   0.168   5.679
 5231TIP3    H215647   2.471   0.253   5.803
 5232TIP3   OH215648   3.577   1.387   4.809
 5232TIP3    H115649   3.631   1.374   4.731
 5232TIP3    H215650   3.620   1.459   4.856
 5233TIP3   OH215651   2.669   1.179   6.178
 5233TIP3    H115652   2.575   1.164   6.169
 5233TIP3    H215653   2.685   1.177   6.272
 5234TIP3   OH215654   2.882   1.225   5.737
 5234TIP3    H115655   2.832   1.300   5.705
 5234TIP3    H215656   2.967   1.233   5.693
 5235TIP3   OH215657   3.280   1.456   5.878
 5235TIP3    H115658   3.318   1.451   5.966
 5235TIP3    H215659   3.342   1.510   5.829
 5236TIP3   OH215660   3.470   1.611   5.752
 5236TIP3    H115661   3.532   1.559   5.701
 5236TIP3    H215662   3.525   1.669   5.804
 5237TIP3   OH215663   2.543   1.456   5.788
 5237TIP3    H115664   2.453   1.474   5.761
 5237TIP3    H215665   2.564   1.527   5.848
 5238TIP3   OH215666   2.773   1.456   5.635
 5238TIP3    H115667   2.690   1.460   5.682
 5238TIP3    H215668   2.751   1.482   5.545
 5239TIP3   OH215669   3.187   1.472   5.428
 5239TIP3    H115670   3.115   1.483   5.365
 5239TIP3    H215671   3.197   1.559   5.468
 5240TIP3   OH215672   3.451   1.410   5.475
 5240TIP3    H115673   3.359   1.429   5.456
 5240TIP3    H215674   3.500   1.477   5.428
 5241TIP3   OH215675   3.654   1.583   5.377
 5241TIP3    H115676   3.650   1.670   5.337
 5241TIP3    H215677   3.683   1.525   5.307
 5242TIP3   OH215678   2.450   1.239   5.497
 5242TIP3    H115679   2.477   1.220   5.587
 5242TIP3    H215680   2.522   1.208   5.443
 5243TIP3   OH215681   2.654   1.124   5.360
 5243TIP3    H115682   2.666   1.040   5.405
 5243TIP3    H215683   2.740   1.166   5.364
 5244TIP3   OH215684   2.922   1.210   5.387
 5244TIP3    H115685   2.941   1.118   5.373
 5244TIP3    H215686   2.978   1.235   5.461
 5245TIP3   OH215687   2.213   1.040   4.893
 5245TIP3    H115688   2.130   1.011   4.855
 5245TIP3    H215689   2.227   1.128   4.857
 5246TIP3   OH215690   3.023   1.195   4.478
 5246TIP3    H115691   3.106   1.224   4.441
 5246TIP3    H215692   2.994   1.125   4.421
 5247TIP3   OH215693   3.726   1.337   4.580
 5247TIP3    H115694   3.720   1.241   4.573
 5247TIP3    H215695   3.682   1.369   4.502
 5248TIP3   OH215696   2.322   1.038   4.531
 5248TIP3    H115697   2.326   1.070   4.621
 5248TIP3    H215698   2.405   0.993   4.517
 5249TIP3   OH215699   3.940   1.476   5.765
 5249TIP3    H115700   3.865   1.447   5.714
 5249TIP3    H215701   3.927   1.571   5.773
 5250TIP3   OH215702   5.215   0.845   4.525
 5250TIP3    H115703   5.200   0.938   4.509
 5250TIP3    H215704   5.142   0.801   4.481
 5251TIP3   OH215705   5.212   0.903   4.893
 5251TIP3    H115706   5.240   0.888   4.984
 5251TIP3    H215707   5.156   0.828   4.873
 5252TIP3   OH215708   4.513   0.764   5.269
 5252TIP3    H115709   4.544   0.698   5.331
 5252TIP3    H215710   4.593   0.798   5.229
 5253TIP3   OH215711   5.498   1.167   4.597
 5253TIP3    H115712   5.480   1.103   4.666
 5253TIP3    H215713   5.508   1.250   4.644
 5254TIP3   OH215714   4.505   1.153   4.976
 5254TIP3    H115715   4.485   1.059   4.981
 5254TIP3    H215716   4.599   1.156   4.960
 5255TIP3   OH215717   4.189   0.406   4.717
 5255TIP3    H115718   4.139   0.482   4.748
 5255TIP3    H215719   4.123   0.347   4.681
 5256TIP3   OH215720   4.251   0.698   4.955
 5256TIP3    H115721   4.306   0.621   4.972
 5256TIP3    H215722   4.313   0.767   4.932
 5257TIP3   OH215723   5.142   1.592   4.617
 5257TIP3    H115724   5.168   1.528   4.551
 5257TIP3    H215725   5.146   1.544   4.700
 5258TIP3   OH215726   5.019   1.106   4.933
 5258TIP3    H115727   5.063   1.034   4.890
 5258TIP3    H215728   5.089   1.156   4.975
 5259TIP3   OH215729   5.385   0.612   4.963
 5259TIP3    H115730   5.381   0.518   4.974
 5259TIP3    H215731   5.354   0.627   4.873
 5260TIP3   OH215732   4.684   0.255   4.945
 5260TIP3    H115733   4.627   0.287   4.875
 5260TIP3    H215734   4.681   0.159   4.936
 5261TIP3   OH215735   5.643   0.260   4.644
 5261TIP3    H115736   5.610   0.200   4.711
 5261TIP3    H215737   5.565   0.302   4.608
 5262TIP3   OH215738   4.417   0.496   5.025
 5262TIP3    H115739   4.484   0.466   5.087
 5262TIP3    H215740   4.429   0.440   4.949
 5263TIP3   OH215741   4.810   0.700   4.838
 5263TIP3    H115742   4.905   0.688   4.845
 5263TIP3    H215743   4.777   0.614   4.811
 5264TIP3   OH215744   6.125   0.763   5.074
 5264TIP3    H115745   6.046   0.796   5.029
 5264TIP3    H215746   6.094   0.688   5.124
 5265TIP3   OH215747   5.127   1.073   4.384
 5265TIP3    H115748   5.087   1.042   4.303
 5265TIP3    H215749   5.073   1.147   4.412
 5266TIP3   OH215750   4.871   1.018   5.150
 5266TIP3    H115751   4.813   1.085   5.187
 5266TIP3    H215752   4.914   1.061   5.076
 5267TIP3   OH215753   4.620   0.387   5.175
 5267TIP3    H115754   4.698   0.425   5.214
 5267TIP3    H215755   4.653   0.330   5.105
 5268TIP3   OH215756   4.700   1.209   5.255
 5268TIP3    H115757   4.682   1.297   5.222
 5268TIP3    H215758   4.621   1.186   5.304
 5269TIP3   OH215759   4.072   0.924   4.509
 5269TIP3    H115760   4.040   0.937   4.420
 5269TIP3    H215761   4.094   1.012   4.540
 5270TIP3   OH215762   5.515   1.411   4.737
 5270TIP3    H115763   5.430   1.401   4.780
 5270TIP3    H215764   5.510   1.496   4.694
 5271TIP3   OH215765   5.228   1.443   4.398
 5271TIP3    H115766   5.281   1.363   4.387
 5271TIP3    H215767   5.286   1.514   4.370
 5272TIP3   OH215768   5.368   1.213   4.358
 5272TIP3    H115769   5.295   1.150   4.360
 5272TIP3    H215770   5.422   1.190   4.434
 5273TIP3   OH215771   5.734   1.303   5.075
 5273TIP3    H115772   5.732   1.228   5.015
 5273TIP3    H215773   5.725   1.379   5.019
 5274TIP3   OH215774   5.031   0.731   4.354
 5274TIP3    H115775   4.945   0.770   4.340
 5274TIP3    H215776   5.074   0.736   4.268
 5275TIP3   OH215777   5.007   0.522   4.061
 5275TIP3    H115778   5.065   0.588   4.097
 5275TIP3    H215779   5.059   0.478   3.994
 5276TIP3   OH215780   5.931   0.936   4.923
 5276TIP3    H115781   5.854   0.993   4.920
 5276TIP3    H215782   5.976   0.952   4.841
 5277TIP3   OH215783   5.408   0.793   4.332
 5277TIP3    H115784   5.351   0.811   4.406
 5277TIP3    H215785   5.494   0.777   4.372
 5278TIP3   OH215786   5.594   0.935   5.174
 5278TIP3    H115787   5.561   1.024   5.187
 5278TIP3    H215788   5.549   0.883   5.241
 5279TIP3   OH215789   4.587   0.803   4.723
 5279TIP3    H115790   4.550   0.736   4.666
 5279TIP3    H215791   4.668   0.764   4.756
 5280TIP3   OH215792   4.762   1.200   4.869
 5280TIP3    H115793   4.739   1.184   4.777
 5280TIP3    H215794   4.851   1.167   4.877
 5281TIP3   OH215795   4.742   0.785   5.091
 5281TIP3    H115796   4.766   0.761   5.001
 5281TIP3    H215797   4.790   0.866   5.108
 5282TIP3   OH215798   5.284   1.398   4.879
 5282TIP3    H115799   5.271   1.481   4.926
 5282TIP3    H215800   5.269   1.331   4.945
 5283TIP3   OH215801   4.887   1.323   5.424
 5283TIP3    H115802   4.825   1.376   5.474
 5283TIP3    H215803   4.833   1.267   5.370
 5284TIP3   OH215804   5.216   0.697   4.149
 5284TIP3    H115805   5.279   0.746   4.203
 5284TIP3    H215806   5.253   0.700   4.061
 5285TIP3   OH215807   4.650   0.872   5.550
 5285TIP3    H115808   4.655   0.965   5.572
 5285TIP3    H215809   4.557   0.852   5.551
 5286TIP3   OH215810   4.986   1.310   4.415
 5286TIP3    H115811   5.064   1.367   4.414
 5286TIP3    H215812   4.922   1.357   4.361
 5287TIP3   OH215813   4.677   1.487   5.515
 5287TIP3    H115814   4.651   1.481   5.424
 5287TIP3    H215815   4.599   1.463   5.565
 5288TIP3   OH215816   4.479   0.623   4.544
 5288TIP3    H115817   4.409   0.676   4.505
 5288TIP3    H215818   4.461   0.534   4.516
 5289TIP3   OH215819   5.568   1.256   3.766
 5289TIP3    H115820   5.562   1.349   3.745
 5289TIP3    H215821   5.657   1.231   3.742
 5290TIP3   OH215822   4.280   1.022   5.447
 5290TIP3    H115823   4.211   1.001   5.384
 5290TIP3    H215824   4.316   0.936   5.472
 5291TIP3   OH215825   4.124   1.211   5.105
 5291TIP3    H115826   4.215   1.233   5.124
 5291TIP3    H215827   4.074   1.287   5.136
 5292TIP3   OH215828   5.991   1.675   5.155
 5292TIP3    H115829   5.996   1.580   5.161
 5292TIP3    H215830   5.913   1.698   5.205
 5293TIP3   OH215831   5.086   1.446   5.279
 5293TIP3    H115832   5.089   1.536   5.310
 5293TIP3    H215833   5.018   1.405   5.333
 5294TIP3   OH215834   4.874   1.550   4.234
 5294TIP3    H115835   4.826   1.528   4.154
 5294TIP3    H215836   4.833   1.631   4.265
 5295TIP3   OH215837   4.305   1.404   4.616
 5295TIP3    H115838   4.350   1.393   4.700
 5295TIP3    H215839   4.255   1.323   4.605
 5296TIP3   OH215840   5.075   1.483   3.863
 5296TIP3    H115841   5.124   1.409   3.827
 5296TIP3    H215842   5.108   1.493   3.952
 5297TIP3   OH215843   5.126   1.521   4.133
 5297TIP3    H115844   5.039   1.526   4.173
 5297TIP3    H215845   5.182   1.483   4.201
 5298TIP3   OH215846   5.837   0.874   5.443
 5298TIP3    H115847   5.775   0.946   5.431
 5298TIP3    H215848   5.850   0.838   5.356
 5299TIP3   OH215849   4.477   1.209   5.419
 5299TIP3    H115850   4.530   1.195   5.497
 5299TIP3    H215851   4.406   1.144   5.426
 5300TIP3   OH215852   5.628   0.544   5.192
 5300TIP3    H115853   5.653   0.510   5.278
 5300TIP3    H215854   5.610   0.637   5.208
 5301TIP3   OH215855   5.333   0.675   3.909
 5301TIP3    H115856   5.275   0.681   3.833
 5301TIP3    H215857   5.418   0.706   3.877
 5302TIP3   OH215858   4.823   0.574   5.246
 5302TIP3    H115859   4.772   0.580   5.327
 5302TIP3    H215860   4.796   0.651   5.195
 5303TIP3   OH215861   4.675   0.483   4.734
 5303TIP3    H115862   4.586   0.449   4.745
 5303TIP3    H215863   4.694   0.470   4.641
 5304TIP3   OH215864   5.175   0.520   4.452
 5304TIP3    H115865   5.119   0.592   4.422
 5304TIP3    H215866   5.232   0.501   4.377
 5305TIP3   OH215867   5.354   0.862   5.562
 5305TIP3    H115868   5.307   0.791   5.607
 5305TIP3    H215869   5.439   0.866   5.606
 5306TIP3   OH215870   5.283   0.642   4.701
 5306TIP3    H115871   5.266   0.721   4.651
 5306TIP3    H215872   5.246   0.571   4.649
 5307TIP3   OH215873   4.639   0.600   5.453
 5307TIP3    H115874   4.660   0.675   5.508
 5307TIP3    H215875   4.620   0.529   5.515
 5308TIP3   OH215876   4.698   0.141   4.163
 5308TIP3    H115877   4.675   0.159   4.254
 5308TIP3    H215878   4.656   0.057   4.143
 5309TIP3   OH215879   4.328   0.163   4.551
 5309TIP3    H115880   4.321   0.227   4.480
 5309TIP3    H215881   4.238   0.134   4.565
 5310TIP3   OH215882   5.301   0.809   5.138
 5310TIP3    H115883   5.330   0.739   5.080
 5310TIP3    H215884   5.354   0.797   5.218
 5311TIP3   OH215885   4.982   0.195   4.847
 5311TIP3    H115886   4.927   0.181   4.924
 5311TIP3    H215887   5.041   0.120   4.845
 5312TIP3   OH215888   4.438   0.328   4.806
 5312TIP3    H115889   4.366   0.367   4.757
 5312TIP3    H215890   4.407   0.241   4.830
 5313TIP3   OH215891   4.707   0.441   4.452
 5313TIP3    H115892   4.791   0.405   4.424
 5313TIP3    H215893   4.642   0.397   4.397
 5314TIP3   OH215894   4.519   0.366   4.258
 5314TIP3    H115895   4.454   0.321   4.204
 5314TIP3    H215896   4.586   0.394   4.197
 5315TIP3   OH215897   5.695   2.015   5.255
 5315TIP3    H115898   5.698   2.022   5.159
 5315TIP3    H215899   5.774   2.059   5.285
 5316TIP3   OH215900   4.625   1.134   5.644
 5316TIP3    H115901   4.706   1.156   5.690
 5316TIP3    H215902   4.558   1.131   5.713
 5317TIP3   OH215903   5.077   0.661   4.879
 5317TIP3    H115904   5.155   0.632   4.832
 5317TIP3    H215905   5.082   0.617   4.964
 5318TIP3   OH215906   5.100   0.577   5.141
 5318TIP3    H115907   5.009   0.596   5.163
 5318TIP3    H215908   5.150   0.609   5.217
 5319TIP3   OH215909   4.789   0.859   4.302
 5319TIP3    H115910   4.718   0.796   4.284
 5319TIP3    H215911   4.769   0.893   4.389
 5320TIP3   OH215912   5.709   1.100   4.888
 5320TIP3    H115913   5.735   1.148   4.810
 5320TIP3    H215914   5.623   1.063   4.866
 5321TIP3   OH215915   5.352   0.144   4.267
 5321TIP3    H115916   5.279   0.171   4.211
 5321TIP3    H215917   5.344   0.197   4.346
 5322TIP3   OH215918   5.222   1.190   5.334
 5322TIP3    H115919   5.255   1.167   5.421
 5322TIP3    H215920   5.172   1.270   5.348
 5323TIP3   OH215921   5.349   0.466   4.241
 5323TIP3    H115922   5.444   0.464   4.250
 5323TIP3    H215923   5.331   0.546   4.192
 5324TIP3   OH215924   4.480   0.871   4.965
 5324TIP3    H115925   4.514   0.854   4.877
 5324TIP3    H215926   4.539   0.823   5.024
 5325TIP3   OH215927   4.964   1.011   4.164
 5325TIP3    H115928   4.921   1.097   4.159
 5325TIP3    H215929   4.901   0.955   4.208
 5326TIP3   OH215930   4.383   0.800   5.591
 5326TIP3    H115931   4.396   0.772   5.681
 5326TIP3    H215932   4.306   0.752   5.561
 5327TIP3   OH215933   5.100   0.965   5.611
 5327TIP3    H115934   5.056   0.880   5.607
 5327TIP3    H215935   5.188   0.948   5.579
 5328TIP3   OH215936   5.359   1.462   5.198
 5328TIP3    H115937   5.266   1.444   5.210
 5328TIP3    H215938   5.387   1.502   5.280
 5329TIP3   OH215939   5.724   0.545   4.076
 5329TIP3    H115940   5.672   0.500   4.010
 5329TIP3    H215941   5.741   0.632   4.038
 5330TIP3   OH215942   5.983   1.398   5.148
 5330TIP3    H115943   5.893   1.365   5.147
 5330TIP3    H215944   6.026   1.353   5.075
 5331TIP3   OH215945   5.491   1.326   4.032
 5331TIP3    H115946   5.459   1.258   4.091
 5331TIP3    H215947   5.507   1.280   3.950
 5332TIP3   OH215948   5.468   0.978   4.798
 5332TIP3    H115949   5.378   0.963   4.826
 5332TIP3    H215950   5.500   0.891   4.772
 5333TIP3   OH215951   4.621   1.204   4.625
 5333TIP3    H115952   4.615   1.280   4.567
 5333TIP3    H215953   4.530   1.183   4.646
 5334TIP3   OH215954   4.188   0.566   4.295
 5334TIP3    H115955   4.238   0.639   4.332
 5334TIP3    H215956   4.107   0.565   4.347
 5335TIP3   OH215957   4.713   0.962   4.536
 5335TIP3    H115958   4.697   1.052   4.564
 5335TIP3    H215959   4.669   0.908   4.603
 5336TIP3   OH215960   4.901   1.522   5.080
 5336TIP3    H115961   4.940   1.592   5.029
 5336TIP3    H215962   4.974   1.485   5.129
 5337TIP3   OH215963   4.538   1.423   4.471
 5337TIP3    H115964   4.451   1.429   4.510
 5337TIP3    H215965   4.573   1.512   4.477
 5338TIP3   OH215966   5.253   1.185   5.061
 5338TIP3    H115967   5.238   1.184   5.156
 5338TIP3    H215968   5.335   1.137   5.049
 5339TIP3   OH215969   5.254   1.064   3.912
 5339TIP3    H115970   5.299   1.030   3.989
 5339TIP3    H215971   5.165   1.028   3.918
 5340TIP3   OH215972   5.504   1.683   5.091
 5340TIP3    H115973   5.440   1.613   5.108
 5340TIP3    H215974   5.469   1.730   5.016
 5341TIP3   OH215975   5.567   1.529   3.723
 5341TIP3    H115976   5.594   1.593   3.658
 5341TIP3    H215977   5.494   1.570   3.770
 5342TIP3   OH215978   5.411   0.966   4.112
 5342TIP3    H115979   5.408   0.917   4.194
 5342TIP3    H215980   5.505   0.983   4.099
 5343TIP3   OH215981   4.338   1.380   5.233
 5343TIP3    H115982   4.385   1.310   5.277
 5343TIP3    H215983   4.367   1.460   5.277
 5344TIP3   OH215984   4.600   1.056   3.942
 5344TIP3    H115985   4.606   0.966   3.910
 5344TIP3    H215986   4.585   1.047   4.036
 5345TIP3   OH215987   4.546   1.046   4.212
 5345TIP3    H115988   4.617   1.014   4.267
 5345TIP3    H215989   4.550   1.142   4.221
 5346TIP3   OH215990   4.291   0.780   4.427
 5346TIP3    H115991   4.221   0.823   4.476
 5346TIP3    H215992   4.308   0.839   4.353
 5347TIP3   OH215993   4.822   1.241   4.147
 5347TIP3    H115994   4.735   1.261   4.180
 5347TIP3    H215995   4.840   1.311   4.084
 5348TIP3   OH215996   4.971   0.324   4.448
 5348TIP3    H115997   5.032   0.393   4.472
 5348TIP3    H215998   4.924   0.304   4.529
 5349TIP3   OH215999   5.213   0.626   5.382
 5349TIP3    H116000   5.173   0.707   5.412
 5349TIP3    H216001   5.280   0.606   5.447
 5350TIP3   OH216002   4.570   1.319   4.221
 5350TIP3    H116003   4.547   1.389   4.160
 5350TIP3    H216004   4.556   1.357   4.307
 5351TIP3   OH216005   5.891   0.581   5.374
 5351TIP3    H116006   5.803   0.549   5.395
 5351TIP3    H216007   5.932   0.510   5.325
 5352TIP3   OH216008   5.556   0.714   4.736
 5352TIP3    H116009   5.482   0.664   4.701
 5352TIP3    H216010   5.563   0.685   4.827
 5353TIP3   OH216011   4.297   0.928   4.193
 5353TIP3    H116012   4.372   0.988   4.200
 5353TIP3    H216013   4.328   0.857   4.136
 5354TIP3   OH216014   4.197   0.300   4.348
 5354TIP3    H116015   4.232   0.384   4.320
 5354TIP3    H216016   4.104   0.317   4.363
 5355TIP3   OH216017   5.537   1.678   4.659
 5355TIP3    H116018   5.497   1.730   4.590
 5355TIP3    H216019   5.631   1.692   4.648
 5356TIP3   OH216020   4.127   1.188   4.587
 5356TIP3    H116021   4.082   1.222   4.664
 5356TIP3    H216022   4.084   1.229   4.513
 5357TIP3   OH216023   4.351   1.724   5.650
 5357TIP3    H116024   4.427   1.746   5.705
 5357TIP3    H216025   4.347   1.628   5.653
 5358TIP3   OH216026   4.838   1.656   5.658
 5358TIP3    H116027   4.907   1.597   5.688
 5358TIP3    H216028   4.777   1.599   5.611
 5359TIP3   OH216029   4.763   1.236   3.818
 5359TIP3    H116030   4.712   1.171   3.867
 5359TIP3    H216031   4.835   1.186   3.779
 5360TIP3   OH216032   5.424   1.580   5.436
 5360TIP3    H116033   5.413   1.511   5.501
 5360TIP3    H216034   5.505   1.624   5.460
 5361TIP3   OH216035   5.203   1.273   3.742
 5361TIP3    H116036   5.235   1.207   3.804
 5361TIP3    H216037   5.260   1.265   3.666
 5362TIP3   OH216038   4.424   1.100   5.831
 5362TIP3    H116039   4.445   1.007   5.843
 5362TIP3    H216040   4.335   1.099   5.795
 5363TIP3   OH216041   4.421   0.728   4.056
 5363TIP3    H116042   4.472   0.699   4.132
 5363TIP3    H216043   4.487   0.752   3.991
 5364TIP3   OH216044   5.071   1.237   5.611
 5364TIP3    H116045   5.003   1.250   5.545
 5364TIP3    H216046   5.081   1.142   5.617
 5365TIP3   OH216047   4.992   0.973   3.894
 5365TIP3    H116048   4.974   0.981   3.988
 5365TIP3    H216049   4.973   0.881   3.874
 5366TIP3   OH216050   5.518   1.212   5.215
 5366TIP3    H116051   5.595   1.251   5.173
 5366TIP3    H216052   5.454   1.282   5.217
 5367TIP3   OH216053   4.552   0.849   5.842
 5367TIP3    H116054   4.631   0.852   5.789
 5367TIP3    H216055   4.580   0.875   5.929
 5368TIP3   OH216056   4.595   0.668   4.272
 5368TIP3    H116057   4.586   0.636   4.361
 5368TIP3    H216058   4.643   0.599   4.226
 5369TIP3   OH216059   4.905   0.763   5.490
 5369TIP3    H116060   4.830   0.821   5.502
 5369TIP3    H216061   4.953   0.801   5.416
 5370TIP3   OH216062   4.727   0.488   4.110
 5370TIP3    H116063   4.697   0.498   4.019
 5370TIP3    H216064   4.823   0.494   4.104
 5371TIP3   OH216065   5.413   1.147   5.602
 5371TIP3    H116066   5.484   1.106   5.552
 5371TIP3    H216067   5.401   1.089   5.678
 5372TIP3   OH216068   5.544   0.773   3.757
 5372TIP3    H116069   5.515   0.727   3.678
 5372TIP3    H216070   5.514   0.863   3.745
 5373TIP3   OH216071   4.860   0.543   5.645
 5373TIP3    H116072   4.882   0.463   5.598
 5373TIP3    H216073   4.884   0.614   5.585
 5374TIP3   OH216074   5.056   0.855   5.280
 5374TIP3    H116075   5.136   0.854   5.229
 5374TIP3    H216076   5.001   0.922   5.238
 5375TIP3   OH216077   5.619   0.861   5.645
 5375TIP3    H116078   5.675   0.785   5.627
 5375TIP3    H216079   5.679   0.935   5.651
 5376TIP3   OH216080   5.670   1.107   5.419
 5376TIP3    H116081   5.604   1.144   5.360
 5376TIP3    H216082   5.753   1.136   5.383
 5377TIP3   OH216083   4.866   0.651   5.894
 5377TIP3    H116084   4.788   0.641   5.949
 5377TIP3    H216085   4.839   0.623   5.807
 5378TIP3   OH216086   5.160   0.692   5.679
 5378TIP3    H116087   5.205   0.669   5.760
 5378TIP3    H216088   5.115   0.612   5.653
 5379TIP3   OH216089   5.651   0.481   5.467
 5379TIP3    H116090   5.566   0.448   5.494
 5379TIP3    H216091   5.704   0.478   5.547
 5380TIP3   OH216092   4.565   1.529   4.039
 5380TIP3    H116093   4.654   1.508   4.010
 5380TIP3    H216094   4.524   1.570   3.963
 5381TIP3   OH216095   4.026   0.905   4.221
 5381TIP3    H116096   4.120   0.920   4.212
 5381TIP3    H216097   4.010   0.820   4.179
 5382TIP3   OH216098   3.931   1.492   4.676
 5382TIP3    H116099   3.866   1.438   4.629
 5382TIP3    H216100   3.975   1.431   4.734
 5383TIP3   OH216101   4.074   1.323   4.842
 5383TIP3    H116102   4.065   1.253   4.906
 5383TIP3    H216103   4.128   1.389   4.886
 5384TIP3   OH216104   5.807   1.733   4.655
 5384TIP3    H116105   5.828   1.752   4.747
 5384TIP3    H216106   5.860   1.796   4.606
 5385TIP3   OH216107   5.840   1.753   4.931
 5385TIP3    H116108   5.789   1.672   4.930
 5385TIP3    H216109   5.906   1.738   4.999
 5386TIP3   OH216110   5.684   1.000   4.092
 5386TIP3    H116111   5.744   1.071   4.065
 5386TIP3    H216112   5.725   0.963   4.170
 5387TIP3   OH216113   5.808   0.876   4.300
 5387TIP3    H116114   5.752   0.838   4.368
 5387TIP3    H216115   5.877   0.921   4.348
 5388TIP3   OH216116   5.894   1.223   4.708
 5388TIP3    H116117   5.880   1.182   4.622
 5388TIP3    H216118   5.899   1.317   4.688
 5389TIP3   OH216119   5.679   1.529   4.929
 5389TIP3    H116120   5.615   1.570   4.987
 5389TIP3    H216121   5.627   1.489   4.859
 5390TIP3   OH216122   5.746   0.782   3.938
 5390TIP3    H116123   5.677   0.773   3.874
 5390TIP3    H216124   5.721   0.858   3.991
 5391TIP3   OH216125   5.594   0.426   3.864
 5391TIP3    H116126   5.514   0.450   3.817
 5391TIP3    H216127   5.647   0.379   3.800
 5392TIP3   OH216128   5.652   0.733   4.475
 5392TIP3    H116129   5.663   0.641   4.451
 5392TIP3    H216130   5.630   0.731   4.568
 5393TIP3   OH216131   4.247   0.757   5.221
 5393TIP3    H116132   4.237   0.737   5.128
 5393TIP3    H216133   4.341   0.768   5.234
 5394TIP3   OH216134   5.916   1.174   5.332
 5394TIP3    H116135   5.986   1.110   5.336
 5394TIP3    H216136   5.959   1.257   5.313
 5395TIP3   OH216137   6.124   0.996   5.339
 5395TIP3    H116138   6.121   0.905   5.366
 5395TIP3    H216139   6.215   1.022   5.351
 5396TIP3   OH216140   5.628   0.478   4.324
 5396TIP3    H116141   5.653   0.386   4.333
 5396TIP3    H216142   5.667   0.505   4.241
 5397TIP3   OH216143   5.832   0.816   5.149
 5397TIP3    H116144   5.746   0.856   5.160
 5397TIP3    H216145   5.874   0.867   5.080
 5398TIP3   OH216146   4.506   0.491   5.907
 5398TIP3    H116147   4.558   0.472   5.830
 5398TIP3    H216148   4.495   0.406   5.950
 5399TIP3   OH216149   4.227   0.464   5.272
 5399TIP3    H116150   4.286   0.399   5.231
 5399TIP3    H216151   4.265   0.549   5.248
 5400TIP3   OH216152   5.375   1.642   4.294
 5400TIP3    H116153   5.430   1.632   4.217
 5400TIP3    H216154   5.416   1.713   4.344
 5401TIP3   OH216155   4.457   1.456   5.690
 5401TIP3    H116156   4.368   1.423   5.679
 5401TIP3    H216157   4.484   1.423   5.776
 5402TIP3   OH216158   4.670   1.487   5.229
 5402TIP3    H116159   4.624   1.566   5.198
 5402TIP3    H216160   4.755   1.491   5.186
 5403TIP3   OH216161   5.103   1.711   5.354
 5403TIP3    H116162   5.145   1.698   5.440
 5403TIP3    H216163   5.168   1.759   5.303
 5404TIP3   OH216164   5.286   1.868   5.225
 5404TIP3    H116165   5.353   1.813   5.185
 5404TIP3    H216166   5.335   1.926   5.283
 5405TIP3   OH216167   4.332   1.722   5.289
 5405TIP3    H116168   4.249   1.751   5.251
 5405TIP3    H216169   4.308   1.683   5.373
 5406TIP3   OH216170   4.567   1.726   5.137
 5406TIP3    H116171   4.482   1.731   5.182
 5406TIP3    H216172   4.546   1.744   5.046
 5407TIP3   OH216173   4.981   1.730   4.915
 5407TIP3    H116174   4.909   1.742   4.853
 5407TIP3    H216175   4.993   1.817   4.954
 5408TIP3   OH216176   5.246   1.664   4.950
 5408TIP3    H116177   5.154   1.684   4.935
 5408TIP3    H216178   5.294   1.735   4.907
 5409TIP3   OH216179   5.450   1.843   4.862
 5409TIP3    H116180   5.449   1.930   4.822
 5409TIP3    H216181   5.479   1.784   4.792
 5410TIP3   OH216182   4.251   1.496   4.993
 5410TIP3    H116183   4.275   1.462   5.079
 5410TIP3    H216184   4.321   1.467   4.935
 5411TIP3   OH216185   4.453   1.388   4.849
 5411TIP3    H116186   4.464   1.305   4.894
 5411TIP3    H216187   4.539   1.428   4.850
 5412TIP3   OH216188   4.720   1.476   4.873
 5412TIP3    H116189   4.737   1.383   4.857
 5412TIP3    H216190   4.774   1.497   4.949
 5413TIP3   OH216191   4.010   1.303   4.368
 5413TIP3    H116192   3.927   1.271   4.332
 5413TIP3    H216193   4.016   1.394   4.338
 5414TIP3   OH216194   4.820   1.457   3.965
 5414TIP3    H116195   4.903   1.485   3.928
 5414TIP3    H216196   4.790   1.387   3.907
 5415TIP3   OH216197   5.525   1.595   4.065
 5415TIP3    H116198   5.518   1.500   4.058
 5415TIP3    H216199   5.481   1.628   3.986
 5416TIP3   OH216200   4.121   1.293   4.024
 5416TIP3    H116201   4.122   1.299   4.119
 5416TIP3    H216202   4.202   1.247   4.002
 5417TIP3   OH216203   5.737   1.738   5.242
 5417TIP3    H116204   5.657   1.708   5.200
 5417TIP3    H216205   5.719   1.829   5.267
 5418TIP3   OH216206   7.000   1.094   4.021
 5418TIP3    H116207   6.986   1.188   4.018
 5418TIP3    H216208   6.927   1.058   3.970
 5419TIP3   OH216209   7.014   1.156   4.373
 5419TIP3    H116210   7.038   1.150   4.465
 5419TIP3    H216211   6.957   1.081   4.357
 5420TIP3   OH216212   6.322   1.016   4.775
 5420TIP3    H116213   6.354   0.953   4.840
 5420TIP3    H216214   6.359   1.100   4.803
 5421TIP3   OH216215   7.266   1.427   4.087
 5421TIP3    H116216   7.270   1.362   4.157
 5421TIP3    H216217   7.294   1.509   4.128
 5422TIP3   OH216218   6.302   1.401   4.445
 5422TIP3    H116219   6.284   1.309   4.467
 5422TIP3    H216220   6.397   1.406   4.438
 5423TIP3   OH216221   5.979   0.667   4.244
 5423TIP3    H116222   5.912   0.735   4.249
 5423TIP3    H216223   5.944   0.603   4.183
 5424TIP3   OH216224   6.042   0.979   4.411
 5424TIP3    H116225   6.100   0.903   4.400
 5424TIP3    H216226   6.098   1.054   4.396
 5425TIP3   OH216227   6.938   1.838   4.102
 5425TIP3    H116228   6.968   1.770   4.041
 5425TIP3    H216229   6.946   1.797   4.188
 5426TIP3   OH216230   6.818   1.357   4.422
 5426TIP3    H116231   6.865   1.288   4.374
 5426TIP3    H216232   6.887   1.408   4.463
 5427TIP3   OH216233   7.212   0.866   4.478
 5427TIP3    H116234   7.226   0.811   4.555
 5427TIP3    H216235   7.201   0.803   4.406
 5428TIP3   OH216236   6.492   0.524   4.436
 5428TIP3    H116237   6.467   0.565   4.353
 5428TIP3    H216238   6.486   0.430   4.420
 5429TIP3   OH216239   7.315   0.472   4.054
 5429TIP3    H116240   7.287   0.451   4.143
 5429TIP3    H216241   7.318   0.568   4.052
 5430TIP3   OH216242   6.208   0.761   4.485
 5430TIP3    H116243   6.294   0.751   4.525
 5430TIP3    H216244   6.211   0.705   4.407
 5431TIP3   OH216245   6.622   0.944   4.302
 5431TIP3    H116246   6.717   0.931   4.307
 5431TIP3    H216247   6.589   0.859   4.271
 5432TIP3   OH216248   6.911   1.328   3.878
 5432TIP3    H116249   6.873   1.299   3.795
 5432TIP3    H216250   6.858   1.404   3.903
 5433TIP3   OH216251   6.662   1.264   4.635
 5433TIP3    H116252   6.602   1.329   4.673
 5433TIP3    H216253   6.706   1.311   4.564
 5434TIP3   OH216254   6.408   0.678   4.645
 5434TIP3    H116255   6.481   0.725   4.685
 5434TIP3    H216256   6.449   0.617   4.584
 5435TIP3   OH216257   6.491   1.455   4.741
 5435TIP3    H116258   6.477   1.545   4.710
 5435TIP3    H216259   6.416   1.437   4.797
 5436TIP3   OH216260   5.869   1.182   3.992
 5436TIP3    H116261   5.838   1.201   3.904
 5436TIP3    H216262   5.892   1.268   4.028
 5437TIP3   OH216263   7.307   1.664   4.233
 5437TIP3    H116264   7.220   1.654   4.270
 5437TIP3    H216265   7.306   1.750   4.192
 5438TIP3   OH216266   7.030   1.676   3.892
 5438TIP3    H116267   7.086   1.600   3.874
 5438TIP3    H216268   7.082   1.751   3.866
 5439TIP3   OH216269   7.162   1.433   3.835
 5439TIP3    H116270   7.077   1.395   3.857
 5439TIP3    H216271   7.211   1.431   3.918
 5440TIP3   OH216272   7.606   1.558   4.554
 5440TIP3    H116273   7.582   1.478   4.507
 5440TIP3    H216274   7.567   1.629   4.503
 5441TIP3   OH216275   6.821   0.986   3.834
 5441TIP3    H116276   6.734   1.027   3.830
 5441TIP3    H216277   6.856   0.997   3.745
 5442TIP3   OH216278   6.796   0.785   3.543
 5442TIP3    H116279   6.867   0.833   3.587
 5442TIP3    H216280   6.839   0.740   3.471
 5443TIP3   OH216281   7.184   1.030   3.826
 5443TIP3    H116282   7.132   1.063   3.899
 5443TIP3    H216283   7.272   1.017   3.862
 5444TIP3   OH216284   7.486   1.093   4.736
 5444TIP3    H116285   7.500   1.172   4.786
 5444TIP3    H216286   7.391   1.084   4.730
 5445TIP3   OH216287   6.383   1.052   4.226
 5445TIP3    H116288   6.343   0.991   4.165
 5445TIP3    H216289   6.469   1.014   4.246
 5446TIP3   OH216290   6.563   1.453   4.354
 5446TIP3    H116291   6.543   1.440   4.261
 5446TIP3    H216292   6.652   1.421   4.365
 5447TIP3   OH216293   6.556   1.023   4.557
 5447TIP3    H116294   6.582   1.016   4.465
 5447TIP3    H216295   6.591   1.108   4.585
 5448TIP3   OH216296   7.065   1.652   4.357
 5448TIP3    H116297   7.053   1.733   4.407
 5448TIP3    H216298   7.057   1.582   4.422
 5449TIP3   OH216299   6.686   1.569   4.903
 5449TIP3    H116300   6.623   1.624   4.950
 5449TIP3    H216301   6.632   1.513   4.848
 5450TIP3   OH216302   7.019   0.937   3.617
 5450TIP3    H116303   7.071   0.996   3.671
 5450TIP3    H216304   7.044   0.958   3.527
 5451TIP3   OH216305   6.447   1.164   4.993
 5451TIP3    H116306   6.452   1.245   5.045
 5451TIP3    H216307   6.364   1.124   5.019
 5452TIP3   OH216308   6.776   1.568   3.901
 5452TIP3    H116309   6.858   1.617   3.904
 5452TIP3    H216310   6.716   1.627   3.854
 5453TIP3   OH216311   6.476   1.714   5.004
 5453TIP3    H116312   6.438   1.722   4.917
 5453TIP3    H216313   6.401   1.694   5.061
 5454TIP3   OH216314   6.269   0.884   4.041
 5454TIP3    H116315   6.200   0.935   3.998
 5454TIP3    H216316   6.254   0.794   4.012
 5455TIP3   OH216317   7.327   1.487   3.246
 5455TIP3    H116318   7.305   1.578   3.225
 5455TIP3    H216319   7.417   1.476   3.216
 5456TIP3   OH216320   6.084   1.258   4.930
 5456TIP3    H116321   6.020   1.232   4.864
 5456TIP3    H216322   6.115   1.175   4.967
 5457TIP3   OH216323   5.923   1.483   4.611
 5457TIP3    H116324   6.010   1.514   4.637
 5457TIP3    H216325   5.865   1.556   4.631
 5458TIP3   OH216326   7.721   1.873   4.645
 5458TIP3    H116327   7.695   1.787   4.613
 5458TIP3    H216328   7.645   1.904   4.694
 5459TIP3   OH216329   6.884   1.703   4.770
 5459TIP3    H116330   6.880   1.795   4.797
 5459TIP3    H216331   6.812   1.661   4.818
 5460TIP3   OH216332   6.665   1.801   3.729
 5460TIP3    H116333   6.621   1.782   3.646
 5460TIP3    H216334   6.627   1.883   3.758
 5461TIP3   OH216335   6.101   1.660   4.102
 5461TIP3    H116336   6.146   1.652   4.186
 5461TIP3    H216337   6.052   1.579   4.093
 5462TIP3   OH216338   6.868   1.741   3.355
 5462TIP3    H116339   6.917   1.667   3.321
 5462TIP3    H216340   6.902   1.754   3.444
 5463TIP3   OH216341   6.918   1.781   3.625
 5463TIP3    H116342   6.833   1.779   3.669
 5463TIP3    H216343   6.981   1.756   3.693
 5464TIP3   OH216344   6.272   1.462   4.912
 5464TIP3    H116345   6.314   1.462   4.998
 5464TIP3    H216346   6.205   1.395   4.917
 5465TIP3   OH216347   7.511   0.820   4.730
 5465TIP3    H116348   7.515   0.775   4.814
 5465TIP3    H216349   7.517   0.913   4.753
 5466TIP3   OH216350   7.105   0.962   3.355
 5466TIP3    H116351   7.059   0.943   3.273
 5466TIP3    H216352   7.162   1.036   3.334
 5467TIP3   OH216353   6.610   0.838   4.750
 5467TIP3    H116354   6.560   0.857   4.830
 5467TIP3    H216355   6.591   0.911   4.692
 5468TIP3   OH216356   6.468   0.726   4.228
 5468TIP3    H116357   6.378   0.696   4.236
 5468TIP3    H216358   6.486   0.722   4.134
 5469TIP3   OH216359   7.004   0.791   3.910
 5469TIP3    H116360   6.918   0.830   3.896
 5469TIP3    H216361   7.063   0.844   3.855
 5470TIP3   OH216362   7.144   1.123   5.041
 5470TIP3    H116363   7.100   1.054   5.091
 5470TIP3    H216364   7.237   1.106   5.055
 5471TIP3   OH216365   7.092   0.878   4.172
 5471TIP3    H116366   7.071   0.963   4.133
 5471TIP3    H216367   7.031   0.817   4.130
 5472TIP3   OH216368   6.445   0.857   4.966
 5472TIP3    H116369   6.454   0.916   5.041
 5472TIP3    H216370   6.431   0.771   5.006
 5473TIP3   OH216371   6.529   0.422   3.687
 5473TIP3    H116372   6.491   0.429   3.775
 5473TIP3    H216373   6.493   0.340   3.652
 5474TIP3   OH216374   6.052   0.457   4.055
 5474TIP3    H116375   6.049   0.491   3.966
 5474TIP3    H216376   5.972   0.404   4.063
 5475TIP3   OH216377   7.101   1.076   4.623
 5475TIP3    H116378   7.132   1.007   4.564
 5475TIP3    H216379   7.145   1.058   4.706
 5476TIP3   OH216380   6.788   0.428   4.327
 5476TIP3    H116381   6.733   0.398   4.400
 5476TIP3    H216382   6.851   0.357   4.314
 5477TIP3   OH216383   6.235   0.583   4.281
 5477TIP3    H116384   6.152   0.611   4.242
 5477TIP3    H216385   6.216   0.496   4.318
 5478TIP3   OH216386   6.499   0.706   3.953
 5478TIP3    H116387   6.584   0.680   3.918
 5478TIP3    H216388   6.436   0.668   3.893
 5479TIP3   OH216389   6.327   0.627   3.759
 5479TIP3    H116390   6.255   0.594   3.705
 5479TIP3    H216391   6.394   0.653   3.695
 5480TIP3   OH216392   7.483   2.246   4.743
 5480TIP3    H116393   7.473   2.261   4.649
 5480TIP3    H216394   7.565   2.290   4.765
 5481TIP3   OH216395   6.426   1.385   5.158
 5481TIP3    H116396   6.507   1.402   5.206
 5481TIP3    H216397   6.357   1.392   5.224
 5482TIP3   OH216398   6.890   0.906   4.354
 5482TIP3    H116399   6.979   0.890   4.324
 5482TIP3    H216400   6.890   0.880   4.446
 5483TIP3   OH216401   6.895   0.834   4.612
 5483TIP3    H116402   6.804   0.804   4.614
 5483TIP3    H216403   6.910   0.870   4.700
 5484TIP3   OH216404   6.578   1.120   3.795
 5484TIP3    H116405   6.506   1.060   3.776
 5484TIP3    H216406   6.559   1.153   3.883
 5485TIP3   OH216407   7.516   1.348   4.396
 5485TIP3    H116408   7.577   1.342   4.322
 5485TIP3    H216409   7.433   1.317   4.361
 5486TIP3   OH216410   7.183   0.514   3.754
 5486TIP3    H116411   7.099   0.512   3.709
 5486TIP3    H216412   7.219   0.601   3.734
 5487TIP3   OH216413   6.998   1.445   4.806
 5487TIP3    H116414   7.020   1.430   4.898
 5487TIP3    H216415   6.958   1.532   4.805
 5488TIP3   OH216416   7.244   0.771   3.688
 5488TIP3    H116417   7.315   0.823   3.651
 5488TIP3    H216418   7.164   0.810   3.653
 5489TIP3   OH216419   6.285   1.120   4.473
 5489TIP3    H116420   6.323   1.101   4.387
 5489TIP3    H216421   6.348   1.081   4.535
 5490TIP3   OH216422   6.757   1.263   3.652
 5490TIP3    H116423   6.718   1.350   3.643
 5490TIP3    H216424   6.692   1.211   3.698
 5491TIP3   OH216425   6.207   1.045   5.066
 5491TIP3    H116426   6.216   1.069   5.159
 5491TIP3    H216427   6.172   0.956   5.068
 5492TIP3   OH216428   6.893   1.227   5.106
 5492TIP3    H116429   6.830   1.158   5.086
 5492TIP3    H216430   6.976   1.194   5.071
 5493TIP3   OH216431   7.160   1.712   4.694
 5493TIP3    H116432   7.065   1.700   4.697
 5493TIP3    H216433   7.182   1.752   4.778
 5494TIP3   OH216434   7.258   1.585   3.507
 5494TIP3    H116435   7.221   1.516   3.561
 5494TIP3    H216436   7.279   1.542   3.424
 5495TIP3   OH216437   7.272   1.231   4.284
 5495TIP3    H116438   7.182   1.216   4.311
 5495TIP3    H216439   7.300   1.148   4.246
 5496TIP3   OH216440   6.420   1.461   4.110
 5496TIP3    H116441   6.413   1.535   4.050
 5496TIP3    H216442   6.334   1.456   4.152
 5497TIP3   OH216443   5.982   0.793   3.803
 5497TIP3    H116444   6.026   0.873   3.831
 5497TIP3    H216445   5.900   0.793   3.852
 5498TIP3   OH216446   6.507   1.213   4.036
 5498TIP3    H116447   6.489   1.305   4.055
 5498TIP3    H216448   6.462   1.164   4.104
 5499TIP3   OH216449   6.700   1.776   4.564
 5499TIP3    H116450   6.734   1.850   4.515
 5499TIP3    H216451   6.775   1.744   4.616
 5500TIP3   OH216452   6.334   1.678   3.957
 5500TIP3    H116453   6.247   1.684   3.996
 5500TIP3    H216454   6.370   1.767   3.963
 5501TIP3   OH216455   7.059   1.438   4.540
 5501TIP3    H116456   7.039   1.435   4.633
 5501TIP3    H216457   7.148   1.403   4.533
 5502TIP3   OH216458   7.042   1.325   3.421
 5502TIP3    H116459   7.079   1.292   3.502
 5502TIP3    H216460   6.952   1.292   3.419
 5503TIP3   OH216461   7.300   1.926   4.575
 5503TIP3    H116462   7.231   1.862   4.590
 5503TIP3    H216463   7.267   1.980   4.503
 5504TIP3   OH216464   7.297   1.756   3.198
 5504TIP3    H116465   7.326   1.819   3.132
 5504TIP3    H216466   7.248   1.809   3.261
 5505TIP3   OH216467   7.175   1.238   3.643
 5505TIP3    H116468   7.196   1.164   3.700
 5505TIP3    H216469   7.185   1.315   3.699
 5506TIP3   OH216470   6.128   1.657   4.727
 5506TIP3    H116471   6.180   1.597   4.780
 5506TIP3    H216472   6.137   1.742   4.770
 5507TIP3   OH216473   6.398   1.296   3.420
 5507TIP3    H116474   6.405   1.205   3.392
 5507TIP3    H216475   6.383   1.292   3.514
 5508TIP3   OH216476   6.345   1.301   3.690
 5508TIP3    H116477   6.418   1.271   3.745
 5508TIP3    H216478   6.345   1.396   3.700
 5509TIP3   OH216479   6.079   1.026   3.907
 5509TIP3    H116480   6.010   1.072   3.956
 5509TIP3    H216481   6.099   1.085   3.834
 5510TIP3   OH216482   6.616   1.492   3.628
 5510TIP3    H116483   6.530   1.514   3.665
 5510TIP3    H216484   6.636   1.564   3.569
 5511TIP3   OH216485   6.755   0.589   3.958
 5511TIP3    H116486   6.802   0.645   4.019
 5511TIP3    H216487   6.689   0.545   4.012
 5512TIP3   OH216488   6.984   0.879   4.867
 5512TIP3    H116489   6.952   0.964   4.897
 5512TIP3    H216490   7.078   0.890   4.857
 5513TIP3   OH216491   6.365   1.572   3.707
 5513TIP3    H116492   6.342   1.643   3.646
 5513TIP3    H216493   6.352   1.611   3.794
 5514TIP3   OH216494   7.357   0.966   4.215
 5514TIP3    H116495   7.276   0.917   4.197
 5514TIP3    H216496   7.365   0.962   4.311
 5515TIP3   OH216497   6.094   1.183   3.679
 5515TIP3    H116498   6.169   1.243   3.685
 5515TIP3    H216499   6.124   1.114   3.619
 5516TIP3   OH216500   6.014   0.524   3.789
 5516TIP3    H116501   6.005   0.618   3.804
 5516TIP3    H216502   6.031   0.517   3.695
 5517TIP3   OH216503   7.312   1.927   4.154
 5517TIP3    H116504   7.268   1.978   4.086
 5517TIP3    H216505   7.404   1.947   4.143
 5518TIP3   OH216506   5.924   1.442   4.082
 5518TIP3    H116507   5.882   1.480   4.159
 5518TIP3    H216508   5.880   1.485   4.008
 5519TIP3   OH216509   6.117   1.971   5.154
 5519TIP3    H116510   6.198   1.973   5.206
 5519TIP3    H216511   6.085   1.881   5.162
 5520TIP3   OH216512   6.593   1.892   5.179
 5520TIP3    H116513   6.683   1.862   5.189
 5520TIP3    H216514   6.554   1.832   5.115
 5521TIP3   OH216515   6.554   1.494   3.308
 5521TIP3    H116516   6.507   1.424   3.352
 5521TIP3    H216517   6.628   1.450   3.266
 5522TIP3   OH216518   7.213   1.823   4.939
 5522TIP3    H116519   7.223   1.755   5.006
 5522TIP3    H216520   7.284   1.885   4.957
 5523TIP3   OH216521   6.993   1.529   3.243
 5523TIP3    H116522   7.031   1.464   3.302
 5523TIP3    H216523   7.047   1.522   3.164
 5524TIP3   OH216524   6.213   0.980   3.542
 5524TIP3    H116525   6.264   0.957   3.620
 5524TIP3    H216526   6.280   0.998   3.475
 5525TIP3   OH216527   6.844   1.492   5.112
 5525TIP3    H116528   6.792   1.507   5.033
 5525TIP3    H216529   6.868   1.400   5.108
 5526TIP3   OH216530   6.785   1.229   3.380
 5526TIP3    H116531   6.762   1.237   3.473
 5526TIP3    H216532   6.767   1.138   3.359
 5527TIP3   OH216533   7.347   1.497   4.705
 5527TIP3    H116534   7.420   1.531   4.654
 5527TIP3    H216535   7.280   1.566   4.699
 5528TIP3   OH216536   6.372   1.109   5.306
 5528TIP3    H116537   6.462   1.076   5.304
 5528TIP3    H216538   6.373   1.176   5.374
 5529TIP3   OH216539   6.385   0.930   3.760
 5529TIP3    H116540   6.376   0.896   3.849
 5529TIP3    H216541   6.434   0.862   3.713
 5530TIP3   OH216542   6.702   1.049   4.990
 5530TIP3    H116543   6.617   1.093   4.985
 5530TIP3    H216544   6.745   1.072   4.908
 5531TIP3   OH216545   6.524   0.752   3.603
 5531TIP3    H116546   6.495   0.751   3.512
 5531TIP3    H216547   6.620   0.758   3.598
 5532TIP3   OH216548   7.205   1.387   5.119
 5532TIP3    H116549   7.190   1.315   5.057
 5532TIP3    H216550   7.211   1.343   5.204
 5533TIP3   OH216551   6.714   0.805   5.114
 5533TIP3    H116552   6.747   0.745   5.047
 5533TIP3    H216553   6.711   0.890   5.071
 5534TIP3   OH216554   6.853   1.115   4.770
 5534TIP3    H116555   6.934   1.122   4.719
 5534TIP3    H216556   6.792   1.174   4.725
 5535TIP3   OH216557   7.416   1.112   5.122
 5535TIP3    H116558   7.481   1.043   5.114
 5535TIP3    H216559   7.463   1.192   5.100
 5536TIP3   OH216560   7.491   1.338   4.875
 5536TIP3    H116561   7.421   1.384   4.829
 5536TIP3    H216562   7.572   1.381   4.847
 5537TIP3   OH216563   6.614   0.959   5.341
 5537TIP3    H116564   6.542   0.897   5.332
 5537TIP3    H216565   6.677   0.932   5.274
 5538TIP3   OH216566   6.977   0.955   5.183
 5538TIP3    H116567   6.962   0.945   5.277
 5538TIP3    H216568   6.968   0.867   5.147
 5539TIP3   OH216569   7.479   0.738   4.983
 5539TIP3    H116570   7.388   0.749   5.010
 5539TIP3    H216571   7.529   0.784   5.051
 5540TIP3   OH216572   6.354   1.780   3.525
 5540TIP3    H116573   6.445   1.764   3.497
 5540TIP3    H216574   6.313   1.824   3.450
 5541TIP3   OH216575   5.822   1.169   3.702
 5541TIP3    H116576   5.917   1.182   3.696
 5541TIP3    H216577   5.807   1.083   3.664
 5542TIP3   OH216578   5.729   1.748   4.165
 5542TIP3    H116579   5.665   1.693   4.118
 5542TIP3    H216580   5.772   1.687   4.225
 5543TIP3   OH216581   5.873   1.580   4.334
 5543TIP3    H116582   5.863   1.513   4.401
 5543TIP3    H216583   5.926   1.648   4.375
 5544TIP3   OH216584   7.569   2.003   4.132
 5544TIP3    H116585   7.628   2.021   4.204
 5544TIP3    H216586   7.623   2.013   4.053
 5545TIP3   OH216587   7.613   2.017   4.426
 5545TIP3    H116588   7.573   1.935   4.396
 5545TIP3    H216589   7.678   1.990   4.491
 5546TIP3   OH216590   7.683   1.655   5.021
 5546TIP3    H116591   7.608   1.687   5.072
 5546TIP3    H216592   7.735   1.733   5.004
 5547TIP3   OH216593   7.480   1.765   4.429
 5547TIP3    H116594   7.414   1.814   4.477
 5547TIP3    H216595   7.433   1.726   4.355
 5548TIP3   OH216596   7.428   0.988   3.944
 5548TIP3    H116597   7.510   1.038   3.937
 5548TIP3    H216598   7.413   0.981   4.039
 5549TIP3   OH216599   6.082   0.935   4.684
 5549TIP3    H116600   6.061   0.986   4.606
 5549TIP3    H216601   6.161   0.976   4.719
 5550TIP3   OH216602   6.397   0.796   5.310
 5550TIP3    H116603   6.399   0.757   5.398
 5550TIP3    H216604   6.306   0.785   5.282
 5551TIP3   OH216605   7.149   1.891   3.788
 5551TIP3    H116606   7.207   1.888   3.711
 5551TIP3    H216607   7.185   1.961   3.842
 5552TIP3   OH216608   6.268   1.667   5.185
 5552TIP3    H116609   6.173   1.666   5.173
 5552TIP3    H216610   6.281   1.654   5.279
 5553TIP3   OH216611   6.469   1.731   4.709
 5553TIP3    H116612   6.420   1.808   4.681
 5553TIP3    H216613   6.555   1.741   4.669
 5554TIP3   OH216614   6.874   1.970   4.845
 5554TIP3    H116615   6.911   1.966   4.933
 5554TIP3    H216616   6.936   2.022   4.795
 5555TIP3   OH216617   7.066   2.122   4.718
 5555TIP3    H116618   7.132   2.070   4.672
 5555TIP3    H216619   7.117   2.178   4.777
 5556TIP3   OH216620   6.134   1.979   4.757
 5556TIP3    H116621   6.042   1.996   4.736
 5556TIP3    H216622   6.154   2.041   4.828
 5557TIP3   OH216623   6.366   1.968   4.610
 5557TIP3    H116624   6.284   1.973   4.658
 5557TIP3    H216625   6.343   1.991   4.520
 5558TIP3   OH216626   6.774   1.987   4.401
 5558TIP3    H116627   6.702   1.999   4.339
 5558TIP3    H216628   6.786   2.074   4.441
 5559TIP3   OH216629   7.031   1.907   4.451
 5559TIP3    H116630   6.940   1.933   4.432
 5559TIP3    H216631   7.084   1.976   4.412
 5560TIP3   OH216632   7.225   2.083   4.361
 5560TIP3    H116633   7.210   2.170   4.324
 5560TIP3    H216634   7.256   2.030   4.288
 5561TIP3   OH216635   6.049   1.757   4.475
 5561TIP3    H116636   6.071   1.731   4.564
 5561TIP3    H216637   6.121   1.723   4.422
 5562TIP3   OH216638   6.250   1.642   4.332
 5562TIP3    H116639   6.260   1.558   4.377
 5562TIP3    H216640   6.336   1.683   4.339
 5563TIP3   OH216641   6.516   1.729   4.360
 5563TIP3    H116642   6.535   1.636   4.346
 5563TIP3    H216643   6.569   1.753   4.436
 5564TIP3   OH216644   5.808   1.557   3.862
 5564TIP3    H116645   5.725   1.523   3.830
 5564TIP3    H216646   5.812   1.646   3.828
 5565TIP3   OH216647   6.613   1.715   3.455
 5565TIP3    H116648   6.696   1.743   3.419
 5565TIP3    H216649   6.583   1.645   3.396
 5566TIP3   OH216650   7.304   1.851   3.561
 5566TIP3    H116651   7.297   1.756   3.548
 5566TIP3    H216652   7.264   1.889   3.483
 5567TIP3   OH216653   5.917   1.544   3.512
 5567TIP3    H116654   5.920   1.557   3.606
 5567TIP3    H216655   5.999   1.499   3.491
 5568TIP3   OH216656   7.497   1.973   4.759
 5568TIP3    H116657   7.426   1.949   4.699
 5568TIP3    H216658   7.495   2.069   4.762
 5569TIP3   OH216659   7.505   1.994   3.683
 5569TIP3    H116660   7.437   1.941   3.642
 5569TIP3    H216661   7.540   1.938   3.753
 5570TIP3   OH216662   1.259   2.158   5.176
 5570TIP3    H116663   1.223   2.245   5.157
 5570TIP3    H216664   1.192   2.097   5.147
 5571TIP3   OH216665   1.255   2.159   5.591
 5571TIP3    H116666   1.310   2.140   5.667
 5571TIP3    H216667   1.215   2.075   5.569
 5572TIP3   OH216668   0.564   2.048   5.919
 5572TIP3    H116669   0.589   1.980   5.982
 5572TIP3    H216670   0.645   2.066   5.870
 5573TIP3   OH216671   1.529   2.465   5.265
 5573TIP3    H116672   1.518   2.396   5.331
 5573TIP3    H216673   1.549   2.544   5.315
 5574TIP3   OH216674   0.547   2.410   5.627
 5574TIP3    H116675   0.534   2.315   5.627
 5574TIP3    H216676   0.642   2.421   5.625
 5575TIP3   OH216677   0.261   1.705   5.442
 5575TIP3    H116678   0.283   1.788   5.486
 5575TIP3    H216679   0.166   1.708   5.432
 5576TIP3   OH216680   0.339   1.925   5.599
 5576TIP3    H116681   0.384   1.865   5.658
 5576TIP3    H216682   0.397   2.002   5.593
 5577TIP3   OH216683   1.194   2.884   5.284
 5577TIP3    H116684   1.213   2.820   5.215
 5577TIP3    H216685   1.204   2.834   5.365
 5578TIP3   OH216686   1.068   2.380   5.599
 5578TIP3    H116687   1.112   2.300   5.570
 5578TIP3    H216688   1.138   2.437   5.629
 5579TIP3   OH216689   2.107   1.697   5.611
 5579TIP3    H116690   2.121   1.783   5.649
 5579TIP3    H216691   2.129   1.707   5.519
 5580TIP3   OH216692   1.471   1.865   5.632
 5580TIP3    H116693   1.509   1.781   5.658
 5580TIP3    H216694   1.438   1.849   5.543
 5581TIP3   OH216695   0.841   1.523   5.585
 5581TIP3    H116696   0.820   1.602   5.535
 5581TIP3    H216697   0.790   1.453   5.545
 5582TIP3   OH216698   1.527   1.620   5.239
 5582TIP3    H116699   1.592   1.610   5.309
 5582TIP3    H216700   1.575   1.659   5.166
 5583TIP3   OH216701   0.468   1.722   5.740
 5583TIP3    H116702   0.550   1.698   5.782
 5583TIP3    H216703   0.468   1.674   5.657
 5584TIP3   OH216704   0.884   1.944   5.535
 5584TIP3    H116705   0.978   1.928   5.539
 5584TIP3    H216706   0.846   1.862   5.503
 5585TIP3   OH216707   2.157   1.919   5.780
 5585TIP3    H116708   2.071   1.959   5.768
 5585TIP3    H216709   2.193   1.963   5.858
 5586TIP3   OH216710   0.809   1.517   6.039
 5586TIP3    H116711   0.766   1.555   5.962
 5586TIP3    H216712   0.751   1.536   6.112
 5587TIP3   OH216713   1.117   2.366   5.063
 5587TIP3    H116714   1.102   2.352   4.970
 5587TIP3    H216715   1.077   2.452   5.081
 5588TIP3   OH216716   0.905   2.308   5.810
 5588TIP3    H116717   0.849   2.378   5.844
 5588TIP3    H216718   0.953   2.348   5.738
 5589TIP3   OH216719   1.695   1.635   5.456
 5589TIP3    H116720   1.650   1.622   5.539
 5589TIP3    H216721   1.749   1.713   5.469
 5590TIP3   OH216722   0.723   1.639   5.811
 5590TIP3    H116723   0.778   1.715   5.830
 5590TIP3    H216724   0.766   1.597   5.736
 5591TIP3   OH216725   0.740   2.503   5.917
 5591TIP3    H116726   0.730   2.595   5.890
 5591TIP3    H216727   0.659   2.482   5.963
 5592TIP3   OH216728   0.143   2.182   5.159
 5592TIP3    H116729   0.053   2.201   5.132
 5592TIP3    H216730   0.177   2.266   5.189
 5593TIP3   OH216731   1.561   2.711   5.410
 5593TIP3    H116732   1.473   2.704   5.445
 5593TIP3    H216733   1.561   2.794   5.362
 5594TIP3   OH216734   1.904   1.584   5.771
 5594TIP3    H116735   1.819   1.612   5.738
 5594TIP3    H216736   1.967   1.615   5.706
 5595TIP3   OH216737   1.178   1.253   5.761
 5595TIP3    H116738   1.171   1.159   5.778
 5595TIP3    H216739   1.112   1.293   5.818
 5596TIP3   OH216740   1.269   2.736   5.060
 5596TIP3    H116741   1.321   2.656   5.049
 5596TIP3    H216742   1.329   2.806   5.033
 5597TIP3   OH216743   1.426   2.520   5.013
 5597TIP3    H116744   1.437   2.445   4.955
 5597TIP3    H216745   1.464   2.492   5.096
 5598TIP3   OH216746   1.798   2.603   5.748
 5598TIP3    H116747   1.782   2.527   5.692
 5598TIP3    H216748   1.784   2.679   5.690
 5599TIP3   OH216749   1.088   1.998   5.024
 5599TIP3    H116750   1.007   2.046   5.005
 5599TIP3    H216751   1.137   1.999   4.942
 5600TIP3   OH216752   1.055   1.807   4.710
 5600TIP3    H116753   1.116   1.861   4.760
 5600TIP3    H216754   1.110   1.738   4.672
 5601TIP3   OH216755   1.979   2.259   5.622
 5601TIP3    H116756   1.895   2.304   5.621
 5601TIP3    H216757   2.014   2.272   5.534
 5602TIP3   OH216758   1.442   2.098   4.980
 5602TIP3    H116759   1.391   2.121   5.057
 5602TIP3    H216760   1.524   2.063   5.014
 5603TIP3   OH216761   1.673   2.115   5.913
 5603TIP3    H116762   1.676   2.201   5.956
 5603TIP3    H216763   1.589   2.114   5.867
 5604TIP3   OH216764   0.677   2.068   5.387
 5604TIP3    H116765   0.642   2.007   5.322
 5604TIP3    H216766   0.754   2.023   5.423
 5605TIP3   OH216767   0.811   2.484   5.532
 5605TIP3    H116768   0.788   2.474   5.440
 5605TIP3    H216769   0.899   2.448   5.539
 5606TIP3   OH216770   0.783   2.069   5.757
 5606TIP3    H116771   0.822   2.034   5.677
 5606TIP3    H216772   0.829   2.152   5.772
 5607TIP3   OH216773   1.319   2.707   5.536
 5607TIP3    H116774   1.314   2.786   5.589
 5607TIP3    H216775   1.306   2.635   5.598
 5608TIP3   OH216776   0.942   2.603   6.081
 5608TIP3    H116777   0.881   2.661   6.128
 5608TIP3    H216778   0.886   2.550   6.025
 5609TIP3   OH216779   1.267   1.962   4.814
 5609TIP3    H116780   1.333   2.013   4.861
 5609TIP3    H216781   1.296   1.963   4.723
 5610TIP3   OH216782   0.695   2.145   6.193
 5610TIP3    H116783   0.704   2.234   6.226
 5610TIP3    H216784   0.602   2.136   6.172
 5611TIP3   OH216785   1.016   2.627   5.076
 5611TIP3    H116786   1.103   2.666   5.078
 5611TIP3    H216787   0.964   2.689   5.024
 5612TIP3   OH216788   0.735   2.767   6.164
 5612TIP3    H116789   0.719   2.779   6.070
 5612TIP3    H216790   0.648   2.752   6.202
 5613TIP3   OH216791   1.794   1.168   4.884
 5613TIP3    H116792   1.717   1.201   4.930
 5613TIP3    H216793   1.832   1.245   4.842
 5614TIP3   OH216794   0.556   1.908   5.187
 5614TIP3    H116795   0.477   1.950   5.153
 5614TIP3    H216796   0.534   1.815   5.191
 5615TIP3   OH216797   1.612   2.557   4.424
 5615TIP3    H116798   1.611   2.650   4.403
 5615TIP3    H216799   1.701   2.529   4.402
 5616TIP3   OH216800   0.350   2.280   6.092
 5616TIP3    H116801   0.294   2.247   6.021
 5616TIP3    H216802   0.369   2.202   6.145
 5617TIP3   OH216803   0.286   2.492   5.705
 5617TIP3    H116804   0.362   2.446   5.670
 5617TIP3    H216805   0.322   2.554   5.769
 5618TIP3   OH216806   2.030   2.959   5.821
 5618TIP3    H116807   2.034   2.864   5.834
 5618TIP3    H216808   1.950   2.986   5.867
 5619TIP3   OH216809   1.139   2.746   5.952
 5619TIP3    H116810   1.130   2.836   5.983
 5619TIP3    H216811   1.069   2.698   5.997
 5620TIP3   OH216812   0.918   2.837   4.903
 5620TIP3    H116813   0.874   2.821   4.820
 5620TIP3    H216814   0.887   2.923   4.930
 5621TIP3   OH216815   0.381   2.668   5.274
 5621TIP3    H116816   0.423   2.661   5.360
 5621TIP3    H216817   0.330   2.587   5.266
 5622TIP3   OH216818   1.117   2.775   4.526
 5622TIP3    H116819   1.167   2.701   4.492
 5622TIP3    H216820   1.153   2.790   4.614
 5623TIP3   OH216821   1.171   2.818   4.795
 5623TIP3    H116822   1.086   2.820   4.839
 5623TIP3    H216823   1.230   2.780   4.860
 5624TIP3   OH216824   1.919   2.081   6.086
 5624TIP3    H116825   1.831   2.086   6.051
 5624TIP3    H216826   1.939   1.988   6.090
 5625TIP3   OH216827   0.514   2.497   6.086
 5625TIP3    H116828   0.578   2.471   6.153
 5625TIP3    H216829   0.451   2.426   6.084
 5626TIP3   OH216830   0.977   1.316   5.943
 5626TIP3    H116831   0.914   1.248   5.918
 5626TIP3    H216832   0.923   1.387   5.977
 5627TIP3   OH216833   1.461   1.440   6.100
 5627TIP3    H116834   1.525   1.417   6.168
 5627TIP3    H216835   1.376   1.428   6.142
 5628TIP3   OH216836   1.681   1.854   5.996
 5628TIP3    H116837   1.639   1.853   6.082
 5628TIP3    H216838   1.670   1.943   5.964
 5629TIP3   OH216839   1.339   1.936   4.552
 5629TIP3    H116840   1.307   1.930   4.462
 5629TIP3    H216841   1.427   1.973   4.544
 5630TIP3   OH216842   1.051   1.376   4.866
 5630TIP3    H116843   1.019   1.378   4.957
 5630TIP3    H216844   1.020   1.293   4.831
 5631TIP3   OH216845   0.860   1.855   5.918
 5631TIP3    H116846   0.802   1.857   5.994
 5631TIP3    H216847   0.838   1.934   5.868
 5632TIP3   OH216848   0.742   1.730   5.438
 5632TIP3    H116849   0.654   1.704   5.464
 5632TIP3    H216850   0.751   1.697   5.349
 5633TIP3   OH216851   1.229   1.791   5.141
 5633TIP3    H116852   1.178   1.864   5.104
 5633TIP3    H216853   1.285   1.762   5.070
 5634TIP3   OH216854   1.409   2.081   6.203
 5634TIP3    H116855   1.382   2.019   6.271
 5634TIP3    H216856   1.503   2.094   6.218
 5635TIP3   OH216857   1.380   1.811   5.378
 5635TIP3    H116858   1.318   1.836   5.310
 5635TIP3    H216859   1.428   1.737   5.341
 5636TIP3   OH216860   0.660   1.868   6.112
 5636TIP3    H116861   0.673   1.939   6.176
 5636TIP3    H216862   0.570   1.839   6.127
 5637TIP3   OH216863   0.728   1.358   4.849
 5637TIP3    H116864   0.711   1.356   4.943
 5637TIP3    H216865   0.658   1.413   4.813
 5638TIP3   OH216866   1.417   2.067   5.802
 5638TIP3    H116867   1.443   2.001   5.738
 5638TIP3    H216868   1.375   2.018   5.872
 5639TIP3   OH216869   1.106   1.516   5.477
 5639TIP3    H116870   1.028   1.517   5.532
 5639TIP3    H216871   1.179   1.516   5.539
 5640TIP3   OH216872   0.509   1.595   5.496
 5640TIP3    H116873   0.422   1.612   5.460
 5640TIP3    H216874   0.532   1.508   5.465
 5641TIP3   OH216875   0.761   1.606   5.197
 5641TIP3    H116876   0.856   1.617   5.185
 5641TIP3    H216877   0.723   1.633   5.114
 5642TIP3   OH216878   1.552   1.606   5.691
 5642TIP3    H116879   1.530   1.625   5.783
 5642TIP3    H216880   1.481   1.549   5.661
 5643TIP3   OH216881   0.626   1.650   4.969
 5643TIP3    H116882   0.539   1.616   4.951
 5643TIP3    H216883   0.663   1.669   4.882
 5644TIP3   OH216884   1.745   3.306   5.909
 5644TIP3    H116885   1.741   3.321   5.815
 5644TIP3    H216886   1.824   3.352   5.937
 5645TIP3   OH216887   0.681   2.409   6.286
 5645TIP3    H116888   0.760   2.439   6.332
 5645TIP3    H216889   0.613   2.409   6.353
 5646TIP3   OH216890   1.153   1.885   5.579
 5646TIP3    H116891   1.222   1.841   5.530
 5646TIP3    H216892   1.153   1.842   5.665
 5647TIP3   OH216893   0.672   1.353   5.429
 5647TIP3    H116894   0.682   1.261   5.454
 5647TIP3    H216895   0.681   1.353   5.334
 5648TIP3   OH216896   1.120   1.788   5.845
 5648TIP3    H116897   1.036   1.826   5.870
 5648TIP3    H216898   1.185   1.837   5.896
 5649TIP3   OH216899   0.854   2.139   4.959
 5649TIP3    H116900   0.780   2.083   4.936
 5649TIP3    H216901   0.829   2.178   5.043
 5650TIP3   OH216902   1.744   2.396   5.573
 5650TIP3    H116903   1.781   2.443   5.499
 5650TIP3    H216904   1.665   2.354   5.538
 5651TIP3   OH216905   1.314   1.447   4.873
 5651TIP3    H116906   1.220   1.436   4.865
 5651TIP3    H216907   1.329   1.541   4.873
 5652TIP3   OH216908   1.267   2.480   5.988
 5652TIP3    H116909   1.323   2.466   6.064
 5652TIP3    H216910   1.235   2.569   5.997
 5653TIP3   OH216911   1.370   1.717   4.903
 5653TIP3    H116912   1.456   1.702   4.864
 5653TIP3    H216913   1.341   1.800   4.866
 5654TIP3   OH216914   0.535   2.131   5.612
 5654TIP3    H116915   0.578   2.116   5.528
 5654TIP3    H216916   0.599   2.102   5.677
 5655TIP3   OH216917   1.013   2.299   4.803
 5655TIP3    H116918   0.964   2.381   4.803
 5655TIP3    H216919   0.960   2.240   4.856
 5656TIP3   OH216920   0.411   2.057   6.242
 5656TIP3    H116921   0.453   2.064   6.328
 5656TIP3    H216922   0.341   1.992   6.254
 5657TIP3   OH216923   1.168   2.226   6.243
 5657TIP3    H116924   1.099   2.170   6.206
 5657TIP3    H216925   1.250   2.188   6.209
 5658TIP3   OH216926   1.404   2.772   5.865
 5658TIP3    H116927   1.309   2.756   5.871
 5658TIP3    H216928   1.426   2.816   5.947
 5659TIP3   OH216929   2.043   2.678   5.843
 5659TIP3    H116930   1.949   2.664   5.834
 5659TIP3    H216931   2.080   2.651   5.759
 5660TIP3   OH216932   1.529   2.623   4.685
 5660TIP3    H116933   1.508   2.548   4.741
 5660TIP3    H216934   1.552   2.584   4.601
 5661TIP3   OH216935   1.517   2.260   5.467
 5661TIP3    H116936   1.426   2.240   5.488
 5661TIP3    H216937   1.552   2.179   5.429
 5662TIP3   OH216938   0.686   2.496   5.281
 5662TIP3    H116939   0.696   2.570   5.222
 5662TIP3    H216940   0.591   2.487   5.291
 5663TIP3   OH216941   0.185   1.779   5.005
 5663TIP3    H116942   0.245   1.853   5.019
 5663TIP3    H216943   0.106   1.803   5.053
 5664TIP3   OH216944   0.752   2.246   5.185
 5664TIP3    H116945   0.745   2.336   5.217
 5664TIP3    H216946   0.727   2.191   5.260
 5665TIP3   OH216947   0.963   2.815   5.739
 5665TIP3    H116948   0.996   2.891   5.692
 5665TIP3    H216949   1.037   2.784   5.791
 5666TIP3   OH216950   0.605   2.718   5.124
 5666TIP3    H116951   0.520   2.716   5.168
 5666TIP3    H216952   0.634   2.809   5.132
 5667TIP3   OH216953   1.300   2.487   5.712
 5667TIP3    H116954   1.289   2.481   5.807
 5667TIP3    H216955   1.378   2.435   5.694
 5668TIP3   OH216956   1.301   2.363   4.599
 5668TIP3    H116957   1.354   2.349   4.678
 5668TIP3    H216958   1.217   2.323   4.619
 5669TIP3   OH216959   1.562   2.983   5.752
 5669TIP3    H116960   1.490   2.921   5.765
 5669TIP3    H216961   1.533   3.039   5.680
 5670TIP3   OH216962   1.621   2.832   4.392
 5670TIP3    H116963   1.668   2.906   4.353
 5670TIP3    H216964   1.542   2.871   4.429
 5671TIP3   OH216965   1.474   2.318   4.815
 5671TIP3    H116966   1.453   2.242   4.869
 5671TIP3    H216967   1.567   2.310   4.795
 5672TIP3   OH216968   0.382   2.663   5.898
 5672TIP3    H116969   0.438   2.616   5.961
 5672TIP3    H216970   0.310   2.697   5.951
 5673TIP3   OH216971   0.646   2.325   4.595
 5673TIP3    H116972   0.662   2.235   4.567
 5673TIP3    H216973   0.638   2.320   4.690
 5674TIP3   OH216974   0.602   2.338   4.869
 5674TIP3    H116975   0.671   2.313   4.930
 5674TIP3    H216976   0.599   2.434   4.874
 5675TIP3   OH216977   0.329   2.012   5.059
 5675TIP3    H116978   0.265   2.062   5.110
 5675TIP3    H216979   0.356   2.071   4.989
 5676TIP3   OH216980   1.483   1.667   5.948
 5676TIP3    H116981   1.562   1.715   5.975
 5676TIP3    H216982   1.479   1.592   6.008
 5677TIP3   OH216983   1.378   1.406   5.140
 5677TIP3    H116984   1.357   1.423   5.048
 5677TIP3    H216985   1.422   1.486   5.169
 5678TIP3   OH216986   0.864   2.524   4.803
 5678TIP3    H116987   0.778   2.549   4.839
 5678TIP3    H216988   0.891   2.600   4.751
 5679TIP3   OH216989   1.039   1.610   5.225
 5679TIP3    H116990   1.103   1.674   5.194
 5679TIP3    H216991   1.064   1.592   5.315
 5680TIP3   OH216992   1.324   1.898   5.998
 5680TIP3    H116993   1.354   1.946   6.075
 5680TIP3    H216994   1.376   1.818   5.997
 5681TIP3   OH216995   1.194   1.304   5.316
 5681TIP3    H116996   1.171   1.382   5.366
 5681TIP3    H216997   1.262   1.333   5.256
 5682TIP3   OH216998   0.612   2.612   4.874
 5682TIP3    H116999   0.589   2.684   4.815
 5682TIP3    H217000   0.608   2.651   4.961
 5683TIP3   OH217001   0.707   1.339   5.138
 5683TIP3    H117002   0.704   1.434   5.152
 5683TIP3    H217003   0.800   1.318   5.134
 5684TIP3   OH217004   1.947   1.808   5.997
 5684TIP3    H117005   1.852   1.808   6.005
 5684TIP3    H217006   1.964   1.788   5.905
 5685TIP3   OH217007   1.607   2.001   5.381
 5685TIP3    H117008   1.531   1.943   5.386
 5685TIP3    H217009   1.674   1.958   5.434
 5686TIP3   OH217010   0.357   2.208   4.856
 5686TIP3    H117011   0.430   2.268   4.873
 5686TIP3    H217012   0.391   2.146   4.792
 5687TIP3   OH217013   0.360   1.563   4.976
 5687TIP3    H117014   0.292   1.624   5.003
 5687TIP3    H217015   0.313   1.483   4.952
 5688TIP3   OH217016   1.587   2.977   5.324
 5688TIP3    H117017   1.548   3.029   5.254
 5688TIP3    H217018   1.681   2.986   5.311
 5689TIP3   OH217019   0.215   2.448   5.239
 5689TIP3    H117020   0.141   2.456   5.300
 5689TIP3    H217021   0.180   2.479   5.156
 5690TIP3   OH217022   0.425   2.992   6.282
 5690TIP3    H117023   0.480   3.026   6.353
 5690TIP3    H217024   0.442   2.897   6.282
 5691TIP3   OH217025   0.843   2.922   6.363
 5691TIP3    H117026   0.935   2.895   6.369
 5691TIP3    H217027   0.808   2.872   6.290
 5692TIP3   OH217028   0.805   2.527   4.490
 5692TIP3    H117029   0.757   2.456   4.534
 5692TIP3    H217030   0.880   2.484   4.450
 5693TIP3   OH217031   1.455   2.887   6.107
 5693TIP3    H117032   1.464   2.809   6.162
 5693TIP3    H217033   1.533   2.939   6.125
 5694TIP3   OH217034   1.246   2.561   4.413
 5694TIP3    H117035   1.279   2.499   4.478
 5694TIP3    H217036   1.306   2.554   4.339
 5695TIP3   OH217037   3.087   6.162  -0.001
 5695TIP3    H117038   3.111   6.097   0.065
 5695TIP3    H217039   2.998   6.140  -0.027
 5696TIP3   OH217040   0.476   2.014   4.704
 5696TIP3    H117041   0.526   1.989   4.782
 5696TIP3    H217042   0.543   2.029   4.637
 5697TIP3   OH217043   1.119   2.504   6.266
 5697TIP3    H117044   1.072   2.523   6.185
 5697TIP3    H217045   1.150   2.414   6.256
 5698TIP3   OH217046   1.017   2.243   4.534
 5698TIP3    H117047   1.008   2.253   4.629
 5698TIP3    H217048   1.008   2.149   4.519
 5699TIP3   OH217049   1.570   2.549   5.892
 5699TIP3    H117050   1.648   2.578   5.845
 5699TIP3    H217051   1.506   2.620   5.878
 5700TIP3   OH217052   3.195   5.794   0.015
 5700TIP3    H117053   3.258   5.723   0.007
 5700TIP3    H217054   3.246   5.869   0.046
 5701TIP3   OH217055   0.647   1.959   4.918
 5701TIP3    H117056   0.629   1.929   5.007
 5701TIP3    H217057   0.695   1.886   4.877
 5702TIP3   OH217058   0.955   2.047   6.163
 5702TIP3    H117059   0.867   2.083   6.170
 5702TIP3    H217060   0.986   2.075   6.077
 5703TIP3   OH217061   0.781   1.771   4.765
 5703TIP3    H117062   0.753   1.775   4.673
 5703TIP3    H217063   0.877   1.777   4.761
 5704TIP3   OH217064   1.450   2.413   6.231
 5704TIP3    H117065   1.524   2.377   6.182
 5704TIP3    H217066   1.438   2.353   6.304
 5705TIP3   OH217067   1.557   2.073   4.448
 5705TIP3    H117068   1.550   2.026   4.364
 5705TIP3    H217069   1.533   2.163   4.428
 5706TIP3   OH217070   1.098   1.823   6.235
 5706TIP3    H117071   1.093   1.745   6.181
 5706TIP3    H217072   1.049   1.889   6.186
 5707TIP3   OH217073   1.070   1.612   6.060
 5707TIP3    H117074   1.094   1.651   5.976
 5707TIP3    H217075   0.979   1.587   6.050
 5708TIP3   OH217076   1.080   2.145   5.944
 5708TIP3    H117077   1.168   2.174   5.923
 5708TIP3    H217078   1.023   2.206   5.897
 5709TIP3   OH217079   1.668   2.122   6.309
 5709TIP3    H117080   1.714   2.056   6.361
 5709TIP3    H217081   1.729   2.195   6.304
 5710TIP3   OH217082   1.700   2.362   6.035
 5710TIP3    H117083   1.645   2.426   5.990
 5710TIP3    H217084   1.789   2.381   6.005
 5711TIP3   OH217085   0.978   1.957   6.452
 5711TIP3    H117086   0.885   1.939   6.438
 5711TIP3    H217087   1.017   1.951   6.365
 5712TIP3   OH217088   1.188   1.380   6.147
 5712TIP3    H117089   1.156   1.468   6.129
 5712TIP3    H217090   1.134   1.323   6.092
 5713TIP3   OH217091   1.324   1.886   6.372
 5713TIP3    H117092   1.327   1.822   6.443
 5713TIP3    H217093   1.245   1.864   6.324
 5714TIP3   OH217094   1.554   1.805   6.226
 5714TIP3    H117095   1.486   1.816   6.293
 5714TIP3    H217096   1.631   1.776   6.274
 5715TIP3   OH217097   1.810   1.740   6.330
 5715TIP3    H117098   1.817   1.654   6.371
 5715TIP3    H217099   1.798   1.801   6.402
 5716TIP3   OH217100   3.359   5.560   0.023
 5716TIP3    H117101   3.315   5.479  -0.002
 5716TIP3    H217102   3.413   5.536   0.098
 5717TIP3   OH217103   1.284   1.341   6.400
 5717TIP3    H117104   1.342   1.266   6.398
 5717TIP3    H217105   1.245   1.345   6.313
 5718TIP3   OH217106   3.993   5.328  -0.003
 5718TIP3    H117107   3.995   5.233  -0.015
 5718TIP3    H217108   3.902   5.348   0.018
 5719TIP3   OH217109   0.607   2.826   4.696
 5719TIP3    H117110   0.698   2.804   4.677
 5719TIP3    H217111   0.575   2.868   4.616
 5720TIP3   OH217112   0.082   2.218   4.800
 5720TIP3    H117113   0.168   2.237   4.836
 5720TIP3    H217114   0.075   2.122   4.805
 5721TIP3   OH217115   0.004   2.734   5.292
 5721TIP3    H117116  -0.052   2.796   5.339
 5721TIP3    H217117   0.057   2.693   5.361
 5722TIP3   OH217118   0.144   2.666   5.516
 5722TIP3    H117119   0.154   2.576   5.547
 5722TIP3    H217120   0.208   2.716   5.567
 5723TIP3   OH217121   1.859   3.022   5.316
 5723TIP3    H117122   1.882   3.056   5.402
 5723TIP3    H217123   1.916   3.069   5.255
 5724TIP3   OH217124   1.876   3.061   5.598
 5724TIP3    H117125   1.829   2.978   5.589
 5724TIP3    H217126   1.946   3.043   5.660
 5725TIP3   OH217127   1.931   2.757   6.176
 5725TIP3    H117128   1.854   2.770   6.231
 5725TIP3    H217129   1.976   2.842   6.177
 5726TIP3   OH217130   1.744   2.282   4.779
 5726TIP3    H117131   1.809   2.346   4.747
 5726TIP3    H217132   1.789   2.234   4.848
 5727TIP3   OH217133   1.870   2.132   4.973
 5727TIP3    H117134   1.802   2.090   5.025
 5727TIP3    H217135   1.935   2.162   5.038
 5728TIP3   OH217136   1.928   2.532   5.412
 5728TIP3    H117137   1.979   2.462   5.370
 5728TIP3    H217138   1.930   2.604   5.350
 5729TIP3   OH217139   1.733   2.823   5.598
 5729TIP3    H117140   1.666   2.868   5.650
 5729TIP3    H217141   1.684   2.782   5.527
 5730TIP3   OH217142   1.798   2.090   4.581
 5730TIP3    H117143   1.715   2.066   4.541
 5730TIP3    H217144   1.774   2.146   4.655
 5731TIP3   OH217145   1.670   1.993   5.108
 5731TIP3    H117146   1.684   1.900   5.092
 5731TIP3    H217147   1.654   1.998   5.203
 5732TIP3   OH217148   0.294   2.056   5.895
 5732TIP3    H117149   0.277   2.052   5.801
 5732TIP3    H217150   0.389   2.063   5.902
 5733TIP3   OH217151   1.962   2.414   5.965
 5733TIP3    H117152   2.025   2.344   5.952
 5733TIP3    H217153   1.989   2.482   5.903
 5734TIP3   OH217154   2.134   2.200   5.966
 5734TIP3    H117155   2.060   2.163   6.014
 5734TIP3    H217156   2.209   2.147   5.991
 5735TIP3   OH217157   1.701   1.720   5.049
 5735TIP3    H117158   1.752   1.639   5.058
 5735TIP3    H217159   1.679   1.724   4.956
 5736TIP3   OH217160   1.822   1.876   5.523
 5736TIP3    H117161   1.902   1.893   5.473
 5736TIP3    H217162   1.836   1.919   5.607
 5737TIP3   OH217163   1.897   2.027   5.749
 5737TIP3    H117164   1.825   2.055   5.805
 5737TIP3    H217165   1.927   2.108   5.707
 5738TIP3   OH217166   2.346   1.631   6.267
 5738TIP3    H117167   2.416   1.574   6.233
 5738TIP3    H217168   2.316   1.679   6.190
 5739TIP3   OH217169   1.802   1.457   5.071
 5739TIP3    H117170   1.839   1.431   5.155
 5739TIP3    H217171   1.731   1.395   5.055
 5740TIP3   OH217172   0.365   1.798   5.994
 5740TIP3    H117173   0.384   1.762   5.907
 5740TIP3    H217174   0.317   1.879   5.976
 5741TIP3   OH217175   2.212   1.752   6.067
 5741TIP3    H117176   2.133   1.795   6.100
 5741TIP3    H217177   2.180   1.679   6.016
 5742TIP3   OH217178   1.925   1.358   4.738
 5742TIP3    H117179   1.908   1.326   4.650
 5742TIP3    H217180   1.917   1.453   4.731
 5743TIP3   OH217181   1.411   2.943   4.959
 5743TIP3    H117182   1.465   2.929   4.881
 5743TIP3    H217183   1.459   3.008   5.011
 5744TIP3   OH217184   0.494   2.725   6.298
 5744TIP3    H117185   0.465   2.639   6.269
 5744TIP3    H217186   0.500   2.717   6.394
 5745TIP3   OH217187   0.734   2.777   5.885
 5745TIP3    H117188   0.683   2.850   5.849
 5745TIP3    H217189   0.820   2.784   5.843
 5746TIP3   OH217190   1.125   3.011   6.035
 5746TIP3    H117191   1.164   3.008   6.123
 5746TIP3    H217192   1.186   3.063   5.983
 5747TIP3   OH217193   1.315   3.162   5.903
 5747TIP3    H117194   1.377   3.107   5.855
 5747TIP3    H217195   1.371   3.222   5.954
 5748TIP3   OH217196   2.111   1.510   5.969
 5748TIP3    H117197   2.030   1.517   5.919
 5748TIP3    H217198   2.137   1.418   5.960
 5749TIP3   OH217199   0.398   2.998   5.849
 5749TIP3    H117200   0.319   3.015   5.798
 5749TIP3    H217201   0.372   3.012   5.940
 5750TIP3   OH217202   0.651   3.004   5.755
 5750TIP3    H117203   0.562   3.007   5.790
 5750TIP3    H217204   0.642   3.029   5.663
 5751TIP3   OH217205   1.040   3.028   5.582
 5751TIP3    H117206   0.981   3.036   5.508
 5751TIP3    H217207   1.047   3.117   5.617
 5752TIP3   OH217208   1.301   2.967   5.630
 5752TIP3    H117209   1.209   2.985   5.612
 5752TIP3    H217210   1.349   3.033   5.581
 5753TIP3   OH217211   1.498   3.140   5.527
 5753TIP3    H117212   1.496   3.227   5.486
 5753TIP3    H217213   1.527   3.081   5.457
 5754TIP3   OH217214   0.347   2.796   5.649
 5754TIP3    H117215   0.368   2.781   5.741
 5754TIP3    H217216   0.412   2.745   5.601
 5755TIP3   OH217217   0.527   2.657   5.505
 5755TIP3    H117218   0.540   2.572   5.547
 5755TIP3    H217219   0.614   2.697   5.507
 5756TIP3   OH217220   0.787   2.765   5.528
 5756TIP3    H117221   0.809   2.672   5.518
 5756TIP3    H217222   0.835   2.792   5.606
 5757TIP3   OH217223   1.333   1.442   5.622
 5757TIP3    H117224   1.287   1.372   5.668
 5757TIP3    H217225   1.399   1.396   5.568
 5758TIP3   OH217226   1.821   1.333   5.528
 5758TIP3    H117227   1.865   1.377   5.455
 5758TIP3    H217228   1.730   1.361   5.522
 5759TIP3   OH217229   1.950   1.394   5.296
 5759TIP3    H117230   2.019   1.340   5.257
 5759TIP3    H217231   1.981   1.484   5.287
 5760TIP3   OH217232   1.040   1.181   5.519
 5760TIP3    H117233   1.086   1.219   5.444
 5760TIP3    H217234   1.088   1.213   5.595
 5761TIP3   OH217235   1.535   1.313   5.489
 5761TIP3    H117236   1.546   1.287   5.398
 5761TIP3    H217237   1.540   1.231   5.538
 5762TIP3   OH217238   1.604   1.259   5.064
 5762TIP3    H117239   1.524   1.309   5.079
 5762TIP3    H217240   1.585   1.172   5.100
 5763TIP3   OH217241   0.126   2.543   4.996
 5763TIP3    H117242   0.032   2.558   5.005
 5763TIP3    H217243   0.163   2.630   4.982
 5764TIP3   OH217244   0.502   1.196   4.996
 5764TIP3    H117245   0.546   1.124   4.952
 5764TIP3    H217246   0.567   1.232   5.056
 5765TIP3   OH217247   0.981   1.359   5.134
 5765TIP3    H117248   1.044   1.306   5.184
 5765TIP3    H217249   1.000   1.449   5.160
 5766TIP3   OH217250   0.864   2.751   4.633
 5766TIP3    H117251   0.947   2.778   4.594
 5766TIP3    H217252   0.833   2.680   4.578
 5767TIP3   OH217253   1.560   2.891   4.729
 5767TIP3    H117254   1.553   2.796   4.720
 5767TIP3    H217255   1.521   2.926   4.649
 5768TIP3   OH217256   3.649   5.116   0.069
 5768TIP3    H117257   3.719   5.126   0.004
 5768TIP3    H217258   3.693   5.083   0.147
 5769TIP3   OH217259   0.175   2.555   4.712
 5769TIP3    H117260   0.173   2.539   4.806
 5769TIP3    H217261   0.262   2.525   4.684
 5770TIP3   OH217262   1.871   1.478   6.402
 5770TIP3    H117263   1.899   1.463   6.492
 5770TIP3    H217264   1.952   1.484   6.352
 5771TIP3   OH217265   1.781   3.032   5.918
 5771TIP3    H117266   1.708   3.003   5.863
 5771TIP3    H217267   1.771   3.127   5.923
 5772TIP3   OH217268   3.062   2.421   4.657
 5772TIP3    H117269   3.031   2.507   4.630
 5772TIP3    H217270   2.991   2.361   4.632
 5773TIP3   OH217271   3.061   2.409   5.080
 5773TIP3    H117272   3.111   2.392   5.160
 5773TIP3    H217273   3.014   2.328   5.063
 5774TIP3   OH217274   2.356   2.274   5.426
 5774TIP3    H117275   2.395   2.221   5.496
 5774TIP3    H217276   2.430   2.298   5.370
 5775TIP3   OH217277   3.327   2.706   4.762
 5775TIP3    H117278   3.311   2.634   4.822
 5775TIP3    H217279   3.350   2.780   4.818
 5776TIP3   OH217280   2.344   2.701   5.119
 5776TIP3    H117281   2.326   2.607   5.122
 5776TIP3    H217282   2.439   2.707   5.108
 5777TIP3   OH217283   2.026   1.898   4.915
 5777TIP3    H117284   1.973   1.978   4.920
 5777TIP3    H217285   1.964   1.830   4.888
 5778TIP3   OH217286   2.098   2.207   5.124
 5778TIP3    H117287   2.149   2.128   5.146
 5778TIP3    H217288   2.162   2.265   5.083
 5779TIP3   OH217289   2.978   3.176   4.758
 5779TIP3    H117290   3.006   3.111   4.694
 5779TIP3    H217291   2.933   3.125   4.825
 5780TIP3   OH217292   2.866   2.631   5.086
 5780TIP3    H117293   2.911   2.552   5.055
 5780TIP3    H217294   2.935   2.685   5.123
 5781TIP3   OH217295   3.896   1.955   5.101
 5781TIP3    H117296   3.911   2.040   5.143
 5781TIP3    H217297   3.913   1.971   5.008
 5782TIP3   OH217298   3.271   2.120   5.121
 5782TIP3    H117299   3.303   2.035   5.149
 5782TIP3    H217300   3.233   2.105   5.035
 5783TIP3   OH217301   2.629   1.778   5.076
 5783TIP3    H117302   2.605   1.852   5.019
 5783TIP3    H217303   2.574   1.706   5.046
 5784TIP3   OH217304   3.324   1.881   4.717
 5784TIP3    H117305   3.388   1.875   4.788
 5784TIP3    H217306   3.374   1.916   4.643
 5785TIP3   OH217307   2.248   1.989   5.211
 5785TIP3    H117308   2.332   1.972   5.252
 5785TIP3    H217309   2.250   1.939   5.129
 5786TIP3   OH217310   2.668   2.193   5.027
 5786TIP3    H117311   2.763   2.177   5.032
 5786TIP3    H217312   2.633   2.111   4.992
 5787TIP3   OH217313   3.951   2.178   5.264
 5787TIP3    H117314   3.861   2.210   5.260
 5787TIP3    H217315   3.984   2.212   5.347
 5788TIP3   OH217316   2.605   1.785   5.532
 5788TIP3    H117317   2.556   1.820   5.457
 5788TIP3    H217318   2.549   1.802   5.608
 5789TIP3   OH217319   2.959   2.638   4.518
 5789TIP3    H117320   2.916   2.608   4.438
 5789TIP3    H217321   2.908   2.714   4.545
 5790TIP3   OH217322   2.699   2.558   5.296
 5790TIP3    H117323   2.647   2.630   5.331
 5790TIP3    H217324   2.747   2.597   5.223
 5791TIP3   OH217325   3.481   1.902   4.940
 5791TIP3    H117326   3.438   1.880   5.022
 5791TIP3    H217327   3.536   1.977   4.961
 5792TIP3   OH217328   2.500   1.889   5.298
 5792TIP3    H117329   2.554   1.965   5.320
 5792TIP3    H217330   2.546   1.847   5.225
 5793TIP3   OH217331   2.548   2.762   5.405
 5793TIP3    H117332   2.533   2.852   5.375
 5793TIP3    H217333   2.471   2.741   5.457
 5794TIP3   OH217334   1.924   2.462   4.658
 5794TIP3    H117335   1.888   2.482   4.572
 5794TIP3    H217336   1.947   2.548   4.694
 5795TIP3   OH217337   3.338   2.984   4.861
 5795TIP3    H117338   3.266   2.972   4.923
 5795TIP3    H217339   3.297   2.978   4.774
 5796TIP3   OH217340   3.694   1.846   5.268
 5796TIP3    H117341   3.609   1.865   5.229
 5796TIP3    H217342   3.758   1.872   5.202
 5797TIP3   OH217343   2.950   1.475   5.266
 5797TIP3    H117344   2.940   1.383   5.290
 5797TIP3    H217345   2.873   1.518   5.304
 5798TIP3   OH217346   3.076   3.009   4.555
 5798TIP3    H117347   3.124   2.927   4.542
 5798TIP3    H217348   3.139   3.077   4.531
 5799TIP3   OH217349   3.211   2.776   4.520
 5799TIP3    H117350   3.144   2.710   4.502
 5799TIP3    H217351   3.259   2.741   4.595
 5800TIP3   OH217352   3.589   2.873   5.223
 5800TIP3    H117353   3.573   2.793   5.173
 5800TIP3    H217354   3.575   2.944   5.160
 5801TIP3   OH217355   2.887   2.259   4.511
 5801TIP3    H117356   2.803   2.301   4.493
 5801TIP3    H217357   2.931   2.257   4.426
 5802TIP3   OH217358   2.852   2.066   4.197
 5802TIP3    H117359   2.918   2.115   4.247
 5802TIP3    H217360   2.902   1.999   4.151
 5803TIP3   OH217361   3.778   2.517   5.106
 5803TIP3    H117362   3.694   2.561   5.108
 5803TIP3    H217363   3.811   2.531   5.017
 5804TIP3   OH217364   3.245   2.344   4.469
 5804TIP3    H117365   3.190   2.374   4.542
 5804TIP3    H217366   3.328   2.320   4.509
 5805TIP3   OH217367   3.475   2.375   5.415
 5805TIP3    H117368   3.473   2.460   5.460
 5805TIP3    H217369   3.393   2.372   5.366
 5806TIP3   OH217370   2.469   2.325   4.876
 5806TIP3    H117371   2.433   2.264   4.812
 5806TIP3    H217372   2.542   2.277   4.916
 5807TIP3   OH217373   2.607   2.739   5.019
 5807TIP3    H117374   2.583   2.728   4.927
 5807TIP3    H217375   2.696   2.703   5.025
 5808TIP3   OH217376   2.569   2.321   5.251
 5808TIP3    H117377   2.607   2.286   5.171
 5808TIP3    H217378   2.617   2.403   5.266
 5809TIP3   OH217379   3.147   2.953   5.047
 5809TIP3    H117380   3.118   3.034   5.089
 5809TIP3    H217381   3.120   2.884   5.108
 5810TIP3   OH217382   2.749   2.864   5.571
 5810TIP3    H117383   2.688   2.919   5.619
 5810TIP3    H217384   2.694   2.812   5.512
 5811TIP3   OH217385   3.074   2.206   4.301
 5811TIP3    H117386   3.134   2.265   4.349
 5811TIP3    H217387   3.104   2.211   4.210
 5812TIP3   OH217388   2.496   2.402   5.723
 5812TIP3    H117389   2.502   2.496   5.738
 5812TIP3    H217390   2.403   2.384   5.712
 5813TIP3   OH217391   2.830   2.882   4.559
 5813TIP3    H117392   2.910   2.933   4.563
 5813TIP3    H217393   2.768   2.936   4.510
 5814TIP3   OH217394   2.533   3.013   5.658
 5814TIP3    H117395   2.510   3.025   5.566
 5814TIP3    H217396   2.449   3.001   5.702
 5815TIP3   OH217397   3.586   1.435   4.362
 5815TIP3    H117398   3.509   1.456   4.415
 5815TIP3    H217399   3.596   1.511   4.305
 5816TIP3   OH217400   2.346   2.167   4.676
 5816TIP3    H117401   2.271   2.218   4.645
 5816TIP3    H217402   2.310   2.080   4.692
 5817TIP3   OH217403   3.405   2.829   3.906
 5817TIP3    H117404   3.400   2.923   3.891
 5817TIP3    H217405   3.495   2.806   3.880
 5818TIP3   OH217406   2.128   2.574   5.607
 5818TIP3    H117407   2.059   2.557   5.543
 5818TIP3    H217408   2.163   2.488   5.629
 5819TIP3   OH217409   1.975   2.764   5.258
 5819TIP3    H117410   2.068   2.784   5.267
 5819TIP3    H217411   1.931   2.842   5.291
 5820TIP3   OH217412   3.839   3.240   5.322
 5820TIP3    H117413   3.825   3.149   5.348
 5820TIP3    H217414   3.753   3.281   5.330
 5821TIP3   OH217415   2.934   3.021   5.437
 5821TIP3    H117416   2.931   3.111   5.471
 5821TIP3    H217417   2.869   2.974   5.489
 5822TIP3   OH217418   2.717   3.099   4.384
 5822TIP3    H117419   2.674   3.083   4.300
 5822TIP3    H217420   2.675   3.177   4.419
 5823TIP3   OH217421   2.150   2.955   4.760
 5823TIP3    H117422   2.190   2.950   4.847
 5823TIP3    H217423   2.101   2.874   4.751
 5824TIP3   OH217424   2.905   3.027   4.015
 5824TIP3    H117425   2.959   2.957   3.979
 5824TIP3    H217426   2.950   3.051   4.097
 5825TIP3   OH217427   2.974   3.079   4.284
 5825TIP3    H117428   2.886   3.086   4.323
 5825TIP3    H217429   3.029   3.047   4.355
 5826TIP3   OH217430   3.725   2.324   5.566
 5826TIP3    H117431   3.639   2.339   5.525
 5826TIP3    H217432   3.739   2.230   5.558
 5827TIP3   OH217433   2.330   2.760   5.575
 5827TIP3    H117434   2.379   2.747   5.655
 5827TIP3    H217435   2.257   2.699   5.581
 5828TIP3   OH217436   2.712   1.568   5.390
 5828TIP3    H117437   2.629   1.534   5.357
 5828TIP3    H217438   2.689   1.650   5.435
 5829TIP3   OH217439   3.252   1.690   5.590
 5829TIP3    H117440   3.320   1.666   5.653
 5829TIP3    H217441   3.170   1.675   5.637
 5830TIP3   OH217442   3.476   2.112   5.508
 5830TIP3    H117443   3.435   2.107   5.594
 5830TIP3    H217444   3.459   2.201   5.477
 5831TIP3   OH217445   3.156   2.188   4.039
 5831TIP3    H117446   3.108   2.192   3.957
 5831TIP3    H217447   3.237   2.236   4.023
 5832TIP3   OH217448   2.863   1.606   4.357
 5832TIP3    H117449   2.826   1.615   4.445
 5832TIP3    H217450   2.826   1.525   4.323
 5833TIP3   OH217451   2.651   2.100   5.398
 5833TIP3    H117452   2.605   2.107   5.481
 5833TIP3    H217453   2.629   2.181   5.352
 5834TIP3   OH217454   2.528   1.979   4.919
 5834TIP3    H117455   2.439   1.954   4.944
 5834TIP3    H217456   2.538   1.947   4.829
 5835TIP3   OH217457   3.011   2.054   4.647
 5835TIP3    H117458   2.963   2.127   4.607
 5835TIP3    H217459   3.068   2.022   4.577
 5836TIP3   OH217460   3.196   2.319   5.718
 5836TIP3    H117461   3.170   2.252   5.780
 5836TIP3    H217462   3.287   2.338   5.739
 5837TIP3   OH217463   3.178   2.067   4.869
 5837TIP3    H117464   3.110   2.089   4.806
 5837TIP3    H217465   3.225   1.993   4.829
 5838TIP3   OH217466   2.489   2.118   5.619
 5838TIP3    H117467   2.497   2.183   5.689
 5838TIP3    H217468   2.469   2.036   5.665
 5839TIP3   OH217469   2.529   1.590   4.333
 5839TIP3    H117470   2.521   1.596   4.429
 5839TIP3    H217471   2.451   1.634   4.299
 5840TIP3   OH217472   2.061   1.631   5.235
 5840TIP3    H117473   2.142   1.672   5.265
 5840TIP3    H217474   2.070   1.627   5.140
 5841TIP3   OH217475   1.944   1.636   4.721
 5841TIP3    H117476   1.978   1.681   4.644
 5841TIP3    H217477   1.851   1.659   4.724
 5842TIP3   OH217478   3.223   2.322   5.295
 5842TIP3    H117479   3.247   2.255   5.232
 5842TIP3    H217480   3.178   2.275   5.365
 5843TIP3   OH217481   2.896   1.769   4.969
 5843TIP3    H117482   2.816   1.769   5.022
 5843TIP3    H217483   2.967   1.761   5.032
 5844TIP3   OH217484   2.289   1.853   4.977
 5844TIP3    H117485   2.199   1.860   4.946
 5844TIP3    H217486   2.312   1.761   4.963
 5845TIP3   OH217487   2.545   1.857   4.673
 5845TIP3    H117488   2.640   1.868   4.661
 5845TIP3    H217489   2.508   1.874   4.587
 5846TIP3   OH217490   3.341   1.858   5.179
 5846TIP3    H117491   3.322   1.876   5.271
 5846TIP3    H217492   3.272   1.797   5.152
 5847TIP3   OH217493   2.433   1.878   4.425
 5847TIP3    H117494   2.367   1.831   4.373
 5847TIP3    H217495   2.485   1.925   4.360
 5848TIP3   OH217496   2.481   2.671   5.809
 5848TIP3    H117497   2.562   2.693   5.856
 5848TIP3    H217498   2.412   2.682   5.874
 5849TIP3   OH217499   2.942   2.141   5.077
 5849TIP3    H117500   3.008   2.090   5.028
 5849TIP3    H217501   2.940   2.101   5.163
 5850TIP3   OH217502   2.440   1.604   4.964
 5850TIP3    H117503   2.407   1.530   5.015
 5850TIP3    H217504   2.446   1.569   4.875
 5851TIP3   OH217505   2.916   2.044   5.341
 5851TIP3    H117506   2.829   2.075   5.364
 5851TIP3    H217507   2.976   2.097   5.394
 5852TIP3   OH217508   2.647   2.391   4.457
 5852TIP3    H117509   2.572   2.337   4.432
 5852TIP3    H217510   2.621   2.433   4.538
 5853TIP3   OH217511   3.539   2.649   5.064
 5853TIP3    H117512   3.574   2.695   4.988
 5853TIP3    H217513   3.460   2.604   5.032
 5854TIP3   OH217514   3.115   1.711   4.363
 5854TIP3    H117515   3.022   1.689   4.358
 5854TIP3    H217516   3.117   1.806   4.374
 5855TIP3   OH217517   3.063   2.734   5.488
 5855TIP3    H117518   3.115   2.716   5.567
 5855TIP3    H217519   3.020   2.817   5.506
 5856TIP3   OH217520   3.172   1.977   4.430
 5856TIP3    H117521   3.268   1.982   4.439
 5856TIP3    H217522   3.149   2.054   4.378
 5857TIP3   OH217523   2.342   2.418   5.104
 5857TIP3    H117524   2.378   2.396   5.018
 5857TIP3    H217525   2.406   2.384   5.166
 5858TIP3   OH217526   2.800   2.554   4.300
 5858TIP3    H117527   2.752   2.636   4.297
 5858TIP3    H217528   2.744   2.496   4.352
 5859TIP3   OH217529   2.221   2.339   5.737
 5859TIP3    H117530   2.222   2.312   5.829
 5859TIP3    H217531   2.146   2.294   5.699
 5860TIP3   OH217532   2.963   2.476   5.761
 5860TIP3    H117533   2.894   2.416   5.733
 5860TIP3    H217534   3.044   2.435   5.729
 5861TIP3   OH217535   3.205   3.012   5.375
 5861TIP3    H117536   3.110   3.008   5.385
 5861TIP3    H217537   3.236   3.051   5.457
 5862TIP3   OH217538   3.589   2.066   4.246
 5862TIP3    H117539   3.533   2.020   4.183
 5862TIP3    H217540   3.594   2.155   4.213
 5863TIP3   OH217541   3.836   2.918   5.336
 5863TIP3    H117542   3.741   2.919   5.322
 5863TIP3    H217543   3.873   2.903   5.249
 5864TIP3   OH217544   3.354   2.901   4.174
 5864TIP3    H117545   3.310   2.833   4.226
 5864TIP3    H217546   3.358   2.864   4.086
 5865TIP3   OH217547   3.312   2.508   4.960
 5865TIP3    H117548   3.223   2.487   4.988
 5865TIP3    H217549   3.345   2.426   4.923
 5866TIP3   OH217550   2.462   2.750   4.775
 5866TIP3    H117551   2.460   2.826   4.717
 5866TIP3    H217552   2.373   2.742   4.807
 5867TIP3   OH217553   2.043   2.045   4.479
 5867TIP3    H117554   2.088   2.126   4.501
 5867TIP3    H217555   1.956   2.053   4.519
 5868TIP3   OH217556   2.551   2.507   4.680
 5868TIP3    H117557   2.531   2.595   4.710
 5868TIP3    H217558   2.523   2.450   4.753
 5869TIP3   OH217559   2.747   3.071   5.232
 5869TIP3    H117560   2.779   3.143   5.179
 5869TIP3    H217561   2.821   3.047   5.287
 5870TIP3   OH217562   2.390   2.976   4.621
 5870TIP3    H117563   2.303   2.986   4.660
 5870TIP3    H217564   2.432   3.061   4.632
 5871TIP3   OH217565   3.094   2.732   5.213
 5871TIP3    H117566   3.081   2.733   5.308
 5871TIP3    H217567   3.173   2.679   5.201
 5872TIP3   OH217568   3.097   2.619   4.066
 5872TIP3    H117569   3.144   2.593   4.146
 5872TIP3    H217570   3.013   2.574   4.072
 5873TIP3   OH217571   3.335   3.198   5.219
 5873TIP3    H117572   3.304   3.130   5.280
 5873TIP3    H217573   3.256   3.223   5.170
 5874TIP3   OH217574   3.412   3.103   3.877
 5874TIP3    H117575   3.374   3.138   3.797
 5874TIP3    H217576   3.412   3.177   3.938
 5875TIP3   OH217577   2.433   1.864   5.737
 5875TIP3    H117578   2.338   1.872   5.741
 5875TIP3    H217579   2.456   1.817   5.818
 5876TIP3   OH217580   3.262   2.538   4.270
 5876TIP3    H117581   3.249   2.479   4.343
 5876TIP3    H217582   3.357   2.546   4.262
 5877TIP3   OH217583   2.175   2.976   5.390
 5877TIP3    H117584   2.229   2.916   5.442
 5877TIP3    H217585   2.191   3.062   5.428
 5878TIP3   OH217586   2.442   2.580   4.083
 5878TIP3    H117587   2.453   2.488   4.057
 5878TIP3    H217588   2.428   2.577   4.177
 5879TIP3   OH217589   2.383   2.609   4.353
 5879TIP3    H117590   2.446   2.584   4.421
 5879TIP3    H217591   2.383   2.705   4.355
 5880TIP3   OH217592   2.129   2.297   4.565
 5880TIP3    H117593   2.059   2.338   4.616
 5880TIP3    H217594   2.143   2.357   4.492
 5881TIP3   OH217595   3.285   1.920   5.440
 5881TIP3    H117596   3.362   1.965   5.475
 5881TIP3    H217597   3.275   1.843   5.497
 5882TIP3   OH217598   3.175   1.663   4.631
 5882TIP3    H117599   3.153   1.681   4.539
 5882TIP3    H217600   3.218   1.743   4.661
 5883TIP3   OH217601   2.656   2.783   4.292
 5883TIP3    H117602   2.571   2.812   4.326
 5883TIP3    H217603   2.685   2.855   4.236
 5884TIP3   OH217604   2.826   1.862   4.716
 5884TIP3    H117605   2.887   1.931   4.691
 5884TIP3    H217606   2.848   1.842   4.807
 5885TIP3   OH217607   3.122   2.158   5.492
 5885TIP3    H117608   3.146   2.202   5.574
 5885TIP3    H217609   3.172   2.076   5.494
 5886TIP3   OH217610   2.987   1.559   4.805
 5886TIP3    H117611   2.963   1.636   4.856
 5886TIP3    H217612   3.056   1.589   4.747
 5887TIP3   OH217613   2.409   2.885   4.363
 5887TIP3    H117614   2.390   2.962   4.310
 5887TIP3    H217615   2.401   2.915   4.454
 5888TIP3   OH217616   2.500   1.584   4.612
 5888TIP3    H117617   2.486   1.674   4.641
 5888TIP3    H217618   2.595   1.570   4.619
 5889TIP3   OH217619   3.736   2.045   5.474
 5889TIP3    H117620   3.644   2.061   5.491
 5889TIP3    H217621   3.738   1.982   5.402
 5890TIP3   OH217622   3.402   2.253   4.868
 5890TIP3    H117623   3.325   2.198   4.878
 5890TIP3    H217624   3.468   2.213   4.925
 5891TIP3   OH217625   2.141   2.471   4.345
 5891TIP3    H117626   2.213   2.534   4.352
 5891TIP3    H217627   2.173   2.406   4.282
 5892TIP3   OH217628   2.023   1.766   4.488
 5892TIP3    H117629   2.052   1.857   4.494
 5892TIP3    H217630   1.940   1.771   4.440
 5893TIP3   OH217631   3.442   3.298   4.875
 5893TIP3    H117632   3.406   3.228   4.820
 5893TIP3    H217633   3.492   3.253   4.943
 5894TIP3   OH217634   2.453   1.480   5.347
 5894TIP3    H117635   2.422   1.451   5.261
 5894TIP3    H217636   2.439   1.404   5.404
 5895TIP3   OH217637   1.977   2.730   4.747
 5895TIP3    H117638   1.936   2.767   4.825
 5895TIP3    H217639   1.933   2.773   4.674
 5896TIP3   OH217640   2.175   3.275   5.812
 5896TIP3    H117641   2.256   3.282   5.863
 5896TIP3    H217642   2.168   3.182   5.791
 5897TIP3   OH217643   2.629   3.185   5.852
 5897TIP3    H117644   2.723   3.169   5.859
 5897TIP3    H217645   2.601   3.127   5.780
 5898TIP3   OH217646   2.595   2.782   3.972
 5898TIP3    H117647   2.548   2.711   4.016
 5898TIP3    H217648   2.670   2.740   3.932
 5899TIP3   OH217649   3.299   3.113   5.608
 5899TIP3    H117650   3.271   3.043   5.666
 5899TIP3    H217651   3.382   3.143   5.646
 5900TIP3   OH217652   3.038   2.822   3.892
 5900TIP3    H117653   3.075   2.758   3.953
 5900TIP3    H217654   3.096   2.818   3.815
 5901TIP3   OH217655   2.274   2.676   5.998
 5901TIP3    H117656   2.294   2.584   6.009
 5901TIP3    H217657   2.187   2.677   5.958
 5902TIP3   OH217658   2.265   2.278   4.195
 5902TIP3    H117659   2.314   2.252   4.273
 5902TIP3    H217660   2.331   2.290   4.127
 5903TIP3   OH217661   2.895   2.753   5.778
 5903TIP3    H117662   2.853   2.778   5.695
 5903TIP3    H217663   2.930   2.665   5.762
 5904TIP3   OH217664   2.845   2.498   4.035
 5904TIP3    H117665   2.820   2.509   4.126
 5904TIP3    H217666   2.824   2.406   4.015
 5905TIP3   OH217667   3.375   2.791   5.383
 5905TIP3    H117668   3.449   2.829   5.335
 5905TIP3    H217669   3.307   2.858   5.380
 5906TIP3   OH217670   2.388   2.423   6.005
 5906TIP3    H117671   2.460   2.402   5.945
 5906TIP3    H217672   2.431   2.440   6.089
 5907TIP3   OH217673   2.437   2.216   4.407
 5907TIP3    H117674   2.416   2.185   4.495
 5907TIP3    H217675   2.485   2.144   4.367
 5908TIP3   OH217676   2.757   2.300   5.667
 5908TIP3    H117677   2.671   2.340   5.678
 5908TIP3    H217678   2.787   2.330   5.581
 5909TIP3   OH217679   2.581   2.034   4.253
 5909TIP3    H117680   2.550   2.037   4.162
 5909TIP3    H217681   2.676   2.042   4.246
 5910TIP3   OH217682   3.241   2.665   5.735
 5910TIP3    H117683   3.320   2.636   5.690
 5910TIP3    H217684   3.241   2.616   5.818
 5911TIP3   OH217685   3.375   2.323   3.932
 5911TIP3    H117686   3.359   2.284   3.845
 5911TIP3    H217687   3.355   2.416   3.921
 5912TIP3   OH217688   2.859   2.067   5.770
 5912TIP3    H117689   2.861   1.997   5.705
 5912TIP3    H217690   2.825   2.143   5.724
 5913TIP3   OH217691   2.866   1.869   5.567
 5913TIP3    H117692   2.892   1.908   5.483
 5913TIP3    H217693   2.774   1.843   5.553
 5914TIP3   OH217694   2.870   2.399   5.441
 5914TIP3    H117695   2.957   2.438   5.432
 5914TIP3    H217696   2.812   2.457   5.390
 5915TIP3   OH217697   3.463   2.366   5.818
 5915TIP3    H117698   3.517   2.287   5.820
 5915TIP3    H217699   3.526   2.439   5.814
 5916TIP3   OH217700   3.501   2.620   5.551
 5916TIP3    H117701   3.446   2.679   5.500
 5916TIP3    H217702   3.590   2.638   5.522
 5917TIP3   OH217703   2.745   2.151   6.014
 5917TIP3    H117704   2.671   2.094   6.034
 5917TIP3    H217705   2.770   2.127   5.925
 5918TIP3   OH217706   2.987   1.639   5.670
 5918TIP3    H117707   2.947   1.719   5.637
 5918TIP3    H217708   2.920   1.571   5.656
 5919TIP3   OH217709   3.114   2.109   5.874
 5919TIP3    H117710   3.102   2.097   5.968
 5919TIP3    H217711   3.028   2.088   5.836
 5920TIP3   OH217712   3.360   2.064   5.746
 5920TIP3    H117713   3.281   2.065   5.800
 5920TIP3    H217714   3.431   2.043   5.806
 5921TIP3   OH217715   3.600   2.030   5.890
 5921TIP3    H117716   3.611   1.935   5.898
 5921TIP3    H217717   3.593   2.061   5.980
 5922TIP3   OH217718   2.576   1.930   6.074
 5922TIP3    H117719   2.582   1.843   6.035
 5922TIP3    H217720   2.617   1.921   6.160
 5923TIP3   OH217721   3.053   1.612   5.934
 5923TIP3    H117722   3.122   1.547   5.928
 5923TIP3    H217723   3.023   1.625   5.844
 5924TIP3   OH217724   3.151   1.831   6.071
 5924TIP3    H117725   3.119   1.759   6.018
 5924TIP3    H217726   3.078   1.893   6.075
 5925TIP3   OH217727   2.417   3.121   4.199
 5925TIP3    H117728   2.500   3.084   4.167
 5925TIP3    H217729   2.370   3.145   4.119
 5926TIP3   OH217730   1.867   2.465   4.365
 5926TIP3    H117731   1.962   2.477   4.361
 5926TIP3    H217732   1.852   2.379   4.327
 5927TIP3   OH217733   1.771   3.040   4.825
 5927TIP3    H117734   1.705   2.987   4.779
 5927TIP3    H217735   1.816   2.978   4.882
 5928TIP3   OH217736   1.916   2.872   4.992
 5928TIP3    H117737   1.908   2.804   5.059
 5928TIP3    H217738   1.966   2.942   5.034
 5929TIP3   OH217739   3.701   3.019   5.675
 5929TIP3    H117740   3.624   3.030   5.731
 5929TIP3    H217741   3.744   3.105   5.676
 5930TIP3   OH217742   3.542   2.530   4.264
 5930TIP3    H117743   3.598   2.601   4.233
 5930TIP3    H217744   3.590   2.494   4.339
 5931TIP3   OH217745   3.675   2.388   4.464
 5931TIP3    H117746   3.606   2.349   4.519
 5931TIP3    H217747   3.738   2.423   4.527
 5932TIP3   OH217748   3.719   2.788   4.903
 5932TIP3    H117749   3.772   2.717   4.866
 5932TIP3    H217750   3.731   2.860   4.841
 5933TIP3   OH217751   3.517   3.080   5.050
 5933TIP3    H117752   3.457   3.120   5.112
 5933TIP3    H217753   3.460   3.038   4.986
 5934TIP3   OH217754   3.584   2.306   4.110
 5934TIP3    H117755   3.513   2.304   4.046
 5934TIP3    H217756   3.565   2.383   4.163
 5935TIP3   OH217757   3.438   1.954   4.048
 5935TIP3    H117758   3.390   1.992   3.974
 5935TIP3    H217759   3.428   1.859   4.037
 5936TIP3   OH217760   3.473   2.248   4.600
 5936TIP3    H117761   3.476   2.154   4.583
 5936TIP3    H217762   3.453   2.256   4.693
 5937TIP3   OH217763   2.091   2.305   5.378
 5937TIP3    H117764   2.080   2.274   5.288
 5937TIP3    H217765   2.185   2.304   5.392
 5938TIP3   OH217766   3.761   2.674   5.468
 5938TIP3    H117767   3.827   2.607   5.450
 5938TIP3    H217768   3.788   2.749   5.414
 5939TIP3   OH217769   3.935   2.458   5.453
 5939TIP3    H117770   3.860   2.415   5.493
 5939TIP3    H217771   4.010   2.401   5.474
 5940TIP3   OH217772   3.397   1.683   4.021
 5940TIP3    H117773   3.462   1.656   4.086
 5940TIP3    H217774   3.315   1.645   4.051
 5941TIP3   OH217775   3.466   1.974   4.487
 5941TIP3    H117776   3.511   1.890   4.499
 5941TIP3    H217777   3.507   2.011   4.409
 5942TIP3   OH217778   3.617   2.134   5.012
 5942TIP3    H117779   3.698   2.151   4.964
 5942TIP3    H217780   3.630   2.177   5.097
 5943TIP3   OH217781   3.690   2.288   5.236
 5943TIP3    H117782   3.618   2.316   5.292
 5943TIP3    H217783   3.722   2.369   5.196
 5944TIP3   OH217784   2.317   2.001   6.011
 5944TIP3    H117785   2.411   1.997   6.032
 5944TIP3    H217786   2.282   1.918   6.043
 5945TIP3   OH217787   4.161   1.882   5.774
 5945TIP3    H117788   4.225   1.827   5.729
 5945TIP3    H217789   4.120   1.933   5.704
 5946TIP3   OH217790   3.581   1.723   4.539
 5946TIP3    H117791   3.625   1.708   4.622
 5946TIP3    H217792   3.518   1.652   4.531
 5947TIP3   OH217793   2.293   1.708   5.371
 5947TIP3    H117794   2.346   1.628   5.371
 5947TIP3    H217795   2.355   1.777   5.347
 5948TIP3   OH217796   2.066   1.970   5.428
 5948TIP3    H117797   2.117   1.954   5.349
 5948TIP3    H217798   2.083   2.061   5.450
 5949TIP3   OH217799   4.004   2.010   5.590
 5949TIP3    H117800   3.935   2.051   5.642
 5949TIP3    H217801   3.958   1.953   5.529
 5950TIP3   OH217802   3.626   1.635   4.177
 5950TIP3    H117803   3.673   1.575   4.120
 5950TIP3    H217804   3.680   1.713   4.180
 5951TIP3   OH217805   2.045   1.558   4.967
 5951TIP3    H117806   1.965   1.513   4.992
 5951TIP3    H217807   2.029   1.587   4.877
 5952TIP3   OH217808   3.253   3.194   4.474
 5952TIP3    H117809   3.299   3.171   4.393
 5952TIP3    H217810   3.275   3.286   4.488
 5953TIP3   OH217811   2.281   1.525   5.743
 5953TIP3    H117812   2.232   1.530   5.825
 5953TIP3    H217813   2.231   1.578   5.681
 5954TIP3   OH217814   2.303   2.997   5.818
 5954TIP3    H117815   2.211   2.973   5.813
 5954TIP3    H217816   2.325   2.992   5.911
 5955TIP3   OH217817   2.517   3.037   5.378
 5955TIP3    H117818   2.465   3.110   5.344
 5955TIP3    H217819   2.603   3.047   5.336
 5956TIP3   OH217820   2.948   3.289   5.520
 5956TIP3    H117821   2.983   3.278   5.609
 5956TIP3    H217822   3.014   3.341   5.474
 5957TIP3   OH217823   3.147   3.434   5.384
 5957TIP3    H117824   3.213   3.373   5.352
 5957TIP3    H217825   3.198   3.511   5.411
 5958TIP3   OH217826   3.915   1.752   5.474
 5958TIP3    H117827   3.827   1.744   5.436
 5958TIP3    H217828   3.952   1.664   5.468
 5959TIP3   OH217829   2.182   3.272   5.432
 5959TIP3    H117830   2.091   3.292   5.406
 5959TIP3    H217831   2.205   3.342   5.493
 5960TIP3   OH217832   2.407   3.265   5.273
 5960TIP3    H117833   2.326   3.270   5.324
 5960TIP3    H217834   2.383   3.296   5.186
 5961TIP3   OH217835   2.821   3.275   5.062
 5961TIP3    H117836   2.745   3.286   5.005
 5961TIP3    H217837   2.832   3.360   5.104
 5962TIP3   OH217838   3.096   3.243   5.085
 5962TIP3    H117839   3.001   3.237   5.086
 5962TIP3    H217840   3.115   3.323   5.037
 5963TIP3   OH217841   2.084   3.054   5.140
 5963TIP3    H117842   2.114   3.034   5.229
 5963TIP3    H217843   2.155   3.024   5.083
 5964TIP3   OH217844   2.286   2.939   5.000
 5964TIP3    H117845   2.295   2.854   5.044
 5964TIP3    H217846   2.372   2.979   5.008
 5965TIP3   OH217847   2.552   3.010   5.043
 5965TIP3    H117848   2.572   2.918   5.027
 5965TIP3    H217849   2.611   3.035   5.114
 5966TIP3   OH217850   3.124   1.678   5.112
 5966TIP3    H117851   3.084   1.606   5.161
 5966TIP3    H217852   3.191   1.636   5.059
 5967TIP3   OH217853   3.624   1.596   5.002
 5967TIP3    H117854   3.659   1.645   4.927
 5967TIP3    H217855   3.530   1.615   5.000
 5968TIP3   OH217856   3.737   1.669   4.763
 5968TIP3    H117857   3.806   1.609   4.735
 5968TIP3    H217858   3.775   1.756   4.749
 5969TIP3   OH217859   2.363   1.377   5.108
 5969TIP3    H117860   2.272   1.347   5.113
 5969TIP3    H217861   2.414   1.296   5.097
 5970TIP3   OH217862   2.192   1.269   4.737
 5970TIP3    H117863   2.225   1.322   4.664
 5970TIP3    H217864   2.107   1.308   4.758
 5971TIP3   OH217865   2.847   1.414   5.004
 5971TIP3    H117866   2.891   1.463   4.935
 5971TIP3    H217867   2.886   1.447   5.085
 5972TIP3   OH217868   3.337   1.560   4.980
 5972TIP3    H117869   3.347   1.525   4.891
 5972TIP3    H217870   3.343   1.484   5.036
 5973TIP3   OH217871   3.395   1.513   4.546
 5973TIP3    H117872   3.315   1.560   4.570
 5973TIP3    H217873   3.384   1.426   4.583
 5974TIP3   OH217874   1.860   2.851   4.533
 5974TIP3    H117875   1.777   2.815   4.504
 5974TIP3    H217876   1.863   2.939   4.496
 5975TIP3   OH217877   2.297   1.411   4.516
 5975TIP3    H117878   2.344   1.357   4.454
 5975TIP3    H217879   2.363   1.470   4.552
 5976TIP3   OH217880   2.775   1.611   4.620
 5976TIP3    H117881   2.834   1.559   4.675
 5976TIP3    H217882   2.790   1.701   4.648
 5977TIP3   OH217883   2.652   3.008   4.116
 5977TIP3    H117884   2.737   3.031   4.079
 5977TIP3    H217885   2.621   2.936   4.061
 5978TIP3   OH217886   3.394   3.166   4.245
 5978TIP3    H117887   3.380   3.077   4.212
 5978TIP3    H217888   3.408   3.219   4.166
 5979TIP3   OH217889   2.592   1.662   5.982
 5979TIP3    H117890   2.557   1.597   6.043
 5979TIP3    H217891   2.684   1.670   6.006
 5980TIP3   OH217892   2.839   1.665   6.108
 5980TIP3    H117893   2.916   1.643   6.056
 5980TIP3    H217894   2.832   1.595   6.172
 5981TIP3   OH217895   1.971   2.855   4.169
 5981TIP3    H117896   1.969   2.862   4.265
 5981TIP3    H217897   2.052   2.806   4.151
 5982TIP3   OH217898   3.661   1.758   5.897
 5982TIP3    H117899   3.678   1.728   5.987
 5982TIP3    H217900   3.746   1.753   5.854
 5983TIP3   OH217901   3.580   3.338   5.342
 5983TIP3    H117902   3.502   3.294   5.310
 5983TIP3    H217903   3.549   3.424   5.372
 5984TIP3   OH217904   4.857   2.673   4.147
 5984TIP3    H117905   4.829   2.760   4.119
 5984TIP3    H217906   4.787   2.614   4.120
 5985TIP3   OH217907   4.852   2.670   4.570
 5985TIP3    H117908   4.906   2.651   4.647
 5985TIP3    H217909   4.809   2.587   4.551
 5986TIP3   OH217910   4.151   2.537   4.911
 5986TIP3    H117911   4.186   2.483   4.981
 5986TIP3    H217912   4.226   2.557   4.855
 5987TIP3   OH217913   5.118   2.975   4.243
 5987TIP3    H117914   5.108   2.905   4.308
 5987TIP3    H217915   5.140   3.053   4.295
 5988TIP3   OH217916   4.148   2.955   4.645
 5988TIP3    H117917   4.118   2.865   4.637
 5988TIP3    H217918   4.236   2.954   4.606
 5989TIP3   OH217919   3.826   2.164   4.383
 5989TIP3    H117920   3.786   2.247   4.407
 5989TIP3    H217921   3.756   2.113   4.342
 5990TIP3   OH217922   3.903   2.468   4.609
 5990TIP3    H117923   3.953   2.391   4.635
 5990TIP3    H217924   3.969   2.529   4.577
 5991TIP3   OH217925   4.790   3.385   4.278
 5991TIP3    H117926   4.805   3.330   4.201
 5991TIP3    H217927   4.814   3.330   4.352
 5992TIP3   OH217928   4.661   2.891   4.576
 5992TIP3    H117929   4.704   2.811   4.546
 5992TIP3    H217930   4.732   2.948   4.605
 5993TIP3   OH217931   5.694   2.211   4.590
 5993TIP3    H117932   5.711   2.295   4.632
 5993TIP3    H217933   5.718   2.225   4.498
 5994TIP3   OH217934   5.065   2.379   4.608
 5994TIP3    H117935   5.098   2.294   4.636
 5994TIP3    H217936   5.029   2.363   4.520
 5995TIP3   OH217937   4.423   2.036   4.565
 5995TIP3    H117938   4.401   2.108   4.507
 5995TIP3    H217939   4.368   1.963   4.535
 5996TIP3   OH217940   5.119   2.139   4.203
 5996TIP3    H117941   5.182   2.132   4.275
 5996TIP3    H217942   5.170   2.172   4.129
 5997TIP3   OH217943   4.047   2.250   4.700
 5997TIP3    H117944   4.130   2.230   4.742
 5997TIP3    H217945   4.048   2.198   4.619
 5998TIP3   OH217946   4.464   2.452   4.511
 5998TIP3    H117947   4.559   2.436   4.517
 5998TIP3    H217948   4.429   2.370   4.477
 5999TIP3   OH217949   5.750   2.433   4.751
 5999TIP3    H117950   5.660   2.466   4.748
 5999TIP3    H217951   5.785   2.466   4.834
 6000TIP3   OH217952   4.399   2.041   5.022
 6000TIP3    H117953   4.351   2.075   4.946
 6000TIP3    H217954   4.343   2.059   5.097
 6001TIP3   OH217955   4.758   2.888   4.006
 6001TIP3    H117956   4.715   2.860   3.925
 6001TIP3    H217957   4.704   2.962   4.036
 6002TIP3   OH217958   4.504   2.809   4.788
 6002TIP3    H117959   4.452   2.881   4.824
 6002TIP3    H217960   4.551   2.848   4.715
 6003TIP3   OH217961   5.276   2.162   4.426
 6003TIP3    H117962   5.234   2.139   4.509
 6003TIP3    H217963   5.332   2.236   4.447
 6004TIP3   OH217964   4.296   2.146   4.787
 6004TIP3    H117965   4.351   2.221   4.810
 6004TIP3    H217966   4.342   2.104   4.714
 6005TIP3   OH217967   4.337   3.010   4.886
 6005TIP3    H117968   4.290   3.026   4.804
 6005TIP3    H217969   4.268   2.996   4.951
 6006TIP3   OH217970   3.709   2.717   4.136
 6006TIP3    H117971   3.669   2.730   4.050
 6006TIP3    H217972   3.725   2.805   4.169
 6007TIP3   OH217973   5.152   3.213   4.396
 6007TIP3    H117974   5.061   3.210   4.427
 6007TIP3    H217975   5.159   3.296   4.350
 6008TIP3   OH217976   5.488   2.106   4.755
 6008TIP3    H117977   5.405   2.126   4.714
 6008TIP3    H217978   5.554   2.131   4.691
 6009TIP3   OH217979   4.745   1.734   4.752
 6009TIP3    H117980   4.738   1.641   4.776
 6009TIP3    H217981   4.668   1.774   4.792
 6010TIP3   OH217982   4.856   3.264   4.029
 6010TIP3    H117983   4.907   3.184   4.022
 6010TIP3    H217984   4.918   3.334   4.006
 6011TIP3   OH217985   4.997   3.033   4.001
 6011TIP3    H117986   4.928   2.967   3.997
 6011TIP3    H217987   5.049   3.008   4.077
 6012TIP3   OH217988   5.400   3.107   4.728
 6012TIP3    H117989   5.379   3.034   4.670
 6012TIP3    H217990   5.385   3.186   4.675
 6013TIP3   OH217991   4.681   2.517   3.997
 6013TIP3    H117992   4.597   2.561   3.980
 6013TIP3    H217993   4.724   2.516   3.912
 6014TIP3   OH217994   4.651   2.322   3.687
 6014TIP3    H117995   4.718   2.370   3.736
 6014TIP3    H217996   4.699   2.254   3.641
 6015TIP3   OH217997   5.572   2.774   4.593
 6015TIP3    H117998   5.487   2.818   4.590
 6015TIP3    H217999   5.608   2.786   4.505
 6016TIP3   OH218000   5.042   2.606   3.956
 6016TIP3    H118001   4.987   2.633   4.030
 6016TIP3    H218002   5.125   2.579   3.996
 6017TIP3   OH218003   5.269   2.634   4.903
 6017TIP3    H118004   5.266   2.717   4.950
 6017TIP3    H218005   5.188   2.631   4.853
 6018TIP3   OH218006   4.265   2.587   4.362
 6018TIP3    H118007   4.227   2.527   4.298
 6018TIP3    H218008   4.338   2.539   4.401
 6019TIP3   OH218009   4.394   2.984   4.533
 6019TIP3    H118010   4.371   2.996   4.440
 6019TIP3    H218011   4.486   2.957   4.531
 6020TIP3   OH218012   4.364   2.578   4.735
 6020TIP3    H118013   4.402   2.541   4.656
 6020TIP3    H218014   4.416   2.657   4.752
 6021TIP3   OH218015   4.899   3.223   4.503
 6021TIP3    H118016   4.897   3.300   4.560
 6021TIP3    H218017   4.891   3.149   4.564
 6022TIP3   OH218018   4.532   3.121   5.053
 6022TIP3    H118019   4.468   3.170   5.105
 6022TIP3    H218020   4.478   3.071   4.991
 6023TIP3   OH218021   4.873   2.466   3.788
 6023TIP3    H118022   4.931   2.523   3.839
 6023TIP3    H218023   4.904   2.473   3.698
 6024TIP3   OH218024   4.292   2.664   5.203
 6024TIP3    H118025   4.298   2.756   5.226
 6024TIP3    H218026   4.198   2.646   5.197
 6025TIP3   OH218027   4.619   3.121   4.057
 6025TIP3    H118028   4.693   3.182   4.053
 6025TIP3    H218029   4.553   3.159   3.998
 6026TIP3   OH218030   4.291   3.244   5.138
 6026TIP3    H118031   4.243   3.170   5.100
 6026TIP3    H218032   4.245   3.263   5.220
 6027TIP3   OH218033   5.383   1.694   3.846
 6027TIP3    H118034   5.306   1.713   3.900
 6027TIP3    H218035   5.391   1.770   3.789
 6028TIP3   OH218036   4.138   2.428   4.164
 6028TIP3    H118037   4.061   2.476   4.133
 6028TIP3    H218038   4.107   2.339   4.179
 6029TIP3   OH218039   5.215   3.075   3.400
 6029TIP3    H118040   5.205   3.168   3.382
 6029TIP3    H218041   5.304   3.054   3.371
 6030TIP3   OH218042   3.929   2.838   5.089
 6030TIP3    H118043   3.854   2.819   5.032
 6030TIP3    H218044   3.960   2.752   5.118
 6031TIP3   OH218045   3.824   2.995   4.742
 6031TIP3    H118046   3.904   2.977   4.692
 6031TIP3    H218047   3.849   3.065   4.802
 6032TIP3   OH218048   5.627   3.493   4.791
 6032TIP3    H118049   5.634   3.398   4.798
 6032TIP3    H218050   5.547   3.515   4.840
 6033TIP3   OH218051   4.737   3.255   4.927
 6033TIP3    H118052   4.724   3.348   4.943
 6033TIP3    H218053   4.664   3.212   4.971
 6034TIP3   OH218054   4.490   3.388   3.844
 6034TIP3    H118055   4.460   3.348   3.762
 6034TIP3    H218056   4.420   3.449   3.868
 6035TIP3   OH218057   3.924   3.199   4.248
 6035TIP3    H118058   3.880   3.189   4.332
 6035TIP3    H218059   3.886   3.130   4.193
 6036TIP3   OH218060   4.703   3.287   3.499
 6036TIP3    H118061   4.755   3.215   3.465
 6036TIP3    H218062   4.739   3.303   3.587
 6037TIP3   OH218063   4.750   3.345   3.771
 6037TIP3    H118064   4.662   3.359   3.806
 6037TIP3    H218065   4.799   3.307   3.844
 6038TIP3   OH218066   5.516   2.590   5.062
 6038TIP3    H118067   5.433   2.595   5.015
 6038TIP3    H218068   5.534   2.497   5.068
 6039TIP3   OH218069   4.134   3.018   5.074
 6039TIP3    H118070   4.180   2.994   5.155
 6039TIP3    H218071   4.059   2.960   5.072
 6040TIP3   OH218072   4.508   1.823   4.883
 6040TIP3    H118073   4.426   1.787   4.850
 6040TIP3    H218074   4.483   1.904   4.927
 6041TIP3   OH218075   5.053   1.946   5.077
 6041TIP3    H118076   5.126   1.920   5.132
 6041TIP3    H218077   4.975   1.931   5.131
 6042TIP3   OH218078   5.271   2.369   4.991
 6042TIP3    H118079   5.230   2.364   5.077
 6042TIP3    H218080   5.255   2.459   4.962
 6043TIP3   OH218081   4.964   2.463   3.530
 6043TIP3    H118082   4.912   2.459   3.450
 6043TIP3    H218083   5.044   2.510   3.505
 6044TIP3   OH218084   4.661   1.864   3.845
 6044TIP3    H118085   4.622   1.872   3.932
 6044TIP3    H218086   4.624   1.782   3.810
 6045TIP3   OH218087   4.446   2.358   4.886
 6045TIP3    H118088   4.398   2.365   4.969
 6045TIP3    H218089   4.424   2.439   4.839
 6046TIP3   OH218090   4.324   2.236   4.406
 6046TIP3    H118091   4.235   2.211   4.431
 6046TIP3    H218092   4.334   2.204   4.316
 6047TIP3   OH218093   4.805   2.312   4.133
 6047TIP3    H118094   4.757   2.385   4.092
 6047TIP3    H218095   4.862   2.279   4.064
 6048TIP3   OH218096   4.989   2.571   5.213
 6048TIP3    H118097   4.965   2.502   5.276
 6048TIP3    H218098   5.081   2.589   5.230
 6049TIP3   OH218099   4.974   2.326   4.355
 6049TIP3    H118100   4.905   2.346   4.291
 6049TIP3    H218101   5.021   2.252   4.316
 6050TIP3   OH218102   4.279   2.378   5.104
 6050TIP3    H118103   4.288   2.442   5.174
 6050TIP3    H218104   4.260   2.295   5.148
 6051TIP3   OH218105   4.327   1.848   3.821
 6051TIP3    H118106   4.317   1.850   3.916
 6051TIP3    H218107   4.248   1.889   3.787
 6052TIP3   OH218108   3.870   1.890   4.686
 6052TIP3    H118109   3.946   1.925   4.733
 6052TIP3    H218110   3.904   1.870   4.599
 6053TIP3   OH218111   3.778   1.869   4.188
 6053TIP3    H118112   3.823   1.904   4.111
 6053TIP3    H218113   3.713   1.936   4.211
 6054TIP3   OH218114   5.016   2.579   4.783
 6054TIP3    H118115   5.041   2.513   4.718
 6054TIP3    H218116   4.974   2.530   4.853
 6055TIP3   OH218117   4.692   2.028   4.457
 6055TIP3    H118118   4.613   2.025   4.511
 6055TIP3    H218119   4.764   2.017   4.519
 6056TIP3   OH218120   4.085   2.112   4.466
 6056TIP3    H118121   3.997   2.117   4.428
 6056TIP3    H218122   4.113   2.021   4.450
 6057TIP3   OH218123   4.339   2.115   4.160
 6057TIP3    H118124   4.434   2.124   4.148
 6057TIP3    H218125   4.303   2.131   4.073
 6058TIP3   OH218126   5.134   2.116   4.664
 6058TIP3    H118127   5.116   2.132   4.757
 6058TIP3    H218128   5.067   2.054   4.637
 6059TIP3   OH218129   4.226   2.138   3.912
 6059TIP3    H118130   4.163   2.087   3.861
 6059TIP3    H218131   4.279   2.183   3.846
 6060TIP3   OH218132   5.336   3.824   4.883
 6060TIP3    H118133   5.332   3.840   4.789
 6060TIP3    H218134   5.415   3.870   4.912
 6061TIP3   OH218135   4.280   2.932   5.297
 6061TIP3    H118136   4.361   2.950   5.345
 6061TIP3    H218137   4.211   2.940   5.362
 6062TIP3   OH218138   4.738   2.400   4.563
 6062TIP3    H118139   4.803   2.350   4.514
 6062TIP3    H218140   4.736   2.360   4.649
 6063TIP3   OH218141   4.230   1.863   4.451
 6063TIP3    H118142   4.201   1.788   4.503
 6063TIP3    H218143   4.248   1.826   4.364
 6064TIP3   OH218144   4.712   2.303   4.827
 6064TIP3    H118145   4.625   2.335   4.852
 6064TIP3    H218146   4.773   2.354   4.881
 6065TIP3   OH218147   4.441   2.655   3.949
 6065TIP3    H118148   4.368   2.598   3.925
 6065TIP3    H218149   4.413   2.697   4.030
 6066TIP3   OH218150   5.336   2.909   4.547
 6066TIP3    H118151   5.371   2.959   4.473
 6066TIP3    H218152   5.256   2.868   4.512
 6067TIP3   OH218153   4.912   1.969   3.848
 6067TIP3    H118154   4.820   1.945   3.845
 6067TIP3    H218155   4.912   2.064   3.861
 6068TIP3   OH218156   4.856   2.995   4.954
 6068TIP3    H118157   4.908   2.984   5.034
 6068TIP3    H218158   4.821   3.084   4.960
 6069TIP3   OH218159   4.968   2.235   3.918
 6069TIP3    H118160   5.063   2.238   3.928
 6069TIP3    H218161   4.947   2.312   3.865
 6070TIP3   OH218162   4.133   2.673   4.592
 6070TIP3    H118163   4.170   2.654   4.505
 6070TIP3    H218164   4.197   2.637   4.653
 6071TIP3   OH218165   4.593   2.815   3.789
 6071TIP3    H118166   4.547   2.899   3.788
 6071TIP3    H218167   4.537   2.758   3.841
 6072TIP3   OH218168   4.017   2.604   5.224
 6072TIP3    H118169   4.020   2.575   5.315
 6072TIP3    H218170   3.942   2.557   5.187
 6073TIP3   OH218171   4.760   2.733   5.248
 6073TIP3    H118172   4.690   2.674   5.222
 6073TIP3    H218173   4.841   2.689   5.221
 6074TIP3   OH218174   5.004   3.280   4.843
 6074TIP3    H118175   4.909   3.267   4.846
 6074TIP3    H218176   5.026   3.317   4.929
 6075TIP3   OH218177   5.386   2.321   3.731
 6075TIP3    H118178   5.330   2.274   3.669
 6075TIP3    H218179   5.392   2.410   3.696
 6076TIP3   OH218180   5.643   3.216   4.810
 6076TIP3    H118181   5.551   3.190   4.816
 6076TIP3    H218182   5.673   3.178   4.728
 6077TIP3   OH218183   5.130   3.153   3.665
 6077TIP3    H118184   5.099   3.087   3.728
 6077TIP3    H218185   5.148   3.102   3.586
 6078TIP3   OH218186   5.106   2.772   4.443
 6078TIP3    H118187   5.017   2.750   4.469
 6078TIP3    H218188   5.142   2.691   4.406
 6079TIP3   OH218189   4.250   3.019   4.290
 6079TIP3    H118190   4.248   3.091   4.227
 6079TIP3    H218191   4.163   2.981   4.285
 6080TIP3   OH218192   3.825   2.296   3.976
 6080TIP3    H118193   3.865   2.380   3.997
 6080TIP3    H218194   3.743   2.296   4.024
 6081TIP3   OH218195   4.342   2.777   4.171
 6081TIP3    H118196   4.336   2.863   4.212
 6081TIP3    H218197   4.317   2.716   4.241
 6082TIP3   OH218198   4.469   3.356   4.650
 6082TIP3    H118199   4.520   3.423   4.605
 6082TIP3    H218200   4.533   3.295   4.684
 6083TIP3   OH218201   4.172   3.230   4.126
 6083TIP3    H118202   4.084   3.233   4.163
 6083TIP3    H218203   4.201   3.321   4.124
 6084TIP3   OH218204   4.895   3.001   4.679
 6084TIP3    H118205   4.883   2.997   4.774
 6084TIP3    H218206   4.972   2.946   4.663
 6085TIP3   OH218207   4.896   2.872   3.547
 6085TIP3    H118208   4.945   2.844   3.625
 6085TIP3    H218209   4.812   2.827   3.554
 6086TIP3   OH218210   5.155   3.491   4.730
 6086TIP3    H118211   5.085   3.428   4.749
 6086TIP3    H218212   5.119   3.544   4.659
 6087TIP3   OH218213   5.202   3.350   3.358
 6087TIP3    H118214   5.188   3.391   3.272
 6087TIP3    H218215   5.147   3.401   3.418
 6088TIP3   OH218216   4.226   2.126   5.224
 6088TIP3    H118217   4.130   2.134   5.224
 6088TIP3    H218218   4.247   2.090   5.309
 6089TIP3   OH218219   5.067   2.785   3.743
 6089TIP3    H118220   5.050   2.733   3.822
 6089TIP3    H218221   5.162   2.793   3.741
 6090TIP3   OH218222   3.950   3.192   4.904
 6090TIP3    H118223   4.015   3.138   4.949
 6090TIP3    H218224   3.901   3.236   4.974
 6091TIP3   OH218225   4.243   2.834   3.572
 6091TIP3    H118226   4.250   2.742   3.544
 6091TIP3    H218227   4.225   2.829   3.666
 6092TIP3   OH218228   4.181   2.864   3.841
 6092TIP3    H118229   4.243   2.837   3.909
 6092TIP3    H218230   4.180   2.959   3.846
 6093TIP3   OH218231   3.915   2.550   4.053
 6093TIP3    H118232   3.846   2.595   4.102
 6093TIP3    H218233   3.933   2.607   3.978
 6094TIP3   OH218234   5.079   2.177   4.927
 6094TIP3    H118235   5.157   2.221   4.958
 6094TIP3    H218236   5.071   2.099   4.983
 6095TIP3   OH218237   4.971   1.920   4.117
 6095TIP3    H118238   4.950   1.937   4.025
 6095TIP3    H218239   5.014   1.999   4.147
 6096TIP3   OH218240   4.457   3.052   3.789
 6096TIP3    H118241   4.370   3.075   3.822
 6096TIP3    H218242   4.474   3.115   3.719
 6097TIP3   OH218243   4.620   2.120   4.205
 6097TIP3    H118244   4.682   2.188   4.179
 6097TIP3    H218245   4.643   2.100   4.295
 6098TIP3   OH218246   4.920   2.413   4.980
 6098TIP3    H118247   4.945   2.454   5.063
 6098TIP3    H218248   4.970   2.331   4.978
 6099TIP3   OH218249   4.782   1.817   4.292
 6099TIP3    H118250   4.759   1.895   4.343
 6099TIP3    H218251   4.852   1.847   4.234
 6100TIP3   OH218252   4.207   3.139   3.865
 6100TIP3    H118253   4.183   3.212   3.807
 6100TIP3    H218254   4.192   3.172   3.953
 6101TIP3   OH218255   4.295   1.840   4.100
 6101TIP3    H118256   4.283   1.931   4.129
 6101TIP3    H218257   4.389   1.826   4.106
 6102TIP3   OH218258   5.533   2.307   4.968
 6102TIP3    H118259   5.440   2.322   4.981
 6102TIP3    H218260   5.538   2.243   4.897
 6103TIP3   OH218261   5.198   2.515   4.355
 6103TIP3    H118262   5.122   2.459   4.366
 6103TIP3    H218263   5.265   2.476   4.411
 6104TIP3   OH218264   3.937   2.725   3.835
 6104TIP3    H118265   4.007   2.790   3.841
 6104TIP3    H218266   3.968   2.661   3.771
 6105TIP3   OH218267   3.846   2.018   3.968
 6105TIP3    H118268   3.858   2.112   3.977
 6105TIP3    H218269   3.786   2.009   3.893
 6106TIP3   OH218270   5.191   3.473   4.315
 6106TIP3    H118271   5.148   3.528   4.250
 6106TIP3    H218272   5.285   3.486   4.300
 6107TIP3   OH218273   4.249   1.734   4.838
 6107TIP3    H118274   4.219   1.703   4.753
 6107TIP3    H218275   4.237   1.658   4.896
 6108TIP3   OH218276   3.745   2.986   4.201
 6108TIP3    H118277   3.706   3.022   4.280
 6108TIP3    H218278   3.707   3.037   4.130
 6109TIP3   OH218279   3.961   3.512   5.278
 6109TIP3    H118280   4.040   3.508   5.332
 6109TIP3    H218281   3.918   3.427   5.292
 6110TIP3   OH218282   4.424   3.431   5.328
 6110TIP3    H118283   4.516   3.406   5.343
 6110TIP3    H218284   4.400   3.382   5.249
 6111TIP3   OH218285   4.393   3.033   3.458
 6111TIP3    H118286   4.345   2.962   3.501
 6111TIP3    H218287   4.467   2.990   3.416
 6112TIP3   OH218288   5.056   3.380   5.092
 6112TIP3    H118289   5.068   3.310   5.157
 6112TIP3    H218290   5.130   3.439   5.107
 6113TIP3   OH218291   4.839   3.081   3.381
 6113TIP3    H118292   4.873   3.015   3.441
 6113TIP3    H218293   4.893   3.074   3.303
 6114TIP3   OH218294   4.073   2.925   5.483
 6114TIP3    H118295   4.094   2.833   5.495
 6114TIP3    H218296   3.985   2.926   5.447
 6115TIP3   OH218297   4.064   2.535   3.686
 6115TIP3    H118298   4.116   2.510   3.763
 6115TIP3    H218299   4.128   2.545   3.616
 6116TIP3   OH218300   4.694   3.012   5.258
 6116TIP3    H118301   4.652   3.031   5.174
 6116TIP3    H218302   4.731   2.924   5.246
 6117TIP3   OH218303   4.646   2.753   3.526
 6117TIP3    H118304   4.619   2.765   3.617
 6117TIP3    H218305   4.624   2.662   3.506
 6118TIP3   OH218306   5.171   3.056   4.878
 6118TIP3    H118307   5.249   3.083   4.830
 6118TIP3    H218308   5.107   3.125   4.861
 6119TIP3   OH218309   4.191   2.673   5.496
 6119TIP3    H118310   4.268   2.651   5.444
 6119TIP3    H218311   4.225   2.693   5.583
 6120TIP3   OH218312   4.238   2.475   3.898
 6120TIP3    H118313   4.213   2.441   3.984
 6120TIP3    H218314   4.284   2.402   3.856
 6121TIP3   OH218315   4.552   2.559   5.157
 6121TIP3    H118316   4.465   2.599   5.163
 6121TIP3    H218317   4.583   2.584   5.070
 6122TIP3   OH218318   4.377   2.291   3.741
 6122TIP3    H118319   4.347   2.295   3.650
 6122TIP3    H218320   4.473   2.298   3.734
 6123TIP3   OH218321   5.049   2.931   5.231
 6123TIP3    H118322   5.120   2.895   5.178
 6123TIP3    H218323   5.047   2.876   5.309
 6124TIP3   OH218324   5.191   2.588   3.389
 6124TIP3    H118325   5.154   2.543   3.313
 6124TIP3    H218326   5.156   2.677   3.385
 6125TIP3   OH218327   4.658   2.324   5.251
 6125TIP3    H118328   4.656   2.255   5.184
 6125TIP3    H218329   4.621   2.400   5.208
 6126TIP3   OH218330   4.661   2.126   5.051
 6126TIP3    H118331   4.687   2.162   4.967
 6126TIP3    H218332   4.570   2.098   5.038
 6127TIP3   OH218333   4.670   2.643   4.927
 6127TIP3    H118334   4.760   2.674   4.914
 6127TIP3    H218335   4.616   2.704   4.877
 6128TIP3   OH218336   5.260   2.612   5.306
 6128TIP3    H118337   5.305   2.528   5.315
 6128TIP3    H218338   5.330   2.676   5.296
 6129TIP3   OH218339   5.289   2.878   5.045
 6129TIP3    H118340   5.237   2.940   4.994
 6129TIP3    H218341   5.379   2.891   5.015
 6130TIP3   OH218342   4.568   2.385   5.509
 6130TIP3    H118343   4.490   2.333   5.529
 6130TIP3    H218344   4.586   2.368   5.417
 6131TIP3   OH218345   4.784   1.905   5.172
 6131TIP3    H118346   4.746   1.984   5.133
 6131TIP3    H218347   4.718   1.837   5.158
 6132TIP3   OH218348   4.908   2.350   5.362
 6132TIP3    H118349   4.882   2.331   5.452
 6132TIP3    H218350   4.829   2.337   5.310
 6133TIP3   OH218351   5.154   2.318   5.229
 6133TIP3    H118352   5.077   2.314   5.285
 6133TIP3    H218353   5.227   2.296   5.287
 6134TIP3   OH218354   5.385   2.283   5.380
 6134TIP3    H118355   5.403   2.189   5.389
 6134TIP3    H218356   5.387   2.316   5.470
 6135TIP3   OH218357   4.375   2.193   5.574
 6135TIP3    H118358   4.380   2.105   5.536
 6135TIP3    H218359   4.410   2.182   5.663
 6136TIP3   OH218360   4.881   1.850   5.422
 6136TIP3    H118361   4.953   1.797   5.388
 6136TIP3    H218362   4.835   1.881   5.344
 6137TIP3   OH218363   4.207   3.359   3.683
 6137TIP3    H118364   4.288   3.322   3.648
 6137TIP3    H218365   4.161   3.393   3.606
 6138TIP3   OH218366   3.661   2.727   3.845
 6138TIP3    H118367   3.756   2.735   3.845
 6138TIP3    H218368   3.643   2.640   3.810
 6139TIP3   OH218369   3.777   3.138   4.474
 6139TIP3    H118370   3.729   3.076   4.529
 6139TIP3    H218371   3.801   3.209   4.534
 6140TIP3   OH218372   5.458   3.534   4.291
 6140TIP3    H118373   5.473   3.568   4.379
 6140TIP3    H218374   5.511   3.590   4.234
 6141TIP3   OH218375   5.462   3.577   4.570
 6141TIP3    H118376   5.415   3.494   4.566
 6141TIP3    H218377   5.530   3.564   4.635
 6142TIP3   OH218378   5.520   3.273   5.140
 6142TIP3    H118379   5.448   3.281   5.203
 6142TIP3    H218380   5.567   3.357   5.146
 6143TIP3   OH218381   5.347   2.783   3.745
 6143TIP3    H118382   5.405   2.855   3.719
 6143TIP3    H218383   5.390   2.745   3.822
 6144TIP3   OH218384   5.472   2.644   3.951
 6144TIP3    H118385   5.405   2.606   4.008
 6144TIP3    H218386   5.537   2.680   4.012
 6145TIP3   OH218387   5.518   3.049   4.386
 6145TIP3    H118388   5.570   2.980   4.346
 6145TIP3    H218389   5.520   3.120   4.322
 6146TIP3   OH218390   5.327   3.331   4.582
 6146TIP3    H118391   5.261   3.377   4.634
 6146TIP3    H218392   5.278   3.288   4.513
 6147TIP3   OH218393   5.381   2.559   3.589
 6147TIP3    H118394   5.309   2.562   3.525
 6147TIP3    H218395   5.366   2.635   3.645
 6148TIP3   OH218396   5.236   2.208   3.531
 6148TIP3    H118397   5.184   2.244   3.459
 6148TIP3    H218398   5.230   2.113   3.519
 6149TIP3   OH218399   5.268   2.505   4.086
 6149TIP3    H118400   5.272   2.411   4.072
 6149TIP3    H218401   5.249   2.515   4.180
 6150TIP3   OH218402   3.886   2.573   4.861
 6150TIP3    H118403   3.876   2.538   4.773
 6150TIP3    H218404   3.980   2.569   4.877
 6151TIP3   OH218405   5.545   2.921   4.947
 6151TIP3    H118406   5.614   2.856   4.933
 6151TIP3    H218407   5.544   2.973   4.867
 6152TIP3   OH218408   5.728   2.713   4.941
 6152TIP3    H118409   5.654   2.671   4.984
 6152TIP3    H218410   5.803   2.657   4.962
 6153TIP3   OH218411   5.196   1.935   3.494
 6153TIP3    H118412   5.260   1.913   3.561
 6153TIP3    H218413   5.113   1.901   3.528
 6154TIP3   OH218414   5.261   2.229   3.972
 6154TIP3    H118415   5.306   2.146   3.985
 6154TIP3    H218416   5.303   2.267   3.895
 6155TIP3   OH218417   5.413   2.395   4.496
 6155TIP3    H118418   5.494   2.411   4.448
 6155TIP3    H218419   5.428   2.434   4.582
 6156TIP3   OH218420   5.488   2.544   4.724
 6156TIP3    H118421   5.417   2.572   4.780
 6156TIP3    H218422   5.519   2.624   4.682
 6157TIP3   OH218423   4.112   2.249   5.501
 6157TIP3    H118424   4.204   2.247   5.525
 6157TIP3    H218425   4.076   2.168   5.539
 6158TIP3   OH218426   5.938   2.162   5.254
 6158TIP3    H118427   6.003   2.096   5.231
 6158TIP3    H218428   5.910   2.198   5.169
 6159TIP3   OH218429   5.377   1.980   4.024
 6159TIP3    H118430   5.422   1.965   4.107
 6159TIP3    H218431   5.314   1.908   4.018
 6160TIP3   OH218432   4.087   1.961   4.846
 6160TIP3    H118433   4.140   1.881   4.855
 6160TIP3    H218434   4.151   2.030   4.829
 6161TIP3   OH218435   3.864   2.219   4.916
 6161TIP3    H118436   3.915   2.212   4.836
 6161TIP3    H218437   3.890   2.303   4.954
 6162TIP3   OH218438   5.797   2.255   5.036
 6162TIP3    H118439   5.709   2.291   5.048
 6162TIP3    H218440   5.783   2.168   4.998
 6163TIP3   OH218441   5.418   1.895   3.659
 6163TIP3    H118442   5.465   1.833   3.602
 6163TIP3    H218443   5.476   1.970   3.665
 6164TIP3   OH218444   3.851   1.746   4.421
 6164TIP3    H118445   3.765   1.729   4.459
 6164TIP3    H218446   3.833   1.796   4.341
 6165TIP3   OH218447   5.021   3.460   3.945
 6165TIP3    H118448   5.077   3.445   3.868
 6165TIP3    H218449   5.070   3.522   3.999
 6166TIP3   OH218450   4.075   1.797   5.242
 6166TIP3    H118451   4.022   1.794   5.322
 6166TIP3    H218452   4.020   1.845   5.180
 6167TIP3   OH218453   4.115   3.239   5.347
 6167TIP3    H118454   4.020   3.237   5.331
 6167TIP3    H218455   4.123   3.230   5.442
 6168TIP3   OH218456   4.242   3.326   4.863
 6168TIP3    H118457   4.163   3.371   4.895
 6168TIP3    H218458   4.291   3.304   4.943
 6169TIP3   OH218459   4.711   3.527   4.992
 6169TIP3    H118460   4.747   3.517   5.081
 6169TIP3    H218461   4.777   3.580   4.946
 6170TIP3   OH218462   4.908   3.682   4.874
 6170TIP3    H118463   4.972   3.626   4.829
 6170TIP3    H218464   4.960   3.740   4.928
 6171TIP3   OH218465   5.716   1.998   4.962
 6171TIP3    H118466   5.626   1.980   4.934
 6171TIP3    H218467   5.759   1.912   4.960
 6172TIP3   OH218468   4.036   3.539   4.891
 6172TIP3    H118469   3.944   3.547   4.863
 6172TIP3    H218470   4.045   3.603   4.962
 6173TIP3   OH218471   4.187   3.531   4.661
 6173TIP3    H118472   4.135   3.545   4.740
 6173TIP3    H218473   4.148   3.589   4.596
 6174TIP3   OH218474   4.628   3.547   4.533
 6174TIP3    H118475   4.636   3.568   4.440
 6174TIP3    H218476   4.639   3.631   4.578
 6175TIP3   OH218477   4.886   3.475   4.611
 6175TIP3    H118478   4.794   3.496   4.591
 6175TIP3    H218479   4.936   3.542   4.565
 6176TIP3   OH218480   5.080   3.643   4.505
 6176TIP3    H118481   5.085   3.731   4.468
 6176TIP3    H218482   5.116   3.587   4.437
 6177TIP3   OH218483   3.917   3.314   4.641
 6177TIP3    H118484   3.918   3.286   4.732
 6177TIP3    H218485   4.004   3.293   4.608
 6178TIP3   OH218486   4.178   3.224   4.567
 6178TIP3    H118487   4.159   3.135   4.598
 6178TIP3    H218488   4.190   3.214   4.472
 6179TIP3   OH218489   4.918   1.933   4.598
 6179TIP3    H118490   4.878   1.862   4.647
 6179TIP3    H218491   4.986   1.892   4.546
 6180TIP3   OH218492   5.420   1.852   4.483
 6180TIP3    H118493   5.456   1.902   4.409
 6180TIP3    H218494   5.327   1.873   4.483
 6181TIP3   OH218495   5.535   1.929   4.245
 6181TIP3    H118496   5.604   1.867   4.220
 6181TIP3    H218497   5.574   2.015   4.232
 6182TIP3   OH218498   4.157   1.637   4.596
 6182TIP3    H118499   4.068   1.604   4.604
 6182TIP3    H218500   4.211   1.558   4.587
 6183TIP3   OH218501   3.985   1.552   4.255
 6183TIP3    H118502   4.006   1.598   4.174
 6183TIP3    H218503   3.946   1.619   4.311
 6184TIP3   OH218504   4.637   1.677   4.491
 6184TIP3    H118505   4.686   1.722   4.423
 6184TIP3    H218506   4.679   1.704   4.573
 6185TIP3   OH218507   5.132   1.818   4.466
 6185TIP3    H118508   5.142   1.782   4.377
 6185TIP3    H218509   5.139   1.742   4.523
 6186TIP3   OH218510   5.192   1.769   4.032
 6186TIP3    H118511   5.112   1.815   4.057
 6186TIP3    H218512   5.182   1.682   4.070
 6187TIP3   OH218513   3.661   3.149   3.997
 6187TIP3    H118514   3.589   3.105   3.951
 6187TIP3    H218515   3.625   3.235   4.019
 6188TIP3   OH218516   4.084   1.673   4.010
 6188TIP3    H118517   4.129   1.610   3.954
 6188TIP3    H218518   4.154   1.729   4.045
 6189TIP3   OH218519   4.570   1.869   4.107
 6189TIP3    H118520   4.628   1.815   4.161
 6189TIP3    H218521   4.587   1.958   4.136
 6190TIP3   OH218522   4.447   3.260   3.596
 6190TIP3    H118523   4.531   3.286   3.558
 6190TIP3    H218524   4.417   3.188   3.541
 6191TIP3   OH218525   5.177   3.418   3.721
 6191TIP3    H118526   5.167   3.324   3.707
 6191TIP3    H218527   5.139   3.459   3.643
 6192TIP3   OH218528   4.370   1.938   5.470
 6192TIP3    H118529   4.361   1.872   5.538
 6192TIP3    H218530   4.384   1.889   5.390
 6193TIP3   OH218531   3.768   3.104   3.663
 6193TIP3    H118532   3.763   3.110   3.759
 6193TIP3    H218533   3.849   3.055   3.646
 6194TIP3   OH218534   5.455   2.015   5.393
 6194TIP3    H118535   5.471   1.979   5.480
 6194TIP3    H218536   5.540   2.012   5.350
 6195TIP3   OH218537   5.376   3.550   4.890
 6195TIP3    H118538   5.301   3.518   4.840
 6195TIP3    H218539   5.361   3.644   4.900
 6196TIP3   OH218540   6.646   2.925   3.632
 6196TIP3    H118541   6.612   3.014   3.628
 6196TIP3    H218542   6.576   2.871   3.597
 6197TIP3   OH218543   6.638   2.928   4.053
 6197TIP3    H118544   6.689   2.908   4.132
 6197TIP3    H218545   6.595   2.845   4.032
 6198TIP3   OH218546   5.945   2.781   4.400
 6198TIP3    H118547   5.984   2.731   4.471
 6198TIP3    H218548   6.019   2.806   4.345
 6199TIP3   OH218549   6.910   3.230   3.728
 6199TIP3    H118550   6.897   3.163   3.795
 6199TIP3    H218551   6.936   3.308   3.777
 6200TIP3   OH218552   5.941   3.223   4.085
 6200TIP3    H118553   5.921   3.129   4.092
 6200TIP3    H218554   6.035   3.227   4.073
 6201TIP3   OH218555   5.623   2.419   3.867
 6201TIP3    H118556   5.584   2.502   3.894
 6201TIP3    H218557   5.550   2.369   3.830
 6202TIP3   OH218558   5.701   2.729   4.093
 6202TIP3    H118559   5.752   2.652   4.119
 6202TIP3    H218560   5.767   2.792   4.066
 6203TIP3   OH218561   6.583   3.650   3.757
 6203TIP3    H118562   6.597   3.592   3.682
 6203TIP3    H218563   6.608   3.597   3.833
 6204TIP3   OH218564   6.452   3.151   4.057
 6204TIP3    H118565   6.495   3.070   4.028
 6204TIP3    H218566   6.525   3.208   4.084
 6205TIP3   OH218567   7.430   2.439   4.115
 6205TIP3    H118568   7.438   2.524   4.156
 6205TIP3    H218569   7.461   2.452   4.025
 6206TIP3   OH218570   6.850   2.636   4.097
 6206TIP3    H118571   6.889   2.553   4.123
 6206TIP3    H218572   6.816   2.621   4.009
 6207TIP3   OH218573   6.218   2.293   4.053
 6207TIP3    H118574   6.197   2.366   3.995
 6207TIP3    H218575   6.162   2.222   4.023
 6208TIP3   OH218576   6.898   2.398   3.698
 6208TIP3    H118577   6.964   2.386   3.766
 6208TIP3    H218578   6.947   2.433   3.624
 6209TIP3   OH218579   5.843   2.508   4.183
 6209TIP3    H118580   5.926   2.489   4.227
 6209TIP3    H218581   5.847   2.457   4.102
 6210TIP3   OH218582   6.258   2.707   4.002
 6210TIP3    H118583   6.353   2.693   4.007
 6210TIP3    H218584   6.224   2.625   3.966
 6211TIP3   OH218585   7.466   2.671   4.249
 6211TIP3    H118586   7.389   2.727   4.240
 6211TIP3    H218587   7.507   2.699   4.331
 6212TIP3   OH218588   6.199   2.297   4.506
 6212TIP3    H118589   6.148   2.332   4.433
 6212TIP3    H218590   6.144   2.311   4.583
 6213TIP3   OH218591   6.510   3.153   3.562
 6213TIP3    H118592   6.498   3.133   3.469
 6213TIP3    H218593   6.464   3.236   3.575
 6214TIP3   OH218594   6.294   3.069   4.268
 6214TIP3    H118595   6.242   3.140   4.306
 6214TIP3    H218596   6.342   3.110   4.196
 6215TIP3   OH218597   7.063   2.400   3.916
 6215TIP3    H118598   7.017   2.380   3.998
 6215TIP3    H218599   7.116   2.477   3.937
 6216TIP3   OH218600   6.090   2.404   4.275
 6216TIP3    H118601   6.145   2.478   4.299
 6216TIP3    H218602   6.136   2.361   4.203
 6217TIP3   OH218603   6.141   3.269   4.383
 6217TIP3    H118604   6.125   3.358   4.352
 6217TIP3    H218605   6.063   3.246   4.433
 6218TIP3   OH218606   5.519   2.975   3.629
 6218TIP3    H118607   5.480   3.003   3.546
 6218TIP3    H218608   5.546   3.056   3.671
 6219TIP3   OH218609   6.952   3.485   3.862
 6219TIP3    H118610   6.863   3.478   3.898
 6219TIP3    H218611   6.951   3.565   3.810
 6220TIP3   OH218612   7.214   2.330   4.248
 6220TIP3    H118613   7.134   2.360   4.205
 6220TIP3    H218614   7.285   2.362   4.192
 6221TIP3   OH218615   6.539   1.989   4.239
 6221TIP3    H118616   6.532   1.897   4.264
 6221TIP3    H218617   6.462   2.030   4.278
 6222TIP3   OH218618   6.652   3.519   3.521
 6222TIP3    H118619   6.703   3.438   3.512
 6222TIP3    H218620   6.714   3.588   3.496
 6223TIP3   OH218621   6.808   3.303   3.482
 6223TIP3    H118622   6.816   3.231   3.420
 6223TIP3    H218623   6.844   3.269   3.563
 6224TIP3   OH218624   7.155   3.365   4.207
 6224TIP3    H118625   7.149   3.286   4.153
 6224TIP3    H218626   7.156   3.437   4.145
 6225TIP3   OH218627   6.470   2.778   3.476
 6225TIP3    H118628   6.391   2.828   3.456
 6225TIP3    H218629   6.515   2.770   3.392
 6226TIP3   OH218630   6.437   2.535   3.203
 6226TIP3    H118631   6.488   2.613   3.225
 6226TIP3    H218632   6.486   2.494   3.132
 6227TIP3   OH218633   7.356   3.019   4.088
 6227TIP3    H118634   7.275   3.064   4.065
 6227TIP3    H218635   7.407   3.019   4.008
 6228TIP3   OH218636   6.820   2.873   3.427
 6228TIP3    H118637   6.763   2.895   3.500
 6228TIP3    H218638   6.900   2.839   3.468
 6229TIP3   OH218639   7.033   2.896   4.397
 6229TIP3    H118640   7.035   2.978   4.445
 6229TIP3    H218641   6.950   2.896   4.350
 6230TIP3   OH218642   6.060   2.841   3.851
 6230TIP3    H118643   6.025   2.780   3.786
 6230TIP3    H218644   6.134   2.794   3.890
 6231TIP3   OH218645   6.202   3.271   3.986
 6231TIP3    H118646   6.177   3.254   3.895
 6231TIP3    H218647   6.288   3.229   3.995
 6232TIP3   OH218648   6.158   2.835   4.226
 6232TIP3    H118649   6.196   2.797   4.146
 6232TIP3    H218650   6.208   2.915   4.241
 6233TIP3   OH218651   6.709   3.484   3.991
 6233TIP3    H118652   6.701   3.558   4.050
 6233TIP3    H218653   6.699   3.407   4.047
 6234TIP3   OH218654   6.334   3.381   4.549
 6234TIP3    H118655   6.271   3.436   4.596
 6234TIP3    H218656   6.279   3.326   4.493
 6235TIP3   OH218657   6.640   2.736   3.255
 6235TIP3    H118658   6.705   2.796   3.292
 6235TIP3    H218659   6.618   2.773   3.170
 6236TIP3   OH218660   6.089   2.920   4.689
 6236TIP3    H118661   6.093   3.013   4.709
 6236TIP3    H218662   5.995   2.900   4.682
 6237TIP3   OH218663   6.397   3.413   3.552
 6237TIP3    H118664   6.486   3.448   3.544
 6237TIP3    H218665   6.348   3.459   3.484
 6238TIP3   OH218666   6.121   3.540   4.638
 6238TIP3    H118667   6.092   3.537   4.547
 6238TIP3    H218668   6.043   3.518   4.689
 6239TIP3   OH218669   7.164   1.952   3.345
 6239TIP3    H118670   7.088   1.976   3.398
 6239TIP3    H218671   7.170   2.021   3.279
 6240TIP3   OH218672   5.933   2.678   3.655
 6240TIP3    H118673   5.858   2.723   3.617
 6240TIP3    H218674   5.900   2.591   3.678
 6241TIP3   OH218675   6.973   3.329   2.900
 6241TIP3    H118676   6.976   3.421   2.876
 6241TIP3    H218677   7.064   3.300   2.897
 6242TIP3   OH218678   5.720   3.090   4.581
 6242TIP3    H118679   5.650   3.070   4.518
 6242TIP3    H218680   5.753   3.004   4.607
 6243TIP3   OH218681   5.562   3.281   4.228
 6243TIP3    H118682   5.654   3.303   4.245
 6243TIP3    H218683   5.513   3.357   4.257
 6244TIP3   OH218684   7.396   3.790   4.264
 6244TIP3    H118685   7.431   3.706   4.232
 6244TIP3    H218686   7.323   3.765   4.321
 6245TIP3   OH218687   6.517   3.527   4.407
 6245TIP3    H118688   6.506   3.618   4.436
 6245TIP3    H218689   6.453   3.477   4.458
 6246TIP3   OH218690   6.300   3.606   3.351
 6246TIP3    H118691   6.256   3.580   3.270
 6246TIP3    H218692   6.264   3.693   3.370
 6247TIP3   OH218693   5.727   3.487   3.742
 6247TIP3    H118694   5.776   3.481   3.824
 6247TIP3    H218695   5.679   3.404   3.736
 6248TIP3   OH218696   6.504   3.543   2.987
 6248TIP3    H118697   6.545   3.463   2.954
 6248TIP3    H218698   6.542   3.557   3.073
 6249TIP3   OH218699   6.558   3.591   3.256
 6249TIP3    H118700   6.470   3.591   3.294
 6249TIP3    H218701   6.611   3.542   3.319
 6250TIP3   OH218702   7.275   2.857   4.554
 6250TIP3    H118703   7.203   2.845   4.492
 6250TIP3    H218704   7.299   2.769   4.581
 6251TIP3   OH218705   5.920   3.275   4.550
 6251TIP3    H118706   5.971   3.261   4.630
 6251TIP3    H218707   5.848   3.213   4.556
 6252TIP3   OH218708   6.302   2.079   4.364
 6252TIP3    H118709   6.218   2.046   4.333
 6252TIP3    H218710   6.280   2.160   4.411
 6253TIP3   OH218711   6.845   2.202   4.563
 6253TIP3    H118712   6.916   2.177   4.622
 6253TIP3    H218713   6.765   2.185   4.612
 6254TIP3   OH218714   7.054   2.629   4.475
 6254TIP3    H118715   7.015   2.624   4.562
 6254TIP3    H218716   7.033   2.717   4.444
 6255TIP3   OH218717   6.439   2.120   3.325
 6255TIP3    H118718   6.410   2.128   3.416
 6255TIP3    H218719   6.405   2.035   3.297
 6256TIP3   OH218720   6.242   2.613   4.373
 6256TIP3    H118721   6.197   2.620   4.457
 6256TIP3    H218722   6.221   2.695   4.328
 6257TIP3   OH218723   6.123   2.492   3.890
 6257TIP3    H118724   6.033   2.467   3.915
 6257TIP3    H218725   6.132   2.461   3.800
 6258TIP3   OH218726   6.591   2.572   3.614
 6258TIP3    H118727   6.542   2.645   3.576
 6258TIP3    H218728   6.646   2.540   3.542
 6259TIP3   OH218729   6.786   2.836   4.692
 6259TIP3    H118730   6.760   2.769   4.754
 6259TIP3    H218731   6.880   2.848   4.707
 6260TIP3   OH218732   6.754   2.587   3.843
 6260TIP3    H118733   6.688   2.610   3.777
 6260TIP3    H218734   6.800   2.512   3.805
 6261TIP3   OH218735   6.080   2.628   4.594
 6261TIP3    H118736   6.095   2.690   4.665
 6261TIP3    H218737   6.062   2.545   4.639
 6262TIP3   OH218738   6.099   2.100   3.303
 6262TIP3    H118739   6.095   2.107   3.398
 6262TIP3    H218740   6.030   2.159   3.272
 6263TIP3   OH218741   5.670   2.149   4.170
 6263TIP3    H118742   5.741   2.184   4.224
 6263TIP3    H218743   5.711   2.128   4.086
 6264TIP3   OH218744   5.576   2.125   3.676
 6264TIP3    H118745   5.621   2.160   3.599
 6264TIP3    H218746   5.513   2.192   3.700
 6265TIP3   OH218747   6.789   2.836   4.271
 6265TIP3    H118748   6.819   2.771   4.207
 6265TIP3    H218749   6.752   2.783   4.342
 6266TIP3   OH218750   6.485   2.284   3.943
 6266TIP3    H118751   6.406   2.284   3.998
 6266TIP3    H218752   6.557   2.275   4.004
 6267TIP3   OH218753   5.883   2.369   3.949
 6267TIP3    H118754   5.795   2.372   3.912
 6267TIP3    H218755   5.912   2.279   3.935
 6268TIP3   OH218756   6.133   2.372   3.642
 6268TIP3    H118757   6.228   2.381   3.632
 6268TIP3    H218758   6.098   2.386   3.554
 6269TIP3   OH218759   6.922   2.370   4.155
 6269TIP3    H118760   6.903   2.390   4.247
 6269TIP3    H218761   6.851   2.311   4.128
 6270TIP3   OH218762   6.014   2.385   3.393
 6270TIP3    H118763   5.940   2.351   3.344
 6270TIP3    H218764   6.068   2.430   3.327
 6271TIP3   OH218765   7.128   4.072   4.369
 6271TIP3    H118766   7.124   4.086   4.274
 6271TIP3    H218767   7.204   4.123   4.397
 6272TIP3   OH218768   6.075   3.189   4.781
 6272TIP3    H118769   6.156   3.206   4.830
 6272TIP3    H218770   6.006   3.196   4.846
 6273TIP3   OH218771   6.531   2.657   4.047
 6273TIP3    H118772   6.598   2.611   3.996
 6273TIP3    H218773   6.532   2.614   4.132
 6274TIP3   OH218774   6.024   2.120   3.937
 6274TIP3    H118775   5.997   2.045   3.990
 6274TIP3    H218776   6.049   2.083   3.853
 6275TIP3   OH218777   6.507   2.555   4.311
 6275TIP3    H118778   6.419   2.586   4.336
 6275TIP3    H218779   6.566   2.605   4.366
 6276TIP3   OH218780   6.236   2.917   3.417
 6276TIP3    H118781   6.165   2.855   3.400
 6276TIP3    H218782   6.213   2.957   3.501
 6277TIP3   OH218783   7.118   3.146   4.038
 6277TIP3    H118784   7.150   3.200   3.965
 6277TIP3    H218785   7.038   3.105   4.005
 6278TIP3   OH218786   6.691   2.233   3.334
 6278TIP3    H118787   6.598   2.211   3.324
 6278TIP3    H218788   6.692   2.329   3.338
 6279TIP3   OH218789   6.646   3.251   4.433
 6279TIP3    H118790   6.705   3.234   4.507
 6279TIP3    H218791   6.607   3.336   4.451
 6280TIP3   OH218792   6.745   2.505   3.390
 6280TIP3    H118793   6.839   2.517   3.402
 6280TIP3    H218794   6.719   2.579   3.335
 6281TIP3   OH218795   5.931   2.932   4.078
 6281TIP3    H118796   5.969   2.911   3.993
 6281TIP3    H218797   5.996   2.901   4.141
 6282TIP3   OH218798   6.449   3.107   3.296
 6282TIP3    H118799   6.382   3.174   3.287
 6282TIP3    H218800   6.406   3.026   3.268
 6283TIP3   OH218801   5.813   2.857   4.712
 6283TIP3    H118802   5.817   2.831   4.803
 6283TIP3    H218803   5.740   2.808   4.675
 6284TIP3   OH218804   6.555   2.993   4.732
 6284TIP3    H118805   6.486   2.933   4.706
 6284TIP3    H218806   6.636   2.951   4.702
 6285TIP3   OH218807   6.785   3.546   4.328
 6285TIP3    H118808   6.691   3.531   4.335
 6285TIP3    H218809   6.811   3.579   4.414
 6286TIP3   OH218810   7.172   2.564   3.232
 6286TIP3    H118811   7.129   2.518   3.160
 6286TIP3    H218812   7.171   2.656   3.206
 6287TIP3   OH218813   7.396   3.431   4.323
 6287TIP3    H118814   7.301   3.432   4.315
 6287TIP3    H218815   7.428   3.420   4.234
 6288TIP3   OH218816   6.896   3.387   3.162
 6288TIP3    H118817   6.874   3.310   3.215
 6288TIP3    H218818   6.912   3.351   3.074
 6289TIP3   OH218819   6.888   3.026   3.931
 6289TIP3    H118820   6.798   3.003   3.954
 6289TIP3    H218821   6.923   2.947   3.891
 6290TIP3   OH218822   6.059   3.272   3.742
 6290TIP3    H118823   6.060   3.349   3.685
 6290TIP3    H218824   5.966   3.256   3.758
 6291TIP3   OH218825   5.606   2.550   3.429
 6291TIP3    H118826   5.656   2.628   3.456
 6291TIP3    H218827   5.531   2.549   3.488
 6292TIP3   OH218828   6.139   3.020   3.649
 6292TIP3    H118829   6.127   3.110   3.680
 6292TIP3    H218830   6.114   2.966   3.724
 6293TIP3   OH218831   6.336   3.602   4.202
 6293TIP3    H118832   6.377   3.669   4.148
 6293TIP3    H218833   6.408   3.562   4.250
 6294TIP3   OH218834   5.962   3.511   3.595
 6294TIP3    H118835   5.875   3.507   3.636
 6294TIP3    H218836   5.987   3.603   3.599
 6295TIP3   OH218837   6.691   3.258   4.159
 6295TIP3    H118838   6.678   3.252   4.254
 6295TIP3    H218839   6.761   3.195   4.140
 6296TIP3   OH218840   6.696   3.119   3.046
 6296TIP3    H118841   6.726   3.119   3.137
 6296TIP3    H218842   6.642   3.040   3.038
 6297TIP3   OH218843   6.939   3.754   4.212
 6297TIP3    H118844   6.870   3.690   4.225
 6297TIP3    H218845   6.910   3.805   4.136
 6298TIP3   OH218846   6.989   3.598   2.851
 6298TIP3    H118847   7.013   3.651   2.775
 6298TIP3    H218848   6.917   3.646   2.892
 6299TIP3   OH218849   6.026   2.374   4.712
 6299TIP3    H118850   5.931   2.383   4.717
 6299TIP3    H218851   6.049   2.323   4.790
 6300TIP3   OH218852   6.855   3.108   3.281
 6300TIP3    H118853   6.829   3.030   3.330
 6300TIP3    H218854   6.945   3.091   3.254
 6301TIP3   OH218855   5.772   3.467   4.360
 6301TIP3    H118856   5.824   3.402   4.407
 6301TIP3    H218857   5.775   3.544   4.416
 6302TIP3   OH218858   6.025   3.094   3.059
 6302TIP3    H118859   6.035   3.003   3.032
 6302TIP3    H218860   6.020   3.092   3.154
 6303TIP3   OH218861   5.990   3.114   3.333
 6303TIP3    H118862   6.070   3.084   3.376
 6303TIP3    H218863   5.991   3.210   3.343
 6304TIP3   OH218864   5.709   2.794   3.529
 6304TIP3    H118865   5.647   2.844   3.583
 6304TIP3    H218866   5.738   2.856   3.463
 6305TIP3   OH218867   6.866   2.433   4.416
 6305TIP3    H118868   6.946   2.478   4.444
 6305TIP3    H218869   6.861   2.355   4.471
 6306TIP3   OH218870   6.752   2.182   3.601
 6306TIP3    H118871   6.730   2.203   3.510
 6306TIP3    H218872   6.794   2.262   3.634
 6307TIP3   OH218873   6.249   3.294   3.270
 6307TIP3    H118874   6.167   3.323   3.309
 6307TIP3    H218875   6.268   3.359   3.203
 6308TIP3   OH218876   6.412   2.377   3.689
 6308TIP3    H118877   6.472   2.446   3.662
 6308TIP3    H218878   6.438   2.358   3.780
 6309TIP3   OH218879   6.709   2.665   4.469
 6309TIP3    H118880   6.736   2.705   4.552
 6309TIP3    H218881   6.759   2.583   4.465
 6310TIP3   OH218882   6.575   2.072   3.781
 6310TIP3    H118883   6.551   2.149   3.832
 6310TIP3    H218884   6.642   2.104   3.720
 6311TIP3   OH218885   6.002   3.391   3.349
 6311TIP3    H118886   5.983   3.460   3.286
 6311TIP3    H218887   5.987   3.432   3.435
 6312TIP3   OH218888   6.092   2.098   3.584
 6312TIP3    H118889   6.081   2.188   3.613
 6312TIP3    H218890   6.187   2.083   3.588
 6313TIP3   OH218891   7.319   2.574   4.482
 6313TIP3    H118892   7.224   2.576   4.483
 6313TIP3    H218893   7.342   2.558   4.390
 6314TIP3   OH218894   6.976   2.770   3.840
 6314TIP3    H118895   6.897   2.718   3.846
 6314TIP3    H218896   7.037   2.729   3.901
 6315TIP3   OH218897   5.742   2.989   3.326
 6315TIP3    H118898   5.817   3.047   3.338
 6315TIP3    H218899   5.774   2.921   3.267
 6316TIP3   OH218900   5.631   2.269   3.449
 6316TIP3    H118901   5.625   2.364   3.444
 6316TIP3    H218902   5.563   2.237   3.391
 6317TIP3   OH218903   6.953   3.755   3.772
 6317TIP3    H118904   6.906   3.817   3.716
 6317TIP3    H218905   7.045   3.782   3.766
 6318TIP3   OH218906   6.041   1.994   4.324
 6318TIP3    H118907   6.012   1.961   4.239
 6318TIP3    H218908   6.034   1.919   4.382
 6319TIP3   OH218909   5.568   3.241   3.709
 6319TIP3    H118910   5.531   3.278   3.790
 6319TIP3    H218911   5.518   3.283   3.639
 6320TIP3   OH218912   5.758   3.779   4.787
 6320TIP3    H118913   5.837   3.774   4.841
 6320TIP3    H218914   5.728   3.689   4.780
 6321TIP3   OH218915   6.246   3.740   4.778
 6321TIP3    H118916   6.325   3.697   4.808
 6321TIP3    H218917   6.199   3.674   4.727
 6322TIP3   OH218918   6.204   3.271   2.944
 6322TIP3    H118919   6.146   3.210   2.990
 6322TIP3    H218920   6.278   3.218   2.917
 6323TIP3   OH218921   6.840   3.637   4.582
 6323TIP3    H118922   6.855   3.564   4.642
 6323TIP3    H218923   6.914   3.696   4.596
 6324TIP3   OH218924   6.614   3.318   2.880
 6324TIP3    H118925   6.659   3.257   2.939
 6324TIP3    H218926   6.667   3.318   2.800
 6325TIP3   OH218927   5.869   3.188   4.969
 6325TIP3    H118928   5.886   3.095   4.981
 6325TIP3    H218929   5.783   3.192   4.928
 6326TIP3   OH218930   5.862   2.788   3.192
 6326TIP3    H118931   5.924   2.763   3.261
 6326TIP3    H218932   5.916   2.798   3.114
 6327TIP3   OH218933   6.489   3.270   4.750
 6327TIP3    H118934   6.444   3.290   4.667
 6327TIP3    H218935   6.525   3.183   4.737
 6328TIP3   OH218936   6.948   3.319   4.377
 6328TIP3    H118937   7.024   3.336   4.321
 6328TIP3    H218938   6.885   3.387   4.353
 6329TIP3   OH218939   5.984   2.934   4.979
 6329TIP3    H118940   6.060   2.908   4.927
 6329TIP3    H218941   6.019   2.951   5.066
 6330TIP3   OH218942   6.042   2.719   3.389
 6330TIP3    H118943   6.025   2.687   3.477
 6330TIP3    H218944   6.088   2.647   3.346
 6331TIP3   OH218945   6.348   2.816   4.640
 6331TIP3    H118946   6.262   2.856   4.648
 6331TIP3    H218947   6.379   2.842   4.553
 6332TIP3   OH218948   6.161   2.532   3.215
 6332TIP3    H118949   6.141   2.548   3.123
 6332TIP3    H218950   6.257   2.531   3.218
 6333TIP3   OH218951   6.848   3.184   4.719
 6333TIP3    H118952   6.919   3.152   4.662
 6333TIP3    H218953   6.848   3.124   4.793
 6334TIP3   OH218954   7.025   2.841   2.859
 6334TIP3    H118955   6.972   2.789   2.799
 6334TIP3    H218956   6.980   2.925   2.865
 6335TIP3   OH218957   6.448   2.582   4.746
 6335TIP3    H118958   6.451   2.511   4.681
 6335TIP3    H218959   6.415   2.657   4.697
 6336TIP3   OH218960   6.458   2.383   4.543
 6336TIP3    H118961   6.486   2.417   4.458
 6336TIP3    H218962   6.367   2.355   4.529
 6337TIP3   OH218963   6.462   2.905   4.411
 6337TIP3    H118964   6.552   2.930   4.391
 6337TIP3    H218965   6.408   2.967   4.361
 6338TIP3   OH218966   7.062   2.860   4.779
 6338TIP3    H118967   7.087   2.770   4.800
 6338TIP3    H218968   7.137   2.896   4.732
 6339TIP3   OH218969   7.071   3.140   4.538
 6339TIP3    H118970   7.020   3.204   4.488
 6339TIP3    H218971   7.160   3.146   4.504
 6340TIP3   OH218972   6.334   2.665   4.990
 6340TIP3    H118973   6.265   2.602   5.011
 6340TIP3    H218974   6.362   2.640   4.902
 6341TIP3   OH218975   6.580   2.150   4.644
 6341TIP3    H118976   6.539   2.230   4.612
 6341TIP3    H218977   6.514   2.082   4.632
 6342TIP3   OH218978   6.703   2.625   4.847
 6342TIP3    H118979   6.695   2.611   4.941
 6342TIP3    H218980   6.617   2.603   4.812
 6343TIP3   OH218981   6.947   2.582   4.718
 6343TIP3    H118982   6.868   2.579   4.771
 6343TIP3    H218983   7.016   2.550   4.775
 6344TIP3   OH218984   7.170   2.531   4.871
 6344TIP3    H118985   7.191   2.437   4.876
 6344TIP3    H218986   7.172   2.561   4.962
 6345TIP3   OH218987   6.168   2.443   5.053
 6345TIP3    H118988   6.173   2.354   5.018
 6345TIP3    H218989   6.205   2.437   5.141
 6346TIP3   OH218990   6.647   2.128   4.910
 6346TIP3    H118991   6.715   2.060   4.903
 6346TIP3    H218992   6.616   2.139   4.820
 6347TIP3   OH218993   6.740   2.342   5.054
 6347TIP3    H118994   6.710   2.269   5.001
 6347TIP3    H218995   6.667   2.404   5.054
 6348TIP3   OH218996   6.002   3.597   3.160
 6348TIP3    H118997   6.087   3.567   3.128
 6348TIP3    H218998   5.963   3.643   3.086
 6349TIP3   OH218999   5.469   2.986   3.325
 6349TIP3    H119000   5.563   3.005   3.328
 6349TIP3    H219001   5.465   2.891   3.313
 6350TIP3   OH219002   5.529   3.371   3.955
 6350TIP3    H119003   5.522   3.311   4.029
 6350TIP3    H219004   5.551   3.455   3.994
 6351TIP3   OH219005   7.196   3.873   3.761
 6351TIP3    H119006   7.244   3.861   3.843
 6351TIP3    H219007   7.263   3.863   3.693
 6352TIP3   OH219008   7.239   3.840   4.042
 6352TIP3    H119009   7.204   3.751   4.032
 6352TIP3    H219010   7.307   3.830   4.109
 6353TIP3   OH219011   7.314   3.526   4.641
 6353TIP3    H119012   7.236   3.534   4.697
 6353TIP3    H219013   7.345   3.616   4.631
 6354TIP3   OH219014   7.119   3.043   3.229
 6354TIP3    H119015   7.180   3.112   3.203
 6354TIP3    H219016   7.162   3.000   3.303
 6355TIP3   OH219017   7.233   2.872   3.415
 6355TIP3    H119018   7.157   2.845   3.467
 6355TIP3    H219019   7.288   2.920   3.476
 6356TIP3   OH219020   7.245   3.313   3.867
 6356TIP3    H119021   7.309   3.284   3.802
 6356TIP3    H219022   7.205   3.390   3.828
 6357TIP3   OH219023   7.116   3.593   4.056
 6357TIP3    H119024   7.050   3.635   4.112
 6357TIP3    H219025   7.066   3.553   3.985
 6358TIP3   OH219026   7.161   2.805   3.094
 6358TIP3    H119027   7.103   2.809   3.018
 6358TIP3    H219028   7.143   2.886   3.142
 6359TIP3   OH219029   7.072   2.460   2.997
 6359TIP3    H119030   7.011   2.502   2.937
 6359TIP3    H219031   7.044   2.369   3.000
 6360TIP3   OH219032   7.034   2.760   3.568
 6360TIP3    H119033   7.036   2.665   3.557
 6360TIP3    H219034   7.021   2.774   3.661
 6361TIP3   OH219035   5.683   2.828   4.348
 6361TIP3    H119036   5.672   2.794   4.259
 6361TIP3    H219037   5.776   2.821   4.366
 6362TIP3   OH219038   7.323   3.181   4.434
 6362TIP3    H119039   7.394   3.117   4.427
 6362TIP3    H219040   7.351   3.253   4.378
 6363TIP3   OH219041   7.508   2.992   4.523
 6363TIP3    H119042   7.425   2.944   4.529
 6363TIP3    H219043   7.575   2.927   4.541
 6364TIP3   OH219044   6.971   2.206   2.998
 6364TIP3    H119045   7.034   2.164   3.057
 6364TIP3    H219046   6.887   2.166   3.021
 6365TIP3   OH219047   7.036   2.492   3.467
 6365TIP3    H119048   7.078   2.408   3.487
 6365TIP3    H219049   7.077   2.520   3.385
 6366TIP3   OH219050   7.172   2.643   4.001
 6366TIP3    H119051   7.244   2.676   3.947
 6366TIP3    H219052   7.183   2.687   4.085
 6367TIP3   OH219053   7.235   2.812   4.219
 6367TIP3    H119054   7.163   2.850   4.270
 6367TIP3    H219055   7.274   2.887   4.173
 6368TIP3   OH219056   5.905   2.506   4.990
 6368TIP3    H119057   5.999   2.501   5.010
 6368TIP3    H219058   5.870   2.423   5.022
 6369TIP3   OH219059   7.736   2.372   4.753
 6369TIP3    H119060   7.828   2.346   4.745
 6369TIP3    H219061   7.716   2.415   4.669
 6370TIP3   OH219062   7.143   2.250   3.541
 6370TIP3    H119063   7.184   2.232   3.626
 6370TIP3    H219064   7.087   2.174   3.525
 6371TIP3   OH219065   5.879   2.220   4.340
 6371TIP3    H119066   5.932   2.140   4.347
 6371TIP3    H219067   5.943   2.289   4.322
 6372TIP3   OH219068   5.658   2.481   4.397
 6372TIP3    H119069   5.709   2.472   4.317
 6372TIP3    H219070   5.692   2.559   4.440
 6373TIP3   OH219071   7.566   2.482   4.559
 6373TIP3    H119072   7.484   2.531   4.567
 6373TIP3    H219073   7.541   2.401   4.515
 6374TIP3   OH219074   7.196   2.131   3.139
 6374TIP3    H119075   7.247   2.070   3.086
 6374TIP3    H219076   7.247   2.212   3.140
 6375TIP3   OH219077   5.648   1.991   3.903
 6375TIP3    H119078   5.562   1.979   3.944
 6375TIP3    H219079   5.630   2.045   3.826
 6376TIP3   OH219080   6.802   3.729   3.430
 6376TIP3    H119081   6.833   3.701   3.344
 6376TIP3    H219082   6.875   3.779   3.467
 6377TIP3   OH219083   5.868   2.041   4.723
 6377TIP3    H119084   5.818   2.032   4.804
 6377TIP3    H219085   5.813   2.094   4.667
 6378TIP3   OH219086   5.906   3.501   4.812
 6378TIP3    H119087   5.812   3.488   4.794
 6378TIP3    H219088   5.915   3.483   4.905
 6379TIP3   OH219089   6.111   3.541   4.352
 6379TIP3    H119090   6.047   3.600   4.312
 6379TIP3    H219091   6.193   3.560   4.308
 6380TIP3   OH219092   6.503   3.805   4.473
 6380TIP3    H119093   6.533   3.785   4.561
 6380TIP3    H219094   6.580   3.844   4.430
 6381TIP3   OH219095   6.716   3.937   4.354
 6381TIP3    H119096   6.778   3.880   4.307
 6381TIP3    H219097   6.771   3.992   4.409
 6382TIP3   OH219098   7.475   2.248   4.455
 6382TIP3    H119099   7.388   2.235   4.417
 6382TIP3    H219100   7.519   2.164   4.445
 6383TIP3   OH219101   5.765   3.805   4.401
 6383TIP3    H119102   5.674   3.824   4.376
 6383TIP3    H219103   5.786   3.872   4.467
 6384TIP3   OH219104   5.971   3.743   4.236
 6384TIP3    H119105   5.896   3.762   4.293
 6384TIP3    H219106   5.944   3.776   4.150
 6385TIP3   OH219107   6.416   3.811   4.029
 6385TIP3    H119108   6.349   3.798   3.962
 6385TIP3    H219109   6.423   3.906   4.038
 6386TIP3   OH219110   6.673   3.740   4.092
 6386TIP3    H119111   6.584   3.758   4.061
 6386TIP3    H219112   6.728   3.802   4.044
 6387TIP3   OH219113   6.867   3.906   3.985
 6387TIP3    H119114   6.873   3.995   3.952
 6387TIP3    H219115   6.901   3.851   3.915
 6388TIP3   OH219116   5.686   3.578   4.115
 6388TIP3    H119117   5.711   3.547   4.202
 6388TIP3    H219118   5.753   3.543   4.057
 6389TIP3   OH219119   5.886   3.465   3.969
 6389TIP3    H119120   5.894   3.379   4.010
 6389TIP3    H219121   5.975   3.502   3.973
 6390TIP3   OH219122   6.157   3.546   3.995
 6390TIP3    H119123   6.175   3.454   3.977
 6390TIP3    H219124   6.209   3.565   4.073
 6391TIP3   OH219125   6.705   2.192   4.090
 6391TIP3    H119126   6.664   2.122   4.140
 6391TIP3    H219127   6.772   2.147   4.037
 6392TIP3   OH219128   7.192   2.094   3.976
 6392TIP3    H119129   7.230   2.154   3.912
 6392TIP3    H219130   7.101   2.123   3.983
 6393TIP3   OH219131   7.309   2.205   3.757
 6393TIP3    H119132   7.391   2.159   3.740
 6393TIP3    H219133   7.332   2.297   3.756
 6394TIP3   OH219134   5.953   1.893   4.081
 6394TIP3    H119135   5.864   1.859   4.092
 6394TIP3    H219136   6.008   1.815   4.073
 6395TIP3   OH219137   5.769   1.797   3.732
 6395TIP3    H119138   5.800   1.846   3.656
 6395TIP3    H219139   5.735   1.863   3.792
 6396TIP3   OH219140   6.432   1.931   3.979
 6396TIP3    H119141   6.480   1.978   3.911
 6396TIP3    H219142   6.473   1.960   4.061
 6397TIP3   OH219143   6.909   2.066   3.955
 6397TIP3    H119144   6.927   2.035   3.867
 6397TIP3    H219145   6.919   1.989   4.010
 6398TIP3   OH219146   6.972   2.032   3.526
 6398TIP3    H119147   6.890   2.077   3.547
 6398TIP3    H219148   6.961   1.944   3.562
 6399TIP3   OH219149   5.443   3.371   3.495
 6399TIP3    H119150   5.365   3.348   3.445
 6399TIP3    H219151   5.423   3.456   3.534
 6400TIP3   OH219152   5.888   1.923   3.501
 6400TIP3    H119153   5.934   1.861   3.444
 6400TIP3    H219154   5.957   1.980   3.535
 6401TIP3   OH219155   6.367   2.125   3.592
 6401TIP3    H119156   6.426   2.073   3.648
 6401TIP3    H219157   6.382   2.215   3.620
 6402TIP3   OH219158   6.248   3.505   3.082
 6402TIP3    H119159   6.332   3.535   3.047
 6402TIP3    H219160   6.225   3.430   3.026
 6403TIP3   OH219161   6.923   3.656   3.193
 6403TIP3    H119162   6.920   3.561   3.187
 6403TIP3    H219163   6.888   3.687   3.110
 6404TIP3   OH219164   6.180   2.169   4.970
 6404TIP3    H119165   6.144   2.104   5.030
 6404TIP3    H219166   6.272   2.177   4.995
 6405TIP3   OH219167   6.428   2.178   5.094
 6405TIP3    H119168   6.506   2.153   5.044
 6405TIP3    H219169   6.419   2.109   5.159
 6406TIP3   OH219170   5.557   3.339   3.167
 6406TIP3    H119171   5.561   3.341   3.262
 6406TIP3    H219172   5.640   3.302   3.139
 6407TIP3   OH219173   7.244   2.264   4.881
 6407TIP3    H119174   7.261   2.239   4.971
 6407TIP3    H219175   7.329   2.259   4.837
 6408TIP3   OH219176   7.147   3.796   4.389
 6408TIP3    H119177   7.077   3.770   4.330
 6408TIP3    H219178   7.145   3.892   4.388
 6409TIP3   OH219179   7.529   3.056   3.882
 6409TIP3    H119180   7.624   3.052   3.893
 6409TIP3    H219181   7.516   3.124   3.816
 6410TIP3   OH219182   7.780   3.353   3.620
 6410TIP3    H119183   7.703   3.303   3.644
 6410TIP3    H219184   7.821   3.376   3.703
 6411TIP3   OH219185   7.350   2.625   3.468
 6411TIP3    H119186   7.320   2.716   3.467
 6411TIP3    H219187   7.297   2.581   3.402
 6412TIP3   OH219188   7.395   2.976   3.602
 6412TIP3    H119189   7.482   2.936   3.611
 6412TIP3    H219190   7.410   3.069   3.619
 6413TIP3   OH219191   7.632   2.833   3.620
 6413TIP3    H119192   7.699   2.901   3.613
 6413TIP3    H219193   7.649   2.775   3.546
 6414TIP3   OH219194   0.036   3.489   3.795
 6414TIP3    H119195   0.046   3.578   3.763
 6414TIP3    H219196   0.001   3.500   3.884
 6415TIP3   OH219197   7.302   3.222   3.127
 6415TIP3    H119198   7.264   3.243   3.042
 6415TIP3    H219199   7.337   3.305   3.160
 6416TIP3   OH219200   7.831   3.204   4.181
 6416TIP3    H119201   7.866   3.287   4.215
 6416TIP3    H219202   7.739   3.204   4.208
 6417TIP3   OH219203   7.869   3.950   4.110
 6417TIP3    H119204   7.890   3.875   4.054
 6417TIP3    H219205   7.790   3.924   4.157
 6418TIP3   OH219206   7.458   3.366   4.063
 6418TIP3    H119207   7.399   3.343   3.992
 6418TIP3    H219208   7.500   3.284   4.087
 6419TIP3   OH219209   7.307   3.537   3.693
 6419TIP3    H119210   7.366   3.464   3.679
 6419TIP3    H219211   7.356   3.597   3.750
 6420TIP3   OH219212   7.477   3.753   3.185
 6420TIP3    H119213   7.525   3.756   3.268
 6420TIP3    H219214   7.434   3.668   3.186
 6421TIP3   OH219215   7.561   3.611   4.140
 6421TIP3    H119216   7.649   3.592   4.172
 6421TIP3    H219217   7.534   3.532   4.093
 6422TIP3   OH219218   7.711   2.939   4.304
 6422TIP3    H119219   7.806   2.933   4.318
 6422TIP3    H219220   7.675   2.863   4.349
 6423TIP3   OH219221   7.371   2.465   3.708
 6423TIP3    H119222   7.432   2.499   3.773
 6423TIP3    H219223   7.362   2.537   3.645
 6424TIP3   OH219224   7.358   2.356   3.155
 6424TIP3    H119225   7.438   2.402   3.128
 6424TIP3    H219226   7.302   2.424   3.192
 6425TIP3   OH219227   7.622   2.616   3.438
 6425TIP3    H119228   7.527   2.624   3.447
 6425TIP3    H219229   7.640   2.523   3.451
 6426TIP3   OH219230   7.875   3.427   4.330
 6426TIP3    H119231   7.950   3.393   4.380
 6426TIP3    H219232   7.813   3.455   4.397
 6427TIP3   OH219233   7.556   3.148   4.218
 6427TIP3    H119234   7.608   3.080   4.262
 6427TIP3    H219235   7.483   3.100   4.179
 6428TIP3   OH219236   7.631   3.500   3.056
 6428TIP3    H119237   7.663   3.590   3.056
 6428TIP3    H219238   7.546   3.504   3.100
 6429TIP3   OH219239   7.376   2.767   2.922
 6429TIP3    H119240   7.420   2.851   2.926
 6429TIP3    H219241   7.293   2.781   2.967
 6430TIP3   OH219242   7.723   3.766   3.061
 6430TIP3    H119243   7.630   3.779   3.079
 6430TIP3    H219244   7.753   3.851   3.029
 6431TIP3   OH219245   7.738   2.671   4.175
 6431TIP3    H119246   7.643   2.667   4.180
 6431TIP3    H219247   7.766   2.690   4.265
 6432TIP3   OH219248   7.458   3.742   3.833
 6432TIP3    H119249   7.515   3.673   3.869
 6432TIP3    H219250   7.483   3.821   3.881
 6433TIP3   OH219251   7.452   3.012   3.022
 6433TIP3    H119252   7.393   3.072   3.067
 6433TIP3    H219253   7.537   3.056   3.022
 6434TIP3   OH219254   7.722   3.585   2.794
 6434TIP3    H119255   7.650   3.636   2.829
 6434TIP3    H219256   7.736   3.515   2.858
 6435TIP3   OH219257   7.484   3.236   2.797
 6435TIP3    H119258   7.539   3.243   2.876
 6435TIP3    H219259   7.536   3.279   2.729
 6436TIP3   OH219260   7.317   2.487   2.860
 6436TIP3    H119261   7.366   2.564   2.889
 6436TIP3    H219262   7.242   2.482   2.919
 6437TIP3   OH219263   7.378   3.490   3.194
 6437TIP3    H119264   7.344   3.511   3.281
 6437TIP3    H219265   7.311   3.523   3.134
 6438TIP3   OH219266   7.487   4.055   4.228
 6438TIP3    H119267   7.555   4.048   4.295
 6438TIP3    H219268   7.449   3.967   4.223
 6439TIP3   OH219269   0.085   4.048   4.343
 6439TIP3    H119270   0.140   3.982   4.387
 6439TIP3    H219271   0.060   4.006   4.260
 6440TIP3   OH219272   7.627   3.446   4.470
 6440TIP3    H119273   7.646   3.353   4.478
 6440TIP3    H219274   7.544   3.450   4.423
 6441TIP3   OH219275   7.710   3.185   4.490
 6441TIP3    H119276   7.636   3.124   4.499
 6441TIP3    H219277   7.783   3.129   4.465
 6442TIP3   OH219278   7.220   3.212   2.856
 6442TIP3    H119279   7.312   3.228   2.835
 6442TIP3    H219280   7.201   3.126   2.818
 6443TIP3   OH219281   7.134   3.806   3.286
 6443TIP3    H119282   7.070   3.754   3.238
 6443TIP3    H219283   7.189   3.742   3.331
 6444TIP3   OH219284   7.289   3.624   3.427
 6444TIP3    H119285   7.266   3.564   3.498
 6444TIP3    H219286   7.332   3.697   3.471
 6445TIP3   OH219287   7.645   2.721   4.454
 6445TIP3    H119288   7.692   2.766   4.524
 6445TIP3    H219289   7.640   2.630   4.483
 6446TIP3   OH219290   7.570   2.518   3.893
 6446TIP3    H119291   7.649   2.463   3.897
 6446TIP3    H219292   7.602   2.607   3.901
 6447TIP3   OH219293   7.369   2.768   3.858
 6447TIP3    H119294   7.361   2.836   3.791
 6447TIP3    H219295   7.461   2.771   3.884
 6448TIP3   OH219296   7.487   2.132   3.271
 6448TIP3    H119297   7.452   2.166   3.352
 6448TIP3    H219298   7.448   2.186   3.202
 6449TIP3   OH219299   7.654   2.348   4.258
 6449TIP3    H119300   7.608   2.319   4.337
 6449TIP3    H219301   7.584   2.378   4.199
 6450TIP3   OH219302   7.654   3.838   4.348
 6450TIP3    H119303   7.574   3.815   4.302
 6450TIP3    H219304   7.648   3.793   4.432
 6451TIP3   OH219305   0.010   3.754   3.920
 6451TIP3    H119306  -0.050   3.748   3.846
 6451TIP3    H219307   0.097   3.742   3.882
 6452TIP3   OH219308   7.522   4.008   3.905
 6452TIP3    H119309   7.445   4.064   3.894
 6452TIP3    H219310   7.592   4.068   3.932
 6453TIP3   OH219311   7.656   3.931   3.680
 6453TIP3    H119312   7.613   3.958   3.760
 6453TIP3    H219313   7.656   4.009   3.624
 6454TIP3   OH219314   7.415   3.824   3.571
 6454TIP3    H119315   7.435   3.795   3.659
 6454TIP3    H219316   7.499   3.827   3.526
 6455TIP3   OH219317   7.641   3.785   3.403
 6455TIP3    H119318   7.640   3.690   3.415
 6455TIP3    H219319   7.733   3.810   3.415
 6456TIP3   OH219320   7.795   3.528   4.762
 6456TIP3    H119321   7.842   3.589   4.704
 6456TIP3    H219322   7.745   3.585   4.821
 6457TIP3   OH219323   7.214   3.606   3.016
 6457TIP3    H119324   7.130   3.593   2.972
 6457TIP3    H219325   7.254   3.680   2.970
 6458TIP3   OH219326   7.242   3.659   2.629
 6458TIP3    H119327   7.236   3.707   2.711
 6458TIP3    H219328   7.330   3.621   2.630
 6459TIP3   OH219329   0.912   3.966   4.818
 6459TIP3    H119330   0.870   4.051   4.801
 6459TIP3    H219331   0.848   3.901   4.789
 6460TIP3   OH219332   0.900   3.964   5.224
 6460TIP3    H119333   0.949   3.950   5.306
 6460TIP3    H219334   0.861   3.878   5.205
 6461TIP3   OH219335   0.046   3.859   5.616
 6461TIP3    H119336   0.033   3.826   5.705
 6461TIP3    H219337   0.141   3.872   5.609
 6462TIP3   OH219338   1.162   4.278   4.903
 6462TIP3    H119339   1.152   4.209   4.969
 6462TIP3    H219340   1.184   4.357   4.954
 6463TIP3   OH219341   0.325   4.165   5.483
 6463TIP3    H119342   0.266   4.093   5.460
 6463TIP3    H219343   0.274   4.244   5.466
 6464TIP3   OH219344   0.784   4.697   4.905
 6464TIP3    H119345   0.821   4.635   4.842
 6464TIP3    H219346   0.780   4.649   4.988
 6465TIP3   OH219347   0.730   4.197   5.228
 6465TIP3    H119348   0.767   4.114   5.198
 6465TIP3    H219349   0.804   4.246   5.262
 6466TIP3   OH219350   1.746   3.511   5.251
 6466TIP3    H119351   1.760   3.595   5.294
 6466TIP3    H219352   1.779   3.524   5.162
 6467TIP3   OH219353   1.123   3.684   5.281
 6467TIP3    H119354   1.154   3.598   5.311
 6467TIP3    H219355   1.090   3.668   5.192
 6468TIP3   OH219356   0.526   3.324   5.201
 6468TIP3    H119357   0.491   3.396   5.148
 6468TIP3    H219358   0.491   3.245   5.160
 6469TIP3   OH219359   1.171   3.434   4.864
 6469TIP3    H119360   1.234   3.429   4.937
 6469TIP3    H219361   1.222   3.469   4.791
 6470TIP3   OH219362   0.058   3.581   5.327
 6470TIP3    H119363   0.141   3.622   5.354
 6470TIP3    H219364   0.076   3.544   5.241
 6471TIP3   OH219365   0.535   3.710   5.151
 6471TIP3    H119366   0.630   3.703   5.156
 6471TIP3    H219367   0.508   3.633   5.101
 6472TIP3   OH219368   1.793   3.731   5.418
 6472TIP3    H119369   1.705   3.769   5.413
 6472TIP3    H219370   1.830   3.767   5.499
 6473TIP3   OH219371   0.502   3.303   5.683
 6473TIP3    H119372   0.451   3.334   5.609
 6473TIP3    H219373   0.438   3.288   5.753
 6474TIP3   OH219374   0.760   4.166   4.707
 6474TIP3    H119375   0.769   4.157   4.612
 6474TIP3    H219376   0.739   4.258   4.721
 6475TIP3   OH219377   0.593   4.108   5.450
 6475TIP3    H119378   0.504   4.141   5.448
 6475TIP3    H219379   0.636   4.149   5.375
 6476TIP3   OH219380   1.320   3.467   5.090
 6476TIP3    H119381   1.281   3.445   5.175
 6476TIP3    H219382   1.380   3.540   5.110
 6477TIP3   OH219383   0.411   3.381   5.440
 6477TIP3    H119384   0.421   3.473   5.465
 6477TIP3    H219385   0.469   3.370   5.365
 6478TIP3   OH219386   0.502   4.416   5.490
 6478TIP3    H119387   0.520   4.410   5.396
 6478TIP3    H219388   0.408   4.398   5.497
 6479TIP3   OH219389   1.196   4.522   5.051
 6479TIP3    H119390   1.105   4.514   5.081
 6479TIP3    H219391   1.198   4.606   5.005
 6480TIP3   OH219392   1.544   3.401   5.419
 6480TIP3    H119393   1.459   3.424   5.382
 6480TIP3    H219394   1.608   3.428   5.352
 6481TIP3   OH219395   0.834   3.018   5.391
 6481TIP3    H119396   0.824   2.927   5.418
 6481TIP3    H219397   0.758   3.062   5.430
 6482TIP3   OH219398   0.911   4.557   4.704
 6482TIP3    H119399   0.959   4.475   4.695
 6482TIP3    H219400   0.974   4.624   4.677
 6483TIP3   OH219401   1.052   4.330   4.655
 6483TIP3    H119402   1.074   4.259   4.596
 6483TIP3    H219403   1.092   4.306   4.739
 6484TIP3   OH219404   1.442   4.412   5.385
 6484TIP3    H119405   1.424   4.338   5.327
 6484TIP3    H219406   1.425   4.489   5.332
 6485TIP3   OH219407   0.754   3.799   4.660
 6485TIP3    H119408   0.677   3.851   4.637
 6485TIP3    H219409   0.804   3.793   4.579
 6486TIP3   OH219410   0.711   3.620   4.341
 6486TIP3    H119411   0.775   3.670   4.392
 6486TIP3    H219412   0.764   3.553   4.296
 6487TIP3   OH219413   1.619   4.075   5.253
 6487TIP3    H119414   1.535   4.120   5.249
 6487TIP3    H219415   1.655   4.082   5.165
 6488TIP3   OH219416   1.090   3.914   4.618
 6488TIP3    H119417   1.036   3.937   4.693
 6488TIP3    H219418   1.172   3.881   4.655
 6489TIP3   OH219419   1.314   3.935   5.566
 6489TIP3    H119420   1.311   4.018   5.614
 6489TIP3    H219421   1.232   3.934   5.517
 6490TIP3   OH219422   0.271   3.768   5.062
 6490TIP3    H119423   0.258   3.677   5.036
 6490TIP3    H219424   0.361   3.772   5.093
 6491TIP3   OH219425   0.468   4.310   5.223
 6491TIP3    H119426   0.450   4.350   5.138
 6491TIP3    H219427   0.547   4.258   5.209
 6492TIP3   OH219428   0.576   3.840   5.391
 6492TIP3    H119429   0.570   3.829   5.296
 6492TIP3    H219430   0.585   3.935   5.403
 6493TIP3   OH219431   0.948   4.508   5.168
 6493TIP3    H119432   0.948   4.592   5.214
 6493TIP3    H219433   0.948   4.442   5.237
 6494TIP3   OH219434   0.616   4.466   5.730
 6494TIP3    H119435   0.548   4.468   5.797
 6494TIP3    H219436   0.573   4.428   5.653
 6495TIP3   OH219437   0.932   3.763   4.451
 6495TIP3    H119438   0.991   3.823   4.496
 6495TIP3    H219439   0.958   3.768   4.359
 6496TIP3   OH219440   0.429   3.953   5.854
 6496TIP3    H119441   0.457   4.012   5.924
 6496TIP3    H219442   0.338   3.979   5.836
 6497TIP3   OH219443   0.670   4.423   4.692
 6497TIP3    H119444   0.747   4.480   4.692
 6497TIP3    H219445   0.640   4.422   4.601
 6498TIP3   OH219446   1.426   2.993   4.505
 6498TIP3    H119447   1.351   3.013   4.561
 6498TIP3    H219448   1.435   3.069   4.449
 6499TIP3   OH219449   0.112   3.819   4.806
 6499TIP3    H119450   0.059   3.860   4.875
 6499TIP3    H219451   0.138   3.734   4.843
 6500TIP3   OH219452   1.252   4.368   4.065
 6500TIP3    H119453   1.248   4.461   4.042
 6500TIP3    H219454   1.342   4.342   4.042
 6501TIP3   OH219455   1.669   4.776   5.458
 6501TIP3    H119456   1.675   4.681   5.471
 6501TIP3    H219457   1.592   4.802   5.508
 6502TIP3   OH219458   0.803   4.567   5.560
 6502TIP3    H119459   0.812   4.658   5.587
 6502TIP3    H219460   0.741   4.529   5.623
 6503TIP3   OH219461   0.627   4.696   4.530
 6503TIP3    H119462   0.555   4.684   4.468
 6503TIP3    H219463   0.617   4.787   4.559
 6504TIP3   OH219464   0.778   4.585   4.161
 6504TIP3    H119465   0.825   4.510   4.126
 6504TIP3    H219466   0.819   4.603   4.245
 6505TIP3   OH219467   0.862   4.639   4.412
 6505TIP3    H119468   0.783   4.643   4.467
 6505TIP3    H219469   0.932   4.615   4.472
 6506TIP3   OH219470   1.557   3.892   5.729
 6506TIP3    H119471   1.476   3.899   5.679
 6506TIP3    H219472   1.578   3.799   5.729
 6507TIP3   OH219473   0.612   3.122   5.508
 6507TIP3    H119474   0.530   3.084   5.476
 6507TIP3    H219475   0.586   3.196   5.562
 6508TIP3   OH219476   1.106   3.249   5.740
 6508TIP3    H119477   1.176   3.222   5.800
 6508TIP3    H219478   1.025   3.230   5.787
 6509TIP3   OH219479   1.320   3.669   5.650
 6509TIP3    H119480   1.280   3.665   5.737
 6509TIP3    H219481   1.303   3.759   5.620
 6510TIP3   OH219482   1.003   3.757   4.189
 6510TIP3    H119483   0.955   3.751   4.107
 6510TIP3    H219484   1.085   3.802   4.166
 6511TIP3   OH219485   0.719   3.167   4.505
 6511TIP3    H119486   0.687   3.168   4.595
 6511TIP3    H219487   0.686   3.085   4.469
 6512TIP3   OH219488   0.515   3.634   5.550
 6512TIP3    H119489   0.533   3.662   5.640
 6512TIP3    H219490   0.534   3.711   5.497
 6513TIP3   OH219491   0.402   3.504   5.041
 6513TIP3    H119492   0.315   3.479   5.071
 6513TIP3    H219493   0.408   3.469   4.952
 6514TIP3   OH219494   0.881   3.607   4.802
 6514TIP3    H119495   0.831   3.677   4.759
 6514TIP3    H219496   0.938   3.573   4.733
 6515TIP3   OH219497   1.044   3.883   5.873
 6515TIP3    H119498   1.019   3.815   5.936
 6515TIP3    H219499   1.138   3.897   5.889
 6516TIP3   OH219500   1.035   3.621   5.029
 6516TIP3    H119501   0.970   3.640   4.961
 6516TIP3    H219502   1.084   3.546   4.996
 6517TIP3   OH219503   0.259   3.710   5.784
 6517TIP3    H119504   0.332   3.703   5.845
 6517TIP3    H219505   0.183   3.730   5.839
 6518TIP3   OH219506   0.404   3.145   4.485
 6518TIP3    H119507   0.389   3.144   4.579
 6518TIP3    H219508   0.328   3.191   4.449
 6519TIP3   OH219509   7.889   3.312   4.962
 6519TIP3    H119510   7.917   3.221   4.951
 6519TIP3    H219511   7.800   3.314   4.927
 6520TIP3   OH219512   1.058   3.886   5.448
 6520TIP3    H119513   1.087   3.820   5.385
 6520TIP3    H219514   1.019   3.834   5.519
 6521TIP3   OH219515   0.784   3.329   5.111
 6521TIP3    H119516   0.703   3.328   5.162
 6521TIP3    H219517   0.854   3.316   5.175
 6522TIP3   OH219518   0.164   3.421   5.132
 6522TIP3    H119519   0.099   3.386   5.071
 6522TIP3    H219520   0.185   3.348   5.189
 6523TIP3   OH219521   0.434   3.395   4.797
 6523TIP3    H119522   0.527   3.413   4.795
 6523TIP3    H219523   0.402   3.423   4.712
 6524TIP3   OH219524   1.186   3.418   5.332
 6524TIP3    H119525   1.166   3.435   5.424
 6524TIP3    H219526   1.122   3.353   5.305
 6525TIP3   OH219527   0.267   3.450   4.591
 6525TIP3    H119528   0.191   3.396   4.568
 6525TIP3    H219529   0.313   3.463   4.507
 6526TIP3   OH219530   1.388   5.124   5.553
 6526TIP3    H119531   1.385   5.134   5.458
 6526TIP3    H219532   1.469   5.169   5.579
 6527TIP3   OH219533   0.425   4.121   6.073
 6527TIP3    H119534   0.485   4.185   6.110
 6527TIP3    H219535   0.338   4.162   6.082
 6528TIP3   OH219536   0.806   3.687   5.211
 6528TIP3    H119537   0.879   3.642   5.166
 6528TIP3    H219538   0.806   3.650   5.299
 6529TIP3   OH219539   0.386   3.145   5.051
 6529TIP3    H119540   0.292   3.130   5.043
 6529TIP3    H219541   0.424   3.103   4.973
 6530TIP3   OH219542   0.788   3.592   5.476
 6530TIP3    H119543   0.699   3.618   5.502
 6530TIP3    H219544   0.845   3.642   5.534
 6531TIP3   OH219545   0.541   3.961   4.595
 6531TIP3    H119546   0.463   3.908   4.582
 6531TIP3    H219547   0.529   4.001   4.682
 6532TIP3   OH219548   1.382   4.210   5.207
 6532TIP3    H119549   1.419   4.257   5.133
 6532TIP3    H219550   1.303   4.168   5.172
 6533TIP3   OH219551   0.968   3.272   4.505
 6533TIP3    H119552   0.875   3.251   4.503
 6533TIP3    H219553   0.971   3.367   4.521
 6534TIP3   OH219554   0.911   4.294   5.624
 6534TIP3    H119555   0.960   4.284   5.705
 6534TIP3    H219556   0.878   4.384   5.626
 6535TIP3   OH219557   1.029   3.533   4.578
 6535TIP3    H119558   1.124   3.535   4.589
 6535TIP3    H219559   1.008   3.610   4.526
 6536TIP3   OH219560   0.449   4.010   5.161
 6536TIP3    H119561   0.383   4.029   5.094
 6536TIP3    H219562   0.398   3.982   5.237
 6537TIP3   OH219563   0.686   4.125   4.422
 6537TIP3    H119564   0.645   4.211   4.430
 6537TIP3    H219565   0.633   4.068   4.478
 6538TIP3   OH219566   0.822   4.049   5.905
 6538TIP3    H119567   0.772   4.030   5.826
 6538TIP3    H219568   0.904   4.000   5.893
 6539TIP3   OH219569   1.070   4.581   5.488
 6539TIP3    H119570   0.975   4.569   5.492
 6539TIP3    H219571   1.093   4.617   5.573
 6540TIP3   OH219572   1.439   3.623   4.400
 6540TIP3    H119573   1.384   3.578   4.336
 6540TIP3    H219574   1.444   3.713   4.369
 6541TIP3   OH219575   1.685   4.498   5.479
 6541TIP3    H119576   1.591   4.481   5.473
 6541TIP3    H219577   1.720   4.468   5.395
 6542TIP3   OH219578   1.167   4.437   4.325
 6542TIP3    H119579   1.147   4.362   4.380
 6542TIP3    H219580   1.194   4.399   4.241
 6543TIP3   OH219581   1.153   4.074   5.104
 6543TIP3    H119582   1.063   4.052   5.129
 6543TIP3    H219583   1.189   3.993   5.068
 6544TIP3   OH219584   0.299   4.382   5.001
 6544TIP3    H119585   0.232   4.404   4.936
 6544TIP3    H219586   0.254   4.322   5.061
 6545TIP3   OH219587   0.510   4.065   4.856
 6545TIP3    H119588   0.557   4.146   4.837
 6545TIP3    H219589   0.547   4.035   4.939
 6546TIP3   OH219590   0.648   4.613   5.318
 6546TIP3    H119591   0.680   4.700   5.293
 6546TIP3    H219592   0.704   4.586   5.390
 6547TIP3   OH219593   0.123   4.455   4.795
 6547TIP3    H119594   0.035   4.458   4.831
 6547TIP3    H219595   0.146   4.546   4.779
 6548TIP3   OH219596   0.958   4.295   5.351
 6548TIP3    H119597   0.940   4.290   5.445
 6548TIP3    H219598   1.042   4.250   5.340
 6549TIP3   OH219599   0.943   4.174   4.243
 6549TIP3    H119600   0.999   4.162   4.320
 6549TIP3    H219601   0.855   4.148   4.273
 6550TIP3   OH219602   1.198   4.816   5.400
 6550TIP3    H119603   1.134   4.746   5.410
 6550TIP3    H219604   1.172   4.860   5.319
 6551TIP3   OH219605   1.257   4.640   4.021
 6551TIP3    H119606   1.295   4.708   3.965
 6551TIP3    H219607   1.183   4.683   4.063
 6552TIP3   OH219608   0.259   3.451   6.071
 6552TIP3    H119609   0.176   3.427   6.112
 6552TIP3    H219610   0.325   3.398   6.115
 6553TIP3   OH219611   1.117   4.135   4.454
 6553TIP3    H119612   1.100   4.059   4.509
 6553TIP3    H219613   1.210   4.127   4.432
 6554TIP3   OH219614   0.310   4.140   4.158
 6554TIP3    H119615   0.316   4.046   4.143
 6554TIP3    H219616   0.316   4.149   4.253
 6555TIP3   OH219617   0.351   4.191   4.424
 6555TIP3    H119618   0.344   4.113   4.479
 6555TIP3    H219619   0.270   4.239   4.439
 6556TIP3   OH219620   1.126   3.479   5.593
 6556TIP3    H119621   1.205   3.524   5.622
 6556TIP3    H219622   1.120   3.402   5.648
 6557TIP3   OH219623   1.022   3.219   4.773
 6557TIP3    H119624   1.004   3.239   4.681
 6557TIP3    H219625   1.066   3.297   4.806
 6558TIP3   OH219626   0.557   4.373   4.446
 6558TIP3    H119627   0.478   4.320   4.440
 6558TIP3    H219628   0.538   4.452   4.397
 6559TIP3   OH219629   0.701   3.413   4.863
 6559TIP3    H119630   0.761   3.482   4.837
 6559TIP3    H219631   0.726   3.390   4.952
 6560TIP3   OH219632   0.972   3.716   5.646
 6560TIP3    H119633   0.991   3.757   5.730
 6560TIP3    H219634   1.021   3.634   5.648
 6561TIP3   OH219635   0.849   3.109   4.955
 6561TIP3    H119636   0.832   3.185   5.009
 6561TIP3    H219637   0.917   3.137   4.893
 6562TIP3   OH219638   0.131   4.346   4.485
 6562TIP3    H119639   0.174   4.401   4.419
 6562TIP3    H219640   0.148   4.390   4.568
 6563TIP3   OH219641   0.379   3.129   4.758
 6563TIP3    H119642   0.368   3.219   4.787
 6563TIP3    H219643   0.474   3.116   4.758
 6564TIP3   OH219644   1.585   3.617   5.638
 6564TIP3    H119645   1.490   3.625   5.647
 6564TIP3    H219646   1.598   3.564   5.559
 6565TIP3   OH219647   1.248   3.818   5.021
 6565TIP3    H119648   1.174   3.758   5.032
 6565TIP3    H219649   1.318   3.779   5.074
 6566TIP3   OH219650  -0.022   4.107   4.601
 6566TIP3    H119651   0.042   4.143   4.664
 6566TIP3    H219652   0.027   4.101   4.519
 6567TIP3   OH219653   7.908   3.332   4.613
 6567TIP3    H119654   7.865   3.397   4.668
 6567TIP3    H219655   7.837   3.292   4.563
 6568TIP3   OH219656   1.233   4.786   4.965
 6568TIP3    H119657   1.197   4.839   4.894
 6568TIP3    H219658   1.328   4.794   4.955
 6569TIP3   OH219659   0.371   3.004   5.468
 6569TIP3    H119660   0.321   2.968   5.394
 6569TIP3    H219661   0.374   2.932   5.532
 6570TIP3   OH219662   0.453   4.735   5.905
 6570TIP3    H119663   0.519   4.693   5.959
 6570TIP3    H219664   0.502   4.767   5.829
 6571TIP3   OH219665   0.488   4.344   4.128
 6571TIP3    H119666   0.439   4.263   4.144
 6571TIP3    H219667   0.572   4.314   4.093
 6572TIP3   OH219668   1.125   4.676   5.735
 6572TIP3    H119669   1.123   4.609   5.804
 6572TIP3    H219670   1.193   4.738   5.763
 6573TIP3   OH219671   0.906   4.373   4.053
 6573TIP3    H119672   0.938   4.311   4.118
 6573TIP3    H219673   0.968   4.367   3.980
 6574TIP3   OH219674   0.180   3.777   4.374
 6574TIP3    H119675   0.251   3.772   4.438
 6574TIP3    H219676   0.223   3.798   4.292
 6575TIP3   OH219677   0.748   4.322   5.941
 6575TIP3    H119678   0.711   4.346   5.856
 6575TIP3    H219679   0.782   4.234   5.929
 6576TIP3   OH219680   0.651   4.060   4.154
 6576TIP3    H119681   0.653   4.070   4.249
 6576TIP3    H219682   0.647   3.965   4.141
 6577TIP3   OH219683   1.220   4.350   5.535
 6577TIP3    H119684   1.300   4.375   5.490
 6577TIP3    H219685   1.159   4.422   5.518
 6578TIP3   OH219686   0.362   3.732   4.583
 6578TIP3    H119687   0.326   3.684   4.658
 6578TIP3    H219688   0.401   3.664   4.528
 6579TIP3   OH219689   0.619   3.787   5.752
 6579TIP3    H119690   0.552   3.837   5.800
 6579TIP3    H219691   0.673   3.854   5.709
 6580TIP3   OH219692   0.449   3.548   4.400
 6580TIP3    H119693   0.413   3.558   4.312
 6580TIP3    H219694   0.543   3.563   4.390
 6581TIP3   OH219695   1.097   4.237   5.891
 6581TIP3    H119696   1.168   4.200   5.839
 6581TIP3    H219697   1.093   4.182   5.969
 6582TIP3   OH219698   1.221   3.886   4.076
 6582TIP3    H119699   1.205   3.843   3.991
 6582TIP3    H219700   1.192   3.976   4.063
 6583TIP3   OH219701   0.749   3.605   5.907
 6583TIP3    H119702   0.754   3.527   5.850
 6583TIP3    H219703   0.698   3.668   5.856
 6584TIP3   OH219704   0.750   3.414   5.703
 6584TIP3    H119705   0.771   3.451   5.618
 6584TIP3    H219706   0.659   3.384   5.694
 6585TIP3   OH219707   0.760   3.993   5.636
 6585TIP3    H119708   0.849   4.004   5.604
 6585TIP3    H219709   0.705   4.033   5.568
 6586TIP3   OH219710   1.312   3.914   5.966
 6586TIP3    H119711   1.352   3.827   5.970
 6586TIP3    H219712   1.385   3.974   5.953
 6587TIP3   OH219713   1.336   4.178   5.710
 6587TIP3    H119714   1.284   4.238   5.656
 6587TIP3    H219715   1.426   4.190   5.680
 6588TIP3   OH219716   0.663   3.720   6.151
 6588TIP3    H119717   0.578   3.684   6.176
 6588TIP3    H219718   0.674   3.692   6.060
 6589TIP3   OH219719   0.849   3.187   5.821
 6589TIP3    H119720   0.813   3.266   5.782
 6589TIP3    H219721   0.786   3.118   5.800
 6590TIP3   OH219722   0.979   3.673   6.035
 6590TIP3    H119723   0.967   3.658   6.129
 6590TIP3    H219724   0.897   3.644   5.995
 6591TIP3   OH219725   1.211   3.625   5.891
 6591TIP3    H119726   1.134   3.628   5.949
 6591TIP3    H219727   1.282   3.599   5.949
 6592TIP3   OH219728   1.441   3.585   6.041
 6592TIP3    H119729   1.454   3.490   6.048
 6592TIP3    H219730   1.437   3.615   6.132
 6593TIP3   OH219731   0.478   3.544   6.272
 6593TIP3    H119732   0.480   3.458   6.230
 6593TIP3    H219733   0.515   3.529   6.359
 6594TIP3   OH219734   0.897   3.164   6.088
 6594TIP3    H119735   0.966   3.098   6.083
 6594TIP3    H219736   0.869   3.176   5.997
 6595TIP3   OH219737   1.015   3.386   6.199
 6595TIP3    H119738   0.974   3.314   6.150
 6595TIP3    H219739   0.944   3.447   6.217
 6596TIP3   OH219740   0.300   4.748   4.285
 6596TIP3    H119741   0.372   4.686   4.279
 6596TIP3    H219742   0.222   4.695   4.270
 6597TIP3   OH219743   1.502   4.838   4.956
 6597TIP3    H119744   1.525   4.866   5.044
 6597TIP3    H219745   1.560   4.888   4.899
 6598TIP3   OH219746   1.517   4.870   5.237
 6598TIP3    H119747   1.467   4.788   5.231
 6598TIP3    H219748   1.585   4.851   5.301
 6599TIP3   OH219749   1.561   4.574   5.808
 6599TIP3    H119750   1.490   4.583   5.871
 6599TIP3    H219751   1.608   4.657   5.813
 6600TIP3   OH219752   1.386   4.098   4.408
 6600TIP3    H119753   1.448   4.164   4.376
 6600TIP3    H219754   1.428   4.061   4.485
 6601TIP3   OH219755   1.497   3.963   4.619
 6601TIP3    H119756   1.433   3.918   4.675
 6601TIP3    H219757   1.565   3.991   4.680
 6602TIP3   OH219758   1.565   4.343   5.045
 6602TIP3    H119759   1.618   4.273   5.007
 6602TIP3    H219760   1.570   4.414   4.981
 6603TIP3   OH219761   1.365   4.636   5.243
 6603TIP3    H119762   1.297   4.677   5.297
 6603TIP3    H219763   1.317   4.594   5.172
 6604TIP3   OH219764   1.419   3.863   4.265
 6604TIP3    H119765   1.347   3.865   4.202
 6604TIP3    H219766   1.408   3.943   4.316
 6605TIP3   OH219767   1.289   3.514   4.196
 6605TIP3    H119768   1.238   3.549   4.122
 6605TIP3    H219769   1.280   3.419   4.188
 6606TIP3   OH219770   1.308   3.805   4.750
 6606TIP3    H119771   1.321   3.711   4.738
 6606TIP3    H219772   1.292   3.815   4.844
 6607TIP3   OH219773   1.593   4.222   5.613
 6607TIP3    H119774   1.660   4.155   5.599
 6607TIP3    H219775   1.606   4.284   5.541
 6608TIP3   OH219776   1.771   4.012   5.605
 6608TIP3    H119777   1.697   3.970   5.650
 6608TIP3    H219778   1.846   3.956   5.625
 6609TIP3   OH219779   1.239   3.244   4.160
 6609TIP3    H119780   1.306   3.218   4.223
 6609TIP3    H219781   1.158   3.203   4.193
 6610TIP3   OH219782   1.312   3.529   4.635
 6610TIP3    H119783   1.355   3.445   4.648
 6610TIP3    H219784   1.357   3.568   4.560
 6611TIP3   OH219785   1.464   3.697   5.157
 6611TIP3    H119786   1.544   3.714   5.107
 6611TIP3    H219787   1.481   3.737   5.243
 6612TIP3   OH219788   1.536   3.846   5.387
 6612TIP3    H119789   1.462   3.876   5.441
 6612TIP3    H219790   1.567   3.926   5.344
 6613TIP3   OH219791   1.993   3.443   5.925
 6613TIP3    H119792   2.059   3.388   5.883
 6613TIP3    H219793   1.955   3.494   5.853
 6614TIP3   OH219794   1.422   3.280   4.690
 6614TIP3    H119795   1.471   3.266   4.771
 6614TIP3    H219796   1.361   3.206   4.686
 6615TIP3   OH219797   0.164   3.217   5.573
 6615TIP3    H119798   0.199   3.206   5.485
 6615TIP3    H219799   0.189   3.305   5.598
 6616TIP3   OH219800   1.844   3.557   5.727
 6616TIP3    H119801   1.759   3.597   5.743
 6616TIP3    H219802   1.824   3.479   5.674
 6617TIP3   OH219803   1.460   3.196   4.320
 6617TIP3    H119804   1.507   3.133   4.266
 6617TIP3    H219805   1.520   3.269   4.329
 6618TIP3   OH219806   1.069   4.749   4.596
 6618TIP3    H119807   1.123   4.741   4.517
 6618TIP3    H219808   1.114   4.815   4.649
 6619TIP3   OH219809   0.279   4.649   5.587
 6619TIP3    H119810   0.243   4.671   5.673
 6619TIP3    H219811   0.368   4.684   5.588
 6620TIP3   OH219812   0.835   4.822   5.647
 6620TIP3    H119813   0.864   4.813   5.738
 6620TIP3    H219814   0.898   4.883   5.608
 6621TIP3   OH219815   1.006   4.999   5.525
 6621TIP3    H119816   1.077   4.945   5.489
 6621TIP3    H219817   1.050   5.059   5.585
 6622TIP3   OH219818   1.757   3.312   5.621
 6622TIP3    H119819   1.672   3.307   5.578
 6622TIP3    H219820   1.792   3.223   5.615
 6623TIP3   OH219821   0.694   4.870   5.214
 6623TIP3    H119822   0.618   4.896   5.162
 6623TIP3    H219823   0.716   4.946   5.266
 6624TIP3   OH219824   0.949   4.774   5.244
 6624TIP3    H119825   0.860   4.805   5.229
 6624TIP3    H219826   1.004   4.844   5.208
 6625TIP3   OH219827   1.147   4.956   5.163
 6625TIP3    H119828   1.140   5.042   5.121
 6625TIP3    H219829   1.177   4.898   5.093
 6626TIP3   OH219830   0.444   4.640   5.137
 6626TIP3    H119831   0.356   4.622   5.170
 6626TIP3    H219832   0.501   4.630   5.212
 6627TIP3   OH219833   0.990   3.226   5.265
 6627TIP3    H119834   0.945   3.152   5.307
 6627TIP3    H219835   1.055   3.184   5.208
 6628TIP3   OH219836   1.474   3.150   5.144
 6628TIP3    H119837   1.511   3.199   5.070
 6628TIP3    H219838   1.381   3.171   5.142
 6629TIP3   OH219839   1.587   3.230   4.906
 6629TIP3    H119840   1.654   3.167   4.879
 6629TIP3    H219841   1.629   3.315   4.895
 6630TIP3   OH219842   0.228   2.894   5.261
 6630TIP3    H119843   0.143   2.851   5.269
 6630TIP3    H219844   0.291   2.823   5.249
 6631TIP3   OH219845   0.171   2.803   4.933
 6631TIP3    H119846   0.198   2.834   4.847
 6631TIP3    H219847   0.085   2.843   4.948
 6632TIP3   OH219848   0.695   2.975   5.148
 6632TIP3    H119849   0.744   3.018   5.078
 6632TIP3    H219850   0.745   2.994   5.227
 6633TIP3   OH219851   1.190   3.104   5.121
 6633TIP3    H119852   1.214   3.065   5.036
 6633TIP3    H219853   1.193   3.031   5.182
 6634TIP3   OH219854   1.240   3.067   4.695
 6634TIP3    H119855   1.161   3.114   4.720
 6634TIP3    H219856   1.229   2.980   4.734
 6635TIP3   OH219857   0.192   2.942   4.689
 6635TIP3    H119858   0.238   2.882   4.629
 6635TIP3    H219859   0.260   3.003   4.717
 6636TIP3   OH219860   0.648   3.160   4.771
 6636TIP3    H119861   0.707   3.109   4.825
 6636TIP3    H219862   0.662   3.251   4.797
 6637TIP3   OH219863   0.523   4.585   4.261
 6637TIP3    H119864   0.612   4.601   4.230
 6637TIP3    H219865   0.495   4.505   4.215
 6638TIP3   OH219866   1.206   4.705   4.359
 6638TIP3    H119867   1.197   4.610   4.352
 6638TIP3    H219868   1.165   4.740   4.280
 6639TIP3   OH219869   0.453   3.289   6.178
 6639TIP3    H119870   0.410   3.207   6.155
 6639TIP3    H219871   0.540   3.263   6.210
 6640TIP3   OH219872   0.702   3.222   6.278
 6640TIP3    H119873   0.769   3.203   6.213
 6640TIP3    H219874   0.701   3.145   6.335
 6641TIP3   OH219875   1.503   3.315   6.045
 6641TIP3    H119876   1.521   3.286   6.134
 6641TIP3    H219877   1.587   3.310   6.000
 6642TIP3   OH219878   1.424   4.850   5.562
 6642TIP3    H119879   1.348   4.822   5.511
 6642TIP3    H219880   1.414   4.944   5.572
 6643TIP3   OH219881   2.653   4.213   4.337
 6643TIP3    H119882   2.612   4.293   4.304
 6643TIP3    H219883   2.600   4.142   4.300
 6644TIP3   OH219884   2.698   4.253   4.704
 6644TIP3    H119885   2.738   4.215   4.782
 6644TIP3    H219886   2.674   4.178   4.650
 6645TIP3   OH219887   1.995   4.095   5.058
 6645TIP3    H119888   2.027   4.037   5.127
 6645TIP3    H219889   2.073   4.117   5.008
 6646TIP3   OH219890   2.960   4.539   4.396
 6646TIP3    H119891   2.947   4.477   4.468
 6646TIP3    H219892   2.982   4.621   4.439
 6647TIP3   OH219893   1.985   4.523   4.752
 6647TIP3    H119894   1.970   4.428   4.751
 6647TIP3    H219895   2.079   4.532   4.744
 6648TIP3   OH219896   1.650   3.721   4.598
 6648TIP3    H119897   1.610   3.808   4.595
 6648TIP3    H219898   1.601   3.669   4.534
 6649TIP3   OH219899   1.736   4.015   4.754
 6649TIP3    H119900   1.775   3.930   4.772
 6649TIP3    H219901   1.797   4.058   4.695
 6650TIP3   OH219902   2.622   4.959   4.407
 6650TIP3    H119903   2.644   4.896   4.338
 6650TIP3    H219904   2.629   4.910   4.488
 6651TIP3   OH219905   2.499   4.462   4.724
 6651TIP3    H119906   2.546   4.384   4.693
 6651TIP3    H219907   2.567   4.519   4.758
 6652TIP3   OH219908   3.546   3.753   4.742
 6652TIP3    H119909   3.563   3.835   4.789
 6652TIP3    H219910   3.594   3.763   4.660
 6653TIP3   OH219911   2.904   3.936   4.752
 6653TIP3    H119912   2.976   3.874   4.758
 6653TIP3    H219913   2.825   3.881   4.751
 6654TIP3   OH219914   1.851   3.770   4.798
 6654TIP3    H119915   1.945   3.766   4.778
 6654TIP3    H219916   1.809   3.738   4.719
 6655TIP3   OH219917   3.588   3.978   4.906
 6655TIP3    H119918   3.502   4.018   4.896
 6655TIP3    H219919   3.618   4.007   4.992
 6656TIP3   OH219920   2.229   3.611   5.142
 6656TIP3    H119921   2.190   3.643   5.060
 6656TIP3    H219922   2.163   3.629   5.209
 6657TIP3   OH219923   2.538   4.423   4.199
 6657TIP3    H119924   2.521   4.413   4.105
 6657TIP3    H219925   2.509   4.512   4.219
 6658TIP3   OH219926   2.344   4.382   4.940
 6658TIP3    H119927   2.287   4.452   4.973
 6658TIP3    H219928   2.390   4.422   4.867
 6659TIP3   OH219929   3.192   3.690   4.558
 6659TIP3    H119930   3.125   3.685   4.626
 6659TIP3    H219931   3.232   3.776   4.570
 6660TIP3   OH219932   2.132   3.693   4.882
 6660TIP3    H119933   2.189   3.768   4.900
 6660TIP3    H219934   2.144   3.677   4.788
 6661TIP3   OH219935   2.180   4.581   5.042
 6661TIP3    H119936   2.166   4.671   5.012
 6661TIP3    H219937   2.102   4.559   5.093
 6662TIP3   OH219938   1.561   4.282   4.292
 6662TIP3    H119939   1.534   4.303   4.203
 6662TIP3    H219940   1.588   4.366   4.329
 6663TIP3   OH219941   2.997   4.785   4.534
 6663TIP3    H119942   2.909   4.777   4.572
 6663TIP3    H219943   2.995   4.868   4.488
 6664TIP3   OH219944   3.317   3.652   4.856
 6664TIP3    H119945   3.231   3.692   4.843
 6664TIP3    H219946   3.377   3.711   4.812
 6665TIP3   OH219947   2.568   3.264   4.928
 6665TIP3    H119948   2.555   3.176   4.961
 6665TIP3    H219949   2.492   3.313   4.960
 6666TIP3   OH219950   2.701   4.810   4.184
 6666TIP3    H119951   2.753   4.730   4.175
 6666TIP3    H219952   2.760   4.880   4.157
 6667TIP3   OH219953   2.855   4.592   4.144
 6667TIP3    H119954   2.869   4.518   4.085
 6667TIP3    H219955   2.894   4.564   4.227
 6668TIP3   OH219956   3.234   4.678   4.881
 6668TIP3    H119957   3.219   4.602   4.825
 6668TIP3    H219958   3.218   4.753   4.825
 6669TIP3   OH219959   2.524   4.099   4.063
 6669TIP3    H119960   2.433   4.119   4.086
 6669TIP3    H219961   2.559   4.181   4.028
 6670TIP3   OH219962   2.469   3.884   3.871
 6670TIP3    H119963   2.507   3.934   3.943
 6670TIP3    H219964   2.540   3.828   3.840
 6671TIP3   OH219965   3.419   4.328   4.729
 6671TIP3    H119966   3.335   4.373   4.735
 6671TIP3    H219967   3.453   4.353   4.643
 6672TIP3   OH219968   2.835   4.187   4.131
 6672TIP3    H119969   2.794   4.219   4.211
 6672TIP3    H219970   2.796   4.100   4.117
 6673TIP3   OH219971   3.108   4.190   5.058
 6673TIP3    H119972   3.103   4.273   5.105
 6673TIP3    H219973   3.028   4.187   5.006
 6674TIP3   OH219974   2.151   4.101   4.558
 6674TIP3    H119975   2.107   4.017   4.566
 6674TIP3    H219976   2.241   4.079   4.534
 6675TIP3   OH219977   2.246   4.573   4.652
 6675TIP3    H119978   2.221   4.551   4.562
 6675TIP3    H219979   2.333   4.535   4.664
 6676TIP3   OH219980   2.214   4.145   4.896
 6676TIP3    H119981   2.243   4.124   4.807
 6676TIP3    H219982   2.260   4.225   4.918
 6677TIP3   OH219983   2.757   4.778   4.664
 6677TIP3    H119984   2.746   4.858   4.715
 6677TIP3    H219985   2.744   4.707   4.727
 6678TIP3   OH219986   2.381   4.675   5.209
 6678TIP3    H119987   2.320   4.732   5.257
 6678TIP3    H219988   2.325   4.624   5.151
 6679TIP3   OH219989   2.136   4.222   5.352
 6679TIP3    H119990   2.138   4.316   5.370
 6679TIP3    H219991   2.043   4.201   5.344
 6680TIP3   OH219992   2.453   4.692   4.201
 6680TIP3    H119993   2.539   4.734   4.202
 6680TIP3    H219994   2.398   4.752   4.150
 6681TIP3   OH219995   2.169   4.832   5.295
 6681TIP3    H119996   2.144   4.843   5.203
 6681TIP3    H219997   2.086   4.818   5.341
 6682TIP3   OH219998   3.046   4.624   3.554
 6682TIP3    H119999   3.048   4.717   3.529
 6682TIP3    H220000   3.137   4.594   3.542
 6683TIP3   OH220001   1.764   4.389   5.242
 6683TIP3    H120002   1.696   4.368   5.179
 6683TIP3    H220003   1.799   4.304   5.268
 6684TIP3   OH220004   1.622   4.571   4.886
 6684TIP3    H120005   1.718   4.579   4.886
 6684TIP3    H220006   1.592   4.650   4.930
 6685TIP3   OH220007   3.465   5.036   4.945
 6685TIP3    H120008   3.471   4.941   4.957
 6685TIP3    H220009   3.385   5.061   4.992
 6686TIP3   OH220010   2.569   4.820   5.071
 6686TIP3    H120011   2.560   4.911   5.101
 6686TIP3    H220012   2.503   4.772   5.120
 6687TIP3   OH220013   2.349   4.914   4.024
 6687TIP3    H120014   2.304   4.894   3.942
 6687TIP3    H220015   2.311   4.998   4.052
 6688TIP3   OH220016   1.785   4.774   4.403
 6688TIP3    H120017   1.831   4.767   4.487
 6688TIP3    H220018   1.738   4.691   4.395
 6689TIP3   OH220019   2.549   4.847   3.648
 6689TIP3    H120020   2.599   4.773   3.614
 6689TIP3    H220021   2.584   4.863   3.735
 6690TIP3   OH220022   2.602   4.893   3.918
 6690TIP3    H120023   2.517   4.895   3.961
 6690TIP3    H220024   2.660   4.853   3.983
 6691TIP3   OH220025   3.354   4.163   5.233
 6691TIP3    H120026   3.269   4.180   5.191
 6691TIP3    H220027   3.373   4.072   5.213
 6692TIP3   OH220028   1.961   4.579   5.211
 6692TIP3    H120029   2.013   4.566   5.290
 6692TIP3    H220030   1.890   4.515   5.217
 6693TIP3   OH220031   2.334   3.378   5.033
 6693TIP3    H120032   2.249   3.346   5.003
 6693TIP3    H220033   2.318   3.467   5.064
 6694TIP3   OH220034   2.902   3.488   5.227
 6694TIP3    H120035   2.973   3.475   5.289
 6694TIP3    H220036   2.822   3.477   5.278
 6695TIP3   OH220037   3.101   3.911   5.130
 6695TIP3    H120038   3.063   3.903   5.218
 6695TIP3    H220039   3.095   4.005   5.110
 6696TIP3   OH220040   2.752   3.985   3.649
 6696TIP3    H120041   2.739   3.980   3.554
 6696TIP3    H220042   2.830   4.038   3.660
 6697TIP3   OH220043   2.480   3.425   4.037
 6697TIP3    H120044   2.446   3.426   4.127
 6697TIP3    H220045   2.437   3.349   3.997
 6698TIP3   OH220046   2.280   3.902   5.013
 6698TIP3    H120047   2.231   3.903   5.095
 6698TIP3    H220048   2.260   3.987   4.973
 6699TIP3   OH220049   2.837   4.142   5.370
 6699TIP3    H120050   2.807   4.072   5.427
 6699TIP3    H220051   2.930   4.151   5.390
 6700TIP3   OH220052   2.123   3.929   5.243
 6700TIP3    H120053   2.151   3.988   5.313
 6700TIP3    H220054   2.104   3.846   5.287
 6701TIP3   OH220055   2.139   3.421   3.958
 6701TIP3    H120056   2.126   3.423   4.052
 6701TIP3    H220057   2.063   3.468   3.923
 6702TIP3   OH220058   1.721   3.457   4.849
 6702TIP3    H120059   1.788   3.493   4.908
 6702TIP3    H220060   1.746   3.489   4.762
 6703TIP3   OH220061   1.623   3.423   4.340
 6703TIP3    H120062   1.667   3.456   4.261
 6703TIP3    H220063   1.567   3.495   4.367
 6704TIP3   OH220064   2.854   4.145   4.919
 6704TIP3    H120065   2.882   4.075   4.860
 6704TIP3    H220066   2.819   4.099   4.996
 6705TIP3   OH220067   3.018   3.676   4.775
 6705TIP3    H120068   2.991   3.677   4.867
 6705TIP3    H220069   2.998   3.587   4.746
 6706TIP3   OH220070   2.000   3.719   4.023
 6706TIP3    H120071   1.958   3.655   3.965
 6706TIP3    H220072   2.078   3.746   3.974
 6707TIP3   OH220073   3.177   5.379   5.037
 6707TIP3    H120074   3.175   5.393   4.943
 6707TIP3    H220075   3.256   5.424   5.067
 6708TIP3   OH220076   2.116   4.491   5.444
 6708TIP3    H120077   2.198   4.509   5.491
 6708TIP3    H220078   2.048   4.497   5.510
 6709TIP3   OH220079   2.156   3.420   4.507
 6709TIP3    H120080   2.112   3.369   4.575
 6709TIP3    H220081   2.161   3.509   4.542
 6710TIP3   OH220082   2.550   3.839   5.053
 6710TIP3    H120083   2.463   3.867   5.024
 6710TIP3    H220084   2.600   3.920   5.061
 6711TIP3   OH220085   2.258   4.211   4.091
 6711TIP3    H120086   2.190   4.146   4.071
 6711TIP3    H220087   2.239   4.237   4.181
 6712TIP3   OH220088   3.187   4.474   4.703
 6712TIP3    H120089   3.222   4.524   4.629
 6712TIP3    H220090   3.100   4.445   4.673
 6713TIP3   OH220091   2.727   3.526   3.996
 6713TIP3    H120092   2.639   3.492   4.008
 6713TIP3    H220093   2.716   3.620   3.982
 6714TIP3   OH220094   2.698   4.550   5.114
 6714TIP3    H120095   2.749   4.537   5.194
 6714TIP3    H220096   2.658   4.636   5.126
 6715TIP3   OH220097   1.990   4.244   4.734
 6715TIP3    H120098   2.037   4.201   4.662
 6715TIP3    H220099   2.026   4.204   4.813
 6716TIP3   OH220100   2.431   4.362   3.944
 6716TIP3    H120101   2.391   4.449   3.936
 6716TIP3    H220102   2.367   4.310   3.991
 6717TIP3   OH220103   1.859   4.160   5.375
 6717TIP3    H120104   1.865   4.133   5.467
 6717TIP3    H220105   1.785   4.110   5.340
 6718TIP3   OH220106   2.600   4.292   5.398
 6718TIP3    H120107   2.534   4.229   5.369
 6718TIP3    H220108   2.683   4.251   5.374
 6719TIP3   OH220109   2.841   4.841   4.996
 6719TIP3    H120110   2.746   4.826   5.000
 6719TIP3    H220111   2.863   4.875   5.083
 6720TIP3   OH220112   3.481   4.757   4.967
 6720TIP3    H120113   3.386   4.741   4.963
 6720TIP3    H220114   3.514   4.725   4.883
 6721TIP3   OH220115   2.963   4.693   3.813
 6721TIP3    H120116   2.941   4.617   3.867
 6721TIP3    H220117   2.987   4.656   3.728
 6722TIP3   OH220118   2.944   4.359   4.616
 6722TIP3    H120119   2.852   4.343   4.636
 6722TIP3    H220120   2.980   4.272   4.600
 6723TIP3   OH220121   2.103   4.550   4.409
 6723TIP3    H120122   2.107   4.626   4.351
 6723TIP3    H220123   2.010   4.544   4.433
 6724TIP3   OH220124   1.616   3.857   4.070
 6724TIP3    H120125   1.672   3.931   4.094
 6724TIP3    H220126   1.554   3.849   4.143
 6725TIP3   OH220127   2.176   4.288   4.339
 6725TIP3    H120128   2.161   4.378   4.366
 6725TIP3    H220129   2.151   4.235   4.415
 6726TIP3   OH220130   2.385   4.892   4.865
 6726TIP3    H120131   2.422   4.964   4.815
 6726TIP3    H220132   2.459   4.858   4.915
 6727TIP3   OH220133   2.022   4.785   4.260
 6727TIP3    H120134   1.935   4.792   4.300
 6727TIP3    H220135   2.057   4.874   4.265
 6728TIP3   OH220136   2.735   4.560   4.840
 6728TIP3    H120137   2.723   4.554   4.935
 6728TIP3    H220138   2.808   4.501   4.821
 6729TIP3   OH220139   2.735   4.435   3.723
 6729TIP3    H120140   2.780   4.418   3.806
 6729TIP3    H220141   2.651   4.390   3.731
 6730TIP3   OH220142   2.993   5.051   4.878
 6730TIP3    H120143   2.924   4.987   4.898
 6730TIP3    H220144   2.957   5.103   4.807
 6731TIP3   OH220145   3.049   4.898   3.512
 6731TIP3    H120146   3.079   4.966   3.451
 6731TIP3    H220147   2.975   4.938   3.558
 6732TIP3   OH220148   2.066   3.682   5.361
 6732TIP3    H120149   1.971   3.688   5.372
 6732TIP3    H220150   2.095   3.624   5.431
 6733TIP3   OH220151   2.900   4.388   3.949
 6733TIP3    H120152   2.878   4.316   4.008
 6733TIP3    H220153   2.994   4.376   3.932
 6734TIP3   OH220154   1.812   4.785   5.029
 6734TIP3    H120155   1.861   4.721   5.081
 6734TIP3    H220156   1.830   4.869   5.071
 6735TIP3   OH220157   2.078   4.400   3.718
 6735TIP3    H120158   2.092   4.309   3.692
 6735TIP3    H220159   2.066   4.397   3.813
 6736TIP3   OH220160   2.029   4.411   3.989
 6736TIP3    H120161   2.098   4.378   4.046
 6736TIP3    H220162   2.033   4.506   4.001
 6737TIP3   OH220163   1.728   4.091   4.161
 6737TIP3    H120164   1.684   4.139   4.231
 6737TIP3    H220165   1.763   4.159   4.104
 6738TIP3   OH220166   2.961   3.687   5.038
 6738TIP3    H120167   3.010   3.757   5.080
 6738TIP3    H220168   2.938   3.627   5.110
 6739TIP3   OH220169   2.831   3.491   4.259
 6739TIP3    H120170   2.793   3.490   4.171
 6739TIP3    H220171   2.891   3.566   4.259
 6740TIP3   OH220172   2.298   4.597   3.925
 6740TIP3    H120173   2.215   4.622   3.964
 6740TIP3    H220174   2.323   4.671   3.870
 6741TIP3   OH220175   2.778   4.000   5.138
 6741TIP3    H120176   2.794   4.051   5.218
 6741TIP3    H220177   2.805   3.911   5.161
 6742TIP3   OH220178   2.050   4.686   4.006
 6742TIP3    H120179   2.027   4.757   3.947
 6742TIP3    H220180   2.039   4.722   4.094
 6743TIP3   OH220181   2.108   3.391   4.231
 6743TIP3    H120182   2.083   3.415   4.320
 6743TIP3    H220183   2.204   3.387   4.235
 6744TIP3   OH220184   3.377   3.915   5.124
 6744TIP3    H120185   3.285   3.889   5.131
 6744TIP3    H220186   3.417   3.849   5.069
 6745TIP3   OH220187   1.780   4.292   3.970
 6745TIP3    H120188   1.856   4.348   3.984
 6745TIP3    H220189   1.810   4.226   3.908
 6746TIP3   OH220190   1.681   3.570   4.113
 6746TIP3    H120191   1.727   3.653   4.118
 6746TIP3    H220192   1.599   3.590   4.068
 6747TIP3   OH220193   3.021   5.051   4.451
 6747TIP3    H120194   2.980   5.102   4.381
 6747TIP3    H220195   3.115   5.061   4.436
 6748TIP3   OH220196   2.073   3.297   4.992
 6748TIP3    H120197   2.048   3.269   4.904
 6748TIP3    H220198   2.063   3.219   5.047
 6749TIP3   OH220199   1.613   4.550   4.381
 6749TIP3    H120200   1.570   4.586   4.459
 6749TIP3    H220201   1.570   4.594   4.307
 6750TIP3   OH220202   1.813   5.091   5.448
 6750TIP3    H120203   1.895   5.097   5.497
 6750TIP3    H220204   1.799   4.997   5.435
 6751TIP3   OH220205   2.276   4.997   5.487
 6751TIP3    H120206   2.367   4.969   5.498
 6751TIP3    H220207   2.242   4.942   5.417
 6752TIP3   OH220208   2.234   4.600   3.606
 6752TIP3    H120209   2.187   4.530   3.651
 6752TIP3    H220210   2.309   4.556   3.566
 6753TIP3   OH220211   2.896   4.935   5.248
 6753TIP3    H120212   2.910   4.865   5.312
 6753TIP3    H220213   2.970   4.995   5.260
 6754TIP3   OH220214   2.677   4.633   3.536
 6754TIP3    H120215   2.712   4.572   3.601
 6754TIP3    H220216   2.737   4.626   3.462
 6755TIP3   OH220217   1.913   4.488   5.636
 6755TIP3    H120218   1.933   4.395   5.646
 6755TIP3    H220219   1.826   4.489   5.595
 6756TIP3   OH220220   1.895   4.090   3.823
 6756TIP3    H120221   1.941   4.059   3.902
 6756TIP3    H220222   1.965   4.106   3.760
 6757TIP3   OH220223   2.534   4.568   5.413
 6757TIP3    H120224   2.490   4.588   5.331
 6757TIP3    H220225   2.569   4.479   5.401
 6758TIP3   OH220226   2.469   4.318   3.675
 6758TIP3    H120227   2.446   4.328   3.767
 6758TIP3    H220228   2.457   4.224   3.658
 6759TIP3   OH220229   3.011   4.615   5.033
 6759TIP3    H120230   3.089   4.644   4.986
 6759TIP3    H220231   2.945   4.682   5.015
 6760TIP3   OH220232   2.028   4.233   5.640
 6760TIP3    H120233   2.104   4.214   5.585
 6760TIP3    H220234   2.065   4.250   5.727
 6761TIP3   OH220235   2.068   4.013   4.034
 6761TIP3    H120236   2.023   3.958   4.098
 6761TIP3    H220237   2.118   3.952   3.980
 6762TIP3   OH220238   2.392   4.113   5.301
 6762TIP3    H120239   2.307   4.156   5.311
 6762TIP3    H220240   2.424   4.141   5.216
 6763TIP3   OH220241   2.198   3.836   3.866
 6763TIP3    H120242   2.182   3.845   3.772
 6763TIP3    H220243   2.293   3.844   3.875
 6764TIP3   OH220244   2.890   4.489   5.381
 6764TIP3    H120245   2.961   4.452   5.328
 6764TIP3    H220246   2.887   4.434   5.459
 6765TIP3   OH220247   2.977   4.140   3.580
 6765TIP3    H120248   2.977   4.096   3.495
 6765TIP3    H220249   2.955   4.231   3.560
 6766TIP3   OH220250   2.488   3.882   5.420
 6766TIP3    H120251   2.484   3.805   5.365
 6766TIP3    H220252   2.456   3.954   5.364
 6767TIP3   OH220253   2.481   3.660   5.243
 6767TIP3    H120254   2.518   3.712   5.172
 6767TIP3    H220255   2.392   3.639   5.214
 6768TIP3   OH220256   2.513   4.214   5.079
 6768TIP3    H120257   2.602   4.247   5.069
 6768TIP3    H220258   2.458   4.277   5.032
 6769TIP3   OH220259   3.102   4.153   5.474
 6769TIP3    H120260   3.129   4.066   5.504
 6769TIP3    H220261   3.184   4.197   5.450
 6770TIP3   OH220262   3.133   4.435   5.197
 6770TIP3    H120263   3.080   4.497   5.147
 6770TIP3    H220264   3.222   4.449   5.166
 6771TIP3   OH220265   2.375   3.971   5.659
 6771TIP3    H120266   2.308   3.906   5.678
 6771TIP3    H220267   2.406   3.949   5.572
 6772TIP3   OH220268   2.630   3.436   5.309
 6772TIP3    H120269   2.585   3.517   5.287
 6772TIP3    H220270   2.565   3.367   5.295
 6773TIP3   OH220271   2.747   3.927   5.512
 6773TIP3    H120272   2.744   3.912   5.607
 6773TIP3    H220273   2.659   3.904   5.482
 6774TIP3   OH220274   2.979   3.866   5.367
 6774TIP3    H120275   2.904   3.872   5.427
 6774TIP3    H220276   3.050   3.833   5.421
 6775TIP3   OH220277   3.194   3.797   5.518
 6775TIP3    H120278   3.266   3.739   5.494
 6775TIP3    H220279   3.223   3.837   5.600
 6776TIP3   OH220280   2.211   3.747   5.718
 6776TIP3    H120281   2.219   3.661   5.678
 6776TIP3    H220282   2.253   3.738   5.803
 6777TIP3   OH220283   2.702   3.427   5.573
 6777TIP3    H120284   2.779   3.371   5.570
 6777TIP3    H220285   2.671   3.431   5.483
 6778TIP3   OH220286   2.790   3.653   5.706
 6778TIP3    H120287   2.760   3.579   5.652
 6778TIP3    H220288   2.715   3.712   5.710
 6779TIP3   OH220289   2.041   4.898   3.823
 6779TIP3    H120290   2.130   4.875   3.796
 6779TIP3    H220291   2.003   4.942   3.747
 6780TIP3   OH220292   1.508   4.285   3.998
 6780TIP3    H120293   1.602   4.300   3.993
 6780TIP3    H220294   1.495   4.198   3.959
 6781TIP3   OH220295   1.411   4.858   4.461
 6781TIP3    H120296   1.349   4.803   4.413
 6781TIP3    H220297   1.455   4.797   4.521
 6782TIP3   OH220298   1.553   4.692   4.632
 6782TIP3    H120299   1.546   4.623   4.697
 6782TIP3    H220300   1.605   4.761   4.674
 6783TIP3   OH220301   3.293   5.096   4.441
 6783TIP3    H120302   3.314   5.125   4.530
 6783TIP3    H220303   3.351   5.148   4.385
 6784TIP3   OH220304   3.311   5.131   4.722
 6784TIP3    H120305   3.262   5.049   4.716
 6784TIP3    H220306   3.380   5.113   4.786
 6785TIP3   OH220307   3.361   4.832   5.289
 6785TIP3    H120308   3.291   4.839   5.353
 6785TIP3    H220309   3.408   4.915   5.295
 6786TIP3   OH220310   3.174   4.350   3.919
 6786TIP3    H120311   3.237   4.415   3.887
 6786TIP3    H220312   3.220   4.304   3.989
 6787TIP3   OH220313   3.326   4.205   4.102
 6787TIP3    H120314   3.353   4.114   4.093
 6787TIP3    H220315   3.398   4.248   4.149
 6788TIP3   OH220316   3.360   4.611   4.536
 6788TIP3    H120317   3.411   4.543   4.492
 6788TIP3    H220318   3.360   4.684   4.474
 6789TIP3   OH220319   3.166   4.894   4.726
 6789TIP3    H120320   3.099   4.939   4.778
 6789TIP3    H220321   3.118   4.853   4.655
 6790TIP3   OH220322   3.220   4.174   3.708
 6790TIP3    H120323   3.135   4.156   3.667
 6790TIP3    H220324   3.199   4.231   3.782
 6791TIP3   OH220325   1.730   4.125   5.005
 6791TIP3    H120326   1.722   4.089   4.917
 6791TIP3    H220327   1.824   4.123   5.023
 6792TIP3   OH220328   3.391   4.479   5.099
 6792TIP3    H120329   3.458   4.413   5.085
 6792TIP3    H220330   3.407   4.545   5.032
 6793TIP3   OH220331   3.568   4.266   5.090
 6793TIP3    H120332   3.495   4.232   5.142
 6793TIP3    H220333   3.639   4.204   5.107
 6794TIP3   OH220334   3.042   3.456   3.678
 6794TIP3    H120335   3.073   3.442   3.768
 6794TIP3    H220336   2.947   3.445   3.683
 6795TIP3   OH220337   3.280   3.927   4.673
 6795TIP3    H120338   3.351   3.962   4.620
 6795TIP3    H220339   3.280   3.981   4.753
 6796TIP3   OH220340   3.332   4.107   4.880
 6796TIP3    H120341   3.264   4.132   4.942
 6796TIP3    H220342   3.358   4.189   4.839
 6797TIP3   OH220343   1.947   3.804   5.652
 6797TIP3    H120344   2.041   3.801   5.670
 6797TIP3    H220345   1.913   3.722   5.690
 6798TIP3   OH220346   3.841   3.714   5.424
 6798TIP3    H120347   3.881   3.647   5.369
 6798TIP3    H220348   3.769   3.748   5.371
 6799TIP3   OH220349   1.931   3.536   5.013
 6799TIP3    H120350   1.983   3.455   5.015
 6799TIP3    H220351   1.985   3.598   4.966
 6800TIP3   OH220352   1.705   3.779   5.045
 6800TIP3    H120353   1.750   3.756   4.964
 6800TIP3    H220354   1.755   3.853   5.080
 6801TIP3   OH220355   3.636   3.821   5.268
 6801TIP3    H120356   3.590   3.879   5.329
 6801TIP3    H220357   3.584   3.741   5.267
 6802TIP3   OH220358   1.677   3.253   4.547
 6802TIP3    H120359   1.597   3.261   4.600
 6802TIP3    H220360   1.670   3.324   4.483
 6803TIP3   OH220361   2.845   5.015   4.083
 6803TIP3    H120362   2.901   5.000   4.006
 6803TIP3    H220363   2.892   5.081   4.134
 6804TIP3   OH220364   1.922   3.349   5.392
 6804TIP3    H120365   1.868   3.344   5.471
 6804TIP3    H220366   1.868   3.397   5.330
 6805TIP3   OH220367   1.943   4.811   5.459
 6805TIP3    H120368   1.851   4.788   5.452
 6805TIP3    H220369   1.964   4.797   5.552
 6806TIP3   OH220370   2.156   4.856   5.013
 6806TIP3    H120371   2.106   4.932   4.981
 6806TIP3    H220372   2.241   4.864   4.970
 6807TIP3   OH220373   2.553   5.087   5.150
 6807TIP3    H120374   2.591   5.078   5.238
 6807TIP3    H220375   2.616   5.140   5.102
 6808TIP3   OH220376   2.745   5.240   5.024
 6808TIP3    H120377   2.807   5.185   4.976
 6808TIP3    H220378   2.801   5.297   5.078
 6809TIP3   OH220379   1.818   5.096   5.059
 6809TIP3    H120380   1.726   5.114   5.038
 6809TIP3    H220381   1.840   5.162   5.126
 6810TIP3   OH220382   2.048   5.088   4.909
 6810TIP3    H120383   1.965   5.092   4.956
 6810TIP3    H220384   2.026   5.109   4.818
 6811TIP3   OH220385   2.462   5.102   4.701
 6811TIP3    H120386   2.390   5.113   4.638
 6811TIP3    H220387   2.471   5.189   4.742
 6812TIP3   OH220388   2.726   5.040   4.751
 6812TIP3    H120389   2.635   5.058   4.730
 6812TIP3    H220390   2.775   5.107   4.703
 6813TIP3   OH220391   2.928   5.212   4.653
 6813TIP3    H120392   2.927   5.299   4.612
 6813TIP3    H220393   2.959   5.154   4.584
 6814TIP3   OH220394   1.728   4.871   4.778
 6814TIP3    H120395   1.755   4.847   4.867
 6814TIP3    H220396   1.800   4.841   4.723
 6815TIP3   OH220397   1.932   4.763   4.636
 6815TIP3    H120398   1.943   4.678   4.679
 6815TIP3    H220399   2.018   4.803   4.640
 6816TIP3   OH220400   2.199   4.847   4.661
 6816TIP3    H120401   2.219   4.755   4.644
 6816TIP3    H220402   2.253   4.870   4.736
 6817TIP3   OH220403   3.268   3.427   4.674
 6817TIP3    H120404   3.299   3.453   4.588
 6817TIP3    H220405   3.172   3.427   4.666
 6818TIP3   OH220406   3.355   3.461   4.422
 6818TIP3    H120407   3.383   3.425   4.338
 6818TIP3    H220408   3.324   3.549   4.402
 6819TIP3   OH220409   2.002   3.192   4.749
 6819TIP3    H120410   1.911   3.161   4.752
 6819TIP3    H220411   2.054   3.113   4.736
 6820TIP3   OH220412   1.794   3.071   4.374
 6820TIP3    H120413   1.827   3.125   4.303
 6820TIP3    H220414   1.760   3.133   4.439
 6821TIP3   OH220415   2.519   3.218   4.654
 6821TIP3    H120416   2.568   3.284   4.605
 6821TIP3    H220417   2.538   3.237   4.746
 6822TIP3   OH220418   2.990   3.428   4.658
 6822TIP3    H120419   2.955   3.416   4.570
 6822TIP3    H220420   2.978   3.343   4.700
 6823TIP3   OH220421   3.029   3.317   4.146
 6823TIP3    H120422   2.967   3.374   4.193
 6823TIP3    H220423   3.026   3.235   4.195
 6824TIP3   OH220424   1.494   4.672   4.166
 6824TIP3    H120425   1.413   4.635   4.133
 6824TIP3    H220426   1.496   4.761   4.131
 6825TIP3   OH220427   1.908   3.217   4.150
 6825TIP3    H120428   1.957   3.158   4.093
 6825TIP3    H220429   1.973   3.279   4.183
 6826TIP3   OH220430   2.374   3.378   4.299
 6826TIP3    H120431   2.399   3.287   4.283
 6826TIP3    H220432   2.334   3.378   4.386
 6827TIP3   OH220433   2.295   4.821   3.753
 6827TIP3    H120434   2.379   4.848   3.715
 6827TIP3    H220435   2.265   4.751   3.696
 6828TIP3   OH220436   2.997   4.961   3.855
 6828TIP3    H120437   2.990   4.866   3.848
 6828TIP3    H220438   2.955   4.995   3.776
 6829TIP3   OH220439   2.231   3.477   5.629
 6829TIP3    H120440   2.197   3.411   5.689
 6829TIP3    H220441   2.324   3.484   5.651
 6830TIP3   OH220442   2.481   3.478   5.748
 6830TIP3    H120443   2.559   3.460   5.695
 6830TIP3    H220444   2.480   3.409   5.814
 6831TIP3   OH220445   1.607   4.665   3.815
 6831TIP3    H120446   1.610   4.672   3.910
 6831TIP3    H220447   1.688   4.620   3.791
 6832TIP3   OH220448   3.215   5.104   5.042
 6832TIP3    H120449   3.140   5.074   4.990
 6832TIP3    H220450   3.201   5.199   5.051
 6833TIP3   OH220451   4.430   4.480   4.262
 6833TIP3    H120452   4.514   4.463   4.304
 6833TIP3    H220453   4.406   4.396   4.222
 6834TIP3   OH220454   3.785   4.350   4.552
 6834TIP3    H120455   3.822   4.294   4.621
 6834TIP3    H220456   3.860   4.372   4.497
 6835TIP3   OH220457   3.773   4.767   4.239
 6835TIP3    H120458   3.758   4.672   4.240
 6835TIP3    H220459   3.867   4.777   4.221
 6836TIP3   OH220460   3.562   4.303   4.230
 6836TIP3    H120461   3.607   4.227   4.266
 6836TIP3    H220462   3.632   4.365   4.210
 6837TIP3   OH220463   4.431   5.206   3.886
 6837TIP3    H120464   4.456   5.143   3.819
 6837TIP3    H220465   4.437   5.158   3.968
 6838TIP3   OH220466   4.275   4.709   4.210
 6838TIP3    H120467   4.318   4.623   4.208
 6838TIP3    H220468   4.346   4.771   4.227
 6839TIP3   OH220469   5.307   4.034   4.231
 6839TIP3    H120470   5.341   4.110   4.277
 6839TIP3    H220471   5.242   4.070   4.170
 6840TIP3   OH220472   4.812   4.221   4.287
 6840TIP3    H120473   4.836   4.133   4.317
 6840TIP3    H220474   4.870   4.237   4.212
 6841TIP3   OH220475   4.069   3.862   4.197
 6841TIP3    H120476   4.097   3.913   4.120
 6841TIP3    H220477   4.045   3.777   4.161
 6842TIP3   OH220478   3.674   4.087   4.364
 6842TIP3    H120479   3.756   4.051   4.397
 6842TIP3    H220480   3.617   4.011   4.352
 6843TIP3   OH220481   4.109   4.306   4.156
 6843TIP3    H120482   4.200   4.277   4.148
 6843TIP3    H220483   4.083   4.330   4.067
 6844TIP3   OH220484   5.374   4.238   4.406
 6844TIP3    H120485   5.301   4.294   4.378
 6844TIP3    H220486   5.351   4.211   4.495
 6845TIP3   OH220487   4.039   3.836   4.663
 6845TIP3    H120488   3.994   3.855   4.581
 6845TIP3    H220489   3.978   3.865   4.731
 6846TIP3   OH220490   4.385   4.726   3.621
 6846TIP3    H120491   4.332   4.678   3.557
 6846TIP3    H220492   4.329   4.798   3.650
 6847TIP3   OH220493   4.126   4.634   4.428
 6847TIP3    H120494   4.072   4.705   4.462
 6847TIP3    H220495   4.170   4.671   4.353
 6848TIP3   OH220496   3.929   3.954   4.418
 6848TIP3    H120497   3.985   4.026   4.448
 6848TIP3    H220498   3.976   3.918   4.343
 6849TIP3   OH220499   3.974   4.838   4.531
 6849TIP3    H120500   3.960   4.927   4.499
 6849TIP3    H220501   3.896   4.818   4.582
 6850TIP3   OH220502   3.354   4.528   3.797
 6850TIP3    H120503   3.332   4.530   3.704
 6850TIP3    H220504   3.384   4.616   3.816
 6851TIP3   OH220505   4.812   5.069   4.054
 6851TIP3    H120506   4.723   5.036   4.067
 6851TIP3    H220507   4.801   5.143   3.994
 6852TIP3   OH220508   5.134   3.909   4.416
 6852TIP3    H120509   5.043   3.930   4.393
 6852TIP3    H220510   5.185   3.939   4.340
 6853TIP3   OH220511   4.517   5.043   3.672
 6853TIP3    H120512   4.569   4.963   3.674
 6853TIP3    H220513   4.579   5.111   3.645
 6854TIP3   OH220514   4.651   4.783   3.670
 6854TIP3    H120515   4.561   4.750   3.670
 6854TIP3    H220516   4.696   4.729   3.735
 6855TIP3   OH220517   5.035   4.901   4.353
 6855TIP3    H120518   5.006   4.837   4.287
 6855TIP3    H220519   5.022   4.986   4.311
 6856TIP3   OH220520   4.252   4.347   3.557
 6856TIP3    H120521   4.259   4.433   3.515
 6856TIP3    H220522   4.339   4.308   3.546
 6857TIP3   OH220523   4.275   4.129   3.312
 6857TIP3    H120524   4.330   4.175   3.376
 6857TIP3    H220525   4.335   4.067   3.270
 6858TIP3   OH220526   5.202   4.600   4.216
 6858TIP3    H120527   5.115   4.639   4.205
 6858TIP3    H220528   5.241   4.603   4.129
 6859TIP3   OH220529   4.905   4.453   4.540
 6859TIP3    H120530   4.898   4.534   4.590
 6859TIP3    H220531   4.824   4.449   4.489
 6860TIP3   OH220532   4.025   4.819   4.131
 6860TIP3    H120533   3.998   4.799   4.041
 6860TIP3    H220534   4.112   4.778   4.140
 6861TIP3   OH220535   4.003   4.394   4.386
 6861TIP3    H120536   4.044   4.361   4.306
 6861TIP3    H220537   4.048   4.476   4.404
 6862TIP3   OH220538   4.548   5.039   4.140
 6862TIP3    H120539   4.544   5.114   4.200
 6862TIP3    H220540   4.536   4.963   4.196
 6863TIP3   OH220541   4.175   4.931   4.697
 6863TIP3    H120542   4.115   4.988   4.744
 6863TIP3    H220543   4.120   4.879   4.639
 6864TIP3   OH220544   4.488   4.233   3.453
 6864TIP3    H120545   4.546   4.199   3.521
 6864TIP3    H220546   4.545   4.245   3.377
 6865TIP3   OH220547   3.930   4.474   4.843
 6865TIP3    H120548   3.935   4.568   4.860
 6865TIP3    H220549   3.836   4.457   4.834
 6866TIP3   OH220550   4.251   4.963   3.681
 6866TIP3    H120551   4.339   4.999   3.685
 6866TIP3    H220552   4.201   5.028   3.632
 6867TIP3   OH220553   3.965   5.089   4.783
 6867TIP3    H120554   3.940   5.100   4.691
 6867TIP3    H220555   3.882   5.074   4.829
 6868TIP3   OH220556   5.076   3.553   3.499
 6868TIP3    H120557   4.991   3.556   3.542
 6868TIP3    H220558   5.071   3.620   3.431
 6869TIP3   OH220559   4.845   4.885   3.039
 6869TIP3    H120560   4.840   4.978   3.014
 6869TIP3    H220561   4.936   4.860   3.021
 6870TIP3   OH220562   3.561   4.646   4.732
 6870TIP3    H120563   3.492   4.629   4.667
 6870TIP3    H220564   3.595   4.560   4.754
 6871TIP3   OH220565   3.404   4.842   4.382
 6871TIP3    H120566   3.497   4.863   4.396
 6871TIP3    H220567   3.357   4.919   4.413
 6872TIP3   OH220568   5.251   5.309   4.427
 6872TIP3    H120569   5.251   5.213   4.427
 6872TIP3    H220570   5.170   5.332   4.473
 6873TIP3   OH220571   4.365   5.073   4.559
 6873TIP3    H120572   4.355   5.164   4.586
 6873TIP3    H220573   4.297   5.026   4.607
 6874TIP3   OH220574   4.148   5.176   3.510
 6874TIP3    H120575   4.101   5.151   3.430
 6874TIP3    H220576   4.107   5.258   3.538
 6875TIP3   OH220577   3.580   5.034   3.892
 6875TIP3    H120578   3.625   5.024   3.976
 6875TIP3    H220579   3.531   4.953   3.881
 6876TIP3   OH220580   4.349   5.107   3.138
 6876TIP3    H120581   4.398   5.033   3.102
 6876TIP3    H220582   4.384   5.118   3.227
 6877TIP3   OH220583   4.404   5.147   3.411
 6877TIP3    H120584   4.316   5.151   3.450
 6877TIP3    H220585   4.457   5.102   3.477
 6878TIP3   OH220586   5.156   4.404   4.688
 6878TIP3    H120587   5.071   4.417   4.646
 6878TIP3    H220588   5.171   4.309   4.682
 6879TIP3   OH220589   3.757   4.836   4.701
 6879TIP3    H120590   3.810   4.821   4.780
 6879TIP3    H220591   3.686   4.772   4.707
 6880TIP3   OH220592   4.688   3.752   4.711
 6880TIP3    H120593   4.758   3.731   4.773
 6880TIP3    H220594   4.607   3.738   4.760
 6881TIP3   OH220595   4.918   4.193   4.643
 6881TIP3    H120596   4.872   4.188   4.727
 6881TIP3    H220597   4.892   4.278   4.606
 6882TIP3   OH220598   4.594   4.231   3.173
 6882TIP3    H120599   4.542   4.246   3.095
 6882TIP3    H220600   4.671   4.287   3.163
 6883TIP3   OH220601   4.320   3.673   3.528
 6883TIP3    H120602   4.296   3.658   3.619
 6883TIP3    H220603   4.269   3.609   3.478
 6884TIP3   OH220604   4.082   4.164   4.521
 6884TIP3    H120605   4.035   4.172   4.604
 6884TIP3    H220606   4.062   4.246   4.475
 6885TIP3   OH220607   4.629   4.389   4.842
 6885TIP3    H120608   4.600   4.322   4.905
 6885TIP3    H220609   4.720   4.405   4.865
 6886TIP3   OH220610   3.919   4.189   4.740
 6886TIP3    H120611   3.929   4.253   4.811
 6886TIP3    H220612   3.898   4.107   4.785
 6887TIP3   OH220613   3.939   3.656   3.509
 6887TIP3    H120614   3.869   3.600   3.543
 6887TIP3    H220615   3.893   3.722   3.456
 6888TIP3   OH220616   4.651   4.399   4.417
 6888TIP3    H120617   4.699   4.337   4.362
 6888TIP3    H220618   4.608   4.345   4.483
 6889TIP3   OH220619   4.865   3.951   4.362
 6889TIP3    H120620   4.805   3.966   4.435
 6889TIP3    H220621   4.819   3.890   4.304
 6890TIP3   OH220622   3.815   4.015   3.563
 6890TIP3    H120623   3.747   3.950   3.548
 6890TIP3    H220624   3.875   4.005   3.489
 6891TIP3   OH220625   4.968   5.661   4.506
 6891TIP3    H120626   4.973   5.652   4.411
 6891TIP3    H220627   4.954   5.754   4.521
 6892TIP3   OH220628   3.915   4.744   4.931
 6892TIP3    H120629   3.996   4.764   4.979
 6892TIP3    H220630   3.846   4.752   4.997
 6893TIP3   OH220631   4.373   4.216   4.180
 6893TIP3    H120632   4.387   4.167   4.099
 6893TIP3    H220633   4.375   4.149   4.249
 6894TIP3   OH220634   3.998   3.624   4.068
 6894TIP3    H120635   3.925   3.573   4.104
 6894TIP3    H220636   3.974   3.641   3.978
 6895TIP3   OH220637   4.348   4.100   4.466
 6895TIP3    H120638   4.260   4.135   4.479
 6895TIP3    H220639   4.406   4.162   4.511
 6896TIP3   OH220640   3.998   4.509   3.602
 6896TIP3    H120641   3.952   4.429   3.576
 6896TIP3    H220642   4.059   4.480   3.669
 6897TIP3   OH220643   4.969   4.726   4.143
 6897TIP3    H120644   5.015   4.783   4.083
 6897TIP3    H220645   4.905   4.680   4.089
 6898TIP3   OH220646   4.548   3.802   3.450
 6898TIP3    H120647   4.465   3.764   3.479
 6898TIP3    H220648   4.553   3.887   3.495
 6899TIP3   OH220649   4.501   4.819   4.585
 6899TIP3    H120650   4.537   4.803   4.672
 6899TIP3    H220651   4.453   4.902   4.594
 6900TIP3   OH220652   3.795   4.469   4.206
 6900TIP3    H120653   3.849   4.463   4.127
 6900TIP3    H220654   3.854   4.444   4.277
 6901TIP3   OH220655   4.197   4.607   3.439
 6901TIP3    H120656   4.173   4.698   3.423
 6901TIP3    H220657   4.124   4.571   3.490
 6902TIP3   OH220658   3.655   4.412   4.861
 6902TIP3    H120659   3.656   4.384   4.953
 6902TIP3    H220660   3.584   4.361   4.822
 6903TIP3   OH220661   4.398   4.550   4.884
 6903TIP3    H120662   4.326   4.493   4.855
 6903TIP3    H220663   4.477   4.507   4.850
 6904TIP3   OH220664   4.641   5.100   4.482
 6904TIP3    H120665   4.547   5.082   4.481
 6904TIP3    H220666   4.659   5.131   4.571
 6905TIP3   OH220667   5.271   5.036   4.434
 6905TIP3    H120668   5.184   4.999   4.446
 6905TIP3    H220669   5.304   4.994   4.355
 6906TIP3   OH220670   4.762   4.942   3.301
 6906TIP3    H120671   4.734   4.864   3.347
 6906TIP3    H220672   4.784   4.912   3.213
 6907TIP3   OH220673   3.875   4.811   3.893
 6907TIP3    H120674   3.886   4.884   3.832
 6907TIP3    H220675   3.781   4.808   3.910
 6908TIP3   OH220676   3.460   4.116   3.603
 6908TIP3    H120677   3.505   4.201   3.613
 6908TIP3    H220678   3.376   4.128   3.647
 6909TIP3   OH220679   4.180   5.143   4.349
 6909TIP3    H120680   4.217   5.216   4.299
 6909TIP3    H220681   4.255   5.108   4.398
 6910TIP3   OH220682   3.811   5.047   3.742
 6910TIP3    H120683   3.725   5.054   3.783
 6910TIP3    H220684   3.848   5.135   3.748
 6911TIP3   OH220685   4.519   4.815   4.308
 6911TIP3    H120686   4.515   4.811   4.404
 6911TIP3    H220687   4.566   4.735   4.284
 6912TIP3   OH220688   4.528   4.685   3.184
 6912TIP3    H120689   4.572   4.676   3.269
 6912TIP3    H220690   4.444   4.640   3.196
 6913TIP3   OH220691   4.793   5.314   4.374
 6913TIP3    H120692   4.727   5.247   4.393
 6913TIP3    H220693   4.757   5.362   4.300
 6914TIP3   OH220694   4.838   5.157   2.992
 6914TIP3    H120695   4.846   5.213   2.914
 6914TIP3    H220696   4.770   5.199   3.044
 6915TIP3   OH220697   3.864   3.939   4.859
 6915TIP3    H120698   3.769   3.945   4.861
 6915TIP3    H220699   3.888   3.905   4.945
 6916TIP3   OH220700   4.701   4.679   3.406
 6916TIP3    H120701   4.684   4.702   3.497
 6916TIP3    H220702   4.788   4.639   3.407
 6917TIP3   OH220703   3.610   5.040   4.516
 6917TIP3    H120704   3.660   4.978   4.569
 6917TIP3    H220705   3.627   5.125   4.557
 6918TIP3   OH220706   3.876   4.654   3.203
 6918TIP3    H120707   3.886   4.563   3.177
 6918TIP3    H220708   3.856   4.650   3.297
 6919TIP3   OH220709   3.811   4.670   3.472
 6919TIP3    H120710   3.877   4.628   3.527
 6919TIP3    H220711   3.823   4.764   3.485
 6920TIP3   OH220712   4.715   3.997   4.587
 6920TIP3    H120713   4.787   4.040   4.633
 6920TIP3    H220714   4.700   3.916   4.636
 6921TIP3   OH220715   4.100   4.856   3.409
 6921TIP3    H120716   4.018   4.879   3.451
 6921TIP3    H220717   4.119   4.930   3.351
 6922TIP3   OH220718   4.552   4.232   4.611
 6922TIP3    H120719   4.573   4.276   4.694
 6922TIP3    H220720   4.600   4.149   4.616
 6923TIP3   OH220721   3.852   4.942   3.493
 6923TIP3    H120722   3.828   5.012   3.432
 6923TIP3    H220723   3.837   4.978   3.580
 6924TIP3   OH220724   3.973   3.702   3.794
 6924TIP3    H120725   3.914   3.773   3.820
 6924TIP3    H220726   3.959   3.692   3.700
 6925TIP3   OH220727   5.175   4.127   4.591
 6925TIP3    H120728   5.083   4.145   4.614
 6925TIP3    H220729   5.170   4.053   4.531
 6926TIP3   OH220730   3.556   4.562   3.437
 6926TIP3    H120731   3.632   4.618   3.455
 6926TIP3    H220732   3.593   4.487   3.390
 6927TIP3   OH220733   3.562   3.871   3.534
 6927TIP3    H120734   3.531   3.955   3.566
 6927TIP3    H220735   3.529   3.807   3.597
 6928TIP3   OH220736   4.817   5.322   3.936
 6928TIP3    H120737   4.771   5.369   3.866
 6928TIP3    H220738   4.910   5.327   3.912
 6929TIP3   OH220739   3.863   3.548   4.467
 6929TIP3    H120740   3.843   3.519   4.377
 6929TIP3    H220741   3.864   3.467   4.518
 6930TIP3   OH220742   3.417   4.808   3.858
 6930TIP3    H120743   3.363   4.834   3.933
 6930TIP3    H220744   3.374   4.847   3.782
 6931TIP3   OH220745   3.607   5.344   4.935
 6931TIP3    H120746   3.690   5.347   4.983
 6931TIP3    H220747   3.590   5.250   4.924
 6932TIP3   OH220748   4.074   5.252   4.977
 6932TIP3    H120749   4.165   5.222   4.986
 6932TIP3    H220750   4.038   5.199   4.906
 6933TIP3   OH220751   4.029   4.856   3.094
 6933TIP3    H120752   3.981   4.786   3.138
 6933TIP3    H220753   4.103   4.811   3.052
 6934TIP3   OH220754   4.691   5.191   4.736
 6934TIP3    H120755   4.707   5.121   4.799
 6934TIP3    H220756   4.764   5.252   4.750
 6935TIP3   OH220757   4.473   4.896   3.016
 6935TIP3    H120758   4.509   4.829   3.075
 6935TIP3    H220759   4.526   4.888   2.937
 6936TIP3   OH220760   3.710   4.748   5.121
 6936TIP3    H120761   3.729   4.655   5.133
 6936TIP3    H220762   3.623   4.750   5.081
 6937TIP3   OH220763   3.693   4.353   3.320
 6937TIP3    H120764   3.744   4.327   3.396
 6937TIP3    H220765   3.757   4.365   3.250
 6938TIP3   OH220766   4.331   4.826   4.899
 6938TIP3    H120767   4.284   4.846   4.818
 6938TIP3    H220768   4.364   4.737   4.886
 6939TIP3   OH220769   4.275   4.567   3.174
 6939TIP3    H120770   4.239   4.572   3.262
 6939TIP3    H220771   4.256   4.477   3.146
 6940TIP3   OH220772   4.816   4.876   4.529
 6940TIP3    H120773   4.885   4.893   4.465
 6940TIP3    H220774   4.746   4.936   4.505
 6941TIP3   OH220775   3.821   4.493   5.129
 6941TIP3    H120776   3.896   4.468   5.076
 6941TIP3    H220777   3.858   4.510   5.216
 6942TIP3   OH220778   3.875   4.275   3.522
 6942TIP3    H120779   3.832   4.196   3.554
 6942TIP3    H220780   3.945   4.242   3.465
 6943TIP3   OH220781   4.192   4.376   4.790
 6943TIP3    H120782   4.104   4.413   4.798
 6943TIP3    H220783   4.221   4.404   4.703
 6944TIP3   OH220784   4.012   4.086   3.370
 6944TIP3    H120785   3.979   4.090   3.280
 6944TIP3    H220786   4.107   4.098   3.361
 6945TIP3   OH220787   4.689   4.748   4.876
 6945TIP3    H120788   4.750   4.703   4.818
 6945TIP3    H220789   4.683   4.690   4.952
 6946TIP3   OH220790   4.795   4.392   3.065
 6946TIP3    H120791   4.782   4.351   2.980
 6946TIP3    H220792   4.774   4.485   3.050
 6947TIP3   OH220793   4.291   4.141   4.893
 6947TIP3    H120794   4.288   4.072   4.827
 6947TIP3    H220795   4.257   4.218   4.847
 6948TIP3   OH220796   4.293   3.939   4.693
 6948TIP3    H120797   4.316   3.980   4.609
 6948TIP3    H220798   4.204   3.907   4.680
 6949TIP3   OH220799   4.301   4.468   4.559
 6949TIP3    H120800   4.383   4.474   4.510
 6949TIP3    H220801   4.243   4.530   4.515
 6950TIP3   OH220802   4.896   4.424   4.944
 6950TIP3    H120803   4.940   4.340   4.954
 6950TIP3    H220804   4.968   4.487   4.932
 6951TIP3   OH220805   4.926   4.691   4.691
 6951TIP3    H120806   4.874   4.756   4.644
 6951TIP3    H220807   5.015   4.703   4.658
 6952TIP3   OH220808   4.178   4.219   5.140
 6952TIP3    H120809   4.104   4.161   5.160
 6952TIP3    H220810   4.203   4.197   5.050
 6953TIP3   OH220811   4.417   3.713   4.788
 6953TIP3    H120812   4.383   3.799   4.764
 6953TIP3    H220813   4.356   3.651   4.748
 6954TIP3   OH220814   4.545   4.178   4.998
 6954TIP3    H120815   4.531   4.166   5.092
 6954TIP3    H220816   4.459   4.160   4.959
 6955TIP3   OH220817   4.791   4.130   4.872
 6955TIP3    H120818   4.711   4.133   4.925
 6955TIP3    H220819   4.860   4.108   4.935
 6956TIP3   OH220820   5.035   4.105   5.017
 6956TIP3    H120821   5.046   4.010   5.024
 6956TIP3    H220822   5.029   4.135   5.107
 6957TIP3   OH220823   4.003   3.999   5.198
 6957TIP3    H120824   4.011   3.909   5.166
 6957TIP3    H220825   4.039   3.996   5.287
 6958TIP3   OH220826   4.485   3.685   5.056
 6958TIP3    H120827   4.557   3.622   5.045
 6958TIP3    H220828   4.452   3.699   4.967
 6959TIP3   OH220829   4.582   3.899   5.203
 6959TIP3    H120830   4.549   3.828   5.148
 6959TIP3    H220831   4.511   3.963   5.206
 6960TIP3   OH220832   3.841   5.156   3.313
 6960TIP3    H120833   3.929   5.133   3.284
 6960TIP3    H220834   3.800   5.198   3.238
 6961TIP3   OH220835   3.300   4.521   3.515
 6961TIP3    H120836   3.390   4.544   3.492
 6961TIP3    H220837   3.284   4.440   3.467
 6962TIP3   OH220838   3.202   5.117   3.950
 6962TIP3    H120839   3.139   5.062   3.905
 6962TIP3    H220840   3.249   5.058   4.008
 6963TIP3   OH220841   3.348   4.954   4.119
 6963TIP3    H120842   3.340   4.884   4.183
 6963TIP3    H220843   3.402   5.020   4.162
 6964TIP3   OH220844   5.091   5.350   3.915
 6964TIP3    H120845   5.113   5.380   4.003
 6964TIP3    H220846   5.154   5.394   3.858
 6965TIP3   OH220847   5.118   5.387   4.192
 6965TIP3    H120848   5.062   5.309   4.191
 6965TIP3    H220849   5.180   5.372   4.263
 6966TIP3   OH220850   5.171   5.097   4.780
 6966TIP3    H120851   5.097   5.101   4.840
 6966TIP3    H220852   5.209   5.185   4.782
 6967TIP3   OH220853   4.974   4.592   3.406
 6967TIP3    H120854   5.033   4.662   3.378
 6967TIP3    H220855   5.002   4.571   3.495
 6968TIP3   OH220856   5.067   4.512   3.652
 6968TIP3    H120857   5.012   4.503   3.730
 6968TIP3    H220858   5.156   4.508   3.685
 6969TIP3   OH220859   5.177   4.862   4.014
 6969TIP3    H120860   5.210   4.789   3.962
 6969TIP3    H220861   5.166   4.933   3.951
 6970TIP3   OH220862   4.979   5.153   4.245
 6970TIP3    H120863   4.914   5.199   4.298
 6970TIP3    H220864   4.930   5.117   4.172
 6971TIP3   OH220865   5.021   4.392   3.220
 6971TIP3    H120866   4.943   4.391   3.164
 6971TIP3    H220867   5.002   4.459   3.286
 6972TIP3   OH220868   5.003   3.978   3.162
 6972TIP3    H120869   4.964   4.064   3.145
 6972TIP3    H220870   4.934   3.916   3.139
 6973TIP3   OH220871   3.526   4.396   4.488
 6973TIP3    H120872   3.519   4.365   4.397
 6973TIP3    H220873   3.619   4.387   4.508
 6974TIP3   OH220874   5.176   4.738   4.576
 6974TIP3    H120875   5.247   4.677   4.559
 6974TIP3    H220876   5.153   4.773   4.490
 6975TIP3   OH220877   5.370   4.534   4.577
 6975TIP3    H120878   5.295   4.490   4.615
 6975TIP3    H220879   5.446   4.483   4.605
 6976TIP3   OH220880   4.832   3.750   3.151
 6976TIP3    H120881   4.861   3.729   3.240
 6976TIP3    H220882   4.739   3.728   3.150
 6977TIP3   OH220883   5.068   4.186   4.151
 6977TIP3    H120884   5.092   4.233   4.071
 6977TIP3    H220885   5.091   4.245   4.222
 6978TIP3   OH220886   5.131   4.369   4.351
 6978TIP3    H120887   5.054   4.390   4.404
 6978TIP3    H220888   5.153   4.452   4.307
 6979TIP3   OH220889   3.735   4.048   5.140
 6979TIP3    H120890   3.829   4.047   5.161
 6979TIP3    H220891   3.700   3.972   5.185
 6980TIP3   OH220892   5.585   3.961   4.895
 6980TIP3    H120893   5.647   3.900   4.857
 6980TIP3    H220894   5.556   4.015   4.821
 6981TIP3   OH220895   3.732   3.785   4.527
 6981TIP3    H120896   3.769   3.698   4.510
 6981TIP3    H220897   3.796   3.846   4.491
 6982TIP3   OH220898   3.492   4.080   4.584
 6982TIP3    H120899   3.557   4.105   4.518
 6982TIP3    H220900   3.482   4.158   4.638
 6983TIP3   OH220901   5.446   4.099   4.700
 6983TIP3    H120902   5.377   4.133   4.757
 6983TIP3    H220903   5.404   4.028   4.651
 6984TIP3   OH220904   5.099   3.732   3.293
 6984TIP3    H120905   5.124   3.666   3.228
 6984TIP3    H220906   5.083   3.811   3.241
 6985TIP3   OH220907   4.659   5.254   3.578
 6985TIP3    H120908   4.710   5.247   3.498
 6985TIP3    H220909   4.693   5.332   3.622
 6986TIP3   OH220910   3.741   5.063   4.949
 6986TIP3    H120911   3.648   5.043   4.940
 6986TIP3    H220912   3.759   5.049   5.042
 6987TIP3   OH220913   3.952   5.113   4.501
 6987TIP3    H120914   3.902   5.188   4.469
 6987TIP3    H220915   4.036   5.120   4.455
 6988TIP3   OH220916   4.344   5.339   4.638
 6988TIP3    H120917   4.383   5.332   4.725
 6988TIP3    H220918   4.405   5.394   4.589
 6989TIP3   OH220919   4.531   5.495   4.508
 6989TIP3    H120920   4.586   5.441   4.452
 6989TIP3    H220921   4.593   5.546   4.560
 6990TIP3   OH220922   5.349   3.838   4.596
 6990TIP3    H120923   5.266   3.841   4.550
 6990TIP3    H220924   5.378   3.747   4.589
 6991TIP3   OH220925   3.614   5.352   4.548
 6991TIP3    H120926   3.523   5.369   4.525
 6991TIP3    H220927   3.635   5.418   4.613
 6992TIP3   OH220928   3.844   5.344   4.397
 6992TIP3    H120929   3.761   5.348   4.444
 6992TIP3    H220930   3.821   5.365   4.306
 6993TIP3   OH220931   4.260   5.356   4.189
 6993TIP3    H120932   4.188   5.363   4.126
 6993TIP3    H220933   4.267   5.443   4.227
 6994TIP3   OH220934   4.526   5.303   4.245
 6994TIP3    H120935   4.434   5.314   4.221
 6994TIP3    H220936   4.574   5.364   4.189
 6995TIP3   OH220937   4.732   5.475   4.144
 6995TIP3    H120938   4.722   5.560   4.101
 6995TIP3    H220939   4.759   5.416   4.074
 6996TIP3   OH220940   3.524   5.130   4.267
 6996TIP3    H120941   3.551   5.105   4.355
 6996TIP3    H220942   3.595   5.096   4.211
 6997TIP3   OH220943   3.725   5.013   4.126
 6997TIP3    H120944   3.735   4.927   4.168
 6997TIP3    H220945   3.813   5.051   4.127
 6998TIP3   OH220946   3.995   5.097   4.144
 6998TIP3    H120947   4.010   5.005   4.125
 6998TIP3    H220948   4.050   5.116   4.220
 6999TIP3   OH220949   5.077   3.656   4.154
 6999TIP3    H120950   5.113   3.705   4.080
 6999TIP3    H220951   4.982   3.661   4.143
 7000TIP3   OH220952   5.182   3.751   3.922
 7000TIP3    H120953   5.224   3.703   3.851
 7000TIP3    H220954   5.175   3.841   3.890
 7001TIP3   OH220955   3.810   3.461   4.195
 7001TIP3    H120956   3.732   3.463   4.140
 7001TIP3    H220957   3.836   3.369   4.198
 7002TIP3   OH220958   4.234   3.496   4.118
 7002TIP3    H120959   4.299   3.566   4.111
 7002TIP3    H220960   4.150   3.539   4.104
 7003TIP3   OH220961   4.806   3.616   4.123
 7003TIP3    H120962   4.804   3.576   4.036
 7003TIP3    H220963   4.793   3.542   4.183
 7004TIP3   OH220964   4.835   3.563   3.622
 7004TIP3    H120965   4.758   3.620   3.624
 7004TIP3    H220966   4.813   3.490   3.679
 7005TIP3   OH220967   3.294   4.929   3.645
 7005TIP3    H120968   3.211   4.892   3.615
 7005TIP3    H220969   3.293   5.019   3.612
 7006TIP3   OH220970   3.732   3.507   3.607
 7006TIP3    H120971   3.759   3.423   3.571
 7006TIP3    H220972   3.703   3.486   3.696
 7007TIP3   OH220973   4.240   3.616   3.786
 7007TIP3    H120974   4.216   3.525   3.768
 7007TIP3    H220975   4.157   3.659   3.807
 7008TIP3   OH220976   4.093   5.079   3.238
 7008TIP3    H120977   4.177   5.106   3.199
 7008TIP3    H220978   4.062   5.009   3.180
 7009TIP3   OH220979   4.797   5.213   3.340
 7009TIP3    H120980   4.789   5.118   3.332
 7009TIP3    H220981   4.751   5.247   3.263
 7010TIP3   OH220982   4.027   3.723   5.108
 7010TIP3    H120983   3.986   3.657   5.163
 7010TIP3    H220984   4.114   3.735   5.146
 7011TIP3   OH220985   4.265   3.737   5.246
 7011TIP3    H120986   4.345   3.711   5.200
 7011TIP3    H220987   4.251   3.668   5.311
 7012TIP3   OH220988   3.405   4.922   3.301
 7012TIP3    H120989   3.406   4.920   3.396
 7012TIP3    H220990   3.485   4.875   3.275
 7013TIP3   OH220991   5.093   3.831   5.023
 7013TIP3    H120992   5.110   3.802   5.113
 7013TIP3    H220993   5.179   3.826   4.980
 7014TIP3   OH220994   5.010   5.385   4.531
 7014TIP3    H120995   4.934   5.351   4.483
 7014TIP3    H220996   4.996   5.480   4.535
 7015TIP3   OH220997   6.282   4.735   3.273
 7015TIP3    H120998   6.249   4.823   3.255
 7015TIP3    H220999   6.213   4.677   3.241
 7016TIP3   OH221000   6.291   4.749   3.693
 7016TIP3    H121001   6.343   4.729   3.771
 7016TIP3    H221002   6.252   4.665   3.668
 7017TIP3   OH221003   5.592   4.622   4.028
 7017TIP3    H121004   5.617   4.550   4.087
 7017TIP3    H221005   5.662   4.686   4.039
 7018TIP3   OH221006   6.557   5.046   3.361
 7018TIP3    H121007   6.543   4.982   3.431
 7018TIP3    H221008   6.576   5.128   3.407
 7019TIP3   OH221009   5.590   5.046   3.749
 7019TIP3    H121010   5.573   4.952   3.752
 7019TIP3    H221011   5.682   5.053   3.724
 7020TIP3   OH221012   5.343   4.512   3.721
 7020TIP3    H121013   5.395   4.431   3.719
 7020TIP3    H221014   5.378   4.565   3.650
 7021TIP3   OH221015   6.216   5.470   3.378
 7021TIP3    H121016   6.238   5.408   3.309
 7021TIP3    H221017   6.223   5.420   3.460
 7022TIP3   OH221018   6.092   4.962   3.701
 7022TIP3    H121019   6.140   4.886   3.669
 7022TIP3    H221020   6.159   5.022   3.731
 7023TIP3   OH221021   7.103   4.285   3.716
 7023TIP3    H121022   7.122   4.370   3.757
 7023TIP3    H221023   7.139   4.293   3.627
 7024TIP3   OH221024   6.501   4.438   3.739
 7024TIP3    H121025   6.565   4.371   3.763
 7024TIP3    H221026   6.473   4.415   3.651
 7025TIP3   OH221027   6.550   4.217   3.329
 7025TIP3    H121028   6.618   4.209   3.396
 7025TIP3    H221029   6.596   4.247   3.251
 7026TIP3   OH221030   5.470   4.263   3.733
 7026TIP3    H121031   5.496   4.199   3.800
 7026TIP3    H221032   5.391   4.226   3.694
 7027TIP3   OH221033   5.921   4.509   3.610
 7027TIP3    H121034   6.015   4.523   3.601
 7027TIP3    H221035   5.913   4.429   3.662
 7028TIP3   OH221036   7.160   4.500   3.891
 7028TIP3    H121037   7.075   4.541   3.879
 7028TIP3    H221038   7.200   4.548   3.964
 7029TIP3   OH221039   5.848   4.116   4.178
 7029TIP3    H121040   5.809   4.147   4.097
 7029TIP3    H221041   5.782   4.134   4.245
 7030TIP3   OH221042   6.146   4.946   3.162
 7030TIP3    H121043   6.124   4.931   3.070
 7030TIP3    H221044   6.109   5.033   3.180
 7031TIP3   OH221045   5.944   4.889   3.924
 7031TIP3    H121046   5.887   4.960   3.954
 7031TIP3    H221047   5.990   4.926   3.849
 7032TIP3   OH221048   6.735   4.230   3.530
 7032TIP3    H121049   6.784   4.163   3.575
 7032TIP3    H221050   6.774   4.313   3.559
 7033TIP3   OH221051   5.757   4.206   3.942
 7033TIP3    H121052   5.791   4.294   3.954
 7033TIP3    H221053   5.758   4.192   3.847
 7034TIP3   OH221054   5.783   5.093   4.018
 7034TIP3    H121055   5.761   5.176   3.976
 7034TIP3    H221056   5.705   5.072   4.070
 7035TIP3   OH221057   5.156   4.780   3.277
 7035TIP3    H121058   5.117   4.792   3.190
 7035TIP3    H221059   5.174   4.869   3.307
 7036TIP3   OH221060   6.589   5.293   3.504
 7036TIP3    H121061   6.500   5.289   3.539
 7036TIP3    H221062   6.592   5.376   3.456
 7037TIP3   OH221063   6.914   4.168   3.892
 7037TIP3    H121064   6.826   4.191   3.862
 7037TIP3    H221065   6.972   4.195   3.820
 7038TIP3   OH221066   6.176   3.799   3.876
 7038TIP3    H121067   6.168   3.707   3.902
 7038TIP3    H221068   6.095   3.839   3.907
 7039TIP3   OH221069   6.295   5.320   3.158
 7039TIP3    H121070   6.347   5.240   3.146
 7039TIP3    H221071   6.354   5.391   3.132
 7040TIP3   OH221072   6.450   5.103   3.111
 7040TIP3    H121073   6.459   5.028   3.053
 7040TIP3    H221074   6.490   5.075   3.193
 7041TIP3   OH221075   6.816   5.187   3.850
 7041TIP3    H121076   6.802   5.113   3.790
 7041TIP3    H221077   6.801   5.264   3.795
 7042TIP3   OH221078   6.108   4.576   3.123
 7042TIP3    H121079   6.028   4.626   3.105
 7042TIP3    H221080   6.156   4.577   3.040
 7043TIP3   OH221081   6.080   4.387   2.812
 7043TIP3    H121082   6.145   4.438   2.860
 7043TIP3    H221083   6.132   4.323   2.762
 7044TIP3   OH221084   6.998   4.845   3.719
 7044TIP3    H121085   6.915   4.892   3.721
 7044TIP3    H221086   7.029   4.856   3.629
 7045TIP3   OH221087   6.468   4.678   3.079
 7045TIP3    H121088   6.413   4.703   3.153
 7045TIP3    H221089   6.551   4.651   3.117
 7046TIP3   OH221090   6.696   4.703   4.029
 7046TIP3    H121091   6.696   4.788   4.072
 7046TIP3    H221092   6.614   4.701   3.978
 7047TIP3   OH221093   5.691   4.631   3.506
 7047TIP3    H121094   5.651   4.570   3.445
 7047TIP3    H221095   5.774   4.590   3.531
 7048TIP3   OH221096   5.839   5.083   3.626
 7048TIP3    H121097   5.814   5.066   3.535
 7048TIP3    H221098   5.926   5.042   3.634
 7049TIP3   OH221099   5.841   4.648   3.847
 7049TIP3    H121100   5.868   4.633   3.757
 7049TIP3    H221101   5.875   4.735   3.869
 7050TIP3   OH221102   6.347   5.289   3.632
 7050TIP3    H121103   6.336   5.371   3.681
 7050TIP3    H221104   6.333   5.220   3.697
 7051TIP3   OH221105   5.973   5.195   4.190
 7051TIP3    H121106   5.911   5.252   4.236
 7051TIP3    H221107   5.918   5.145   4.130
 7052TIP3   OH221108   6.300   4.532   2.915
 7052TIP3    H121109   6.359   4.591   2.961
 7052TIP3    H221110   6.328   4.537   2.823
 7053TIP3   OH221111   5.713   4.729   4.310
 7053TIP3    H121112   5.724   4.819   4.338
 7053TIP3    H221113   5.619   4.713   4.318
 7054TIP3   OH221114   6.044   5.207   3.174
 7054TIP3    H121115   6.130   5.249   3.175
 7054TIP3    H221116   5.989   5.267   3.123
 7055TIP3   OH221117   5.758   5.351   4.282
 7055TIP3    H121118   5.738   5.365   4.189
 7055TIP3    H221119   5.679   5.309   4.318
 7056TIP3   OH221120   6.804   3.764   2.967
 7056TIP3    H121121   6.729   3.787   3.022
 7056TIP3    H221122   6.818   3.841   2.912
 7057TIP3   OH221123   5.548   4.431   3.313
 7057TIP3    H121124   5.500   4.506   3.278
 7057TIP3    H221125   5.484   4.360   3.315
 7058TIP3   OH221126   6.640   5.139   2.524
 7058TIP3    H121127   6.638   5.232   2.504
 7058TIP3    H221128   6.730   5.112   2.502
 7059TIP3   OH221129   5.363   4.901   4.215
 7059TIP3    H121130   5.296   4.886   4.149
 7059TIP3    H221131   5.389   4.813   4.244
 7060TIP3   OH221132   5.193   5.095   3.857
 7060TIP3    H121133   5.283   5.125   3.869
 7060TIP3    H221134   5.139   5.168   3.887
 7061TIP3   OH221135   7.044   5.533   3.926
 7061TIP3    H121136   7.047   5.438   3.942
 7061TIP3    H221137   6.965   5.562   3.970
 7062TIP3   OH221138   6.164   5.323   4.041
 7062TIP3    H121139   6.159   5.415   4.064
 7062TIP3    H221140   6.097   5.281   4.095
 7063TIP3   OH221141   5.942   5.427   2.999
 7063TIP3    H121142   5.897   5.407   2.917
 7063TIP3    H221143   5.904   5.511   3.027
 7064TIP3   OH221144   5.375   5.284   3.373
 7064TIP3    H121145   5.418   5.274   3.459
 7064TIP3    H221146   5.324   5.204   3.363
 7065TIP3   OH221147   6.143   5.363   2.624
 7065TIP3    H121148   6.193   5.289   2.590
 7065TIP3    H221149   6.178   5.377   2.712
 7066TIP3   OH221150   6.195   5.406   2.893
 7066TIP3    H121151   6.109   5.409   2.935
 7066TIP3    H221152   6.253   5.370   2.960
 7067TIP3   OH221153   6.938   4.664   4.190
 7067TIP3    H121154   6.856   4.674   4.142
 7067TIP3    H221155   6.959   4.571   4.185
 7068TIP3   OH221156   5.568   5.079   4.189
 7068TIP3    H121157   5.622   5.059   4.265
 7068TIP3    H221158   5.494   5.019   4.195
 7069TIP3   OH221159   5.944   3.907   4.006
 7069TIP3    H121160   5.860   3.877   3.971
 7069TIP3    H221161   5.921   3.982   4.061
 7070TIP3   OH221162   6.474   4.011   4.232
 7070TIP3    H121163   6.563   4.007   4.268
 7070TIP3    H221164   6.441   3.922   4.242
 7071TIP3   OH221165   6.692   4.430   4.098
 7071TIP3    H121166   6.666   4.425   4.190
 7071TIP3    H221167   6.684   4.522   4.075
 7072TIP3   OH221168   6.379   4.521   2.652
 7072TIP3    H121169   6.334   4.523   2.568
 7072TIP3    H221170   6.463   4.564   2.636
 7073TIP3   OH221171   6.083   3.946   2.971
 7073TIP3    H121172   6.055   3.955   3.062
 7073TIP3    H221173   6.049   3.861   2.943
 7074TIP3   OH221174   5.885   4.438   4.011
 7074TIP3    H121175   5.830   4.445   4.089
 7074TIP3    H221176   5.865   4.516   3.960
 7075TIP3   OH221177   6.215   4.365   3.264
 7075TIP3    H121178   6.173   4.439   3.222
 7075TIP3    H221179   6.277   4.332   3.199
 7076TIP3   OH221180   6.458   4.615   4.360
 7076TIP3    H121181   6.399   4.667   4.414
 7076TIP3    H221182   6.545   4.651   4.377
 7077TIP3   OH221183   6.399   4.394   3.480
 7077TIP3    H121184   6.332   4.414   3.415
 7077TIP3    H221185   6.452   4.325   3.441
 7078TIP3   OH221186   5.705   4.446   4.218
 7078TIP3    H121187   5.703   4.514   4.286
 7078TIP3    H221188   5.685   4.365   4.265
 7079TIP3   OH221189   5.733   3.907   2.932
 7079TIP3    H121190   5.667   3.848   2.970
 7079TIP3    H221191   5.682   3.978   2.893
 7080TIP3   OH221192   6.442   4.644   3.908
 7080TIP3    H121193   6.467   4.576   3.846
 7080TIP3    H221194   6.409   4.597   3.985
 7081TIP3   OH221195   6.079   4.100   3.617
 7081TIP3    H121196   6.034   4.019   3.642
 7081TIP3    H221197   6.171   4.084   3.638
 7082TIP3   OH221198   6.636   4.204   3.822
 7082TIP3    H121199   6.577   4.208   3.898
 7082TIP3    H221200   6.600   4.135   3.767
 7083TIP3   OH221201   5.674   4.195   3.071
 7083TIP3    H121202   5.602   4.159   3.020
 7083TIP3    H221203   5.731   4.238   3.007
 7084TIP3   OH221204   6.768   5.886   4.008
 7084TIP3    H121205   6.765   5.903   3.914
 7084TIP3    H221206   6.848   5.929   4.038
 7085TIP3   OH221207   5.730   4.997   4.406
 7085TIP3    H121208   5.808   5.030   4.451
 7085TIP3    H221209   5.663   4.992   4.473
 7086TIP3   OH221210   6.196   4.480   3.665
 7086TIP3    H121211   6.264   4.447   3.606
 7086TIP3    H221212   6.210   4.432   3.747
 7087TIP3   OH221213   6.147   4.355   4.011
 7087TIP3    H121214   6.060   4.394   4.007
 7087TIP3    H221215   6.204   4.425   4.041
 7088TIP3   OH221216   5.870   4.717   3.071
 7088TIP3    H121217   5.797   4.660   3.048
 7088TIP3    H221218   5.845   4.756   3.155
 7089TIP3   OH221219   6.766   4.984   3.671
 7089TIP3    H121220   6.802   5.035   3.599
 7089TIP3    H221221   6.687   4.944   3.634
 7090TIP3   OH221222   6.340   4.042   2.969
 7090TIP3    H121223   6.246   4.022   2.963
 7090TIP3    H221224   6.343   4.137   2.980
 7091TIP3   OH221225   6.288   5.062   4.090
 7091TIP3    H121226   6.352   5.061   4.161
 7091TIP3    H221227   6.254   5.151   4.089
 7092TIP3   OH221228   6.394   4.305   3.050
 7092TIP3    H121229   6.490   4.308   3.055
 7092TIP3    H221230   6.370   4.381   2.998
 7093TIP3   OH221231   5.590   4.768   3.734
 7093TIP3    H121232   5.620   4.727   3.653
 7093TIP3    H221233   5.619   4.708   3.803
 7094TIP3   OH221234   6.025   4.878   2.911
 7094TIP3    H121235   5.980   4.962   2.908
 7094TIP3    H221236   5.969   4.822   2.965
 7095TIP3   OH221237   5.443   4.661   4.342
 7095TIP3    H121238   5.438   4.627   4.431
 7095TIP3    H221239   5.367   4.623   4.297
 7096TIP3   OH221240   6.199   4.785   4.374
 7096TIP3    H121241   6.120   4.732   4.372
 7096TIP3    H221242   6.234   4.778   4.285
 7097TIP3   OH221243   6.432   5.347   3.962
 7097TIP3    H121244   6.337   5.335   3.966
 7097TIP3    H221245   6.453   5.390   4.044
 7098TIP3   OH221246   6.812   4.395   2.860
 7098TIP3    H121247   6.756   4.350   2.797
 7098TIP3    H221248   6.820   4.484   2.825
 7099TIP3   OH221249   7.061   5.249   3.949
 7099TIP3    H121250   6.967   5.240   3.933
 7099TIP3    H221251   7.101   5.227   3.864
 7100TIP3   OH221252   6.554   5.210   2.783
 7100TIP3    H121253   6.527   5.136   2.838
 7100TIP3    H221254   6.578   5.170   2.700
 7101TIP3   OH221255   6.540   4.849   3.568
 7101TIP3    H121256   6.450   4.829   3.593
 7101TIP3    H221257   6.572   4.768   3.529
 7102TIP3   OH221258   5.695   5.074   3.382
 7102TIP3    H121259   5.700   5.150   3.325
 7102TIP3    H221260   5.602   5.065   3.403
 7103TIP3   OH221261   5.269   4.362   3.113
 7103TIP3    H121262   5.309   4.447   3.129
 7103TIP3    H221263   5.183   4.368   3.155
 7104TIP3   OH221264   5.771   4.818   3.304
 7104TIP3    H121265   5.758   4.910   3.326
 7104TIP3    H221266   5.742   4.770   3.381
 7105TIP3   OH221267   5.969   5.401   3.844
 7105TIP3    H121268   6.003   5.475   3.795
 7105TIP3    H221269   6.046   5.364   3.887
 7106TIP3   OH221270   5.614   5.301   3.234
 7106TIP3    H121271   5.526   5.308   3.271
 7106TIP3    H221272   5.649   5.390   3.238
 7107TIP3   OH221273   6.323   5.071   3.813
 7107TIP3    H121274   6.312   5.062   3.907
 7107TIP3    H221275   6.405   5.025   3.794
 7108TIP3   OH221276   6.328   4.947   2.688
 7108TIP3    H121277   6.368   4.931   2.774
 7108TIP3    H221278   6.244   4.902   2.691
 7109TIP3   OH221279   6.577   5.572   3.850
 7109TIP3    H121280   6.504   5.510   3.859
 7109TIP3    H221281   6.553   5.626   3.775
 7110TIP3   OH221282   6.641   5.412   2.487
 7110TIP3    H121283   6.650   5.467   2.409
 7110TIP3    H221284   6.572   5.455   2.538
 7111TIP3   OH221285   5.650   4.205   4.359
 7111TIP3    H121286   5.555   4.219   4.366
 7111TIP3    H221287   5.672   4.156   4.439
 7112TIP3   OH221288   6.492   4.899   2.913
 7112TIP3    H121289   6.475   4.823   2.968
 7112TIP3    H221290   6.584   4.893   2.890
 7113TIP3   OH221291   5.431   5.267   3.984
 7113TIP3    H121292   5.451   5.186   4.030
 7113TIP3    H221293   5.511   5.320   3.992
 7114TIP3   OH221294   5.675   4.909   2.690
 7114TIP3    H121295   5.685   4.817   2.664
 7114TIP3    H221296   5.659   4.906   2.785
 7115TIP3   OH221297   5.617   4.927   2.962
 7115TIP3    H121298   5.686   4.903   3.023
 7115TIP3    H221299   5.612   5.022   2.966
 7116TIP3   OH221300   5.369   4.615   3.190
 7116TIP3    H121301   5.299   4.660   3.238
 7116TIP3    H221302   5.385   4.672   3.115
 7117TIP3   OH221303   6.500   4.235   4.064
 7117TIP3    H121304   6.577   4.288   4.081
 7117TIP3    H221305   6.501   4.167   4.131
 7118TIP3   OH221306   6.404   3.996   3.234
 7118TIP3    H121307   6.385   4.014   3.142
 7118TIP3    H221308   6.448   4.076   3.265
 7119TIP3   OH221309   5.885   5.110   2.903
 7119TIP3    H121310   5.800   5.136   2.940
 7119TIP3    H221311   5.911   5.183   2.848
 7120TIP3   OH221312   6.007   4.215   3.379
 7120TIP3    H121313   6.075   4.271   3.341
 7120TIP3    H221314   6.043   4.188   3.463
 7121TIP3   OH221315   6.366   4.492   4.123
 7121TIP3    H121316   6.394   4.524   4.208
 7121TIP3    H221317   6.407   4.405   4.116
 7122TIP3   OH221318   6.232   3.878   3.410
 7122TIP3    H121319   6.264   3.916   3.491
 7122TIP3    H221320   6.292   3.911   3.343
 7123TIP3   OH221321   5.636   5.199   2.980
 7123TIP3    H121322   5.616   5.271   2.920
 7123TIP3    H221323   5.626   5.238   3.067
 7124TIP3   OH221324   5.749   3.940   3.217
 7124TIP3    H121325   5.734   3.960   3.125
 7124TIP3    H221326   5.843   3.922   3.223
 7125TIP3   OH221327   6.962   4.398   4.102
 7125TIP3    H121328   6.867   4.390   4.100
 7125TIP3    H221329   6.991   4.360   4.018
 7126TIP3   OH221330   6.624   4.590   3.480
 7126TIP3    H121331   6.549   4.532   3.492
 7126TIP3    H221332   6.693   4.551   3.533
 7127TIP3   OH221333   5.374   4.789   2.966
 7127TIP3    H121334   5.443   4.855   2.970
 7127TIP3    H221335   5.403   4.727   2.899
 7128TIP3   OH221336   5.275   4.090   3.033
 7128TIP3    H121337   5.288   4.175   3.074
 7128TIP3    H221338   5.195   4.055   3.074
 7129TIP3   OH221339   6.619   5.559   3.417
 7129TIP3    H121340   6.574   5.610   3.350
 7129TIP3    H221341   6.712   5.581   3.405
 7130TIP3   OH221342   5.688   3.814   3.948
 7130TIP3    H121343   5.654   3.782   3.864
 7130TIP3    H221344   5.672   3.742   4.009
 7131TIP3   OH221345   5.199   5.061   3.343
 7131TIP3    H121346   5.152   5.097   3.418
 7131TIP3    H221347   5.158   5.101   3.267
 7132TIP3   OH221348   5.434   5.517   4.431
 7132TIP3    H121349   5.503   5.451   4.433
 7132TIP3    H221350   5.353   5.467   4.418
 7133TIP3   OH221351   5.897   5.457   4.497
 7133TIP3    H121352   5.937   5.539   4.469
 7133TIP3    H221353   5.845   5.429   4.421
 7134TIP3   OH221354   5.828   5.112   2.582
 7134TIP3    H121355   5.781   5.041   2.626
 7134TIP3    H221356   5.903   5.068   2.541
 7135TIP3   OH221357   6.478   5.451   4.211
 7135TIP3    H121358   6.475   5.377   4.272
 7135TIP3    H221359   6.557   5.498   4.234
 7136TIP3   OH221360   6.270   5.149   2.509
 7136TIP3    H121361   6.307   5.087   2.571
 7136TIP3    H221362   6.327   5.143   2.433
 7137TIP3   OH221363   5.513   5.018   4.575
 7137TIP3    H121364   5.534   4.930   4.604
 7137TIP3    H221365   5.420   5.014   4.551
 7138TIP3   OH221366   5.496   4.602   2.809
 7138TIP3    H121367   5.548   4.575   2.885
 7138TIP3    H221368   5.561   4.617   2.740
 7139TIP3   OH221369   6.106   5.053   4.391
 7139TIP3    H121370   6.079   5.089   4.307
 7139TIP3    H221371   6.149   4.970   4.369
 7140TIP3   OH221372   6.077   4.824   2.647
 7140TIP3    H121373   6.049   4.835   2.738
 7140TIP3    H221374   6.056   4.733   2.627
 7141TIP3   OH221375   6.595   5.124   4.000
 7141TIP3    H121376   6.673   5.150   3.951
 7141TIP3    H221377   6.532   5.195   3.983
 7142TIP3   OH221378   5.638   4.775   4.614
 7142TIP3    H121379   5.700   4.710   4.580
 7142TIP3    H221380   5.659   4.781   4.707
 7143TIP3   OH221381   5.669   4.527   3.022
 7143TIP3    H121382   5.634   4.479   3.097
 7143TIP3    H221383   5.721   4.462   2.974
 7144TIP3   OH221384   5.975   4.632   4.314
 7144TIP3    H121385   5.885   4.665   4.307
 7144TIP3    H221386   6.011   4.646   4.226
 7145TIP3   OH221387   5.813   4.340   2.879
 7145TIP3    H121388   5.778   4.344   2.790
 7145TIP3    H221389   5.907   4.353   2.868
 7146TIP3   OH221390   6.485   4.994   4.345
 7146TIP3    H121391   6.563   4.970   4.296
 7146TIP3    H221392   6.490   4.944   4.426
 7147TIP3   OH221393   6.601   4.648   2.546
 7147TIP3    H121394   6.590   4.607   2.460
 7147TIP3    H221395   6.579   4.740   2.532
 7148TIP3   OH221396   6.112   4.191   4.229
 7148TIP3    H121397   6.130   4.251   4.157
 7148TIP3    H221398   6.018   4.174   4.224
 7149TIP3   OH221399   6.104   4.725   4.082
 7149TIP3    H121400   6.187   4.732   4.035
 7149TIP3    H221401   6.044   4.782   4.034
 7150TIP3   OH221402   6.719   4.690   4.439
 7150TIP3    H121403   6.784   4.620   4.438
 7150TIP3    H221404   6.770   4.770   4.429
 7151TIP3   OH221405   6.724   4.951   4.162
 7151TIP3    H121406   6.669   5.011   4.111
 7151TIP3    H221407   6.813   4.967   4.132
 7152TIP3   OH221408   5.947   4.536   4.601
 7152TIP3    H121409   5.906   4.450   4.615
 7152TIP3    H221410   5.958   4.541   4.506
 7153TIP3   OH221411   6.185   3.912   4.212
 7153TIP3    H121412   6.165   3.920   4.119
 7153TIP3    H221413   6.129   3.842   4.243
 7154TIP3   OH221414   6.608   4.375   4.349
 7154TIP3    H121415   6.551   4.438   4.393
 7154TIP3    H221416   6.682   4.364   4.408
 7155TIP3   OH221417   6.831   4.352   4.511
 7155TIP3    H121418   6.847   4.258   4.520
 7155TIP3    H221419   6.828   4.385   4.602
 7156TIP3   OH221420   5.828   4.272   4.671
 7156TIP3    H121421   5.826   4.179   4.645
 7156TIP3    H221422   5.862   4.271   4.760
 7157TIP3   OH221423   6.314   4.012   4.479
 7157TIP3    H121424   6.350   4.059   4.553
 7157TIP3    H221425   6.359   3.927   4.481
 7158TIP3   OH221426   5.634   5.410   2.799
 7158TIP3    H121427   5.723   5.389   2.770
 7158TIP3    H221428   5.595   5.454   2.723
 7159TIP3   OH221429   5.099   4.787   2.989
 7159TIP3    H121430   5.194   4.798   2.983
 7159TIP3    H221431   5.081   4.706   2.941
 7160TIP3   OH221432   4.999   5.375   3.431
 7160TIP3    H121433   4.935   5.321   3.385
 7160TIP3    H221434   5.045   5.314   3.488
 7161TIP3   OH221435   5.145   5.208   3.595
 7161TIP3    H121436   5.132   5.138   3.659
 7161TIP3    H221437   5.196   5.273   3.642
 7162TIP3   OH221438   6.879   5.657   3.420
 7162TIP3    H121439   6.904   5.640   3.510
 7162TIP3    H221440   6.900   5.749   3.406
 7163TIP3   OH221441   6.896   5.642   3.701
 7163TIP3    H121442   6.849   5.559   3.696
 7163TIP3    H221443   6.968   5.625   3.762
 7164TIP3   OH221444   6.950   5.352   4.291
 7164TIP3    H121445   6.873   5.355   4.348
 7164TIP3    H221446   6.994   5.435   4.306
 7165TIP3   OH221447   6.763   4.864   2.871
 7165TIP3    H121448   6.823   4.930   2.837
 7165TIP3    H221449   6.809   4.825   2.946
 7166TIP3   OH221450   6.888   4.725   3.073
 7166TIP3    H121451   6.823   4.685   3.131
 7166TIP3    H221452   6.953   4.763   3.131
 7167TIP3   OH221453   6.947   5.128   3.513
 7167TIP3    H121454   6.992   5.054   3.471
 7167TIP3    H221455   6.959   5.201   3.453
 7168TIP3   OH221456   6.751   5.406   3.702
 7168TIP3    H121457   6.681   5.452   3.750
 7168TIP3    H221458   6.706   5.367   3.627
 7169TIP3   OH221459   6.811   4.635   2.723
 7169TIP3    H121460   6.741   4.631   2.658
 7169TIP3    H221461   6.792   4.714   2.774
 7170TIP3   OH221462   6.655   4.290   2.664
 7170TIP3    H121463   6.610   4.322   2.585
 7170TIP3    H221464   6.648   4.195   2.657
 7171TIP3   OH221465   6.693   4.578   3.211
 7171TIP3    H121466   6.702   4.484   3.198
 7171TIP3    H221467   6.675   4.588   3.304
 7172TIP3   OH221468   5.326   4.614   3.974
 7172TIP3    H121469   5.317   4.585   3.884
 7172TIP3    H221470   5.420   4.626   3.987
 7173TIP3   OH221471   6.983   5.003   4.079
 7173TIP3    H121472   7.048   4.935   4.062
 7173TIP3    H221473   7.010   5.076   4.023
 7174TIP3   OH221474   7.152   4.786   4.069
 7174TIP3    H121475   7.076   4.746   4.112
 7174TIP3    H221476   7.226   4.732   4.096
 7175TIP3   OH221477   6.619   4.021   2.643
 7175TIP3    H121478   6.688   3.989   2.702
 7175TIP3    H221479   6.541   3.972   2.669
 7176TIP3   OH221480   6.690   4.298   3.098
 7176TIP3    H121481   6.738   4.217   3.111
 7176TIP3    H221482   6.730   4.338   3.021
 7177TIP3   OH221483   6.837   4.473   3.620
 7177TIP3    H121484   6.918   4.496   3.574
 7177TIP3    H221485   6.850   4.506   3.709
 7178TIP3   OH221486   6.911   4.618   3.852
 7178TIP3    H121487   6.838   4.650   3.906
 7178TIP3    H221488   6.942   4.697   3.806
 7179TIP3   OH221489   5.564   4.357   4.668
 7179TIP3    H121490   5.658   4.339   4.666
 7179TIP3    H221491   5.523   4.272   4.683
 7180TIP3   OH221492   7.359   4.237   4.387
 7180TIP3    H121493   7.418   4.175   4.344
 7180TIP3    H221494   7.318   4.285   4.316
 7181TIP3   OH221495   6.808   4.050   3.155
 7181TIP3    H121496   6.852   4.035   3.239
 7181TIP3    H221497   6.747   3.976   3.147
 7182TIP3   OH221498   5.510   4.034   3.890
 7182TIP3    H121499   5.569   3.963   3.913
 7182TIP3    H221500   5.484   4.072   3.974
 7183TIP3   OH221501   5.310   4.311   4.025
 7183TIP3    H121502   5.298   4.312   3.930
 7183TIP3    H221503   5.317   4.404   4.049
 7184TIP3   OH221504   7.218   4.332   4.178
 7184TIP3    H121505   7.130   4.368   4.189
 7184TIP3    H221506   7.205   4.249   4.132
 7185TIP3   OH221507   6.851   3.968   2.791
 7185TIP3    H121508   6.897   3.909   2.733
 7185TIP3    H221509   6.907   4.045   2.798
 7186TIP3   OH221510   6.438   5.525   3.058
 7186TIP3    H121511   6.495   5.514   2.982
 7186TIP3    H221512   6.480   5.594   3.109
 7187TIP3   OH221513   5.503   3.873   4.357
 7187TIP3    H121514   5.454   3.869   4.440
 7187TIP3    H221515   5.443   3.918   4.297
 7188TIP3   OH221516   5.539   5.265   4.449
 7188TIP3    H121517   5.447   5.256   4.424
 7188TIP3    H221518   5.556   5.188   4.504
 7189TIP3   OH221519   5.738   5.377   3.997
 7189TIP3    H121520   5.696   5.457   3.966
 7189TIP3    H221521   5.824   5.377   3.954
 7190TIP3   OH221522   6.154   5.591   4.104
 7190TIP3    H121523   6.187   5.587   4.194
 7190TIP3    H221524   6.218   5.645   4.058
 7191TIP3   OH221525   6.347   5.754   3.994
 7191TIP3    H121526   6.415   5.706   3.945
 7191TIP3    H221527   6.396   5.814   4.050
 7192TIP3   OH221528   7.128   4.087   4.081
 7192TIP3    H121529   7.046   4.092   4.032
 7192TIP3    H221530   7.159   3.997   4.067
 7193TIP3   OH221531   5.390   5.591   4.023
 7193TIP3    H121532   5.316   5.651   4.012
 7193TIP3    H221533   5.358   5.526   4.085
 7194TIP3   OH221534   5.632   5.604   3.892
 7194TIP3    H121535   5.547   5.611   3.936
 7194TIP3    H221536   5.614   5.628   3.801
 7195TIP3   OH221537   6.049   5.610   3.681
 7195TIP3    H121538   5.982   5.624   3.615
 7195TIP3    H221539   6.063   5.697   3.719
 7196TIP3   OH221540   6.316   5.547   3.722
 7196TIP3    H121541   6.224   5.568   3.705
 7196TIP3    H221542   6.365   5.614   3.676
 7197TIP3   OH221543   6.518   5.717   3.620
 7197TIP3    H121544   6.519   5.805   3.583
 7197TIP3    H221545   6.551   5.661   3.550
 7198TIP3   OH221546   5.320   5.383   3.752
 7198TIP3    H121547   5.352   5.359   3.839
 7198TIP3    H221548   5.388   5.353   3.692
 7199TIP3   OH221549   5.521   5.271   3.609
 7199TIP3    H121550   5.536   5.190   3.659
 7199TIP3    H221551   5.606   5.314   3.608
 7200TIP3   OH221552   5.788   5.359   3.635
 7200TIP3    H121553   5.810   5.267   3.617
 7200TIP3    H221554   5.841   5.382   3.711
 7201TIP3   OH221555   6.319   3.960   3.662
 7201TIP3    H121556   6.300   3.906   3.739
 7201TIP3    H221557   6.409   3.939   3.640
 7202TIP3   OH221558   6.833   3.965   3.627
 7202TIP3    H121559   6.879   3.978   3.544
 7202TIP3    H221560   6.744   3.939   3.602
 7203TIP3   OH221561   6.960   3.992   3.386
 7203TIP3    H121562   7.024   3.929   3.355
 7203TIP3    H221563   6.998   4.077   3.365
 7204TIP3   OH221564   5.586   3.730   3.704
 7204TIP3    H121565   5.502   3.713   3.662
 7204TIP3    H221566   5.631   3.645   3.703
 7205TIP3   OH221567   6.052   3.780   3.612
 7205TIP3    H121568   6.108   3.797   3.536
 7205TIP3    H221569   6.113   3.775   3.686
 7206TIP3   OH221570   6.571   3.867   3.588
 7206TIP3    H121571   6.600   3.828   3.505
 7206TIP3    H221572   6.577   3.796   3.652
 7207TIP3   OH221573   6.622   3.840   3.158
 7207TIP3    H121574   6.542   3.887   3.182
 7207TIP3    H221575   6.610   3.752   3.194
 7208TIP3   OH221576   5.084   5.184   3.125
 7208TIP3    H121577   5.000   5.155   3.091
 7208TIP3    H221578   5.090   5.276   3.099
 7209TIP3   OH221579   5.548   3.762   3.073
 7209TIP3    H121580   5.577   3.674   3.049
 7209TIP3    H221581   5.585   3.777   3.159
 7210TIP3   OH221582   6.023   3.968   3.242
 7210TIP3    H121583   6.085   3.918   3.294
 7210TIP3    H221584   6.026   4.057   3.278
 7211TIP3   OH221585   5.889   5.334   2.729
 7211TIP3    H121586   5.972   5.362   2.690
 7211TIP3    H221587   5.859   5.263   2.672
 7212TIP3   OH221588   6.591   5.477   2.831
 7212TIP3    H121589   6.584   5.382   2.821
 7212TIP3    H221590   6.549   5.512   2.752
 7213TIP3   OH221591   5.827   3.989   4.614
 7213TIP3    H121592   5.786   3.921   4.668
 7213TIP3    H221593   5.918   3.991   4.643
 7214TIP3   OH221594   6.071   3.971   4.753
 7214TIP3    H121595   6.144   3.914   4.729
 7214TIP3    H221596   6.028   3.925   4.825
 7215TIP3   OH221597   5.196   5.176   2.784
 7215TIP3    H121598   5.195   5.184   2.880
 7215TIP3    H221599   5.277   5.129   2.765
 7216TIP3   OH221600   6.891   4.082   4.515
 7216TIP3    H121601   6.908   4.052   4.604
 7216TIP3    H221602   6.976   4.075   4.471
 7217TIP3   OH221603   6.796   5.611   4.022
 7217TIP3    H121604   6.723   5.585   3.966
 7217TIP3    H221605   6.790   5.706   4.027
 7218TIP3   OH221606   0.214   5.002   3.191
 7218TIP3    H121607   0.228   4.919   3.237
 7218TIP3    H221608   0.223   4.980   3.099
 7219TIP3   OH221609   7.343   4.845   3.546
 7219TIP3    H121610   7.381   4.801   3.622
 7219TIP3    H221611   7.418   4.890   3.505
 7220TIP3   OH221612   7.294   5.293   3.263
 7220TIP3    H121613   7.305   5.200   3.240
 7220TIP3    H221614   7.371   5.313   3.317
 7221TIP3   OH221615   7.041   4.506   2.995
 7221TIP3    H121616   6.995   4.587   3.015
 7221TIP3    H221617   6.975   4.450   2.953
 7222TIP3   OH221618   7.114   4.813   3.209
 7222TIP3    H121619   7.165   4.737   3.236
 7222TIP3    H221620   7.179   4.877   3.180
 7223TIP3   OH221621   7.853   5.262   3.226
 7223TIP3    H121622   7.855   5.167   3.221
 7223TIP3    H221623   7.940   5.288   3.254
 7224TIP3   OH221624   7.636   4.396   3.230
 7224TIP3    H121625   7.608   4.427   3.144
 7224TIP3    H221626   7.648   4.302   3.219
 7225TIP3   OH221627   7.248   4.594   3.307
 7225TIP3    H121628   7.324   4.567   3.359
 7225TIP3    H221629   7.257   4.546   3.225
 7226TIP3   OH221630   7.641   4.763   3.183
 7226TIP3    H121631   7.736   4.751   3.194
 7226TIP3    H221632   7.610   4.678   3.151
 7227TIP3   OH221633   7.578   4.380   3.661
 7227TIP3    H121634   7.522   4.422   3.595
 7227TIP3    H221635   7.534   4.399   3.744
 7228TIP3   OH221636   7.701   5.177   3.451
 7228TIP3    H121637   7.625   5.232   3.471
 7228TIP3    H221638   7.758   5.234   3.399
 7229TIP3   OH221639   7.471   4.484   3.427
 7229TIP3    H121640   7.522   4.561   3.453
 7229TIP3    H221641   7.524   4.442   3.360
 7230TIP3   OH221642   7.488   5.343   3.467
 7230TIP3    H121643   7.513   5.435   3.458
 7230TIP3    H221644   7.431   5.341   3.544
 7231TIP3   OH221645   6.942   5.039   2.751
 7231TIP3    H121646   6.911   5.057   2.662
 7231TIP3    H221647   6.963   5.125   2.787
 7232TIP3   OH221648   0.163   4.000   3.290
 7232TIP3    H121649   0.244   3.951   3.274
 7232TIP3    H221650   0.184   4.059   3.361
 7233TIP3   OH221651   7.752   4.751   2.455
 7233TIP3    H121652   7.791   4.812   2.392
 7233TIP3    H221653   7.794   4.773   2.539
 7234TIP3   OH221654   7.489   4.916   2.999
 7234TIP3    H121655   7.445   4.860   2.935
 7234TIP3    H221656   7.546   4.857   3.049
 7235TIP3   OH221657   7.599   5.312   3.143
 7235TIP3    H121658   7.571   5.220   3.143
 7235TIP3    H221659   7.689   5.310   3.177
 7236TIP3   OH221660   7.556   4.938   3.387
 7236TIP3    H121661   7.598   4.900   3.310
 7236TIP3    H221662   7.604   5.020   3.401
 7237TIP3   OH221663   7.501   5.007   3.808
 7237TIP3    H121664   7.503   5.100   3.830
 7237TIP3    H221665   7.408   4.984   3.811
 7238TIP3   OH221666   7.680   5.563   2.762
 7238TIP3    H121667   7.772   5.542   2.750
 7238TIP3    H221668   7.657   5.615   2.685
 7239TIP3   OH221669   7.509   5.672   3.741
 7239TIP3    H121670   7.515   5.635   3.652
 7239TIP3    H221671   7.441   5.620   3.784
 7240TIP3   OH221672   7.353   4.757   2.814
 7240TIP3    H121673   7.285   4.805   2.767
 7240TIP3    H221674   7.320   4.667   2.819
 7241TIP3   OH221675   7.148   5.159   3.707
 7241TIP3    H121676   7.079   5.146   3.642
 7241TIP3    H221677   7.179   5.071   3.728
 7242TIP3   OH221678   7.039   5.340   3.354
 7242TIP3    H121679   7.124   5.320   3.314
 7242TIP3    H221680   7.056   5.416   3.410
 7243TIP3   OH221681   7.629   5.695   2.526
 7243TIP3    H121682   7.656   5.680   2.435
 7243TIP3    H221683   7.639   5.790   2.539
 7244TIP3   OH221684   7.326   5.366   3.683
 7244TIP3    H121685   7.379   5.357   3.762
 7244TIP3    H221686   7.261   5.296   3.691
 7245TIP3   OH221687   7.638   4.151   3.528
 7245TIP3    H121688   7.559   4.130   3.479
 7245TIP3    H221689   7.614   4.226   3.582
 7246TIP3   OH221690   7.622   4.694   3.512
 7246TIP3    H121691   7.581   4.696   3.599
 7246TIP3    H221692   7.595   4.777   3.472
 7247TIP3   OH221693   7.550   4.559   3.012
 7247TIP3    H121694   7.461   4.541   3.042
 7247TIP3    H221695   7.549   4.538   2.919
 7248TIP3   OH221696   7.476   4.692   3.746
 7248TIP3    H121697   7.506   4.753   3.813
 7248TIP3    H221698   7.462   4.610   3.793
 7249TIP3   OH221699   7.442   4.153   2.418
 7249TIP3    H121700   7.505   4.186   2.482
 7249TIP3    H221701   7.373   4.219   2.417
 7250TIP3   OH221702   7.084   4.212   3.291
 7250TIP3    H121703   7.142   4.259   3.352
 7250TIP3    H221704   7.132   4.211   3.209
 7251TIP3   OH221705   7.006   4.197   2.817
 7251TIP3    H121706   7.049   4.232   2.739
 7251TIP3    H221707   6.940   4.264   2.839
 7252TIP3   OH221708   0.053   4.334   3.032
 7252TIP3    H121709   0.051   4.381   3.115
 7252TIP3    H221710   0.138   4.290   3.031
 7253TIP3   OH221711   7.299   4.467   3.072
 7253TIP3    H121712   7.210   4.477   3.037
 7253TIP3    H221713   7.321   4.375   3.054
 7254TIP3   OH221714   7.537   4.467   2.754
 7254TIP3    H121715   7.616   4.471   2.702
 7254TIP3    H221716   7.466   4.476   2.690
 7255TIP3   OH221717   7.366   4.474   2.543
 7255TIP3    H121718   7.301   4.429   2.489
 7255TIP3    H221719   7.416   4.526   2.481
 7256TIP3   OH221720   7.487   5.267   3.908
 7256TIP3    H121721   7.570   5.291   3.951
 7256TIP3    H221722   7.421   5.277   3.977
 7257TIP3   OH221723   0.025   4.743   3.226
 7257TIP3    H121724   0.096   4.699   3.179
 7257TIP3    H221725   0.034   4.713   3.317
 7258TIP3   OH221726   7.365   4.210   3.022
 7258TIP3    H121727   7.352   4.131   3.074
 7258TIP3    H221728   7.403   4.178   2.940
 7259TIP3   OH221729   7.895   4.701   3.494
 7259TIP3    H121730   7.805   4.669   3.500
 7259TIP3    H221731   7.887   4.796   3.501
 7260TIP3   OH221732   7.617   5.062   2.558
 7260TIP3    H121733   7.573   4.980   2.535
 7260TIP3    H221734   7.622   5.061   2.653
 7261TIP3   OH221735   0.133   5.331   3.540
 7261TIP3    H121736   0.201   5.340   3.607
 7261TIP3    H221737   0.107   5.420   3.520
 7262TIP3   OH221738   7.346   5.020   3.211
 7262TIP3    H121739   7.388   4.991   3.130
 7262TIP3    H221740   7.403   4.987   3.280
 7263TIP3   OH221741   7.722   5.176   2.316
 7263TIP3    H121742   7.700   5.238   2.386
 7263TIP3    H221743   7.667   5.100   2.334
 7264TIP3   OH221744   7.236   4.925   3.841
 7264TIP3    H121745   7.238   4.896   3.932
 7264TIP3    H221746   7.161   4.880   3.802
 7265TIP3   OH221747   0.037   5.048   3.808
 7265TIP3    H121748  -0.029   4.979   3.813
 7265TIP3    H221749   0.082   5.031   3.725
 7266TIP3   OH221750   7.468   5.349   2.846
 7266TIP3    H121751   7.470   5.315   2.756
 7266TIP3    H221752   7.387   5.313   2.882
 7267TIP3   OH221753   7.049   4.624   2.583
 7267TIP3    H121754   7.094   4.706   2.606
 7267TIP3    H221755   6.968   4.627   2.634
 7268TIP3   OH221756   7.610   5.097   2.827
 7268TIP3    H121757   7.595   5.181   2.870
 7268TIP3    H221758   7.574   5.032   2.888
 7269TIP3   OH221759   7.744   5.664   3.284
 7269TIP3    H121760   7.770   5.743   3.237
 7269TIP3    H221761   7.818   5.647   3.343
 7270TIP3   OH221762   7.388   5.620   2.779
 7270TIP3    H121763   7.326   5.593   2.711
 7270TIP3    H221764   7.405   5.713   2.761
 7271TIP3   OH221765   7.443   4.445   3.886
 7271TIP3    H121766   7.348   4.431   3.890
 7271TIP3    H221767   7.479   4.384   3.949
 7272TIP3   OH221768   7.178   5.548   3.503
 7272TIP3    H121769   7.230   5.494   3.563
 7272TIP3    H221770   7.199   5.638   3.529
 7273TIP3   OH221771   7.417   5.187   2.213
 7273TIP3    H121772   7.462   5.105   2.192
 7273TIP3    H221773   7.406   5.185   2.308
 7274TIP3   OH221774   7.397   5.214   2.488
 7274TIP3    H121775   7.477   5.169   2.515
 7274TIP3    H221776   7.420   5.307   2.490
 7275TIP3   OH221777   7.148   4.873   2.668
 7275TIP3    H121778   7.078   4.919   2.714
 7275TIP3    H221779   7.172   4.931   2.595
 7276TIP3   OH221780   7.736   5.430   2.430
 7276TIP3    H121781   7.645   5.457   2.439
 7276TIP3    H221782   7.755   5.441   2.337
 7277TIP3   OH221783   7.840   4.444   2.809
 7277TIP3    H121784   7.826   4.532   2.845
 7277TIP3    H221785   7.891   4.399   2.876
 7278TIP3   OH221786   7.457   5.484   2.484
 7278TIP3    H121787   7.414   5.520   2.407
 7278TIP3    H221788   7.502   5.559   2.524
 7279TIP3   OH221789   7.460   4.194   2.742
 7279TIP3    H121790   7.457   4.288   2.760
 7279TIP3    H221791   7.537   4.183   2.686
 7280TIP3   OH221792   7.167   5.060   2.458
 7280TIP3    H121793   7.236   5.124   2.475
 7280TIP3    H221794   7.199   5.008   2.385
 7281TIP3   OH221795   7.060   4.347   2.596
 7281TIP3    H121796   7.078   4.441   2.599
 7281TIP3    H221797   7.006   4.335   2.518
 7282TIP3   OH221798   7.395   4.069   3.433
 7282TIP3    H121799   7.384   4.044   3.341
 7282TIP3    H221800   7.383   3.988   3.482
 7283TIP3   OH221801   6.993   5.301   2.831
 7283TIP3    H121802   6.978   5.352   2.910
 7283TIP3    H221803   6.962   5.356   2.760
 7284TIP3   OH221804   7.198   5.852   3.902
 7284TIP3    H121805   7.272   5.864   3.961
 7284TIP3    H221806   7.201   5.759   3.878
 7285TIP3   OH221807   7.631   5.798   3.947
 7285TIP3    H121808   7.712   5.748   3.963
 7285TIP3    H221809   7.593   5.757   3.869
 7286TIP3   OH221810   7.563   5.338   2.037
 7286TIP3    H121811   7.503   5.302   2.102
 7286TIP3    H221812   7.599   5.262   1.992
 7287TIP3   OH221813   7.291   5.258   4.106
 7287TIP3    H121814   7.316   5.166   4.113
 7287TIP3    H221815   7.205   5.256   4.064
 7288TIP3   OH221816   7.277   4.876   2.289
 7288TIP3    H121817   7.310   4.841   2.371
 7288TIP3    H221818   7.355   4.894   2.236
 7289TIP3   OH221819   7.873   5.309   3.865
 7289TIP3    H121820   7.903   5.364   3.793
 7289TIP3    H221821   7.893   5.219   3.837
 7290TIP3   OH221822   7.868   5.175   2.097
 7290TIP3    H121823   7.814   5.157   2.174
 7290TIP3    H221824   7.946   5.121   2.110
 7291TIP3   OH221825   7.411   5.005   4.107
 7291TIP3    H121826   7.486   4.988   4.050
 7291TIP3    H221827   7.450   5.024   4.192
 7292TIP3   OH221828   7.446   4.839   2.522
 7292TIP3    H121829   7.437   4.784   2.600
 7292TIP3    H221830   7.489   4.783   2.457
 7293TIP3   OH221831   7.729   4.870   3.754
 7293TIP3    H121832   7.651   4.923   3.772
 7293TIP3    H221833   7.754   4.895   3.664
 7294TIP3   OH221834   7.532   4.613   2.377
 7294TIP3    H121835   7.561   4.528   2.342
 7294TIP3    H221836   7.613   4.664   2.384
 7295TIP3   OH221837   7.768   4.634   3.883
 7295TIP3    H121838   7.842   4.591   3.840
 7295TIP3    H221839   7.753   4.713   3.830
 7296TIP3   OH221840   7.847   4.395   3.626
 7296TIP3    H121841   7.852   4.347   3.544
 7296TIP3    H221842   7.754   4.393   3.649
 7297TIP3   OH221843   7.850   4.968   3.524
 7297TIP3    H121844   7.941   4.996   3.534
 7297TIP3    H221845   7.800   5.049   3.521
 7298TIP3   OH221846   7.699   4.750   4.116
 7298TIP3    H121847   7.635   4.700   4.168
 7298TIP3    H221848   7.709   4.699   4.035
 7299TIP3   OH221849   0.134   4.251   3.763
 7299TIP3    H121850   0.079   4.319   3.724
 7299TIP3    H221851   0.139   4.275   3.855
 7300TIP3   OH221852   0.340   4.814   3.876
 7300TIP3    H121853   0.396   4.761   3.933
 7300TIP3    H221854   0.254   4.772   3.881
 7301TIP3   OH221855   7.578   4.516   4.210
 7301TIP3    H121856   7.587   4.435   4.161
 7301TIP3    H221857   7.620   4.499   4.294
 7302TIP3   OH221858   0.243   4.444   4.254
 7302TIP3    H121859   0.304   4.405   4.191
 7302TIP3    H221860   0.180   4.490   4.199
 7303TIP3   OH221861   7.404   5.646   2.269
 7303TIP3    H121862   7.499   5.654   2.260
 7303TIP3    H221863   7.368   5.695   2.195
 7304TIP3   OH221864   6.893   5.044   2.465
 7304TIP3    H121865   6.988   5.057   2.462
 7304TIP3    H221866   6.880   4.958   2.425
 7305TIP3   OH221867   6.795   5.629   2.932
 7305TIP3    H121868   6.731   5.573   2.888
 7305TIP3    H221869   6.845   5.570   2.987
 7306TIP3   OH221870   6.958   5.463   3.084
 7306TIP3    H121871   6.940   5.401   3.155
 7306TIP3    H221872   7.018   5.527   3.122
 7307TIP3   OH221873   7.091   4.896   3.468
 7307TIP3    H121874   7.082   4.868   3.377
 7307TIP3    H221875   7.184   4.885   3.488
 7308TIP3   OH221876   7.321   4.585   4.137
 7308TIP3    H121877   7.414   4.576   4.156
 7308TIP3    H221878   7.284   4.500   4.162
 7309TIP3   OH221879   7.264   4.303   3.484
 7309TIP3    H121880   7.310   4.219   3.474
 7309TIP3    H221881   7.332   4.369   3.467
 7310TIP3   OH221882   7.077   4.573   3.530
 7310TIP3    H121883   7.123   4.564   3.446
 7310TIP3    H221884   7.113   4.652   3.569
 7311TIP3   OH221885   7.073   4.031   3.025
 7311TIP3    H121886   6.987   4.033   3.068
 7311TIP3    H221887   7.066   4.096   2.955
 7312TIP3   OH221888   7.302   4.170   3.877
 7312TIP3    H121889   7.244   4.137   3.946
 7312TIP3    H221890   7.243   4.194   3.806
 7313TIP3   OH221891   7.317   5.572   3.923
 7313TIP3    H121892   7.224   5.550   3.923
 7313TIP3    H221893   7.340   5.578   4.015
 7314TIP3   OH221894   7.538   5.611   3.462
 7314TIP3    H121895   7.489   5.689   3.436
 7314TIP3    H221896   7.621   5.618   3.414
 7315TIP3   OH221897   7.194   5.855   3.518
 7315TIP3    H121898   7.104   5.877   3.492
 7315TIP3    H221899   7.219   5.923   3.580
 7316TIP3   OH221900   7.423   5.840   3.366
 7316TIP3    H121901   7.340   5.847   3.413
 7316TIP3    H221902   7.402   5.871   3.277
 7317TIP3   OH221903   7.814   5.889   3.130
 7317TIP3    H121904   7.903   5.875   3.098
 7317TIP3    H221905   7.821   5.966   3.186
 7318TIP3   OH221906   7.144   5.624   3.222
 7318TIP3    H121907   7.117   5.619   3.313
 7318TIP3    H221908   7.225   5.573   3.218
 7319TIP3   OH221909   7.564   5.569   3.069
 7319TIP3    H121910   7.567   5.482   3.110
 7319TIP3    H221911   7.609   5.626   3.130
 7320TIP3   OH221912   7.337   3.983   3.175
 7320TIP3    H121913   7.245   3.957   3.179
 7320TIP3    H221914   7.385   3.900   3.170
 7321TIP3   OH221915   7.203   3.843   2.855
 7321TIP3    H121916   7.218   3.904   2.783
 7321TIP3    H221917   7.160   3.895   2.923
 7322TIP3   OH221918  -0.010   4.009   3.073
 7322TIP3    H121919   0.048   4.009   2.997
 7322TIP3    H221920   0.049   4.012   3.148
 7323TIP3   OH221921   6.893   5.449   2.616
 7323TIP3    H121922   6.809   5.412   2.588
 7323TIP3    H221923   6.890   5.540   2.586
 7324TIP3   OH221924   7.283   4.001   2.649
 7324TIP3    H121925   7.341   3.949   2.593
 7324TIP3    H221926   7.338   4.071   2.683
 7325TIP3   OH221927   7.830   4.138   2.769
 7325TIP3    H121928   7.783   4.168   2.847
 7325TIP3    H221929   7.792   4.188   2.697
 7326TIP3   OH221930   7.678   5.664   2.256
 7326TIP3    H121931   7.713   5.751   2.236
 7326TIP3    H221932   7.730   5.605   2.201
 7327TIP3   OH221933   7.593   4.266   4.081
 7327TIP3    H121934   7.539   4.195   4.117
 7327TIP3    H221935   7.678   4.255   4.125
 7328TIP3   OH221936   7.811   4.241   4.256
 7328TIP3    H121937   7.892   4.198   4.283
 7328TIP3    H221938   7.744   4.204   4.314
 7329TIP3   OH221939   6.976   5.446   2.289
 7329TIP3    H121940   6.983   5.451   2.384
 7329TIP3    H221941   7.054   5.399   2.261
 7330TIP3   OH221942   0.595   5.774   4.516
 7330TIP3    H121943   0.566   5.864   4.503
 7330TIP3    H221944   0.530   5.721   4.469
 7331TIP3   OH221945   0.602   5.829   4.867
 7331TIP3    H121946   0.627   5.776   4.943
 7331TIP3    H221947   0.543   5.773   4.817
 7332TIP3   OH221948   0.821   6.101   4.530
 7332TIP3    H121949   0.824   6.031   4.596
 7332TIP3    H221950   0.833   6.182   4.580
 7333TIP3   OH221951   1.376   5.325   4.886
 7333TIP3    H121952   1.394   5.409   4.929
 7333TIP3    H221953   1.408   5.336   4.797
 7334TIP3   OH221954   0.754   5.485   4.924
 7334TIP3    H121955   0.800   5.405   4.952
 7334TIP3    H221956   0.744   5.474   4.829
 7335TIP3   OH221957   0.831   5.248   4.507
 7335TIP3    H121958   0.893   5.242   4.580
 7335TIP3    H221959   0.881   5.289   4.437
 7336TIP3   OH221960   1.435   5.542   5.055
 7336TIP3    H121961   1.348   5.582   5.049
 7336TIP3    H221962   1.473   5.578   5.135
 7337TIP3   OH221963   0.462   5.978   4.387
 7337TIP3    H121964   0.394   5.984   4.319
 7337TIP3    H221965   0.530   6.038   4.357
 7338TIP3   OH221966   0.982   5.279   4.729
 7338TIP3    H121967   0.948   5.254   4.814
 7338TIP3    H221968   1.038   5.355   4.747
 7339TIP3   OH221969   0.838   6.338   4.681
 7339TIP3    H121970   0.766   6.335   4.744
 7339TIP3    H221971   0.830   6.424   4.640
 7340TIP3   OH221972   1.169   5.214   5.051
 7340TIP3    H121973   1.083   5.231   5.014
 7340TIP3    H221974   1.231   5.242   4.983
 7341TIP3   OH221975   0.410   4.909   5.099
 7341TIP3    H121976   0.440   4.821   5.080
 7341TIP3    H221977   0.316   4.908   5.079
 7342TIP3   OH221978   0.483   6.321   4.304
 7342TIP3    H121979   0.547   6.250   4.306
 7342TIP3    H221980   0.535   6.401   4.304
 7343TIP3   OH221981   0.676   6.123   4.299
 7343TIP3    H121982   0.722   6.078   4.229
 7343TIP3    H221983   0.736   6.120   4.373
 7344TIP3   OH221984   1.064   6.235   5.034
 7344TIP3    H121985   1.054   6.160   4.977
 7344TIP3    H221986   1.051   6.311   4.977
 7345TIP3   OH221987   0.432   5.657   4.326
 7345TIP3    H121988   0.373   5.731   4.307
 7345TIP3    H221989   0.469   5.633   4.241
 7346TIP3   OH221990   0.390   5.349   3.992
 7346TIP3    H121991   0.398   5.437   4.029
 7346TIP3    H221992   0.467   5.339   3.937
 7347TIP3   OH221993   1.261   5.887   4.897
 7347TIP3    H121994   1.178   5.935   4.897
 7347TIP3    H221995   1.296   5.899   4.808
 7348TIP3   OH221996   0.742   5.729   4.277
 7348TIP3    H121997   0.697   5.752   4.358
 7348TIP3    H221998   0.828   5.698   4.305
 7349TIP3   OH221999   0.963   5.750   5.201
 7349TIP3    H122000   0.959   5.833   5.249
 7349TIP3    H222001   0.880   5.747   5.153
 7350TIP3   OH222002   0.663   6.330   4.890
 7350TIP3    H122003   0.670   6.366   4.978
 7350TIP3    H222004   0.638   6.239   4.904
 7351TIP3   OH222005   0.590   5.571   4.106
 7351TIP3    H122006   0.649   5.633   4.148
 7351TIP3    H222007   0.604   5.583   4.012
 7352TIP3   OH222008   1.072   4.805   4.137
 7352TIP3    H122009   0.995   4.827   4.189
 7352TIP3    H222010   1.086   4.882   4.081
 7353TIP3   OH222011   0.897   6.190   3.679
 7353TIP3    H122012   0.893   6.284   3.662
 7353TIP3    H222013   0.988   6.166   3.662
 7354TIP3   OH222014   1.312   6.582   5.106
 7354TIP3    H122015   1.310   6.487   5.117
 7354TIP3    H222016   1.232   6.613   5.147
 7355TIP3   OH222017   0.403   6.421   3.786
 7355TIP3    H122018   0.466   6.353   3.761
 7355TIP3    H222019   0.420   6.435   3.879
 7356TIP3   OH222020   0.457   6.469   4.058
 7356TIP3    H122021   0.403   6.415   4.116
 7356TIP3    H222022   0.537   6.486   4.107
 7357TIP3   OH222023   1.196   5.709   5.371
 7357TIP3    H122024   1.118   5.715   5.316
 7357TIP3    H222025   1.219   5.616   5.371
 7358TIP3   OH222026   0.774   5.071   5.384
 7358TIP3    H122027   0.849   5.046   5.438
 7358TIP3    H222028   0.700   5.072   5.444
 7359TIP3   OH222029   0.959   5.483   5.276
 7359TIP3    H122030   0.923   5.479   5.364
 7359TIP3    H222031   0.948   5.575   5.250
 7360TIP3   OH222032   0.627   5.584   3.835
 7360TIP3    H122033   0.558   5.609   3.773
 7360TIP3    H222034   0.707   5.624   3.800
 7361TIP3   OH222035   0.528   5.428   4.442
 7361TIP3    H122036   0.482   5.506   4.412
 7361TIP3    H222037   0.583   5.401   4.368
 7362TIP3   OH222038   0.714   5.716   5.532
 7362TIP3    H122039   0.672   5.650   5.586
 7362TIP3    H222040   0.808   5.708   5.552
 7363TIP3   OH222041   0.697   5.442   4.660
 7363TIP3    H122042   0.627   5.462   4.598
 7363TIP3    H222043   0.743   5.367   4.622
 7364TIP3   OH222044   0.711   5.693   5.090
 7364TIP3    H122045   0.731   5.620   5.032
 7364TIP3    H222046   0.666   5.654   5.164
 7365TIP3   OH222047   0.409   5.138   4.761
 7365TIP3    H122048   0.315   5.136   4.782
 7365TIP3    H222049   0.440   5.221   4.797
 7366TIP3   OH222050   0.865   5.229   4.975
 7366TIP3    H122051   0.838   5.247   5.065
 7366TIP3    H222052   0.802   5.164   4.943
 7367TIP3   OH222053   1.016   6.929   5.197
 7367TIP3    H122054   1.008   6.950   5.104
 7367TIP3    H222055   1.095   6.975   5.226
 7368TIP3   OH222056   0.474   5.385   4.853
 7368TIP3    H122057   0.551   5.431   4.819
 7368TIP3    H222058   0.463   5.419   4.941
 7369TIP3   OH222059   0.400   5.431   5.173
 7369TIP3    H122060   0.469   5.476   5.221
 7369TIP3    H222061   0.436   5.345   5.153
 7370TIP3   OH222062   1.034   6.033   4.854
 7370TIP3    H122063   1.075   6.083   4.784
 7370TIP3    H222064   0.960   5.990   4.812
 7371TIP3   OH222065   0.683   5.342   4.226
 7371TIP3    H122066   0.778   5.353   4.227
 7371TIP3    H222067   0.652   5.411   4.168
 7372TIP3   OH222068   0.676   6.396   5.164
 7372TIP3    H122069   0.582   6.388   5.180
 7372TIP3    H222070   0.713   6.425   5.247
 7373TIP3   OH222071   1.070   5.441   4.034
 7373TIP3    H122072   1.013   5.395   3.972
 7373TIP3    H222073   1.076   5.530   4.000
 7374TIP3   OH222074   1.314   6.297   5.122
 7374TIP3    H122075   1.220   6.287   5.110
 7374TIP3    H222076   1.352   6.273   5.037
 7375TIP3   OH222077   0.814   6.243   3.941
 7375TIP3    H122078   0.754   6.173   3.969
 7375TIP3    H222079   0.838   6.220   3.851
 7376TIP3   OH222080   0.833   5.897   4.725
 7376TIP3    H122081   0.747   5.882   4.764
 7376TIP3    H222082   0.857   5.812   4.687
 7377TIP3   OH222083   0.628   6.077   4.986
 7377TIP3    H122084   0.694   6.048   5.048
 7377TIP3    H222085   0.608   5.998   4.934
 7378TIP3   OH222086   0.621   6.011   3.869
 7378TIP3    H122087   0.652   5.977   3.953
 7378TIP3    H222088   0.532   5.979   3.862
 7379TIP3   OH222089   0.850   6.609   5.018
 7379TIP3    H122090   0.767   6.577   5.053
 7379TIP3    H222091   0.825   6.677   4.955
 7380TIP3   OH222092   0.903   6.461   3.665
 7380TIP3    H122093   0.954   6.535   3.631
 7380TIP3    H222094   0.824   6.500   3.701
 7381TIP3   OH222095   0.758   5.938   4.098
 7381TIP3    H122096   0.745   5.866   4.159
 7381TIP3    H222097   0.850   5.933   4.074
 7382TIP3   OH222098   0.770   5.291   5.222
 7382TIP3    H122099   0.844   5.345   5.248
 7382TIP3    H222100   0.771   5.217   5.282
 7383TIP3   OH222101   0.684   5.091   4.339
 7383TIP3    H122102   0.659   5.157   4.275
 7383TIP3    H222103   0.738   5.138   4.403
 7384TIP3   OH222104   0.432   5.178   4.499
 7384TIP3    H122105   0.462   5.269   4.494
 7384TIP3    H222106   0.421   5.162   4.593
 7385TIP3   OH222107   0.621   5.547   5.308
 7385TIP3    H122108   0.644   5.602   5.384
 7385TIP3    H222109   0.674   5.468   5.319
 7386TIP3   OH222110   0.615   4.968   4.577
 7386TIP3    H122111   0.608   5.035   4.646
 7386TIP3    H222112   0.625   5.018   4.496
 7387TIP3   OH222113   1.226   5.436   5.275
 7387TIP3    H122114   1.130   5.440   5.279
 7387TIP3    H222115   1.244   5.388   5.194
 7388TIP3   OH222116   0.904   5.632   4.653
 7388TIP3    H122117   0.828   5.576   4.661
 7388TIP3    H222118   0.970   5.592   4.710
 7389TIP3   OH222119   0.854   6.604   4.608
 7389TIP3    H122120   0.809   6.643   4.533
 7389TIP3    H222121   0.947   6.619   4.589
 7390TIP3   OH222122   0.768   6.496   5.413
 7390TIP3    H122123   0.861   6.512   5.429
 7390TIP3    H222124   0.731   6.582   5.397
 7391TIP3   OH222125   0.562   6.219   3.696
 7391TIP3    H122126   0.597   6.149   3.751
 7391TIP3    H222127   0.599   6.202   3.610
 7392TIP3   OH222128   0.370   5.925   3.797
 7392TIP3    H122129   0.284   5.912   3.835
 7392TIP3    H222130   0.392   5.842   3.755
 7393TIP3   OH222131   0.847   6.167   5.188
 7393TIP3    H122132   0.923   6.195   5.138
 7393TIP3    H222133   0.781   6.234   5.169
 7394TIP3   OH222134   0.783   5.993   5.554
 7394TIP3    H122135   0.837   5.964   5.480
 7394TIP3    H222136   0.725   5.919   5.572
 7395TIP3   OH222137   0.853   5.697   3.721
 7395TIP3    H122138   0.849   5.655   3.635
 7395TIP3    H222139   0.834   5.789   3.704
 7396TIP3   OH222140   0.987   5.700   5.593
 7396TIP3    H122141   1.015   5.618   5.634
 7396TIP3    H222142   1.067   5.736   5.555
 7397TIP3   OH222143   0.985   5.992   5.344
 7397TIP3    H122144   0.930   6.052   5.293
 7397TIP3    H222145   1.074   6.007   5.312
 7398TIP3   OH222146   0.507   5.072   5.477
 7398TIP3    H122147   0.450   5.134   5.432
 7398TIP3    H222148   0.475   4.986   5.449
 7399TIP3   OH222149   0.624   5.493   5.666
 7399TIP3    H122150   0.666   5.489   5.752
 7399TIP3    H222151   0.553   5.429   5.672
 7400TIP3   OH222152   0.847   5.433   5.514
 7400TIP3    H122153   0.770   5.444   5.570
 7400TIP3    H222154   0.919   5.416   5.575
 7401TIP3   OH222155   1.065   5.415   5.689
 7401TIP3    H122156   1.087   5.322   5.695
 7401TIP3    H222157   1.056   5.444   5.780
 7402TIP3   OH222158   0.627   5.000   5.715
 7402TIP3    H122159   0.675   4.919   5.697
 7402TIP3    H222160   0.574   5.014   5.636
 7403TIP3   OH222161   0.585   5.223   5.858
 7403TIP3    H122162   0.612   5.145   5.810
 7403TIP3    H222163   0.494   5.206   5.883
 7404TIP3   OH222164   1.127   6.653   4.588
 7404TIP3    H122165   1.152   6.687   4.674
 7404TIP3    H222166   1.182   6.701   4.527
 7405TIP3   OH222167   1.168   6.676   4.871
 7405TIP3    H122168   1.120   6.594   4.862
 7405TIP3    H222169   1.239   6.655   4.932
 7406TIP3   OH222170   1.195   6.377   5.445
 7406TIP3    H122171   1.119   6.389   5.502
 7406TIP3    H222172   1.240   6.461   5.446
 7407TIP3   OH222173   1.028   5.902   4.055
 7407TIP3    H122174   1.083   5.972   4.020
 7407TIP3    H222175   1.080   5.864   4.126
 7408TIP3   OH222176   1.168   5.763   4.249
 7408TIP3    H122177   1.103   5.724   4.307
 7408TIP3    H222178   1.233   5.801   4.308
 7409TIP3   OH222179   1.209   6.165   4.688
 7409TIP3    H122180   1.257   6.097   4.641
 7409TIP3    H222181   1.209   6.240   4.629
 7410TIP3   OH222182   1.014   6.446   4.869
 7410TIP3    H122183   0.947   6.498   4.914
 7410TIP3    H222184   0.968   6.407   4.795
 7411TIP3   OH222185   1.063   5.679   3.898
 7411TIP3    H122186   0.991   5.678   3.835
 7411TIP3    H222187   1.047   5.757   3.951
 7412TIP3   OH222188   0.919   5.331   3.836
 7412TIP3    H122189   0.889   5.361   3.750
 7412TIP3    H222190   0.901   5.237   3.835
 7413TIP3   OH222191   0.972   5.620   4.386
 7413TIP3    H122192   0.976   5.525   4.371
 7413TIP3    H222193   0.954   5.629   4.479
 7414TIP3   OH222194   1.241   6.042   5.255
 7414TIP3    H122195   1.306   5.974   5.235
 7414TIP3    H222196   1.267   6.116   5.200
 7415TIP3   OH222197   1.410   5.825   5.243
 7415TIP3    H122198   1.336   5.784   5.287
 7415TIP3    H222199   1.485   5.768   5.263
 7416TIP3   OH222200   0.866   5.063   3.835
 7416TIP3    H122201   0.944   5.036   3.883
 7416TIP3    H222202   0.793   5.024   3.883
 7417TIP3   OH222203   0.965   5.349   4.278
 7417TIP3    H122204   1.009   5.264   4.287
 7417TIP3    H222205   1.004   5.387   4.199
 7418TIP3   OH222206   1.108   5.513   4.802
 7418TIP3    H122207   1.189   5.533   4.754
 7418TIP3    H222208   1.123   5.551   4.889
 7419TIP3   OH222209   1.179   5.661   5.030
 7419TIP3    H122210   1.105   5.691   5.083
 7419TIP3    H222211   1.210   5.739   4.985
 7420TIP3   OH222212   1.633   5.264   5.562
 7420TIP3    H122213   1.699   5.205   5.524
 7420TIP3    H222214   1.596   5.310   5.487
 7421TIP3   OH222215   1.067   5.095   4.317
 7421TIP3    H122216   1.110   5.075   4.401
 7421TIP3    H222217   1.004   5.024   4.306
 7422TIP3   OH222218   1.481   5.367   5.359
 7422TIP3    H122219   1.394   5.406   5.368
 7422TIP3    H222220   1.465   5.285   5.311
 7423TIP3   OH222221   1.108   5.012   3.960
 7423TIP3    H122222   1.153   4.952   3.900
 7423TIP3    H222223   1.164   5.089   3.963
 7424TIP3   OH222224   0.665   6.525   4.229
 7424TIP3    H122225   0.737   6.527   4.167
 7424TIP3    H222226   0.685   6.595   4.291
 7425TIP3   OH222227   1.397   5.118   5.262
 7425TIP3    H122228   1.308   5.106   5.228
 7425TIP3    H222229   1.436   5.031   5.258
 7426TIP3   OH222230   0.800   6.784   4.812
 7426TIP3    H122231   0.776   6.866   4.770
 7426TIP3    H222232   0.806   6.721   4.741
 7427TIP3   OH222233   0.663   5.052   4.898
 7427TIP3    H122234   0.585   5.000   4.882
 7427TIP3    H222235   0.732   5.007   4.849
 7428TIP3   OH222236   1.129   4.958   4.782
 7428TIP3    H122237   1.160   5.009   4.707
 7428TIP3    H222238   1.034   4.967   4.780
 7429TIP3   OH222239   1.221   5.042   4.539
 7429TIP3    H122240   1.291   4.981   4.514
 7429TIP3    H222241   1.260   5.129   4.527
 7430TIP3   OH222242   0.183   4.719   4.779
 7430TIP3    H122243   0.217   4.766   4.703
 7430TIP3    H222244   0.254   4.722   4.843
 7431TIP3   OH222245   0.856   4.917   4.760
 7431TIP3    H122246   0.852   4.884   4.670
 7431TIP3    H222247   0.842   4.839   4.814
 7432TIP3   OH222248   0.874   4.893   4.302
 7432TIP3    H122249   0.796   4.944   4.321
 7432TIP3    H222250   0.861   4.810   4.349
 7433TIP3   OH222251   0.250   4.996   4.385
 7433TIP3    H122252   0.288   4.913   4.357
 7433TIP3    H222253   0.324   5.045   4.419
 7434TIP3   OH222254   0.837   6.509   4.005
 7434TIP3    H122255   0.832   6.415   3.988
 7434TIP3    H222256   0.798   6.550   3.928
 7435TIP3   OH222257   1.155   5.154   5.699
 7435TIP3    H122258   1.166   5.117   5.787
 7435TIP3    H222259   1.241   5.142   5.657
 7436TIP3   OH222260   1.058   6.659   5.198
 7436TIP3    H122261   0.991   6.629   5.137
 7436TIP3    H222262   1.047   6.754   5.200
 7437TIP3   OH222263   2.331   6.050   3.932
 7437TIP3    H122264   2.302   6.136   3.903
 7437TIP3    H222265   2.260   5.991   3.907
 7438TIP3   OH222266   2.333   6.039   4.356
 7438TIP3    H122267   2.385   6.022   4.434
 7438TIP3    H222268   2.287   5.957   4.339
 7439TIP3   OH222269   1.631   5.901   4.704
 7439TIP3    H122270   1.670   5.849   4.773
 7439TIP3    H222271   1.704   5.926   4.648
 7440TIP3   OH222272   2.601   6.342   4.029
 7440TIP3    H122273   2.587   6.277   4.097
 7440TIP3    H222274   2.622   6.423   4.076
 7441TIP3   OH222275   1.623   6.323   4.389
 7441TIP3    H122276   1.605   6.230   4.394
 7441TIP3    H222277   1.718   6.328   4.377
 7442TIP3   OH222278   1.308   5.532   4.170
 7442TIP3    H122279   1.273   5.617   4.194
 7442TIP3    H222280   1.235   5.486   4.128
 7443TIP3   OH222281   1.391   5.849   4.393
 7443TIP3    H122282   1.441   5.772   4.418
 7443TIP3    H222283   1.457   5.915   4.372
 7444TIP3   OH222284   2.249   6.793   4.022
 7444TIP3    H122285   2.281   6.720   3.968
 7444TIP3    H222286   2.231   6.753   4.107
 7445TIP3   OH222287   2.139   6.260   4.359
 7445TIP3    H122288   2.185   6.181   4.331
 7445TIP3    H222289   2.208   6.317   4.392
 7446TIP3   OH222290   3.173   5.582   4.376
 7446TIP3    H122291   3.188   5.668   4.416
 7446TIP3    H222292   3.197   5.595   4.284
 7447TIP3   OH222293   2.543   5.748   4.396
 7447TIP3    H122294   2.577   5.663   4.424
 7447TIP3    H222295   2.507   5.733   4.308
 7448TIP3   OH222296   1.900   5.408   4.355
 7448TIP3    H122297   1.880   5.481   4.297
 7448TIP3    H222298   1.845   5.336   4.325
 7449TIP3   OH222299   2.595   5.510   3.989
 7449TIP3    H122300   2.658   5.503   4.062
 7449TIP3    H222301   2.647   5.544   3.916
 7450TIP3   OH222302   1.527   5.624   4.483
 7450TIP3    H122303   1.610   5.605   4.527
 7450TIP3    H222304   1.530   5.573   4.402
 7451TIP3   OH222305   1.943   5.823   4.302
 7451TIP3    H122306   2.038   5.808   4.308
 7451TIP3    H222307   1.909   5.741   4.267
 7452TIP3   OH222308   3.227   5.805   4.541
 7452TIP3    H122309   3.138   5.838   4.536
 7452TIP3    H222310   3.260   5.838   4.624
 7453TIP3   OH222311   1.882   5.412   4.806
 7453TIP3    H122312   1.832   5.448   4.733
 7453TIP3    H222313   1.828   5.428   4.883
 7454TIP3   OH222314   2.232   6.265   3.788
 7454TIP3    H122315   2.192   6.236   3.706
 7454TIP3    H222316   2.179   6.340   3.815
 7455TIP3   OH222317   1.973   6.187   4.569
 7455TIP3    H122318   1.920   6.259   4.603
 7455TIP3    H222319   2.022   6.226   4.496
 7456TIP3   OH222320   2.751   5.535   4.213
 7456TIP3    H122321   2.711   5.511   4.296
 7456TIP3    H222322   2.809   5.608   4.233
 7457TIP3   OH222323   1.771   5.519   4.576
 7457TIP3    H122324   1.826   5.594   4.599
 7457TIP3    H222325   1.818   5.476   4.504
 7458TIP3   OH222326   1.820   6.388   4.678
 7458TIP3    H122327   1.808   6.478   4.647
 7458TIP3    H222328   1.741   6.371   4.730
 7459TIP3   OH222329   1.194   6.087   3.931
 7459TIP3    H122330   1.160   6.112   3.845
 7459TIP3    H222331   1.218   6.170   3.972
 7460TIP3   OH222332   2.642   6.583   4.173
 7460TIP3    H122333   2.556   6.578   4.214
 7460TIP3    H222334   2.642   6.667   4.127
 7461TIP3   OH222335   2.972   5.477   4.546
 7461TIP3    H122336   2.887   5.497   4.507
 7461TIP3    H222337   3.036   5.502   4.480
 7462TIP3   OH222338   2.223   5.105   4.537
 7462TIP3    H122339   2.217   5.013   4.563
 7462TIP3    H222340   2.146   5.146   4.576
 7463TIP3   OH222341   2.348   6.622   3.826
 7463TIP3    H122342   2.400   6.543   3.816
 7463TIP3    H222343   2.405   6.693   3.796
 7464TIP3   OH222344   2.484   6.392   3.783
 7464TIP3    H122345   2.411   6.331   3.780
 7464TIP3    H222346   2.533   6.367   3.861
 7465TIP3   OH222347   2.884   6.471   4.520
 7465TIP3    H122348   2.859   6.400   4.460
 7465TIP3    H222349   2.867   6.551   4.469
 7466TIP3   OH222350   2.158   5.887   3.785
 7466TIP3    H122351   2.075   5.931   3.766
 7466TIP3    H222352   2.206   5.889   3.702
 7467TIP3   OH222353   2.129   5.690   3.475
 7467TIP3    H122354   2.191   5.740   3.528
 7467TIP3    H222355   2.184   5.625   3.431
 7468TIP3   OH222356   3.046   6.145   4.376
 7468TIP3    H122357   2.961   6.189   4.374
 7468TIP3    H222358   3.083   6.158   4.289
 7469TIP3   OH222359   2.518   5.975   3.747
 7469TIP3    H122360   2.464   6.005   3.820
 7469TIP3    H222361   2.602   5.951   3.786
 7470TIP3   OH222362   2.748   6.006   4.691
 7470TIP3    H122363   2.742   6.088   4.739
 7470TIP3    H222364   2.666   6.001   4.641
 7471TIP3   OH222365   1.745   5.955   4.149
 7471TIP3    H122366   1.710   5.895   4.084
 7471TIP3    H222367   1.818   5.908   4.188
 7472TIP3   OH222368   1.884   6.372   4.292
 7472TIP3    H122369   1.861   6.363   4.200
 7472TIP3    H222370   1.973   6.336   4.298
 7473TIP3   OH222371   1.841   5.951   4.525
 7473TIP3    H122372   1.880   5.915   4.445
 7473TIP3    H222373   1.889   6.033   4.540
 7474TIP3   OH222374   2.409   6.584   4.309
 7474TIP3    H122375   2.388   6.665   4.355
 7474TIP3    H222376   2.386   6.515   4.371
 7475TIP3   OH222377   2.017   6.486   4.847
 7475TIP3    H122378   1.957   6.546   4.892
 7475TIP3    H222379   1.961   6.436   4.788
 7476TIP3   OH222380   2.348   5.837   3.580
 7476TIP3    H122381   2.407   5.895   3.629
 7476TIP3    H222382   2.379   5.842   3.490
 7477TIP3   OH222383   1.774   6.034   4.994
 7477TIP3    H122384   1.777   6.129   5.009
 7477TIP3    H222385   1.680   6.015   4.984
 7478TIP3   OH222386   2.098   6.503   3.835
 7478TIP3    H122387   2.180   6.552   3.841
 7478TIP3    H222388   2.040   6.561   3.786
 7479TIP3   OH222389   1.810   6.648   4.933
 7479TIP3    H122390   1.786   6.657   4.841
 7479TIP3    H222391   1.728   6.627   4.978
 7480TIP3   OH222392   2.861   5.061   3.635
 7480TIP3    H122393   2.784   5.083   3.687
 7480TIP3    H222394   2.874   5.137   3.579
 7481TIP3   OH222395   1.620   5.798   3.949
 7481TIP3    H122396   1.544   5.847   3.919
 7481TIP3    H222397   1.586   5.710   3.966
 7482TIP3   OH222398   2.690   6.433   3.197
 7482TIP3    H122399   2.678   6.523   3.168
 7482TIP3    H222400   2.777   6.409   3.167
 7483TIP3   OH222401   1.405   6.206   4.883
 7483TIP3    H122402   1.338   6.189   4.817
 7483TIP3    H222403   1.440   6.119   4.904
 7484TIP3   OH222404   1.246   6.401   4.544
 7484TIP3    H122405   1.334   6.431   4.563
 7484TIP3    H222406   1.190   6.476   4.566
 7485TIP3   OH222407   3.112   6.870   4.582
 7485TIP3    H122408   3.121   6.774   4.585
 7485TIP3    H222409   3.031   6.888   4.628
 7486TIP3   OH222410   2.207   6.629   4.707
 7486TIP3    H122411   2.199   6.719   4.737
 7486TIP3    H222412   2.138   6.581   4.754
 7487TIP3   OH222413   1.989   6.709   3.669
 7487TIP3    H122414   1.949   6.696   3.583
 7487TIP3    H222415   1.951   6.792   3.700
 7488TIP3   OH222416   1.423   6.566   4.041
 7488TIP3    H122417   1.465   6.564   4.128
 7488TIP3    H222418   1.374   6.484   4.037
 7489TIP3   OH222419   2.188   6.660   3.293
 7489TIP3    H122420   2.238   6.587   3.258
 7489TIP3    H222421   2.220   6.671   3.382
 7490TIP3   OH222422   2.242   6.691   3.563
 7490TIP3    H122423   2.156   6.693   3.605
 7490TIP3    H222424   2.300   6.655   3.630
 7491TIP3   OH222425   2.994   5.960   4.846
 7491TIP3    H122426   2.910   5.970   4.801
 7491TIP3    H222427   3.012   5.866   4.844
 7492TIP3   OH222428   1.603   6.394   4.850
 7492TIP3    H122429   1.653   6.381   4.931
 7492TIP3    H222430   1.531   6.332   4.856
 7493TIP3   OH222431   1.984   5.195   4.662
 7493TIP3    H122432   1.900   5.162   4.631
 7493TIP3    H222433   1.963   5.276   4.708
 7494TIP3   OH222434   2.527   5.319   4.864
 7494TIP3    H122435   2.597   5.294   4.925
 7494TIP3    H222436   2.446   5.302   4.912
 7495TIP3   OH222437   2.748   5.741   4.781
 7495TIP3    H122438   2.708   5.736   4.868
 7495TIP3    H222439   2.733   5.830   4.752
 7496TIP3   OH222440   2.434   5.811   3.320
 7496TIP3    H122441   2.384   5.821   3.239
 7496TIP3    H222442   2.516   5.856   3.304
 7497TIP3   OH222443   2.131   5.242   3.617
 7497TIP3    H122444   2.100   5.255   3.706
 7497TIP3    H222445   2.096   5.156   3.592
 7498TIP3   OH222446   1.924   5.730   4.671
 7498TIP3    H122447   1.879   5.737   4.756
 7498TIP3    H222448   1.902   5.811   4.626
 7499TIP3   OH222449   1.805   5.608   4.193
 7499TIP3    H122450   1.716   5.584   4.218
 7499TIP3    H222451   1.814   5.575   4.104
 7500TIP3   OH222452   2.283   5.682   3.920
 7500TIP3    H122453   2.236   5.755   3.880
 7500TIP3    H222454   2.341   5.650   3.851
 7501TIP3   OH222455   2.470   5.949   4.993
 7501TIP3    H122456   2.443   5.881   5.055
 7501TIP3    H222457   2.562   5.965   5.013
 7502TIP3   OH222458   2.451   5.696   4.143
 7502TIP3    H122459   2.383   5.717   4.080
 7502TIP3    H222460   2.499   5.623   4.104
 7503TIP3   OH222461   1.765   5.743   4.896
 7503TIP3    H122462   1.782   5.806   4.966
 7503TIP3    H222463   1.747   5.661   4.941
 7504TIP3   OH222464   1.802   5.219   3.604
 7504TIP3    H122465   1.794   5.222   3.699
 7504TIP3    H222466   1.723   5.263   3.572
 7505TIP3   OH222467   1.355   5.266   4.473
 7505TIP3    H122468   1.423   5.302   4.529
 7505TIP3    H222469   1.397   5.255   4.387
 7506TIP3   OH222470   1.259   5.245   3.974
 7506TIP3    H122471   1.303   5.280   3.896
 7506TIP3    H222472   1.196   5.312   3.998
 7507TIP3   OH222473   2.497   5.950   4.570
 7507TIP3    H122474   2.521   5.883   4.506
 7507TIP3    H222475   2.452   5.902   4.640
 7508TIP3   OH222476   2.170   5.396   4.243
 7508TIP3    H122477   2.093   5.396   4.300
 7508TIP3    H222478   2.244   5.387   4.303
 7509TIP3   OH222479   1.566   5.482   4.253
 7509TIP3    H122480   1.479   5.486   4.214
 7509TIP3    H222481   1.596   5.392   4.236
 7510TIP3   OH222482   1.817   5.483   3.948
 7510TIP3    H122483   1.911   5.494   3.938
 7510TIP3    H222484   1.781   5.502   3.861
 7511TIP3   OH222485   2.614   5.486   4.453
 7511TIP3    H122486   2.595   5.503   4.545
 7511TIP3    H222487   2.546   5.424   4.426
 7512TIP3   OH222488   1.705   5.508   3.699
 7512TIP3    H122489   1.640   5.460   3.648
 7512TIP3    H222490   1.758   5.554   3.634
 7513TIP3   OH222491   2.816   7.186   4.674
 7513TIP3    H122492   2.798   7.212   4.584
 7513TIP3    H222493   2.895   7.233   4.698
 7514TIP3   OH222494   1.755   6.301   5.084
 7514TIP3    H122495   1.836   6.322   5.130
 7514TIP3    H222496   1.686   6.314   5.149
 7515TIP3   OH222497   2.216   5.770   4.350
 7515TIP3    H122498   2.283   5.722   4.302
 7515TIP3    H222499   2.215   5.730   4.437
 7516TIP3   OH222500   1.708   5.234   4.240
 7516TIP3    H122501   1.680   5.158   4.292
 7516TIP3    H222502   1.733   5.197   4.156
 7517TIP3   OH222503   2.190   5.673   4.614
 7517TIP3    H122504   2.103   5.705   4.638
 7517TIP3    H222505   2.250   5.725   4.668
 7518TIP3   OH222506   1.921   6.021   3.728
 7518TIP3    H122507   1.846   5.967   3.704
 7518TIP3    H222508   1.895   6.063   3.810
 7519TIP3   OH222509   2.811   6.281   4.334
 7519TIP3    H122510   2.845   6.332   4.261
 7519TIP3    H222511   2.731   6.240   4.301
 7520TIP3   OH222512   2.387   5.342   3.628
 7520TIP3    H122513   2.294   5.323   3.623
 7520TIP3    H222514   2.392   5.436   3.644
 7521TIP3   OH222515   2.333   6.363   4.752
 7521TIP3    H122516   2.384   6.355   4.833
 7521TIP3    H222517   2.294   6.450   4.756
 7522TIP3   OH222518   2.447   5.604   3.703
 7522TIP3    H122519   2.542   5.608   3.715
 7522TIP3    H222520   2.426   5.684   3.654
 7523TIP3   OH222521   1.610   6.032   4.377
 7523TIP3    H122522   1.648   6.017   4.291
 7523TIP3    H222523   1.678   6.006   4.439
 7524TIP3   OH222524   2.076   6.178   3.568
 7524TIP3    H122525   2.030   6.262   3.563
 7524TIP3    H222526   2.020   6.123   3.621
 7525TIP3   OH222527   1.500   5.972   5.015
 7525TIP3    H122528   1.504   5.945   5.106
 7525TIP3    H222529   1.425   5.925   4.979
 7526TIP3   OH222530   2.239   6.106   5.033
 7526TIP3    H122531   2.170   6.046   5.005
 7526TIP3    H222532   2.320   6.064   5.004
 7527TIP3   OH222533   2.479   6.649   4.638
 7527TIP3    H122534   2.384   6.637   4.638
 7527TIP3    H222535   2.498   6.687   4.723
 7528TIP3   OH222536   2.861   5.692   3.520
 7528TIP3    H122537   2.804   5.645   3.459
 7528TIP3    H222538   2.866   5.780   3.484
 7529TIP3   OH222539   3.126   6.593   4.594
 7529TIP3    H122540   3.035   6.564   4.606
 7529TIP3    H222541   3.153   6.552   4.512
 7530TIP3   OH222542   2.612   6.504   3.460
 7530TIP3    H122543   2.578   6.434   3.517
 7530TIP3    H222544   2.629   6.461   3.377
 7531TIP3   OH222545   2.584   6.144   4.233
 7531TIP3    H122546   2.494   6.122   4.258
 7531TIP3    H222547   2.619   6.063   4.195
 7532TIP3   OH222548   1.743   6.382   4.049
 7532TIP3    H122549   1.742   6.458   3.991
 7532TIP3    H222550   1.652   6.374   4.080
 7533TIP3   OH222551   1.302   5.669   3.760
 7533TIP3    H122552   1.344   5.752   3.781
 7533TIP3    H222553   1.220   5.670   3.810
 7534TIP3   OH222554   1.823   6.137   3.951
 7534TIP3    H122555   1.807   6.226   3.980
 7534TIP3    H222556   1.797   6.082   4.025
 7535TIP3   OH222557   2.022   6.706   4.498
 7535TIP3    H122558   2.054   6.778   4.444
 7535TIP3    H222559   2.099   6.676   4.547
 7536TIP3   OH222560   1.655   6.602   3.899
 7536TIP3    H122561   1.567   6.600   3.937
 7536TIP3    H222562   1.682   6.693   3.905
 7537TIP3   OH222563   2.369   6.365   4.478
 7537TIP3    H122564   2.357   6.361   4.573
 7537TIP3    H222565   2.448   6.313   4.462
 7538TIP3   OH222566   2.365   6.242   3.342
 7538TIP3    H122567   2.414   6.213   3.419
 7538TIP3    H222568   2.281   6.195   3.348
 7539TIP3   OH222569   2.635   6.852   4.520
 7539TIP3    H122570   2.563   6.792   4.540
 7539TIP3    H222571   2.601   6.905   4.447
 7540TIP3   OH222572   2.682   6.703   3.139
 7540TIP3    H122573   2.691   6.762   3.064
 7540TIP3    H222574   2.610   6.740   3.191
 7541TIP3   OH222575   1.713   5.488   5.014
 7541TIP3    H122576   1.617   5.494   5.018
 7541TIP3    H222577   1.736   5.432   5.088
 7542TIP3   OH222578   2.539   6.156   3.535
 7542TIP3    H122579   2.526   6.104   3.615
 7542TIP3    H222580   2.634   6.165   3.528
 7543TIP3   OH222581   1.450   6.597   4.665
 7543TIP3    H122582   1.507   6.544   4.721
 7543TIP3    H222583   1.461   6.687   4.697
 7544TIP3   OH222584   1.715   6.214   3.360
 7544TIP3    H122585   1.731   6.124   3.332
 7544TIP3    H222586   1.703   6.208   3.455
 7545TIP3   OH222587   1.666   6.218   3.634
 7545TIP3    H122588   1.730   6.191   3.699
 7545TIP3    H222589   1.664   6.314   3.640
 7546TIP3   OH222590   1.395   5.919   3.840
 7546TIP3    H122591   1.329   5.966   3.890
 7546TIP3    H222592   1.415   5.977   3.766
 7547TIP3   OH222593   2.557   5.549   4.715
 7547TIP3    H122594   2.635   5.594   4.748
 7547TIP3    H222595   2.548   5.473   4.771
 7548TIP3   OH222596   2.446   5.293   3.898
 7548TIP3    H122597   2.427   5.312   3.807
 7548TIP3    H222598   2.490   5.372   3.931
 7549TIP3   OH222599   1.933   6.408   3.563
 7549TIP3    H122600   1.850   6.431   3.605
 7549TIP3    H222601   1.955   6.484   3.509
 7550TIP3   OH222602   2.096   5.492   3.993
 7550TIP3    H122603   2.158   5.560   3.967
 7550TIP3    H222604   2.120   5.470   4.083
 7551TIP3   OH222605   2.396   5.785   4.767
 7551TIP3    H122606   2.421   5.828   4.849
 7551TIP3    H222607   2.446   5.704   4.766
 7552TIP3   OH222608   2.260   5.187   4.076
 7552TIP3    H122609   2.238   5.263   4.128
 7552TIP3    H222610   2.330   5.217   4.018
 7553TIP3   OH222611   1.685   6.488   3.653
 7553TIP3    H122612   1.662   6.556   3.590
 7553TIP3    H222613   1.674   6.530   3.738
 7554TIP3   OH222614   1.777   5.210   3.883
 7554TIP3    H122615   1.764   5.300   3.913
 7554TIP3    H222616   1.871   5.196   3.888
 7555TIP3   OH222617   3.012   5.682   4.757
 7555TIP3    H122618   2.918   5.693   4.770
 7555TIP3    H222619   3.019   5.620   4.685
 7556TIP3   OH222620   2.676   5.886   4.144
 7556TIP3    H122621   2.599   5.830   4.156
 7556TIP3    H222622   2.743   5.847   4.200
 7557TIP3   OH222623   1.420   6.093   3.623
 7557TIP3    H122624   1.492   6.155   3.633
 7557TIP3    H222625   1.451   6.031   3.557
 7558TIP3   OH222626   1.324   5.391   3.752
 7558TIP3    H122627   1.337   5.485   3.764
 7558TIP3    H222628   1.271   5.384   3.673
 7559TIP3   OH222629   2.663   6.846   4.088
 7559TIP3    H122630   2.618   6.899   4.023
 7559TIP3    H222631   2.756   6.864   4.075
 7560TIP3   OH222632   1.721   5.110   4.626
 7560TIP3    H122633   1.692   5.077   4.541
 7560TIP3    H222634   1.713   5.035   4.684
 7561TIP3   OH222635   1.249   6.343   4.032
 7561TIP3    H122636   1.212   6.383   4.111
 7561TIP3    H222637   1.206   6.389   3.960
 7562TIP3   OH222638   1.454   6.868   5.095
 7562TIP3    H122639   1.537   6.870   5.142
 7562TIP3    H222640   1.437   6.775   5.081
 7563TIP3   OH222641   1.917   6.812   5.126
 7563TIP3    H122642   2.008   6.785   5.135
 7563TIP3    H222643   1.883   6.759   5.055
 7564TIP3   OH222644   1.854   6.429   3.257
 7564TIP3    H122645   1.810   6.355   3.299
 7564TIP3    H222646   1.933   6.391   3.218
 7565TIP3   OH222647   2.532   6.753   4.886
 7565TIP3    H122648   2.548   6.683   4.950
 7565TIP3    H222649   2.606   6.813   4.896
 7566TIP3   OH222650   2.320   6.454   3.177
 7566TIP3    H122651   2.347   6.384   3.236
 7566TIP3    H222652   2.384   6.452   3.106
 7567TIP3   OH222653   1.547   6.299   5.274
 7567TIP3    H122654   1.571   6.207   5.283
 7567TIP3    H222655   1.461   6.298   5.232
 7568TIP3   OH222656   1.541   5.902   3.470
 7568TIP3    H122657   1.591   5.879   3.548
 7568TIP3    H222658   1.608   5.920   3.403
 7569TIP3   OH222659   2.170   6.383   5.051
 7569TIP3    H122660   2.127   6.405   4.969
 7569TIP3    H222661   2.206   6.295   5.037
 7570TIP3   OH222662   2.114   6.116   3.302
 7570TIP3    H122663   2.088   6.129   3.394
 7570TIP3    H222664   2.089   6.025   3.284
 7571TIP3   OH222665   2.648   6.426   4.666
 7571TIP3    H122666   2.726   6.453   4.618
 7571TIP3    H222667   2.584   6.495   4.651
 7572TIP3   OH222668   1.664   6.046   5.278
 7572TIP3    H122669   1.738   6.034   5.219
 7572TIP3    H222670   1.704   6.065   5.363
 7573TIP3   OH222671   1.713   5.844   3.682
 7573TIP3    H122672   1.693   5.814   3.770
 7573TIP3    H222673   1.762   5.771   3.642
 7574TIP3   OH222674   2.030   5.929   4.939
 7574TIP3    H122675   1.945   5.971   4.950
 7574TIP3    H222676   2.061   5.959   4.854
 7575TIP3   OH222677   1.856   5.659   3.526
 7575TIP3    H122678   1.827   5.662   3.435
 7575TIP3    H222679   1.951   5.668   3.521
 7576TIP3   OH222680   2.527   6.304   5.019
 7576TIP3    H122681   2.595   6.265   4.965
 7576TIP3    H222682   2.524   6.249   5.097
 7577TIP3   OH222683   2.649   5.940   3.201
 7577TIP3    H122684   2.631   5.902   3.115
 7577TIP3    H222685   2.626   6.033   3.191
 7578TIP3   OH222686   2.130   5.697   5.047
 7578TIP3    H122687   2.135   5.626   4.982
 7578TIP3    H222688   2.098   5.772   4.998
 7579TIP3   OH222689   2.141   5.500   4.843
 7579TIP3    H122690   2.169   5.536   4.759
 7579TIP3    H222691   2.050   5.471   4.828
 7580TIP3   OH222692   2.144   6.030   4.715
 7580TIP3    H122693   2.232   6.067   4.704
 7580TIP3    H222694   2.087   6.088   4.664
 7581TIP3   OH222695   2.737   5.986   5.093
 7581TIP3    H122696   2.780   5.901   5.100
 7581TIP3    H222697   2.809   6.049   5.084
 7582TIP3   OH222698   2.764   6.249   4.836
 7582TIP3    H122699   2.712   6.310   4.784
 7582TIP3    H222700   2.854   6.262   4.805
 7583TIP3   OH222701   2.015   5.779   5.289
 7583TIP3    H122702   1.948   5.713   5.308
 7583TIP3    H222703   2.046   5.757   5.201
 7584TIP3   OH222704   2.262   5.268   4.945
 7584TIP3    H122705   2.222   5.348   4.912
 7584TIP3    H222706   2.196   5.201   4.932
 7585TIP3   OH222707   2.387   5.738   5.148
 7585TIP3    H122708   2.378   5.724   5.242
 7585TIP3    H222709   2.301   5.716   5.112
 7586TIP3   OH222710   2.635   5.695   5.021
 7586TIP3    H122711   2.556   5.693   5.075
 7586TIP3    H222712   2.705   5.669   5.080
 7587TIP3   OH222713   2.870   5.658   5.169
 7587TIP3    H122714   2.884   5.563   5.176
 7587TIP3    H222715   2.866   5.688   5.260
 7588TIP3   OH222716   1.847   5.563   5.355
 7588TIP3    H122717   1.854   5.475   5.317
 7588TIP3    H222718   1.887   5.554   5.442
 7589TIP3   OH222719   2.327   5.244   5.211
 7589TIP3    H122720   2.395   5.178   5.205
 7589TIP3    H222721   2.298   5.256   5.120
 7590TIP3   OH222722   2.425   5.459   5.354
 7590TIP3    H122723   2.394   5.386   5.300
 7590TIP3    H222724   2.352   5.521   5.355
 7591TIP3   OH222725   1.670   6.685   3.465
 7591TIP3    H122726   1.764   6.679   3.444
 7591TIP3    H222727   1.632   6.732   3.391
 7592TIP3   OH222728   1.148   6.092   3.633
 7592TIP3    H122729   1.243   6.102   3.634
 7592TIP3    H222730   1.133   6.005   3.597
 7593TIP3   OH222731   1.056   6.648   4.096
 7593TIP3    H122732   0.991   6.597   4.049
 7593TIP3    H222733   1.096   6.585   4.157
 7594TIP3   OH222734   1.197   6.486   4.272
 7594TIP3    H122735   1.191   6.424   4.344
 7594TIP3    H222736   1.243   6.561   4.309
 7595TIP3   OH222737   2.929   6.911   4.081
 7595TIP3    H122738   2.942   6.933   4.173
 7595TIP3    H222739   2.974   6.981   4.033
 7596TIP3   OH222740   2.938   6.933   4.358
 7596TIP3    H122741   2.895   6.848   4.359
 7596TIP3    H222742   3.010   6.925   4.421
 7597TIP3   OH222743   3.007   6.644   4.926
 7597TIP3    H122744   2.934   6.653   4.988
 7597TIP3    H222745   3.048   6.730   4.925
 7598TIP3   OH222746   2.820   6.156   3.534
 7598TIP3    H122747   2.876   6.228   3.505
 7598TIP3    H222748   2.865   6.119   3.610
 7599TIP3   OH222749   2.949   6.016   3.738
 7599TIP3    H122750   2.881   5.979   3.794
 7599TIP3    H222751   3.013   6.052   3.799
 7600TIP3   OH222752   2.995   6.420   4.174
 7600TIP3    H122753   3.046   6.353   4.129
 7600TIP3    H222754   2.996   6.495   4.114
 7601TIP3   OH222755   2.805   6.690   4.373
 7601TIP3    H122756   2.737   6.737   4.422
 7601TIP3    H222757   2.759   6.650   4.299
 7602TIP3   OH222758   2.856   5.930   3.381
 7602TIP3    H122759   2.786   5.929   3.316
 7602TIP3    H222760   2.839   6.009   3.433
 7603TIP3   OH222761   2.708   5.570   3.328
 7603TIP3    H122762   2.665   5.605   3.251
 7603TIP3    H222763   2.708   5.475   3.315
 7604TIP3   OH222764   2.746   5.878   3.876
 7604TIP3    H122765   2.751   5.784   3.862
 7604TIP3    H222766   2.727   5.888   3.969
 7605TIP3   OH222767   1.368   5.935   4.651
 7605TIP3    H122768   1.359   5.907   4.560
 7605TIP3    H222769   1.462   5.933   4.668
 7606TIP3   OH222770   3.018   6.294   4.731
 7606TIP3    H122771   3.088   6.232   4.712
 7606TIP3    H222772   3.005   6.342   4.650
 7607TIP3   OH222773   3.205   6.086   4.726
 7607TIP3    H122774   3.130   6.045   4.770
 7607TIP3    H222775   3.280   6.032   4.749
 7608TIP3   OH222776   2.687   5.295   3.289
 7608TIP3    H122777   2.750   5.276   3.359
 7608TIP3    H222778   2.604   5.261   3.322
 7609TIP3   OH222779   2.737   5.600   3.760
 7609TIP3    H122780   2.784   5.517   3.773
 7609TIP3    H222781   2.779   5.639   3.684
 7610TIP3   OH222782   2.892   5.765   4.284
 7610TIP3    H122783   2.973   5.782   4.236
 7610TIP3    H222784   2.907   5.805   4.370
 7611TIP3   OH222785   2.966   5.916   4.511
 7611TIP3    H122786   2.894   5.944   4.567
 7611TIP3    H222787   2.995   5.996   4.467
 7612TIP3   OH222788   1.583   5.615   5.289
 7612TIP3    H122789   1.677   5.613   5.308
 7612TIP3    H222790   1.550   5.534   5.327
 7613TIP3   OH222791   3.428   5.515   5.051
 7613TIP3    H122792   3.493   5.457   5.009
 7613TIP3    H222793   3.390   5.564   4.978
 7614TIP3   OH222794   2.854   5.352   3.813
 7614TIP3    H122795   2.899   5.336   3.896
 7614TIP3    H222796   2.792   5.279   3.805
 7615TIP3   OH222797   1.560   5.336   4.648
 7615TIP3    H122798   1.613   5.257   4.651
 7615TIP3    H222799   1.622   5.406   4.628
 7616TIP3   OH222800   1.345   5.607   4.698
 7616TIP3    H122801   1.397   5.594   4.619
 7616TIP3    H222802   1.368   5.695   4.728
 7617TIP3   OH222803   3.278   5.632   4.854
 7617TIP3    H122804   3.197   5.671   4.884
 7617TIP3    H222805   3.251   5.558   4.799
 7618TIP3   OH222806   2.907   5.262   3.453
 7618TIP3    H122807   2.954   5.202   3.394
 7618TIP3    H222808   2.962   5.340   3.456
 7619TIP3   OH222809   1.331   5.103   4.196
 7619TIP3    H122810   1.246   5.095   4.239
 7619TIP3    H222811   1.315   5.161   4.122
 7620TIP3   OH222812   2.493   6.819   3.715
 7620TIP3    H122813   2.547   6.806   3.637
 7620TIP3    H222814   2.537   6.888   3.764
 7621TIP3   OH222815   1.555   5.169   5.031
 7621TIP3    H122816   1.502   5.156   5.109
 7621TIP3    H222817   1.497   5.215   4.970
 7622TIP3   OH222818   1.590   6.601   5.102
 7622TIP3    H122819   1.497   6.580   5.096
 7622TIP3    H222820   1.609   6.604   5.195
 7623TIP3   OH222821   1.798   6.662   4.652
 7623TIP3    H122822   1.741   6.730   4.616
 7623TIP3    H222823   1.881   6.675   4.607
 7624TIP3   OH222824   2.194   6.890   4.793
 7624TIP3    H122825   2.233   6.887   4.880
 7624TIP3    H222826   2.255   6.942   4.741
 7625TIP3   OH222827   2.381   7.036   4.658
 7625TIP3    H122828   2.437   6.987   4.596
 7625TIP3    H222829   2.443   7.086   4.711
 7626TIP3   OH222830   3.191   5.381   4.749
 7626TIP3    H122831   3.104   5.372   4.711
 7626TIP3    H222832   3.228   5.293   4.743
 7627TIP3   OH222833   1.454   6.882   4.706
 7627TIP3    H122834   1.364   6.905   4.685
 7627TIP3    H222835   1.482   6.947   4.770
 7628TIP3   OH222836   1.676   6.878   4.540
 7628TIP3    H122837   1.593   6.888   4.586
 7628TIP3    H222838   1.658   6.908   4.451
 7629TIP3   OH222839   2.105   6.906   4.325
 7629TIP3    H122840   2.055   6.926   4.245
 7629TIP3    H222841   2.114   6.990   4.369
 7630TIP3   OH222842   2.361   6.842   4.398
 7630TIP3    H122843   2.272   6.863   4.371
 7630TIP3    H222844   2.416   6.904   4.349
 7631TIP3   OH222845   2.566   6.999   4.296
 7631TIP3    H122846   2.561   7.087   4.260
 7631TIP3    H222847   2.597   6.945   4.223
 7632TIP3   OH222848   1.360   6.674   4.414
 7632TIP3    H122849   1.387   6.655   4.504
 7632TIP3    H222850   1.432   6.644   4.360
 7633TIP3   OH222851   1.566   6.565   4.277
 7633TIP3    H122852   1.580   6.481   4.321
 7633TIP3    H222853   1.652   6.608   4.280
 7634TIP3   OH222854   1.834   6.648   4.300
 7634TIP3    H122855   1.854   6.555   4.289
 7634TIP3    H222856   1.889   6.676   4.373
 7635TIP3   OH222857   2.399   5.304   4.381
 7635TIP3    H122858   2.359   5.232   4.431
 7635TIP3    H222859   2.467   5.261   4.329
 7636TIP3   OH222860   2.900   5.223   4.274
 7636TIP3    H122861   2.935   5.271   4.199
 7636TIP3    H222862   2.806   5.242   4.273
 7637TIP3   OH222863   3.011   5.299   4.035
 7637TIP3    H122864   3.079   5.237   4.008
 7637TIP3    H222865   3.050   5.385   4.022
 7638TIP3   OH222866   1.636   5.006   4.383
 7638TIP3    H122867   1.548   4.971   4.392
 7638TIP3    H222868   1.692   4.929   4.375
 7639TIP3   OH222869   1.441   4.906   4.026
 7639TIP3    H122870   1.475   4.955   3.952
 7639TIP3    H222871   1.410   4.972   4.087
 7640TIP3   OH222872   2.116   5.043   4.276
 7640TIP3    H122873   2.163   5.090   4.208
 7640TIP3    H222874   2.157   5.072   4.358
 7641TIP3   OH222875   2.613   5.183   4.251
 7641TIP3    H122876   2.633   5.147   4.165
 7641TIP3    H222877   2.618   5.109   4.311
 7642TIP3   OH222878   2.668   5.141   3.817
 7642TIP3    H122879   2.588   5.188   3.843
 7642TIP3    H222880   2.658   5.054   3.856
 7643TIP3   OH222881   1.133   6.467   3.822
 7643TIP3    H122882   1.050   6.437   3.787
 7643TIP3    H222883   1.144   6.555   3.786
 7644TIP3   OH222884   1.565   5.040   3.800
 7644TIP3    H122885   1.611   4.979   3.742
 7644TIP3    H222886   1.634   5.097   3.834
 7645TIP3   OH222887   2.053   5.244   3.885
 7645TIP3    H122888   2.110   5.189   3.939
 7645TIP3    H222889   2.067   5.332   3.918
 7646TIP3   OH222890   1.934   6.644   3.400
 7646TIP3    H122891   2.018   6.667   3.359
 7646TIP3    H222892   1.898   6.576   3.342
 7647TIP3   OH222893   2.642   6.772   3.487
 7647TIP3    H122894   2.637   6.677   3.483
 7647TIP3    H222895   2.596   6.802   3.408
 7648TIP3   OH222896   1.863   5.293   5.264
 7648TIP3    H122897   1.829   5.227   5.323
 7648TIP3    H222898   1.955   5.301   5.287
 7649TIP3   OH222899   2.111   5.297   5.386
 7649TIP3    H122900   2.188   5.275   5.334
 7649TIP3    H222901   2.106   5.228   5.452
 7650TIP3   OH222902   1.232   6.466   3.451
 7650TIP3    H122903   1.231   6.499   3.541
 7650TIP3    H222904   1.318   6.425   3.441
 7651TIP3   OH222905   2.934   5.386   5.174
 7651TIP3    H122906   2.950   5.356   5.264
 7651TIP3    H222907   3.019   5.381   5.131
 7652TIP3   OH222908   2.857   6.914   4.677
 7652TIP3    H122909   2.782   6.882   4.627
 7652TIP3    H222910   2.843   7.009   4.683
 7653TIP3   OH222911   4.131   6.305   3.419
 7653TIP3    H122912   4.102   6.392   3.391
 7653TIP3    H222913   4.061   6.247   3.392
 7654TIP3   OH222914   4.127   6.297   3.843
 7654TIP3    H122915   4.181   6.279   3.920
 7654TIP3    H222916   4.083   6.214   3.825
 7655TIP3   OH222917   3.424   6.155   4.184
 7655TIP3    H122918   3.462   6.102   4.254
 7655TIP3    H222919   3.499   6.180   4.129
 7656TIP3   OH222920   4.397   6.597   3.511
 7656TIP3    H122921   4.386   6.531   3.579
 7656TIP3    H222922   4.419   6.677   3.558
 7657TIP3   OH222923   3.426   6.587   3.876
 7657TIP3    H122924   3.406   6.494   3.882
 7657TIP3    H222925   3.521   6.590   3.865
 7658TIP3   OH222926   3.099   5.791   3.656
 7658TIP3    H122927   3.060   5.874   3.681
 7658TIP3    H222928   3.028   5.741   3.616
 7659TIP3   OH222929   3.178   6.098   3.880
 7659TIP3    H122930   3.228   6.021   3.906
 7659TIP3    H222931   3.244   6.160   3.850
 7660TIP3   OH222932   4.049   7.037   3.535
 7660TIP3    H122933   4.076   6.972   3.470
 7660TIP3    H222934   4.064   6.995   3.620
 7661TIP3   OH222935   3.935   6.517   3.845
 7661TIP3    H122936   3.979   6.436   3.818
 7661TIP3    H222937   4.005   6.574   3.875
 7662TIP3   OH222938   4.969   5.846   3.858
 7662TIP3    H122939   4.974   5.936   3.889
 7662TIP3    H222940   4.995   5.852   3.766
 7663TIP3   OH222941   4.341   6.005   3.882
 7663TIP3    H122942   4.374   5.920   3.909
 7663TIP3    H222943   4.304   5.990   3.795
 7664TIP3   OH222944   3.698   5.664   3.840
 7664TIP3    H122945   3.676   5.737   3.781
 7664TIP3    H222946   3.643   5.592   3.810
 7665TIP3   OH222947   4.394   5.768   3.478
 7665TIP3    H122948   4.458   5.762   3.549
 7665TIP3    H222949   4.444   5.802   3.403
 7666TIP3   OH222950   3.321   5.878   3.971
 7666TIP3    H122951   3.404   5.859   4.014
 7666TIP3    H222952   3.324   5.827   3.890
 7667TIP3   OH222953   3.739   6.079   3.788
 7667TIP3    H122954   3.833   6.064   3.793
 7667TIP3    H222955   3.704   5.997   3.754
 7668TIP3   OH222956   5.016   6.074   4.027
 7668TIP3    H122957   4.926   6.108   4.023
 7668TIP3    H222958   5.052   6.112   4.107
 7669TIP3   OH222959   3.676   5.669   4.294
 7669TIP3    H122960   3.626   5.703   4.220
 7669TIP3    H222961   3.620   5.685   4.370
 7670TIP3   OH222962   4.032   6.522   3.277
 7670TIP3    H122963   3.990   6.491   3.196
 7670TIP3    H222964   3.977   6.596   3.305
 7671TIP3   OH222965   3.768   6.445   4.055
 7671TIP3    H122966   3.717   6.518   4.091
 7671TIP3    H222967   3.817   6.484   3.983
 7672TIP3   OH222968   4.550   5.790   3.701
 7672TIP3    H122969   4.509   5.767   3.784
 7672TIP3    H222970   4.606   5.865   3.721
 7673TIP3   OH222971   3.569   5.774   4.061
 7673TIP3    H122972   3.624   5.849   4.084
 7673TIP3    H222973   3.615   5.732   3.989
 7674TIP3   OH222974   3.619   6.650   4.169
 7674TIP3    H122975   3.609   6.743   4.146
 7674TIP3    H222976   3.536   6.626   4.211
 7675TIP3   OH222977   2.990   6.348   3.417
 7675TIP3    H122978   2.952   6.368   3.331
 7675TIP3    H222979   3.013   6.433   3.453
 7676TIP3   OH222980   4.432   6.841   3.646
 7676TIP3    H122981   4.345   6.839   3.686
 7676TIP3    H222982   4.434   6.925   3.598
 7677TIP3   OH222983   4.767   5.736   4.025
 7677TIP3    H122984   4.681   5.752   3.986
 7677TIP3    H222985   4.829   5.762   3.958
 7678TIP3   OH222986   4.021   5.359   4.027
 7678TIP3    H122987   4.013   5.266   4.050
 7678TIP3    H222988   3.944   5.400   4.065
 7679TIP3   OH222989   4.137   6.890   3.315
 7679TIP3    H122990   4.192   6.812   3.305
 7679TIP3    H222991   4.190   6.962   3.281
 7680TIP3   OH222992   4.276   6.662   3.272
 7680TIP3    H122993   4.205   6.597   3.266
 7680TIP3    H222994   4.328   6.632   3.346
 7681TIP3   OH222995   4.653   6.755   3.997
 7681TIP3    H122996   4.641   6.682   3.937
 7681TIP3    H222997   4.622   6.832   3.948
 7682TIP3   OH222998   3.956   6.146   3.272
 7682TIP3    H122999   3.873   6.189   3.251
 7682TIP3    H223000   4.002   6.142   3.189
 7683TIP3   OH223001   3.924   5.955   2.960
 7683TIP3    H123002   3.990   6.002   3.010
 7683TIP3    H223003   3.973   5.889   2.911
 7684TIP3   OH223004   4.838   6.403   3.874
 7684TIP3    H123005   4.757   6.453   3.868
 7684TIP3    H223006   4.883   6.419   3.790
 7685TIP3   OH223007   4.316   6.239   3.228
 7685TIP3    H123008   4.262   6.266   3.303
 7685TIP3    H223009   4.399   6.212   3.267
 7686TIP3   OH223010   4.542   6.256   4.180
 7686TIP3    H123011   4.540   6.340   4.226
 7686TIP3    H223012   4.461   6.254   4.130
 7687TIP3   OH223013   3.541   6.212   3.636
 7687TIP3    H123014   3.504   6.151   3.572
 7687TIP3    H223015   3.613   6.163   3.676
 7688TIP3   OH223016   3.686   6.635   3.775
 7688TIP3    H123017   3.660   6.620   3.684
 7688TIP3    H223018   3.772   6.595   3.783
 7689TIP3   OH223019   3.639   6.207   4.012
 7689TIP3    H123020   3.678   6.170   3.933
 7689TIP3    H223021   3.687   6.289   4.027
 7690TIP3   OH223022   4.198   6.849   3.786
 7690TIP3    H123023   4.185   6.926   3.841
 7690TIP3    H223024   4.182   6.775   3.844
 7691TIP3   OH223025   3.819   6.747   4.338
 7691TIP3    H123026   3.757   6.803   4.384
 7691TIP3    H223027   3.765   6.696   4.278
 7692TIP3   OH223028   4.144   6.096   3.066
 7692TIP3    H123029   4.205   6.153   3.114
 7692TIP3    H223030   4.172   6.102   2.975
 7693TIP3   OH223031   3.561   6.281   4.473
 7693TIP3    H123032   3.565   6.376   4.485
 7693TIP3    H223033   3.468   6.261   4.469
 7694TIP3   OH223034   3.893   6.759   3.324
 7694TIP3    H123035   3.973   6.812   3.331
 7694TIP3    H223036   3.832   6.815   3.276
 7695TIP3   OH223037   3.616   6.894   4.444
 7695TIP3    H123038   3.584   6.914   4.356
 7695TIP3    H223039   3.537   6.893   4.498
 7696TIP3   OH223040   4.657   5.320   3.124
 7696TIP3    H123041   4.580   5.339   3.177
 7696TIP3    H223042   4.667   5.395   3.066
 7697TIP3   OH223043   3.415   6.054   3.436
 7697TIP3    H123044   3.337   6.101   3.407
 7697TIP3    H223045   3.384   5.965   3.451
 7698TIP3   OH223046   4.482   6.697   2.679
 7698TIP3    H123047   4.478   6.790   2.657
 7698TIP3    H223048   4.571   6.671   2.655
 7699TIP3   OH223049   3.195   6.459   4.367
 7699TIP3    H123050   3.125   6.440   4.305
 7699TIP3    H223051   3.229   6.373   4.391
 7700TIP3   OH223052   3.039   6.659   4.028
 7700TIP3    H123053   3.128   6.684   4.052
 7700TIP3    H223054   2.986   6.735   4.051
 7701TIP3   OH223055   4.888   7.093   4.080
 7701TIP3    H123056   4.887   6.999   4.097
 7701TIP3    H223057   4.810   7.127   4.125
 7702TIP3   OH223058   4.004   6.890   4.194
 7702TIP3    H123059   3.995   6.981   4.222
 7702TIP3    H223060   3.938   6.842   4.244
 7703TIP3   OH223061   3.778   6.987   3.151
 7703TIP3    H123062   3.719   6.966   3.079
 7703TIP3    H223063   3.754   7.076   3.177
 7704TIP3   OH223064   3.221   6.830   3.527
 7704TIP3    H123065   3.263   6.823   3.613
 7704TIP3    H223066   3.170   6.749   3.520
 7705TIP3   OH223067   3.994   6.923   2.781
 7705TIP3    H123068   4.042   6.849   2.744
 7705TIP3    H223069   4.021   6.926   2.873
 7706TIP3   OH223070   4.029   6.950   3.051
 7706TIP3    H123071   3.943   6.956   3.091
 7706TIP3    H223072   4.085   6.910   3.118
 7707TIP3   OH223073   4.788   6.198   4.336
 7707TIP3    H123074   4.706   6.212   4.290
 7707TIP3    H223075   4.807   6.105   4.322
 7708TIP3   OH223076   3.385   6.653   4.323
 7708TIP3    H123077   3.440   6.635   4.399
 7708TIP3    H223078   3.314   6.589   4.329
 7709TIP3   OH223079   3.782   5.452   4.150
 7709TIP3    H123080   3.699   5.418   4.118
 7709TIP3    H223081   3.758   5.532   4.197
 7710TIP3   OH223082   4.316   5.579   4.348
 7710TIP3    H123083   4.384   5.551   4.410
 7710TIP3    H223084   4.234   5.562   4.394
 7711TIP3   OH223085   4.558   5.993   4.275
 7711TIP3    H123086   4.515   5.991   4.360
 7711TIP3    H223087   4.537   6.078   4.238
 7712TIP3   OH223088   4.224   6.094   2.806
 7712TIP3    H123089   4.178   6.085   2.723
 7712TIP3    H223090   4.307   6.136   2.783
 7713TIP3   OH223091   3.933   5.493   3.118
 7713TIP3    H123092   3.895   5.501   3.205
 7713TIP3    H223093   3.897   5.411   3.084
 7714TIP3   OH223094   3.721   5.985   4.159
 7714TIP3    H123095   3.675   5.990   4.242
 7714TIP3    H223096   3.699   6.066   4.113
 7715TIP3   OH223097   3.599   5.865   3.680
 7715TIP3    H123098   3.510   5.840   3.704
 7715TIP3    H223099   3.609   5.832   3.590
 7716TIP3   OH223100   4.079   5.940   3.407
 7716TIP3    H123101   4.032   6.013   3.367
 7716TIP3    H223102   4.137   5.907   3.338
 7717TIP3   OH223103   4.259   6.207   4.481
 7717TIP3    H123104   4.235   6.137   4.542
 7717TIP3    H223105   4.351   6.225   4.500
 7718TIP3   OH223106   4.248   5.954   3.629
 7718TIP3    H123107   4.180   5.975   3.566
 7718TIP3    H223108   4.295   5.881   3.590
 7719TIP3   OH223109   3.557   5.999   4.378
 7719TIP3    H123110   3.564   6.065   4.446
 7719TIP3    H223111   3.538   5.917   4.424
 7720TIP3   OH223112   3.600   5.476   3.095
 7720TIP3    H123113   3.590   5.479   3.190
 7720TIP3    H223114   3.521   5.518   3.061
 7721TIP3   OH223115   3.146   5.519   3.960
 7721TIP3    H123116   3.219   5.554   4.010
 7721TIP3    H223117   3.183   5.498   3.874
 7722TIP3   OH223118   3.053   5.498   3.464
 7722TIP3    H123119   3.098   5.534   3.387
 7722TIP3    H223120   2.988   5.565   3.486
 7723TIP3   OH223121   4.293   6.207   4.055
 7723TIP3    H123122   4.317   6.140   3.991
 7723TIP3    H223123   4.247   6.159   4.124
 7724TIP3   OH223124   3.968   5.655   3.733
 7724TIP3    H123125   3.889   5.654   3.787
 7724TIP3    H223126   4.040   5.646   3.795
 7725TIP3   OH223127   3.360   5.740   3.738
 7725TIP3    H123128   3.272   5.744   3.700
 7725TIP3    H223129   3.388   5.649   3.722
 7726TIP3   OH223130   3.614   5.744   3.433
 7726TIP3    H123131   3.708   5.752   3.423
 7726TIP3    H223132   3.578   5.760   3.346
 7727TIP3   OH223133   4.413   5.744   3.943
 7727TIP3    H123134   4.393   5.763   4.035
 7727TIP3    H223135   4.345   5.681   3.916
 7728TIP3   OH223136   3.500   5.767   3.185
 7728TIP3    H123137   3.437   5.716   3.133
 7728TIP3    H223138   3.554   5.812   3.120
 7729TIP3   OH223139   3.542   6.556   4.540
 7729TIP3    H123140   3.621   6.602   4.569
 7729TIP3    H223141   3.483   6.560   4.614
 7730TIP3   OH223142   4.013   6.028   3.836
 7730TIP3    H123143   4.077   5.977   3.787
 7730TIP3    H223144   4.011   5.986   3.922
 7731TIP3   OH223145   3.504   5.491   3.726
 7731TIP3    H123146   3.475   5.416   3.778
 7731TIP3    H223147   3.526   5.453   3.641
 7732TIP3   OH223148   3.986   5.928   4.100
 7732TIP3    H123149   3.899   5.959   4.124
 7732TIP3    H223150   4.046   5.981   4.153
 7733TIP3   OH223151   3.717   6.280   3.215
 7733TIP3    H123152   3.643   6.223   3.191
 7733TIP3    H223153   3.691   6.320   3.297
 7734TIP3   OH223154   4.607   6.547   3.821
 7734TIP3    H123155   4.646   6.592   3.746
 7734TIP3    H223156   4.530   6.502   3.785
 7735TIP3   OH223157   4.187   5.594   3.127
 7735TIP3    H123158   4.094   5.572   3.119
 7735TIP3    H223159   4.188   5.689   3.134
 7736TIP3   OH223160   4.123   6.613   4.227
 7736TIP3    H123161   4.176   6.601   4.306
 7736TIP3    H223162   4.087   6.701   4.235
 7737TIP3   OH223163   4.242   5.863   3.191
 7737TIP3    H123164   4.337   5.866   3.200
 7737TIP3    H223165   4.220   5.940   3.138
 7738TIP3   OH223166   3.413   6.301   3.864
 7738TIP3    H123167   3.450   6.281   3.778
 7738TIP3    H223168   3.477   6.268   3.926
 7739TIP3   OH223169   3.872   6.441   3.059
 7739TIP3    H123170   3.825   6.524   3.057
 7739TIP3    H223171   3.816   6.383   3.111
 7740TIP3   OH223172   3.288   6.221   4.495
 7740TIP3    H123173   3.287   6.192   4.586
 7740TIP3    H223174   3.213   6.177   4.455
 7741TIP3   OH223175   4.023   6.356   4.530
 7741TIP3    H123176   3.955   6.296   4.499
 7741TIP3    H223177   4.105   6.319   4.497
 7742TIP3   OH223178   4.280   6.881   4.134
 7742TIP3    H123179   4.185   6.884   4.124
 7742TIP3    H223180   4.298   6.938   4.209
 7743TIP3   OH223181   4.658   5.950   3.006
 7743TIP3    H123182   4.602   5.903   2.944
 7743TIP3    H223183   4.663   6.039   2.973
 7744TIP3   OH223184   4.902   6.807   4.095
 7744TIP3    H123185   4.808   6.798   4.077
 7744TIP3    H223186   4.944   6.785   4.012
 7745TIP3   OH223187   4.396   6.761   2.944
 7745TIP3    H123188   4.370   6.689   3.002
 7745TIP3    H223189   4.418   6.719   2.861
 7746TIP3   OH223190   4.383   6.401   3.717
 7746TIP3    H123191   4.293   6.379   3.742
 7746TIP3    H223192   4.418   6.320   3.680
 7747TIP3   OH223193   3.535   6.637   3.536
 7747TIP3    H123194   3.531   6.714   3.478
 7747TIP3    H223195   3.446   6.627   3.568
 7748TIP3   OH223196   3.097   5.924   3.246
 7748TIP3    H123197   3.138   6.007   3.269
 7748TIP3    H223198   3.015   5.923   3.295
 7749TIP3   OH223199   3.619   6.393   3.439
 7749TIP3    H123200   3.602   6.482   3.470
 7749TIP3    H223201   3.594   6.337   3.512
 7750TIP3   OH223202   3.822   6.963   3.987
 7750TIP3    H123203   3.858   7.032   3.932
 7750TIP3    H223204   3.897   6.925   4.032
 7751TIP3   OH223205   3.454   6.862   3.386
 7751TIP3    H123206   3.367   6.864   3.426
 7751TIP3    H223207   3.483   6.953   3.387
 7752TIP3   OH223208   4.168   6.625   3.954
 7752TIP3    H123209   4.154   6.619   4.048
 7752TIP3    H223210   4.246   6.572   3.938
 7753TIP3   OH223211   4.163   6.506   2.827
 7753TIP3    H123212   4.214   6.480   2.904
 7753TIP3    H223213   4.081   6.457   2.835
 7754TIP3   OH223214   4.482   6.970   2.636
 7754TIP3    H123215   4.515   7.039   2.579
 7754TIP3    H223216   4.409   7.010   2.683
 7755TIP3   OH223217   3.502   5.748   4.499
 7755TIP3    H123218   3.407   5.758   4.503
 7755TIP3    H223219   3.524   5.693   4.574
 7756TIP3   OH223220   4.340   6.428   3.023
 7756TIP3    H123221   4.322   6.371   3.098
 7756TIP3    H223222   4.435   6.431   3.017
 7757TIP3   OH223223   3.249   6.844   4.148
 7757TIP3    H123224   3.300   6.785   4.204
 7757TIP3    H223225   3.264   6.931   4.186
 7758TIP3   OH223226   3.514   6.466   2.845
 7758TIP3    H123227   3.523   6.375   2.817
 7758TIP3    H223228   3.500   6.461   2.940
 7759TIP3   OH223229   3.459   6.481   3.118
 7759TIP3    H123230   3.522   6.452   3.184
 7759TIP3    H223231   3.460   6.576   3.125
 7760TIP3   OH223232   3.190   6.175   3.328
 7760TIP3    H123233   3.123   6.222   3.378
 7760TIP3    H223234   3.209   6.233   3.254
 7761TIP3   OH223235   4.356   5.811   4.205
 7761TIP3    H123236   4.437   5.850   4.239
 7761TIP3    H223237   4.342   5.733   4.258
 7762TIP3   OH223238   4.246   5.547   3.394
 7762TIP3    H123239   4.224   5.564   3.302
 7762TIP3    H223240   4.289   5.628   3.423
 7763TIP3   OH223241   3.731   6.672   3.054
 7763TIP3    H123242   3.646   6.694   3.093
 7763TIP3    H223243   3.750   6.745   2.995
 7764TIP3   OH223244   3.894   5.748   3.480
 7764TIP3    H123245   3.956   5.816   3.453
 7764TIP3    H223246   3.918   5.728   3.571
 7765TIP3   OH223247   4.192   6.042   4.251
 7765TIP3    H123248   4.215   6.084   4.334
 7765TIP3    H223249   4.243   5.962   4.250
 7766TIP3   OH223250   4.056   5.445   3.567
 7766TIP3    H123251   4.033   5.522   3.618
 7766TIP3    H223252   4.126   5.474   3.509
 7767TIP3   OH223253   3.482   6.753   3.137
 7767TIP3    H123254   3.463   6.826   3.078
 7767TIP3    H223255   3.470   6.790   3.225
 7768TIP3   OH223256   3.568   5.469   3.374
 7768TIP3    H123257   3.557   5.560   3.403
 7768TIP3    H223258   3.663   5.454   3.380
 7769TIP3   OH223259   4.819   5.919   4.242
 7769TIP3    H123260   4.726   5.936   4.259
 7769TIP3    H223261   4.820   5.866   4.162
 7770TIP3   OH223262   4.473   6.143   3.629
 7770TIP3    H123263   4.396   6.087   3.639
 7770TIP3    H223264   4.539   6.103   3.685
 7771TIP3   OH223265   3.215   6.350   3.110
 7771TIP3    H123266   3.287   6.411   3.119
 7771TIP3    H223267   3.245   6.286   3.045
 7772TIP3   OH223268   3.123   5.646   3.244
 7772TIP3    H123269   3.133   5.741   3.252
 7772TIP3    H223270   3.075   5.635   3.161
 7773TIP3   OH223271   4.458   7.105   3.562
 7773TIP3    H123272   4.420   7.160   3.494
 7773TIP3    H223273   4.552   7.121   3.557
 7774TIP3   OH223274   3.520   5.366   4.111
 7774TIP3    H123275   3.490   5.333   4.026
 7774TIP3    H223276   3.512   5.291   4.170
 7775TIP3   OH223277   3.041   6.616   3.500
 7775TIP3    H123278   2.992   6.650   3.575
 7775TIP3    H223279   2.998   6.654   3.424
 7776TIP3   OH223280   3.232   7.140   4.573
 7776TIP3    H123281   3.311   7.133   4.627
 7776TIP3    H223282   3.197   7.051   4.570
 7777TIP3   OH223283   3.673   6.662   2.734
 7777TIP3    H123284   3.624   6.593   2.779
 7777TIP3    H223285   3.746   6.616   2.693
 7778TIP3   OH223286   4.319   7.023   4.369
 7778TIP3    H123287   4.332   6.948   4.427
 7778TIP3    H223288   4.394   7.079   4.385
 7779TIP3   OH223289   4.112   6.712   2.655
 7779TIP3    H123290   4.143   6.647   2.718
 7779TIP3    H223291   4.170   6.703   2.580
 7780TIP3   OH223292   3.355   6.548   4.748
 7780TIP3    H123293   3.369   6.454   4.759
 7780TIP3    H223294   3.268   6.555   4.708
 7781TIP3   OH223295   3.337   6.161   2.956
 7781TIP3    H123296   3.388   6.136   3.033
 7781TIP3    H223297   3.403   6.174   2.887
 7782TIP3   OH223298   3.904   6.615   4.567
 7782TIP3    H123299   3.886   6.649   4.479
 7782TIP3    H223300   3.946   6.531   4.552
 7783TIP3   OH223301   3.912   6.382   2.794
 7783TIP3    H123302   3.888   6.392   2.887
 7783TIP3    H223303   3.894   6.290   2.775
 7784TIP3   OH223304   4.444   6.663   4.153
 7784TIP3    H123305   4.519   6.695   4.103
 7784TIP3    H223306   4.378   6.732   4.144
 7785TIP3   OH223307   3.467   6.294   4.768
 7785TIP3    H123308   3.542   6.266   4.716
 7785TIP3    H223309   3.503   6.316   4.854
 7786TIP3   OH223310   3.509   6.102   3.169
 7786TIP3    H123311   3.488   6.070   3.257
 7786TIP3    H223312   3.557   6.030   3.128
 7787TIP3   OH223313   3.824   6.185   4.425
 7787TIP3    H123314   3.736   6.221   4.432
 7787TIP3    H223315   3.855   6.214   4.339
 7788TIP3   OH223316   3.652   5.920   3.013
 7788TIP3    H123317   3.621   5.923   2.923
 7788TIP3    H223318   3.747   5.928   3.007
 7789TIP3   OH223319   4.328   6.565   4.509
 7789TIP3    H123320   4.394   6.524   4.453
 7789TIP3    H223321   4.322   6.508   4.585
 7790TIP3   OH223322   4.446   6.212   2.688
 7790TIP3    H123323   4.432   6.170   2.603
 7790TIP3    H223324   4.422   6.303   2.674
 7791TIP3   OH223325   3.929   5.954   4.531
 7791TIP3    H123326   3.930   5.883   4.467
 7791TIP3    H223327   3.893   6.029   4.483
 7792TIP3   OH223328   3.934   5.756   4.329
 7792TIP3    H123329   3.961   5.792   4.244
 7792TIP3    H223330   3.844   5.728   4.315
 7793TIP3   OH223331   3.938   6.284   4.199
 7793TIP3    H123332   4.027   6.318   4.186
 7793TIP3    H223333   3.882   6.343   4.149
 7794TIP3   OH223334   4.524   6.249   4.578
 7794TIP3    H123335   4.560   6.160   4.575
 7794TIP3    H223336   4.600   6.306   4.566
 7795TIP3   OH223337   4.569   6.499   4.325
 7795TIP3    H123338   4.513   6.556   4.271
 7795TIP3    H223339   4.657   6.515   4.293
 7796TIP3   OH223340   3.815   6.038   4.776
 7796TIP3    H123341   3.745   5.977   4.797
 7796TIP3    H223342   3.842   6.013   4.687
 7797TIP3   OH223343   4.055   5.526   4.432
 7797TIP3    H123344   4.014   5.605   4.399
 7797TIP3    H223345   3.990   5.457   4.419
 7798TIP3   OH223346   4.185   5.991   4.634
 7798TIP3    H123347   4.172   5.977   4.728
 7798TIP3    H223348   4.100   5.971   4.595
 7799TIP3   OH223349   4.438   5.961   4.514
 7799TIP3    H123350   4.356   5.954   4.563
 7799TIP3    H223351   4.504   5.926   4.574
 7800TIP3   OH223352   4.673   5.907   4.661
 7800TIP3    H123353   4.678   5.812   4.670
 7800TIP3    H223354   4.663   5.939   4.751
 7801TIP3   OH223355   3.646   5.819   4.838
 7801TIP3    H123356   3.651   5.731   4.802
 7801TIP3    H223357   3.684   5.811   4.925
 7802TIP3   OH223358   4.122   5.501   4.698
 7802TIP3    H123359   4.188   5.432   4.691
 7802TIP3    H223360   4.091   5.513   4.608
 7803TIP3   OH223361   4.221   5.715   4.841
 7803TIP3    H123362   4.189   5.642   4.787
 7803TIP3    H223363   4.148   5.777   4.842
 7804TIP3   OH223364   3.489   6.965   2.959
 7804TIP3    H123365   3.575   6.940   2.924
 7804TIP3    H223366   3.442   7.001   2.884
 7805TIP3   OH223367   2.942   6.350   3.119
 7805TIP3    H123368   3.037   6.358   3.121
 7805TIP3    H223369   2.926   6.262   3.084
 7806TIP3   OH223370   2.846   6.923   3.586
 7806TIP3    H123371   2.782   6.869   3.540
 7806TIP3    H223372   2.889   6.862   3.647
 7807TIP3   OH223373   2.988   6.760   3.757
 7807TIP3    H123374   2.978   6.690   3.822
 7807TIP3    H223375   3.041   6.826   3.801
 7808TIP3   OH223376   4.727   7.160   3.569
 7808TIP3    H123377   4.745   7.185   3.660
 7808TIP3    H223378   4.784   7.217   3.517
 7809TIP3   OH223379   4.736   7.186   3.850
 7809TIP3    H123380   4.678   7.109   3.850
 7809TIP3    H223381   4.806   7.162   3.910
 7810TIP3   OH223382   4.784   6.891   4.420
 7810TIP3    H123383   4.710   6.902   4.480
 7810TIP3    H223384   4.835   6.972   4.429
 7811TIP3   OH223385   4.619   6.417   3.024
 7811TIP3    H123386   4.677   6.487   2.994
 7811TIP3    H223387   4.664   6.379   3.099
 7812TIP3   OH223388   4.748   6.274   3.226
 7812TIP3    H123389   4.680   6.237   3.282
 7812TIP3    H223390   4.812   6.311   3.287
 7813TIP3   OH223391   4.793   6.676   3.659
 7813TIP3    H123392   4.845   6.607   3.619
 7813TIP3    H223393   4.796   6.748   3.596
 7814TIP3   OH223394   4.554   6.974   3.858
 7814TIP3    H123395   4.470   7.011   3.884
 7814TIP3    H223396   4.534   6.925   3.778
 7815TIP3   OH223397   4.651   6.190   2.871
 7815TIP3    H123398   4.580   6.191   2.807
 7815TIP3    H223399   4.636   6.269   2.924
 7816TIP3   OH223400   4.507   5.836   2.808
 7816TIP3    H123401   4.468   5.875   2.730
 7816TIP3    H223402   4.498   5.742   2.796
 7817TIP3   OH223403   4.542   6.136   3.359
 7817TIP3    H123404   4.545   6.042   3.344
 7817TIP3    H223405   4.523   6.145   3.453
 7818TIP3   OH223406   3.161   6.197   4.135
 7818TIP3    H123407   3.150   6.165   4.045
 7818TIP3    H223408   3.255   6.193   4.151
 7819TIP3   OH223409   4.820   6.558   4.225
 7819TIP3    H123410   4.880   6.487   4.201
 7819TIP3    H223411   4.843   6.630   4.167
 7820TIP3   OH223412   4.980   6.341   4.203
 7820TIP3    H123413   4.913   6.291   4.251
 7820TIP3    H223414   5.062   6.297   4.224
 7821TIP3   OH223415   4.470   5.563   2.775
 7821TIP3    H123416   4.534   5.540   2.842
 7821TIP3    H223417   4.387   5.527   2.808
 7822TIP3   OH223418   4.535   5.859   3.247
 7822TIP3    H123419   4.579   5.775   3.259
 7822TIP3    H223420   4.576   5.897   3.169
 7823TIP3   OH223421   4.688   6.022   3.773
 7823TIP3    H123422   4.769   6.040   3.725
 7823TIP3    H223423   4.700   6.065   3.858
 7824TIP3   OH223424   4.754   6.175   4.000
 7824TIP3    H123425   4.681   6.204   4.054
 7824TIP3    H223426   4.787   6.255   3.959
 7825TIP3   OH223427   3.381   5.879   4.780
 7825TIP3    H123428   3.475   5.875   4.797
 7825TIP3    H223429   3.347   5.797   4.817
 7826TIP3   OH223430   5.284   5.769   4.506
 7826TIP3    H123431   5.222   5.718   4.558
 7826TIP3    H223432   5.229   5.817   4.444
 7827TIP3   OH223433   4.649   5.609   3.298
 7827TIP3    H123434   4.694   5.593   3.381
 7827TIP3    H223435   4.587   5.537   3.291
 7828TIP3   OH223436   3.358   5.591   4.127
 7828TIP3    H123437   3.411   5.511   4.133
 7828TIP3    H223438   3.421   5.660   4.108
 7829TIP3   OH223439   3.136   5.853   4.186
 7829TIP3    H123440   3.188   5.842   4.106
 7829TIP3    H223441   3.163   5.939   4.220
 7830TIP3   OH223442   5.088   5.904   4.365
 7830TIP3    H123443   5.028   5.947   4.426
 7830TIP3    H223444   5.033   5.874   4.293
 7831TIP3   OH223445   4.695   5.519   2.937
 7831TIP3    H123446   4.741   5.460   2.878
 7831TIP3    H223447   4.750   5.597   2.941
 7832TIP3   OH223448   3.126   5.370   3.694
 7832TIP3    H123449   3.040   5.356   3.732
 7832TIP3    H223450   3.109   5.423   3.616
 7833TIP3   OH223451   4.259   7.102   3.196
 7833TIP3    H123452   4.321   7.080   3.127
 7833TIP3    H223453   4.308   7.159   3.255
 7834TIP3   OH223454   3.351   5.423   4.517
 7834TIP3    H123455   3.299   5.415   4.597
 7834TIP3    H223456   3.295   5.471   4.456
 7835TIP3   OH223457   3.394   6.881   4.613
 7835TIP3    H123458   3.302   6.867   4.590
 7835TIP3    H223459   3.400   6.857   4.705
 7836TIP3   OH223460   3.605   6.926   4.154
 7836TIP3    H123461   3.545   6.991   4.116
 7836TIP3    H223462   3.686   6.937   4.105
 7837TIP3   OH223463   4.021   7.163   4.272
 7837TIP3    H123464   4.045   7.152   4.364
 7837TIP3    H223465   4.105   7.169   4.226
 7838TIP3   OH223466   4.986   5.632   4.228
 7838TIP3    H123467   4.899   5.628   4.189
 7838TIP3    H223468   5.023   5.545   4.213
 7839TIP3   OH223469   3.260   7.135   4.192
 7839TIP3    H123470   3.168   7.151   4.172
 7839TIP3    H223471   3.283   7.201   4.258
 7840TIP3   OH223472   3.479   7.132   4.025
 7840TIP3    H123473   3.395   7.136   4.071
 7840TIP3    H223474   3.457   7.149   3.934
 7841TIP3   OH223475   3.901   7.167   3.818
 7841TIP3    H123476   3.831   7.177   3.752
 7841TIP3    H223477   3.906   7.253   3.860
 7842TIP3   OH223478   4.156   7.097   3.899
 7842TIP3    H123479   4.073   7.125   3.861
 7842TIP3    H223480   4.221   7.156   3.861
 7843TIP3   OH223481   4.344   7.252   3.771
 7843TIP3    H123482   4.355   7.343   3.742
 7843TIP3    H223483   4.384   7.200   3.701
 7844TIP3   OH223484   3.166   6.933   3.898
 7844TIP3    H123485   3.184   6.907   3.988
 7844TIP3    H223486   3.239   6.898   3.847
 7845TIP3   OH223487   3.371   6.825   3.758
 7845TIP3    H123488   3.383   6.741   3.804
 7845TIP3    H223489   3.458   6.866   3.761
 7846TIP3   OH223490   3.639   6.910   3.782
 7846TIP3    H123491   3.658   6.817   3.769
 7846TIP3    H223492   3.690   6.934   3.860
 7847TIP3   OH223493   4.195   5.562   3.876
 7847TIP3    H123494   4.153   5.491   3.924
 7847TIP3    H223495   4.262   5.518   3.823
 7848TIP3   OH223496   4.690   5.482   3.756
 7848TIP3    H123497   4.723   5.530   3.680
 7848TIP3    H223498   4.595   5.497   3.754
 7849TIP3   OH223499   4.806   5.554   3.519
 7849TIP3    H123500   4.875   5.493   3.491
 7849TIP3    H223501   4.845   5.641   3.508
 7850TIP3   OH223502   3.429   5.265   3.870
 7850TIP3    H123503   3.340   5.230   3.879
 7850TIP3    H223504   3.484   5.187   3.862
 7851TIP3   OH223505   3.238   5.170   3.519
 7851TIP3    H123506   3.271   5.218   3.443
 7851TIP3    H223507   3.209   5.238   3.580
 7852TIP3   OH223508   3.911   5.302   3.765
 7852TIP3    H123509   3.959   5.348   3.697
 7852TIP3    H223510   3.954   5.329   3.847
 7853TIP3   OH223511   4.405   5.439   3.743
 7853TIP3    H123512   4.408   5.406   3.653
 7853TIP3    H223513   4.416   5.361   3.797
 7854TIP3   OH223514   4.467   5.396   3.310
 7854TIP3    H123515   4.386   5.442   3.334
 7854TIP3    H223516   4.456   5.308   3.347
 7855TIP3   OH223517   2.926   6.725   3.276
 7855TIP3    H123518   2.841   6.695   3.242
 7855TIP3    H223519   2.931   6.817   3.251
 7856TIP3   OH223520   3.358   5.299   3.287
 7856TIP3    H123521   3.403   5.237   3.230
 7856TIP3    H223522   3.427   5.356   3.321
 7857TIP3   OH223523   3.843   5.497   3.381
 7857TIP3    H123524   3.901   5.442   3.433
 7857TIP3    H223525   3.861   5.586   3.411
 7858TIP3   OH223526   3.734   6.888   2.870
 7858TIP3    H123527   3.820   6.912   2.836
 7858TIP3    H223528   3.706   6.815   2.815
 7859TIP3   OH223529   4.428   7.029   2.988
 7859TIP3    H123530   4.424   6.934   2.981
 7859TIP3    H223531   4.391   7.061   2.905
 7860TIP3   OH223532   3.660   5.547   4.753
 7860TIP3    H123533   3.625   5.480   4.812
 7860TIP3    H223534   3.752   5.555   4.778
 7861TIP3   OH223535   3.907   5.554   4.876
 7861TIP3    H123536   3.984   5.530   4.824
 7861TIP3    H223537   3.900   5.484   4.941
 7862TIP3   OH223538   3.034   6.718   2.940
 7862TIP3    H123539   3.028   6.722   3.036
 7862TIP3    H223540   3.116   6.674   2.923
 7863TIP3   OH223541   4.726   5.632   4.660
 7863TIP3    H123542   4.742   5.605   4.751
 7863TIP3    H223543   4.812   5.623   4.618
 7864TIP3   OH223544   4.658   7.204   4.191
 7864TIP3    H123545   4.585   7.166   4.142
 7864TIP3    H223546   4.637   7.298   4.197
 7865TIP3   OH223547   5.924   6.561   2.904
 7865TIP3    H123548   5.894   6.648   2.880
 7865TIP3    H223549   5.853   6.502   2.879
 7866TIP3   OH223550   5.923   6.554   3.329
 7866TIP3    H123551   5.976   6.538   3.408
 7866TIP3    H223552   5.878   6.471   3.314
 7867TIP3   OH223553   5.221   6.409   3.678
 7867TIP3    H123554   5.262   6.366   3.753
 7867TIP3    H223555   5.295   6.438   3.624
 7868TIP3   OH223556   6.193   6.859   3.002
 7868TIP3    H123557   6.180   6.794   3.072
 7868TIP3    H223558   6.213   6.940   3.049
 7869TIP3   OH223559   5.216   6.841   3.359
 7869TIP3    H123560   5.197   6.748   3.367
 7869TIP3    H223561   5.311   6.846   3.351
 7870TIP3   OH223562   4.896   6.046   3.144
 7870TIP3    H123563   4.858   6.131   3.169
 7870TIP3    H223564   4.824   5.998   3.103
 7871TIP3   OH223565   4.976   6.360   3.372
 7871TIP3    H123566   5.026   6.282   3.396
 7871TIP3    H223567   5.042   6.424   3.347
 7872TIP3   OH223568   5.858   7.284   3.026
 7872TIP3    H123569   5.878   7.221   2.956
 7872TIP3    H223570   5.864   7.233   3.106
 7873TIP3   OH223571   5.732   6.775   3.335
 7873TIP3    H123572   5.777   6.695   3.308
 7873TIP3    H223573   5.801   6.833   3.366
 7874TIP3   OH223574   6.759   6.101   3.350
 7874TIP3    H123575   6.778   6.184   3.394
 7874TIP3    H223576   6.778   6.118   3.258
 7875TIP3   OH223577   6.134   6.259   3.368
 7875TIP3    H123578   6.169   6.174   3.396
 7875TIP3    H223579   6.099   6.243   3.281
 7876TIP3   OH223580   5.493   5.920   3.327
 7876TIP3    H123581   5.472   5.994   3.270
 7876TIP3    H223582   5.437   5.849   3.296
 7877TIP3   OH223583   6.189   6.023   2.964
 7877TIP3    H123584   6.253   6.018   3.035
 7877TIP3    H223585   6.239   6.058   2.890
 7878TIP3   OH223586   5.113   6.135   3.460
 7878TIP3    H123587   5.197   6.120   3.502
 7878TIP3    H223588   5.117   6.085   3.379
 7879TIP3   OH223589   5.535   6.337   3.274
 7879TIP3    H123590   5.630   6.322   3.281
 7879TIP3    H223591   5.501   6.254   3.240
 7880TIP3   OH223592   6.817   6.315   3.519
 7880TIP3    H123593   6.730   6.354   3.515
 7880TIP3    H223594   6.855   6.349   3.600
 7881TIP3   OH223595   5.472   5.930   3.778
 7881TIP3    H123596   5.426   5.966   3.703
 7881TIP3    H223597   5.414   5.946   3.853
 7882TIP3   OH223598   5.820   6.779   2.767
 7882TIP3    H123599   5.781   6.751   2.685
 7882TIP3    H223600   5.768   6.854   2.794
 7883TIP3   OH223601   5.567   6.698   3.546
 7883TIP3    H123602   5.516   6.770   3.582
 7883TIP3    H223603   5.618   6.737   3.475
 7884TIP3   OH223604   6.349   6.046   3.184
 7884TIP3    H123605   6.306   6.023   3.267
 7884TIP3    H223606   6.404   6.122   3.206
 7885TIP3   OH223607   5.364   6.034   3.547
 7885TIP3    H123608   5.417   6.110   3.570
 7885TIP3    H223609   5.411   5.993   3.475
 7886TIP3   OH223610   5.415   6.904   3.653
 7886TIP3    H123611   5.400   6.994   3.621
 7886TIP3    H223612   5.336   6.883   3.703
 7887TIP3   OH223613   4.789   6.607   2.906
 7887TIP3    H123614   4.755   6.626   2.819
 7887TIP3    H223615   4.812   6.692   2.943
 7888TIP3   OH223616   6.222   7.110   3.135
 7888TIP3    H123617   6.133   7.106   3.168
 7888TIP3    H223618   6.226   7.192   3.085
 7889TIP3   OH223619   6.566   5.981   3.518
 7889TIP3    H123620   6.479   6.003   3.483
 7889TIP3    H223621   6.627   6.011   3.451
 7890TIP3   OH223622   5.816   5.619   3.513
 7890TIP3    H123623   5.806   5.527   3.537
 7890TIP3    H223624   5.740   5.662   3.552
 7891TIP3   OH223625   5.932   7.133   2.804
 7891TIP3    H123626   5.988   7.057   2.791
 7891TIP3    H223627   5.985   7.207   2.773
 7892TIP3   OH223628   6.079   6.910   2.756
 7892TIP3    H123629   6.011   6.843   2.751
 7892TIP3    H223630   6.129   6.887   2.834
 7893TIP3   OH223631   6.461   6.990   3.489
 7893TIP3    H123632   6.441   6.919   3.428
 7893TIP3    H223633   6.441   7.070   3.440
 7894TIP3   OH223634   5.751   6.399   2.756
 7894TIP3    H123635   5.668   6.444   2.738
 7894TIP3    H223636   5.798   6.400   2.673
 7895TIP3   OH223637   5.719   6.205   2.451
 7895TIP3    H123638   5.784   6.254   2.501
 7895TIP3    H223639   5.769   6.138   2.405
 7896TIP3   OH223640   6.637   6.653   3.348
 7896TIP3    H123641   6.555   6.702   3.348
 7896TIP3    H223642   6.673   6.664   3.260
 7897TIP3   OH223643   6.109   6.487   2.717
 7897TIP3    H123644   6.055   6.516   2.790
 7897TIP3    H223645   6.193   6.464   2.757
 7898TIP3   OH223646   6.338   6.513   3.663
 7898TIP3    H123647   6.329   6.595   3.712
 7898TIP3    H223648   6.258   6.508   3.610
 7899TIP3   OH223649   5.337   6.470   3.122
 7899TIP3    H123650   5.302   6.408   3.058
 7899TIP3    H223651   5.410   6.423   3.162
 7900TIP3   OH223652   5.478   6.889   3.265
 7900TIP3    H123653   5.457   6.876   3.172
 7900TIP3    H223654   5.566   6.852   3.275
 7901TIP3   OH223655   5.431   6.465   3.497
 7901TIP3    H123656   5.472   6.429   3.418
 7901TIP3    H223657   5.480   6.546   3.514
 7902TIP3   OH223658   5.981   7.099   3.263
 7902TIP3    H123659   5.967   7.179   3.314
 7902TIP3    H223660   5.971   7.028   3.326
 7903TIP3   OH223661   5.604   7.005   3.829
 7903TIP3    H123662   5.543   7.065   3.872
 7903TIP3    H223663   5.550   6.953   3.770
 7904TIP3   OH223664   5.941   6.349   2.548
 7904TIP3    H123665   6.000   6.407   2.596
 7904TIP3    H223666   5.969   6.354   2.457
 7905TIP3   OH223667   5.379   6.566   3.929
 7905TIP3    H123668   5.377   6.654   3.967
 7905TIP3    H223669   5.287   6.538   3.928
 7906TIP3   OH223670   5.682   7.019   2.805
 7906TIP3    H123671   5.765   7.065   2.815
 7906TIP3    H223672   5.625   7.081   2.761
 7907TIP3   OH223673   5.394   7.171   3.905
 7907TIP3    H123674   5.375   7.177   3.812
 7907TIP3    H223675   5.309   7.156   3.947
 7908TIP3   OH223676   6.455   5.577   2.610
 7908TIP3    H123677   6.378   5.598   2.663
 7908TIP3    H223678   6.465   5.653   2.552
 7909TIP3   OH223679   5.212   6.310   2.922
 7909TIP3    H123680   5.134   6.357   2.893
 7909TIP3    H223681   5.181   6.221   2.939
 7910TIP3   OH223682   6.270   6.951   2.167
 7910TIP3    H123683   6.269   7.045   2.151
 7910TIP3    H223684   6.360   6.924   2.148
 7911TIP3   OH223685   4.994   6.717   3.855
 7911TIP3    H123686   4.926   6.695   3.791
 7911TIP3    H223687   5.031   6.632   3.881
 7912TIP3   OH223688   4.838   6.910   3.506
 7912TIP3    H123689   4.929   6.932   3.523
 7912TIP3    H223690   4.789   6.987   3.535
 7913TIP3   OH223691   6.682   7.341   3.548
 7913TIP3    H123692   6.711   7.279   3.616
 7913TIP3    H223693   6.588   7.350   3.562
 7914TIP3   OH223694   5.793   7.143   3.685
 7914TIP3    H123695   5.784   7.234   3.712
 7914TIP3    H223696   5.726   7.096   3.735
 7915TIP3   OH223697   5.573   7.237   2.642
 7915TIP3    H123698   5.529   7.223   2.558
 7915TIP3    H223699   5.544   7.323   2.670
 7916TIP3   OH223700   5.011   7.098   3.014
 7916TIP3    H123701   5.059   7.091   3.097
 7916TIP3    H223702   4.965   7.014   3.006
 7917TIP3   OH223703   5.775   7.173   2.266
 7917TIP3    H123704   5.826   7.100   2.229
 7917TIP3    H223705   5.810   7.184   2.354
 7918TIP3   OH223706   5.825   7.207   2.535
 7918TIP3    H123707   5.741   7.212   2.581
 7918TIP3    H223708   5.886   7.174   2.601
 7919TIP3   OH223709   6.588   6.468   3.832
 7919TIP3    H123710   6.508   6.484   3.781
 7919TIP3    H223711   6.604   6.374   3.821
 7920TIP3   OH223712   5.196   6.901   3.820
 7920TIP3    H123713   5.246   6.889   3.901
 7920TIP3    H223714   5.123   6.839   3.828
 7921TIP3   OH223715   5.579   5.710   3.642
 7921TIP3    H123716   5.496   5.677   3.608
 7921TIP3    H223717   5.557   5.793   3.685
 7922TIP3   OH223718   6.123   5.828   3.837
 7922TIP3    H123719   6.192   5.807   3.899
 7922TIP3    H223720   6.042   5.816   3.886
 7923TIP3   OH223721   6.341   6.250   3.755
 7923TIP3    H123722   6.297   6.245   3.840
 7923TIP3    H223723   6.326   6.339   3.725
 7924TIP3   OH223724   6.017   6.322   2.284
 7924TIP3    H123725   5.972   6.333   2.200
 7924TIP3    H223726   6.099   6.371   2.273
 7925TIP3   OH223727   5.729   5.750   2.604
 7925TIP3    H123728   5.692   5.758   2.692
 7925TIP3    H223729   5.692   5.668   2.570
 7926TIP3   OH223730   5.512   6.245   3.649
 7926TIP3    H123731   5.469   6.254   3.734
 7926TIP3    H223732   5.492   6.327   3.604
 7927TIP3   OH223733   5.396   6.120   3.168
 7927TIP3    H123734   5.307   6.097   3.193
 7927TIP3    H223735   5.405   6.088   3.078
 7928TIP3   OH223736   5.875   6.195   2.893
 7928TIP3    H123737   5.828   6.268   2.853
 7928TIP3    H223738   5.934   6.163   2.824
 7929TIP3   OH223739   6.062   6.464   3.969
 7929TIP3    H123740   6.033   6.402   4.036
 7929TIP3    H223741   6.154   6.479   3.989
 7930TIP3   OH223742   6.043   6.208   3.116
 7930TIP3    H123743   5.974   6.230   3.053
 7930TIP3    H223744   6.090   6.136   3.076
 7931TIP3   OH223745   5.358   6.256   3.881
 7931TIP3    H123746   5.384   6.307   3.958
 7931TIP3    H223747   5.334   6.171   3.915
 7932TIP3   OH223748   5.396   5.732   2.583
 7932TIP3    H123749   5.386   5.736   2.678
 7932TIP3    H223750   5.317   5.775   2.549
 7933TIP3   OH223751   4.941   5.776   3.450
 7933TIP3    H123752   5.015   5.813   3.498
 7933TIP3    H223753   4.975   5.761   3.362
 7934TIP3   OH223754   4.848   5.753   2.949
 7934TIP3    H123755   4.892   5.787   2.872
 7934TIP3    H223756   4.784   5.821   2.972
 7935TIP3   OH223757   6.090   6.462   3.541
 7935TIP3    H123758   6.111   6.394   3.477
 7935TIP3    H223759   6.045   6.416   3.612
 7936TIP3   OH223760   5.761   5.908   3.216
 7936TIP3    H123761   5.683   5.909   3.272
 7936TIP3    H223762   5.834   5.902   3.277
 7937TIP3   OH223763   5.156   5.997   3.227
 7937TIP3    H123764   5.068   6.002   3.189
 7937TIP3    H223765   5.184   5.907   3.210
 7938TIP3   OH223766   5.409   5.999   2.921
 7938TIP3    H123767   5.504   6.010   2.911
 7938TIP3    H223768   5.373   6.017   2.834
 7939TIP3   OH223769   6.209   5.996   3.420
 7939TIP3    H123770   6.192   6.013   3.513
 7939TIP3    H223771   6.139   5.937   3.394
 7940TIP3   OH223772   5.297   6.022   2.673
 7940TIP3    H123773   5.234   5.973   2.621
 7940TIP3    H223774   5.350   6.068   2.608
 7941TIP3   OH223775   1.082   0.243   3.631
 7941TIP3    H123776   1.124   0.224   3.547
 7941TIP3    H223777   1.152   0.236   3.696
 7942TIP3   OH223778   5.343   6.816   4.057
 7942TIP3    H123779   5.424   6.823   4.108
 7942TIP3    H223780   5.273   6.814   4.123
 7943TIP3   OH223781   5.808   6.284   3.326
 7943TIP3    H123782   5.877   6.236   3.280
 7943TIP3    H223783   5.807   6.245   3.414
 7944TIP3   OH223784   5.300   5.748   3.210
 7944TIP3    H123785   5.272   5.672   3.262
 7944TIP3    H223786   5.319   5.712   3.124
 7945TIP3   OH223787   5.782   6.193   3.593
 7945TIP3    H123788   5.695   6.227   3.615
 7945TIP3    H223789   5.842   6.247   3.644
 7946TIP3   OH223790   5.515   6.536   2.699
 7946TIP3    H123791   5.440   6.481   2.675
 7946TIP3    H223792   5.489   6.578   2.781
 7947TIP3   OH223793   6.407   6.796   3.301
 7947TIP3    H123794   6.442   6.845   3.226
 7947TIP3    H223795   6.327   6.756   3.267
 7948TIP3   OH223796   5.982   5.854   2.610
 7948TIP3    H123797   5.888   5.833   2.606
 7948TIP3    H223798   5.984   5.949   2.622
 7949TIP3   OH223799   5.915   6.872   3.715
 7949TIP3    H123800   5.941   6.842   3.802
 7949TIP3    H223801   5.877   6.959   3.729
 7950TIP3   OH223802   6.040   6.119   2.677
 7950TIP3    H123803   6.135   6.123   2.688
 7950TIP3    H223804   6.018   6.198   2.627
 7951TIP3   OH223805   5.201   6.549   3.350
 7951TIP3    H123806   5.240   6.533   3.264
 7951TIP3    H223807   5.268   6.522   3.413
 7952TIP3   OH223808   5.669   6.696   2.541
 7952TIP3    H123809   5.621   6.779   2.539
 7952TIP3    H223810   5.615   6.638   2.594
 7953TIP3   OH223811   5.108   6.502   3.992
 7953TIP3    H123812   5.152   6.501   4.077
 7953TIP3    H223813   5.039   6.435   4.000
 7954TIP3   OH223814   5.837   6.641   3.959
 7954TIP3    H123815   5.771   6.573   3.962
 7954TIP3    H223816   5.921   6.594   3.965
 7955TIP3   OH223817   6.064   7.163   3.610
 7955TIP3    H123818   5.970   7.147   3.614
 7955TIP3    H223819   6.086   7.199   3.695
 7956TIP3   OH223820   6.453   6.206   2.495
 7956TIP3    H123821   6.396   6.161   2.433
 7956TIP3    H223822   6.459   6.295   2.462
 7957TIP3   OH223823   6.714   6.971   3.584
 7957TIP3    H123824   6.625   6.994   3.558
 7957TIP3    H223825   6.761   6.962   3.501
 7958TIP3   OH223826   6.172   7.016   2.427
 7958TIP3    H123827   6.158   6.945   2.489
 7958TIP3    H223828   6.201   6.974   2.347
 7959TIP3   OH223829   6.176   6.659   3.205
 7959TIP3    H123830   6.086   6.638   3.231
 7959TIP3    H223831   6.210   6.578   3.167
 7960TIP3   OH223832   5.336   6.895   3.020
 7960TIP3    H123833   5.333   6.971   2.962
 7960TIP3    H223834   5.247   6.888   3.056
 7961TIP3   OH223835   4.890   6.175   2.735
 7961TIP3    H123836   4.934   6.258   2.757
 7961TIP3    H223837   4.809   6.177   2.786
 7962TIP3   OH223838   5.414   6.650   2.922
 7962TIP3    H123839   5.400   6.739   2.952
 7962TIP3    H223840   5.389   6.595   2.996
 7963TIP3   OH223841   5.613   7.218   3.474
 7963TIP3    H123842   5.647   7.293   3.425
 7963TIP3    H223843   5.689   7.186   3.524
 7964TIP3   OH223844   5.248   7.117   2.872
 7964TIP3    H123845   5.161   7.124   2.911
 7964TIP3    H223846   5.283   7.206   2.874
 7965TIP3   OH223847   5.966   6.884   3.444
 7965TIP3    H123848   5.948   6.879   3.538
 7965TIP3    H223849   6.045   6.832   3.432
 7966TIP3   OH223850   5.956   6.753   2.323
 7966TIP3    H123851   6.011   6.732   2.398
 7966TIP3    H223852   5.870   6.719   2.346
 7967TIP3   OH223853   6.203   7.379   3.486
 7967TIP3    H123854   6.134   7.314   3.500
 7967TIP3    H223855   6.175   7.427   3.408
 7968TIP3   OH223856   6.273   7.228   2.130
 7968TIP3    H123857   6.268   7.265   2.042
 7968TIP3    H223858   6.205   7.273   2.179
 7969TIP3   OH223859   5.271   5.989   3.961
 7969TIP3    H123860   5.186   6.032   3.973
 7969TIP3    H223861   5.257   5.900   3.993
 7970TIP3   OH223862   6.132   6.681   2.518
 7970TIP3    H123863   6.116   6.624   2.593
 7970TIP3    H223864   6.227   6.687   2.512
 7971TIP3   OH223865   5.045   7.105   3.636
 7971TIP3    H123866   5.098   7.045   3.688
 7971TIP3    H223867   5.062   7.192   3.674
 7972TIP3   OH223868   5.308   6.724   2.331
 7972TIP3    H123869   5.322   6.632   2.306
 7972TIP3    H223870   5.294   6.721   2.426
 7973TIP3   OH223871   5.253   6.738   2.604
 7973TIP3    H123872   5.317   6.711   2.669
 7973TIP3    H223873   5.251   6.834   2.609
 7974TIP3   OH223874   4.985   6.429   2.813
 7974TIP3    H123875   4.921   6.477   2.865
 7974TIP3    H223876   5.005   6.487   2.740
 7975TIP3   OH223877   6.157   6.054   3.681
 7975TIP3    H123878   6.230   6.105   3.718
 7975TIP3    H223879   6.147   5.980   3.741
 7976TIP3   OH223880   6.042   5.804   2.878
 7976TIP3    H123881   6.021   5.823   2.786
 7976TIP3    H223882   6.085   5.883   2.909
 7977TIP3   OH223883   5.520   6.921   2.537
 7977TIP3    H123884   5.437   6.946   2.579
 7977TIP3    H223885   5.545   6.998   2.487
 7978TIP3   OH223886   5.689   6.005   2.965
 7978TIP3    H123887   5.751   6.073   2.939
 7978TIP3    H223888   5.712   5.984   3.055
 7979TIP3   OH223889   5.990   6.307   3.745
 7979TIP3    H123890   6.010   6.355   3.825
 7979TIP3    H223891   6.037   6.224   3.755
 7980TIP3   OH223892   5.853   5.699   3.051
 7980TIP3    H123893   5.830   5.776   3.103
 7980TIP3    H223894   5.924   5.729   2.994
 7981TIP3   OH223895   5.271   7.009   2.621
 7981TIP3    H123896   5.253   7.081   2.561
 7981TIP3    H223897   5.263   7.049   2.708
 7982TIP3   OH223898   5.367   5.726   2.862
 7982TIP3    H123899   5.355   5.816   2.890
 7982TIP3    H223900   5.462   5.711   2.868
 7983TIP3   OH223901   6.606   6.201   3.734
 7983TIP3    H123902   6.511   6.206   3.745
 7983TIP3    H223903   6.620   6.151   3.654
 7984TIP3   OH223904   6.267   6.400   3.119
 7984TIP3    H123905   6.190   6.344   3.131
 7984TIP3    H223906   6.334   6.360   3.175
 7985TIP3   OH223907   5.008   6.607   2.597
 7985TIP3    H123908   5.080   6.669   2.606
 7985TIP3    H223909   5.039   6.543   2.532
 7986TIP3   OH223910   4.912   5.896   2.725
 7986TIP3    H123911   4.919   5.991   2.730
 7986TIP3    H223912   4.845   5.881   2.658
 7987TIP3   OH223913   6.253   7.375   3.037
 7987TIP3    H123914   6.205   7.426   2.972
 7987TIP3    H223915   6.345   7.395   3.020
 7988TIP3   OH223916   5.318   5.623   3.596
 7988TIP3    H123917   5.289   5.592   3.510
 7988TIP3    H223918   5.307   5.548   3.654
 7989TIP3   OH223919   4.836   6.875   2.991
 7989TIP3    H123920   4.794   6.913   3.068
 7989TIP3    H223921   4.795   6.919   2.917
 7990TIP3   OH223922   5.483   7.370   4.077
 7990TIP3    H123923   5.572   7.341   4.101
 7990TIP3    H223924   5.451   7.301   4.019
 7991TIP3   OH223925   5.467   6.922   2.221
 7991TIP3    H123926   5.420   6.853   2.268
 7991TIP3    H223927   5.542   6.879   2.182
 7992TIP3   OH223928   6.118   7.260   3.863
 7992TIP3    H123929   6.130   7.192   3.928
 7992TIP3    H223930   6.196   7.316   3.872
 7993TIP3   OH223931   5.904   6.961   2.150
 7993TIP3    H123932   5.938   6.898   2.213
 7993TIP3    H223933   5.964   6.956   2.076
 7994TIP3   OH223934   5.137   6.809   4.249
 7994TIP3    H123935   5.154   6.719   4.279
 7994TIP3    H223936   5.052   6.804   4.206
 7995TIP3   OH223937   5.131   6.416   2.444
 7995TIP3    H123938   5.181   6.393   2.522
 7995TIP3    H223939   5.197   6.432   2.377
 7996TIP3   OH223940   5.747   6.892   4.038
 7996TIP3    H123941   5.701   6.920   3.958
 7996TIP3    H223942   5.790   6.810   4.013
 7997TIP3   OH223943   5.682   6.641   2.273
 7997TIP3    H123944   5.667   6.652   2.367
 7997TIP3    H223945   5.672   6.547   2.257
 7998TIP3   OH223946   6.234   6.938   3.641
 7998TIP3    H123947   6.312   6.965   3.593
 7998TIP3    H223948   6.171   7.008   3.625
 7999TIP3   OH223949   5.265   6.510   4.221
 7999TIP3    H123950   5.341   6.457   4.196
 7999TIP3    H223951   5.287   6.544   4.308
 8000TIP3   OH223952   5.304   6.360   2.656
 8000TIP3    H123953   5.284   6.331   2.745
 8000TIP3    H223954   5.353   6.287   2.617
 8001TIP3   OH223955   5.623   6.438   3.918
 8001TIP3    H123956   5.540   6.485   3.920
 8001TIP3    H223957   5.659   6.456   3.831
 8002TIP3   OH223958   5.446   6.176   2.501
 8002TIP3    H123959   5.417   6.183   2.410
 8002TIP3    H223960   5.541   6.184   2.496
 8003TIP3   OH223961   6.114   6.823   3.999
 8003TIP3    H123962   6.168   6.780   3.933
 8003TIP3    H223963   6.115   6.764   4.074
 8004TIP3   OH223964   6.235   6.464   2.187
 8004TIP3    H123965   6.220   6.422   2.103
 8004TIP3    H223966   6.212   6.556   2.173
 8005TIP3   OH223967   5.751   6.205   4.007
 8005TIP3    H123968   5.744   6.135   3.942
 8005TIP3    H223969   5.705   6.279   3.967
 8006TIP3   OH223970   5.736   6.007   3.807
 8006TIP3    H123971   5.760   6.052   3.726
 8006TIP3    H223972   5.643   5.986   3.795
 8007TIP3   OH223973   5.729   6.517   3.679
 8007TIP3    H123974   5.814   6.561   3.688
 8007TIP3    H223975   5.674   6.581   3.633
 8008TIP3   OH223976   6.336   6.479   4.058
 8008TIP3    H123977   6.379   6.394   4.066
 8008TIP3    H223978   6.407   6.540   4.041
 8009TIP3   OH223979   6.336   6.753   3.811
 8009TIP3    H123980   6.289   6.818   3.759
 8009TIP3    H223981   6.426   6.757   3.778
 8010TIP3   OH223982   5.477   6.334   4.153
 8010TIP3    H123983   5.522   6.308   4.234
 8010TIP3    H223984   5.548   6.366   4.096
 8011TIP3   OH223985   5.854   5.781   3.915
 8011TIP3    H123986   5.817   5.861   3.879
 8011TIP3    H223987   5.784   5.716   3.906
 8012TIP3   OH223988   5.986   6.255   4.134
 8012TIP3    H123989   5.968   6.260   4.228
 8012TIP3    H223990   5.902   6.233   4.095
 8013TIP3   OH223991   6.217   6.194   3.989
 8013TIP3    H123992   6.140   6.206   4.045
 8013TIP3    H223993   6.288   6.176   4.050
 8014TIP3   OH223994   6.456   6.174   4.140
 8014TIP3    H123995   6.471   6.079   4.144
 8014TIP3    H223996   6.449   6.201   4.231
 8015TIP3   OH223997   5.945   5.765   4.173
 8015TIP3    H123998   6.013   5.700   4.157
 8015TIP3    H223999   5.902   5.776   4.088
 8016TIP3   OH224000   5.971   5.984   4.341
 8016TIP3    H124001   5.957   5.916   4.276
 8016TIP3    H224002   5.902   6.048   4.325
 8017TIP3   OH224003   5.267   7.216   2.440
 8017TIP3    H124004   5.357   7.198   2.413
 8017TIP3    H224005   5.228   7.260   2.364
 8018TIP3   OH224006   4.735   6.607   2.613
 8018TIP3    H124007   4.830   6.617   2.611
 8018TIP3    H224008   4.719   6.521   2.573
 8019TIP3   OH224009   4.634   7.188   3.077
 8019TIP3    H124010   4.568   7.133   3.036
 8019TIP3    H224011   4.681   7.130   3.137
 8020TIP3   OH224012   4.782   7.020   3.241
 8020TIP3    H124013   4.774   6.951   3.306
 8020TIP3    H224014   4.837   7.087   3.283
 8021TIP3   OH224015   1.246   0.026   2.999
 8021TIP3    H124016   1.269  -0.004   3.087
 8021TIP3    H224017   1.261   0.120   3.001
 8022TIP3   OH224018   6.553   7.396   3.261
 8022TIP3    H124019   6.498   7.324   3.293
 8022TIP3    H224020   6.639   7.357   3.250
 8023TIP3   OH224021   6.501   7.102   3.849
 8023TIP3    H124022   6.454   7.133   3.926
 8023TIP3    H224023   6.486   7.169   3.783
 8024TIP3   OH224024   6.408   6.667   2.516
 8024TIP3    H124025   6.466   6.734   2.484
 8024TIP3    H224026   6.454   6.628   2.591
 8025TIP3   OH224027   6.539   6.523   2.712
 8025TIP3    H124028   6.471   6.488   2.770
 8025TIP3    H224029   6.604   6.560   2.771
 8026TIP3   OH224030   6.589   6.927   3.131
 8026TIP3    H124031   6.637   6.858   3.086
 8026TIP3    H224032   6.600   7.004   3.075
 8027TIP3   OH224033   6.376   7.203   3.345
 8027TIP3    H124034   6.312   7.259   3.390
 8027TIP3    H224035   6.328   7.168   3.271
 8028TIP3   OH224036   6.447   6.445   2.360
 8028TIP3    H124037   6.374   6.446   2.298
 8028TIP3    H224038   6.433   6.522   2.415
 8029TIP3   OH224039   6.299   6.093   2.301
 8029TIP3    H124040   6.250   6.130   2.227
 8029TIP3    H224041   6.293   5.998   2.287
 8030TIP3   OH224042   6.335   6.391   2.850
 8030TIP3    H124043   6.341   6.296   2.837
 8030TIP3    H224044   6.316   6.401   2.943
 8031TIP3   OH224045   4.957   6.452   3.630
 8031TIP3    H124046   4.948   6.422   3.540
 8031TIP3    H224047   5.051   6.446   3.647
 8032TIP3   OH224048   6.591   6.757   3.704
 8032TIP3    H124049   6.662   6.694   3.692
 8032TIP3    H224050   6.615   6.831   3.648
 8033TIP3   OH224051   6.805   6.586   3.713
 8033TIP3    H124052   6.735   6.541   3.760
 8033TIP3    H224053   6.884   6.534   3.731
 8034TIP3   OH224054   6.266   5.820   2.264
 8034TIP3    H124055   6.331   5.796   2.330
 8034TIP3    H224056   6.183   5.784   2.298
 8035TIP3   OH224057   6.330   6.114   2.735
 8035TIP3    H124058   6.377   6.031   2.748
 8035TIP3    H224059   6.371   6.154   2.658
 8036TIP3   OH224060   6.483   6.279   3.261
 8036TIP3    H124061   6.564   6.296   3.212
 8036TIP3    H224062   6.498   6.319   3.347
 8037TIP3   OH224063   6.558   6.429   3.490
 8037TIP3    H124064   6.484   6.458   3.544
 8037TIP3    H224065   6.585   6.508   3.443
 8038TIP3   OH224066   5.170   6.153   4.262
 8038TIP3    H124067   5.253   6.188   4.293
 8038TIP3    H224068   5.163   6.067   4.303
 8039TIP3   OH224069   7.021   6.013   4.033
 8039TIP3    H124070   7.086   5.959   3.989
 8039TIP3    H224071   6.983   6.068   3.964
 8040TIP3   OH224072   6.449   5.866   2.787
 8040TIP3    H124073   6.492   5.851   2.871
 8040TIP3    H224074   6.386   5.793   2.780
 8041TIP3   OH224075   5.155   5.848   3.615
 8041TIP3    H124076   5.210   5.770   3.617
 8041TIP3    H224077   5.215   5.920   3.597
 8042TIP3   OH224078   4.933   6.112   3.679
 8042TIP3    H124079   4.985   6.103   3.599
 8042TIP3    H224080   4.955   6.199   3.712
 8043TIP3   OH224081   6.872   6.138   3.842
 8043TIP3    H124082   6.795   6.179   3.882
 8043TIP3    H224083   6.835   6.071   3.783
 8044TIP3   OH224084   6.492   5.776   2.423
 8044TIP3    H124085   6.542   5.716   2.367
 8044TIP3    H224086   6.546   5.855   2.427
 8045TIP3   OH224087   4.922   5.630   3.182
 8045TIP3    H124088   4.836   5.614   3.220
 8045TIP3    H224089   4.904   5.681   3.102
 8046TIP3   OH224090   6.057   7.343   2.695
 8046TIP3    H124091   6.115   7.328   2.620
 8046TIP3    H224092   6.103   7.410   2.747
 8047TIP3   OH224093   5.156   5.737   4.027
 8047TIP3    H124094   5.101   5.711   4.101
 8047TIP3    H224095   5.094   5.764   3.960
 8048TIP3   OH224096   5.163   7.138   4.054
 8048TIP3    H124097   5.067   7.131   4.051
 8048TIP3    H224098   5.186   7.101   4.139
 8049TIP3   OH224099   5.387   7.180   3.624
 8049TIP3    H124100   5.335   7.253   3.589
 8049TIP3    H224101   5.472   7.188   3.581
 8050TIP3   OH224102   5.775   7.408   3.762
 8050TIP3    H124103   5.817   7.403   3.848
 8050TIP3    H224104   5.837   7.457   3.707
 8051TIP3   OH224105   0.697   0.098   3.619
 8051TIP3    H124106   0.761   0.049   3.568
 8051TIP3    H224107   0.750   0.144   3.685
 8052TIP3   OH224108   6.779   5.899   3.718
 8052TIP3    H124109   6.696   5.898   3.671
 8052TIP3    H224110   6.812   5.810   3.712
 8053TIP3   OH224111   5.049   7.410   3.670
 8053TIP3    H124112   4.956   7.430   3.656
 8053TIP3    H224113   5.079   7.478   3.730
 8054TIP3   OH224114   5.276   7.404   3.510
 8054TIP3    H124115   5.191   7.409   3.554
 8054TIP3    H224116   5.257   7.426   3.419
 8055TIP3   OH224117   0.419  -0.020   3.309
 8055TIP3    H124118   0.351  -0.011   3.242
 8055TIP3    H224119   0.430   0.068   3.345
 8056TIP3   OH224120   5.944   7.354   3.355
 8056TIP3    H124121   5.853   7.378   3.337
 8056TIP3    H224122   5.996   7.417   3.304
 8057TIP3   OH224123   0.881   0.068   3.249
 8057TIP3    H124124   0.851   0.148   3.205
 8057TIP3    H224125   0.919   0.015   3.179
 8058TIP3   OH224126   4.959   7.193   3.385
 8058TIP3    H124127   4.985   7.169   3.474
 8058TIP3    H224128   5.031   7.162   3.331
 8059TIP3   OH224129   5.163   7.083   3.244
 8059TIP3    H124130   5.175   6.999   3.288
 8059TIP3    H224131   5.249   7.124   3.247
 8060TIP3   OH224132   5.430   7.166   3.269
 8060TIP3    H124133   5.451   7.073   3.257
 8060TIP3    H224134   5.483   7.193   3.344
 8061TIP3   OH224135   5.988   5.819   3.356
 8061TIP3    H124136   5.949   5.749   3.407
 8061TIP3    H224137   6.056   5.776   3.304
 8062TIP3   OH224138   6.489   5.732   3.248
 8062TIP3    H124139   6.526   5.782   3.175
 8062TIP3    H224140   6.396   5.756   3.249
 8063TIP3   OH224141   6.602   5.812   3.011
 8063TIP3    H124142   6.671   5.750   2.987
 8063TIP3    H224143   6.642   5.898   2.999
 8064TIP3   OH224144   5.229   5.520   3.356
 8064TIP3    H124145   5.138   5.489   3.362
 8064TIP3    H224146   5.281   5.441   3.345
 8065TIP3   OH224147   5.058   5.436   3.019
 8065TIP3    H124148   5.080   5.483   2.938
 8065TIP3    H224149   5.018   5.503   3.074
 8066TIP3   OH224150   5.711   5.556   3.252
 8066TIP3    H124151   5.756   5.604   3.182
 8066TIP3    H224152   5.751   5.589   3.333
 8067TIP3   OH224153   6.201   5.698   3.227
 8067TIP3    H124154   6.219   5.664   3.139
 8067TIP3    H224155   6.208   5.621   3.284
 8068TIP3   OH224156   6.263   5.654   2.792
 8068TIP3    H124157   6.184   5.702   2.817
 8068TIP3    H224158   6.252   5.567   2.831
 8069TIP3   OH224159   4.724   6.998   2.773
 8069TIP3    H124160   4.642   6.962   2.741
 8069TIP3    H224161   4.725   7.089   2.741
 8070TIP3   OH224162   5.159   5.556   2.774
 8070TIP3    H124163   5.204   5.494   2.717
 8070TIP3    H224164   5.228   5.613   2.808
 8071TIP3   OH224165   5.642   5.753   2.867
 8071TIP3    H124166   5.702   5.701   2.921
 8071TIP3    H224167   5.657   5.843   2.896
 8072TIP3   OH224168   5.522   7.147   2.368
 8072TIP3    H124169   5.606   7.175   2.332
 8072TIP3    H224170   5.494   7.076   2.310
 8073TIP3   OH224171   6.211   7.283   2.472
 8073TIP3    H124172   6.202   7.188   2.461
 8073TIP3    H224173   6.173   7.320   2.392
 8074TIP3   OH224174   4.831   6.990   2.426
 8074TIP3    H124175   4.836   6.997   2.521
 8074TIP3    H224176   4.912   6.944   2.401
 8075TIP3   OH224177   6.527   5.905   4.148
 8075TIP3    H124178   6.543   5.873   4.237
 8075TIP3    H224179   6.612   5.897   4.104
 8076TIP3   OH224180   6.427   7.377   3.649
 8076TIP3    H124181   6.347   7.378   3.595
 8076TIP3    H224182   6.457   7.468   3.649
 8077TIP3   OH224183   7.026   6.692   3.160
 8077TIP3    H124184   7.051   6.621   3.219
 8077TIP3    H224185   7.088   6.763   3.179
 8078TIP3   OH224186   6.955   7.072   2.921
 8078TIP3    H124187   6.960   6.978   2.908
 8078TIP3    H224188   6.978   7.110   2.836
 8079TIP3   OH224189   6.688   6.298   2.633
 8079TIP3    H124190   6.651   6.382   2.658
 8079TIP3    H224191   6.615   6.251   2.591
 8080TIP3   OH224192   6.764   6.605   2.851
 8080TIP3    H124193   6.817   6.529   2.877
 8080TIP3    H224194   6.828   6.669   2.818
 8081TIP3   OH224195   7.277   6.178   2.817
 8081TIP3    H124196   7.258   6.251   2.759
 8081TIP3    H224197   7.224   6.106   2.784
 8082TIP3   OH224198   6.910   6.390   2.947
 8082TIP3    H124199   6.994   6.372   2.991
 8082TIP3    H224200   6.915   6.341   2.865
 8083TIP3   OH224201   7.329   6.590   2.757
 8083TIP3    H124202   7.419   6.565   2.774
 8083TIP3    H224203   7.288   6.511   2.722
 8084TIP3   OH224204   7.259   6.179   3.267
 8084TIP3    H124205   7.213   6.221   3.194
 8084TIP3    H224206   7.205   6.198   3.344
 8085TIP3   OH224207   7.157   6.290   3.037
 8085TIP3    H124208   7.211   6.367   3.058
 8085TIP3    H224209   7.203   6.248   2.965
 8086TIP3   OH224210   7.142   7.099   3.136
 8086TIP3    H124211   7.090   7.101   3.056
 8086TIP3    H224212   7.082   7.127   3.205
 8087TIP3   OH224213   6.579   6.843   2.394
 8087TIP3    H124214   6.542   6.866   2.309
 8087TIP3    H224215   6.598   6.927   2.436
 8088TIP3   OH224216   7.592   5.925   2.971
 8088TIP3    H124217   7.662   5.903   3.032
 8088TIP3    H224218   7.516   5.941   3.026
 8089TIP3   OH224219   7.090   6.697   2.654
 8089TIP3    H124220   7.071   6.664   2.566
 8089TIP3    H224221   7.179   6.666   2.672
 8090TIP3   OH224222   7.283   6.736   2.988
 8090TIP3    H124223   7.299   6.692   2.904
 8090TIP3    H224224   7.303   6.828   2.971
 8091TIP3   OH224225   7.146   6.789   3.424
 8091TIP3    H124226   7.146   6.876   3.464
 8091TIP3    H224227   7.056   6.757   3.436
 8092TIP3   OH224228   7.010   6.575   2.405
 8092TIP3    H124229   6.933   6.620   2.373
 8092TIP3    H224230   6.981   6.485   2.422
 8093TIP3   OH224231   6.791   6.938   3.324
 8093TIP3    H124232   6.719   6.940   3.262
 8093TIP3    H224233   6.829   6.850   3.315
 8094TIP3   OH224234   6.693   7.146   2.986
 8094TIP3    H124235   6.780   7.118   2.958
 8094TIP3    H224236   6.710   7.213   3.053
 8095TIP3   OH224237   6.965   7.145   3.340
 8095TIP3    H124238   7.017   7.133   3.420
 8095TIP3    H224239   6.904   7.071   3.339
 8096TIP3   OH224240   7.364   5.964   3.127
 8096TIP3    H124241   7.281   5.929   3.093
 8096TIP3    H224242   7.339   6.044   3.173
 8097TIP3   OH224243   7.879   6.090   3.309
 8097TIP3    H124244   7.950   6.037   3.346
 8097TIP3    H224245   7.803   6.070   3.363
 8098TIP3   OH224246   7.532   5.998   2.099
 8098TIP3    H124247   7.485   6.005   2.182
 8098TIP3    H224248   7.490   5.925   2.054
 8099TIP3   OH224249   7.306   6.503   3.129
 8099TIP3    H124250   7.254   6.510   3.209
 8099TIP3    H224251   7.293   6.586   3.084
 8100TIP3   OH224252   7.188   6.377   2.653
 8100TIP3    H124253   7.097   6.357   2.677
 8100TIP3    H224254   7.198   6.340   2.565
 8101TIP3   OH224255   7.139   6.508   3.344
 8101TIP3    H124256   7.149   6.575   3.411
 8101TIP3    H224257   7.126   6.427   3.392
 8102TIP3   OH224258   7.169   5.990   2.062
 8102TIP3    H124259   7.163   5.994   2.157
 8102TIP3    H224260   7.093   6.040   2.031
 8103TIP3   OH224261   6.737   6.033   2.938
 8103TIP3    H124262   6.811   6.066   2.989
 8103TIP3    H224263   6.771   6.024   2.849
 8104TIP3   OH224264   6.641   6.010   2.436
 8104TIP3    H124265   6.688   6.047   2.361
 8104TIP3    H224266   6.578   6.077   2.460
 8105TIP3   OH224267   7.533   6.203   2.695
 8105TIP3    H124268   7.461   6.193   2.757
 8105TIP3    H224269   7.608   6.161   2.738
 8106TIP3   OH224270   6.948   6.255   2.713
 8106TIP3    H124271   6.860   6.258   2.675
 8106TIP3    H224272   6.978   6.165   2.696
 8107TIP3   OH224273   7.206   6.245   2.414
 8107TIP3    H124274   7.298   6.256   2.393
 8107TIP3    H224275   7.160   6.261   2.331
 8108TIP3   OH224276   7.065   6.257   2.182
 8108TIP3    H124277   6.994   6.216   2.131
 8108TIP3    H224278   7.119   6.301   2.116
 8109TIP3   OH224279   7.083   7.023   3.566
 8109TIP3    H124280   7.163   7.060   3.602
 8109TIP3    H224281   7.030   7.001   3.642
 8110TIP3   OH224282   7.576   6.497   2.829
 8110TIP3    H124283   7.649   6.450   2.788
 8110TIP3    H224284   7.578   6.468   2.920
 8111TIP3   OH224285   7.086   6.007   2.695
 8111TIP3    H124286   7.057   5.930   2.744
 8111TIP3    H224287   7.111   5.972   2.609
 8112TIP3   OH224288   7.565   6.420   3.095
 8112TIP3    H124289   7.477   6.453   3.110
 8112TIP3    H224290   7.619   6.466   3.159
 8113TIP3   OH224291   6.986   6.802   2.881
 8113TIP3    H124292   7.025   6.772   2.800
 8113TIP3    H224293   7.034   6.756   2.950
 8114TIP3   OH224294   6.887   6.694   3.468
 8114TIP3    H124295   6.880   6.665   3.559
 8114TIP3    H224296   6.803   6.671   3.429
 8115TIP3   OH224297   7.635   6.786   3.521
 8115TIP3    H124298   7.566   6.757   3.463
 8115TIP3    H224299   7.689   6.708   3.536
 8116TIP3   OH224300   6.682   6.435   2.217
 8116TIP3    H124301   6.728   6.516   2.237
 8116TIP3    H224302   6.603   6.438   2.271
 8117TIP3   OH224303   7.094   6.261   3.474
 8117TIP3    H124304   6.999   6.270   3.484
 8117TIP3    H224305   7.123   6.220   3.556
 8118TIP3   OH224306   6.798   7.303   3.190
 8118TIP3    H124307   6.854   7.241   3.237
 8118TIP3    H224308   6.834   7.389   3.211
 8119TIP3   OH224309   6.782   6.683   2.294
 8119TIP3    H124310   6.716   6.729   2.347
 8119TIP3    H224311   6.801   6.743   2.222
 8120TIP3   OH224312   0.018   6.348   3.219
 8120TIP3    H124313   0.112   6.349   3.201
 8120TIP3    H224314  -0.000   6.259   3.247
 8121TIP3   OH224315   7.489   6.254   2.431
 8121TIP3    H124316   7.543   6.331   2.412
 8121TIP3    H224317   7.502   6.239   2.524
 8122TIP3   OH224318   7.718   6.515   3.303
 8122TIP3    H124319   7.738   6.529   3.396
 8122TIP3    H224320   7.791   6.464   3.270
 8123TIP3   OH224321   7.654   5.968   2.526
 8123TIP3    H124322   7.694   6.000   2.607
 8123TIP3    H224323   7.699   6.017   2.456
 8124TIP3   OH224324   7.153   5.975   2.346
 8124TIP3    H124325   7.143   6.066   2.375
 8124TIP3    H224326   7.248   5.960   2.350
 8125TIP3   OH224327   6.792   6.867   2.082
 8125TIP3    H124328   6.823   6.958   2.078
 8125TIP3    H224329   6.845   6.820   2.018
 8126TIP3   OH224330   6.715   6.158   2.219
 8126TIP3    H124331   6.725   6.253   2.230
 8126TIP3    H224332   6.673   6.148   2.134
 8127TIP3   OH224333   7.111   5.863   3.075
 8127TIP3    H124334   7.081   5.832   2.989
 8127TIP3    H224335   7.115   5.783   3.128
 8128TIP3   OH224336   6.618   7.096   2.489
 8128TIP3    H124337   6.612   7.153   2.565
 8128TIP3    H224338   6.585   7.149   2.416
 8129TIP3   OH224339   1.592   0.239   3.543
 8129TIP3    H124340   1.634   0.153   3.555
 8129TIP3    H224341   1.586   0.250   3.448
 8130TIP3   OH224342   6.935   6.931   3.785
 8130TIP3    H124343   6.982   6.848   3.773
 8130TIP3    H224344   6.855   6.921   3.733
 8131TIP3   OH224345   6.947   6.715   1.915
 8131TIP3    H124346   6.990   6.669   1.987
 8131TIP3    H224347   7.016   6.723   1.848
 8132TIP3   OH224348   7.116   6.723   3.756
 8132TIP3    H124349   7.192   6.680   3.718
 8132TIP3    H224350   7.151   6.772   3.830
 8133TIP3   OH224351   7.073   6.591   2.122
 8133TIP3    H124352   7.073   6.585   2.218
 8133TIP3    H224353   7.134   6.522   2.094
 8134TIP3   OH224354   7.414   6.717   3.366
 8134TIP3    H124355   7.325   6.744   3.390
 8134TIP3    H224356   7.420   6.736   3.272
 8135TIP3   OH224357   7.227   6.385   2.003
 8135TIP3    H124358   7.190   6.402   1.917
 8135TIP3    H224359   7.317   6.356   1.986
 8136TIP3   OH224360   7.466   6.470   3.497
 8136TIP3    H124361   7.499   6.395   3.446
 8136TIP3    H224362   7.466   6.543   3.435
 8137TIP3   OH224363   7.519   6.249   3.319
 8137TIP3    H124364   7.553   6.290   3.239
 8137TIP3    H224365   7.428   6.228   3.299
 8138TIP3   OH224366   7.343   6.558   3.723
 8138TIP3    H124367   7.304   6.476   3.754
 8138TIP3    H224368   7.385   6.535   3.641
 8139TIP3   OH224369   7.634   6.018   3.415
 8139TIP3    H124370   7.594   6.099   3.386
 8139TIP3    H224371   7.568   5.951   3.398
 8140TIP3   OH224372   7.753   6.545   3.585
 8140TIP3    H124373   7.821   6.536   3.651
 8140TIP3    H224374   7.682   6.489   3.616
 8141TIP3   OH224375   7.235   6.319   3.813
 8141TIP3    H124376   7.245   6.232   3.774
 8141TIP3    H224377   7.277   6.313   3.898
 8142TIP3   OH224378   7.716   6.000   3.673
 8142TIP3    H124379   7.761   5.916   3.680
 8142TIP3    H224380   7.690   6.006   3.581
 8143TIP3   OH224381   7.784   6.219   3.822
 8143TIP3    H124382   7.770   6.145   3.762
 8143TIP3    H224383   7.709   6.277   3.807
 8144TIP3   OH224384   6.521   6.844   2.111
 8144TIP3    H124385   6.615   6.857   2.105
 8144TIP3    H224386   6.506   6.755   2.079
 8145TIP3   OH224387   6.428   7.425   2.564
 8145TIP3    H124388   6.362   7.364   2.533
 8145TIP3    H224389   6.477   7.377   2.631
 8146TIP3   OH224390   6.559   7.299   2.778
 8146TIP3    H124391   6.597   7.228   2.831
 8146TIP3    H224392   6.545   7.370   2.840
 8147TIP3   OH224393   6.758   6.697   3.108
 8147TIP3    H124394   6.745   6.668   3.018
 8147TIP3    H224395   6.853   6.702   3.118
 8148TIP3   OH224396   6.975   6.375   3.749
 8148TIP3    H124397   7.068   6.373   3.769
 8148TIP3    H224398   6.940   6.295   3.790
 8149TIP3   OH224399   6.955   6.096   3.096
 8149TIP3    H124400   7.008   6.016   3.101
 8149TIP3    H224401   7.019   6.166   3.080
 8150TIP3   OH224402   6.728   6.364   3.161
 8150TIP3    H124403   6.780   6.354   3.082
 8150TIP3    H224404   6.748   6.452   3.192
 8151TIP3   OH224405   6.716   5.884   2.666
 8151TIP3    H124406   6.631   5.871   2.708
 8151TIP3    H224407   6.697   5.937   2.589
 8152TIP3   OH224408   6.931   5.926   3.475
 8152TIP3    H124409   6.889   5.934   3.561
 8152TIP3    H224410   6.880   5.985   3.419
 8153TIP3   OH224411   6.941   7.424   3.589
 8153TIP3    H124412   6.853   7.396   3.566
 8153TIP3    H224413   6.945   7.413   3.684
 8154TIP3   OH224414   7.750   6.040   2.771
 8154TIP3    H124415   7.713   6.001   2.851
 8154TIP3    H224416   7.841   6.011   2.770
 8155TIP3   OH224417   7.011   5.772   2.829
 8155TIP3    H124418   6.923   5.749   2.858
 8155TIP3    H224419   7.041   5.696   2.779
 8156TIP3   OH224420   6.860   5.697   2.510
 8156TIP3    H124421   6.876   5.740   2.425
 8156TIP3    H224422   6.814   5.763   2.562
 8157TIP3   OH224423   7.464   5.874   2.730
 8157TIP3    H124424   7.511   5.924   2.663
 8157TIP3    H224425   7.507   5.898   2.812
 8158TIP3   OH224426   6.507   7.246   2.288
 8158TIP3    H124427   6.431   7.231   2.230
 8158TIP3    H224428   6.502   7.339   2.310
 8159TIP3   OH224429   6.948   5.808   2.257
 8159TIP3    H124430   6.994   5.746   2.201
 8159TIP3    H224431   7.017   5.865   2.292
 8160TIP3   OH224432   7.428   5.997   2.357
 8160TIP3    H124433   7.489   5.947   2.410
 8160TIP3    H224434   7.446   6.088   2.380
 8161TIP3   OH224435   7.250   6.053   3.718
 8161TIP3    H124436   7.215   5.988   3.779
 8161TIP3    H224437   7.343   6.058   3.740
 8162TIP3   OH224438   7.498   6.051   3.839
 8162TIP3    H124439   7.574   6.046   3.780
 8162TIP3    H224440   7.510   5.976   3.898
 8163TIP3   OH224441   1.007   7.099   4.528
 8163TIP3    H124442   1.049   7.184   4.530
 8163TIP3    H224443   1.027   7.064   4.441
 8164TIP3   OH224444   1.068   7.295   4.792
 8164TIP3    H124445   1.098   7.295   4.701
 8164TIP3    H224446   1.137   7.341   4.840
 8165TIP3   OH224447   0.653   7.000   4.388
 8165TIP3    H124448   0.692   7.024   4.304
 8165TIP3    H224449   0.653   7.082   4.438
 8166TIP3   OH224450   0.799   7.037   4.702
 8166TIP3    H124451   0.731   7.084   4.654
 8166TIP3    H224452   0.877   7.047   4.647
 8167TIP3   OH224453   0.711   6.619   3.782
 8167TIP3    H124454   0.627   6.641   3.822
 8167TIP3    H224455   0.734   6.698   3.732
 8168TIP3   OH224456   0.839   7.443   5.077
 8168TIP3    H124457   0.776   7.506   5.040
 8168TIP3    H224458   0.824   7.362   5.028
 8169TIP3   OH224459   0.746   7.151   3.664
 8169TIP3    H124460   0.661   7.154   3.620
 8169TIP3    H224461   0.759   7.241   3.695
 8170TIP3   OH224462   0.844   7.213   4.927
 8170TIP3    H124463   0.800   7.145   4.875
 8170TIP3    H224464   0.919   7.240   4.873
 8171TIP3   OH224465   0.510   7.123   3.529
 8171TIP3    H124466   0.463   7.146   3.449
 8171TIP3    H224467   0.491   7.030   3.542
 8172TIP3   OH224468   0.587   7.476   4.046
 8172TIP3    H124469   0.500   7.436   4.040
 8172TIP3    H224470   0.627   7.435   4.122
 8173TIP3   OH224471   3.656   0.243   5.064
 8173TIP3    H124472   3.569   0.238   5.026
 8173TIP3    H224473   3.715   0.216   4.992
 8174TIP3   OH224474   0.493   6.850   3.567
 8174TIP3    H124475   0.588   6.840   3.578
 8174TIP3    H224476   0.460   6.760   3.566
 8175TIP3   OH224477   0.556   7.138   3.882
 8175TIP3    H124478   0.496   7.080   3.928
 8175TIP3    H224479   0.620   7.080   3.841
 8176TIP3   OH224480   0.686   7.230   4.537
 8176TIP3    H124481   0.768   7.281   4.540
 8176TIP3    H224482   0.623   7.284   4.585
 8177TIP3   OH224483   3.214  -0.013   4.687
 8177TIP3    H124484   3.192   0.079   4.672
 8177TIP3    H224485   3.309  -0.014   4.692
 8178TIP3   OH224486   1.292   7.042   5.221
 8178TIP3    H124487   1.355   6.985   5.178
 8178TIP3    H224488   1.245   7.085   5.149
 8179TIP3   OH224489   0.698   6.888   3.952
 8179TIP3    H124490   0.740   6.867   4.035
 8179TIP3    H224491   0.625   6.827   3.945
 8180TIP3   OH224492   1.137   7.137   5.030
 8180TIP3    H124493   1.101   7.226   5.025
 8180TIP3    H224494   1.091   7.090   4.960
 8181TIP3   OH224495   0.766   6.816   3.594
 8181TIP3    H124496   0.801   6.751   3.533
 8181TIP3    H224497   0.838   6.877   3.610
 8182TIP3   OH224498   1.029   6.912   4.904
 8182TIP3    H124499   0.942   6.887   4.874
 8182TIP3    H224500   1.081   6.831   4.898
 8183TIP3   OH224501   0.730   6.737   4.403
 8183TIP3    H124502   0.781   6.764   4.326
 8183TIP3    H224503   0.677   6.813   4.425
 8184TIP3   OH224504   0.850   6.814   4.174
 8184TIP3    H124505   0.915   6.749   4.145
 8184TIP3    H224506   0.895   6.898   4.162
 8185TIP3   OH224507   0.489   6.708   3.925
 8185TIP3    H124508   0.401   6.737   3.899
 8185TIP3    H224509   0.474   6.628   3.975
 8186TIP3   OH224510   0.782   6.816   5.320
 8186TIP3    H124511   0.792   6.845   5.411
 8186TIP3    H224512   0.849   6.864   5.272
 8187TIP3   OH224513   0.870   7.346   3.826
 8187TIP3    H124514   0.895   7.419   3.882
 8187TIP3    H224515   0.847   7.276   3.887
 8188TIP3   OH224516   2.876   7.384   4.007
 8188TIP3    H124517   2.805   7.448   4.008
 8188TIP3    H224518   2.905   7.381   3.916
 8189TIP3   OH224519   4.949   0.078   4.080
 8189TIP3    H124520   4.939  -0.015   4.098
 8189TIP3    H224521   4.870   0.118   4.116
 8190TIP3   OH224522   1.525   7.144   4.057
 8190TIP3    H124523   1.533   7.180   3.969
 8190TIP3    H224524   1.596   7.080   4.064
 8191TIP3   OH224525   2.259   7.281   3.609
 8191TIP3    H124526   2.314   7.291   3.687
 8191TIP3    H224527   2.308   7.323   3.539
 8192TIP3   OH224528   1.243   7.459   4.108
 8192TIP3    H124529   1.289   7.401   4.169
 8192TIP3    H224530   1.152   7.429   4.109
 8193TIP3   OH224531   5.571   0.229   4.121
 8193TIP3    H124532   5.484   0.197   4.144
 8193TIP3    H224533   5.623   0.219   4.200
 8194TIP3   OH224534   1.535   7.187   4.461
 8194TIP3    H124535   1.463   7.213   4.404
 8194TIP3    H224536   1.503   7.205   4.550
 8195TIP3   OH224537   2.398   7.296   3.850
 8195TIP3    H124538   2.358   7.228   3.904
 8195TIP3    H224539   2.449   7.348   3.912
 8196TIP3   OH224540   1.390   7.277   4.245
 8196TIP3    H124541   1.455   7.345   4.263
 8196TIP3    H224542   1.429   7.222   4.178
 8197TIP3   OH224543   2.564   7.251   4.190
 8197TIP3    H124544   2.469   7.258   4.179
 8197TIP3    H224545   2.599   7.319   4.132
 8198TIP3   OH224546   1.856   6.900   4.165
 8198TIP3    H124547   1.855   6.811   4.199
 8198TIP3    H224548   1.784   6.944   4.212
 8199TIP3   OH224549   1.824   7.445   3.176
 8199TIP3    H124550   1.779   7.497   3.242
 8199TIP3    H224551   1.761   7.378   3.150
 8200TIP3   OH224552   2.497   6.858   3.268
 8200TIP3    H124553   2.418   6.877   3.319
 8200TIP3    H224554   2.511   6.937   3.216
 8201TIP3   OH224555   5.301   0.264   4.513
 8201TIP3    H124556   5.222   0.311   4.538
 8201TIP3    H224557   5.313   0.198   4.581
 8202TIP3   OH224558   1.632   6.994   4.293
 8202TIP3    H124559   1.546   6.962   4.265
 8202TIP3    H224560   1.613   7.074   4.342
 8203TIP3   OH224561   2.159   7.108   4.506
 8203TIP3    H124562   2.233   7.091   4.564
 8203TIP3    H224563   2.083   7.077   4.554
 8204TIP3   OH224564   5.020   0.054   4.407
 8204TIP3    H124565   4.992   0.034   4.496
 8204TIP3    H224566   5.006   0.148   4.397
 8205TIP3   OH224567   1.770   7.028   3.260
 8205TIP3    H124568   1.749   7.021   3.353
 8205TIP3    H224569   1.737   6.947   3.222
 8206TIP3   OH224570   4.187   0.030   4.317
 8206TIP3    H124571   4.148   0.034   4.405
 8206TIP3    H224572   4.194   0.122   4.290
 8207TIP3   OH224573   1.374   7.473   3.680
 8207TIP3    H124574   1.296   7.450   3.731
 8207TIP3    H224575   1.437   7.404   3.702
 8208TIP3   OH224576   1.945   7.410   3.583
 8208TIP3    H124577   1.900   7.487   3.549
 8208TIP3    H224578   2.013   7.391   3.518
 8209TIP3   OH224579   4.802   0.223   4.648
 8209TIP3    H124580   4.747   0.155   4.687
 8209TIP3    H224581   4.868   0.241   4.715
 8210TIP3   OH224582   2.114   7.452   3.804
 8210TIP3    H124583   2.035   7.423   3.759
 8210TIP3    H224584   2.144   7.374   3.851
 8211TIP3   OH224585   4.065   0.086   4.556
 8211TIP3    H124586   4.014   0.166   4.573
 8211TIP3    H224587   3.999   0.017   4.552
 8212TIP3   OH224588   1.435   7.003   3.257
 8212TIP3    H124589   1.430   7.003   3.352
 8212TIP3    H224590   1.349   7.036   3.228
 8213TIP3   OH224591   1.009   7.017   4.119
 8213TIP3    H124592   1.070   7.051   4.185
 8213TIP3    H224593   1.052   7.036   4.036
 8214TIP3   OH224594   0.964   7.013   3.603
 8214TIP3    H124595   0.987   7.049   3.517
 8214TIP3    H224596   0.895   7.070   3.636
 8215TIP3   OH224597   1.837   7.160   3.895
 8215TIP3    H124598   1.754   7.192   3.862
 8215TIP3    H224599   1.870   7.230   3.952
 8216TIP3   OH224600   1.141   7.123   3.902
 8216TIP3    H124601   1.153   7.206   3.856
 8216TIP3    H224602   1.201   7.062   3.858
 8217TIP3   OH224603   1.449   7.249   3.464
 8217TIP3    H124604   1.544   7.246   3.449
 8217TIP3    H224605   1.440   7.238   3.558
 8218TIP3   OH224606   2.279   7.258   4.135
 8218TIP3    H124607   2.237   7.291   4.215
 8218TIP3    H224608   2.221   7.189   4.104
 8219TIP3   OH224609   1.195   7.255   3.367
 8219TIP3    H124610   1.205   7.217   3.280
 8219TIP3    H224611   1.282   7.252   3.405
 8220TIP3   OH224612   1.910   7.377   4.044
 8220TIP3    H124613   1.877   7.446   3.987
 8220TIP3    H224614   1.867   7.393   4.128
 8221TIP3   OH224615   1.362   6.981   3.798
 8221TIP3    H124616   1.356   6.925   3.876
 8221TIP3    H224617   1.428   7.046   3.822
 8222TIP3   OH224618   4.456  -0.002   4.292
 8222TIP3    H124619   4.363   0.017   4.304
 8222TIP3    H224620   4.501   0.061   4.350
 8223TIP3   OH224621   2.038   7.084   3.285
 8223TIP3    H124622   1.943   7.074   3.286
 8223TIP3    H224623   2.053   7.179   3.290
 8224TIP3   OH224624   2.098   7.343   3.333
 8224TIP3    H124625   2.193   7.353   3.339
 8224TIP3    H224626   2.066   7.431   3.313
 8225TIP3   OH224627   5.212  -0.011   3.168
 8225TIP3    H124628   5.137  -0.035   3.115
 8225TIP3    H224629   5.196   0.080   3.193
 8226TIP3   OH224630   1.427   7.245   4.701
 8226TIP3    H124631   1.339   7.272   4.675
 8226TIP3    H224632   1.413   7.184   4.773
 8227TIP3   OH224633   2.164   7.344   4.368
 8227TIP3    H124634   2.249   7.381   4.391
 8227TIP3    H224635   2.158   7.264   4.419
 8228TIP3   OH224636   2.093   7.074   3.556
 8228TIP3    H124637   2.071   7.086   3.463
 8228TIP3    H224638   2.142   7.153   3.579
 8229TIP3   OH224639   1.722   7.267   3.519
 8229TIP3    H124640   1.807   7.308   3.536
 8229TIP3    H224641   1.677   7.271   3.603
 8230TIP3   OH224642   4.657   0.126   4.434
 8230TIP3    H124643   4.705   0.172   4.502
 8230TIP3    H224644   4.704   0.043   4.423
 8231TIP3   OH224645   1.902   6.969   3.718
 8231TIP3    H124646   1.886   7.041   3.780
 8231TIP3    H224647   1.972   7.002   3.661
 8232TIP3   OH224648   1.425   6.953   3.530
 8232TIP3    H124649   1.396   6.966   3.621
 8232TIP3    H224650   1.521   6.955   3.536
 8233TIP3   OH224651   2.640   7.409   4.458
 8233TIP3    H124652   2.545   7.418   4.452
 8233TIP3    H224653   2.674   7.454   4.381
 8234TIP3   OH224654   4.994   0.150   3.820
 8234TIP3    H124655   4.916   0.099   3.795
 8234TIP3    H224656   4.991   0.151   3.916
 8235TIP3   OH224657   0.938   7.164   3.369
 8235TIP3    H124658   1.026   7.202   3.375
 8235TIP3    H224659   0.879   7.239   3.374
 8236TIP3   OH224660   1.375   6.907   4.259
 8236TIP3    H124661   1.344   6.881   4.173
 8236TIP3    H224662   1.356   6.831   4.315
 8237TIP3   OH224663   1.804   7.421   4.701
 8237TIP3    H124664   1.800   7.344   4.644
 8237TIP3    H224665   1.777   7.494   4.645
 8238TIP3   OH224666   1.798   7.251   4.485
 8238TIP3    H124667   1.822   7.305   4.410
 8238TIP3    H224668   1.704   7.233   4.472
 8239TIP3   OH224669   5.097   0.407   4.722
 8239TIP3    H124670   5.071   0.331   4.775
 8239TIP3    H224671   5.049   0.480   4.760
 8240TIP3   OH224672   4.304   0.095   4.908
 8240TIP3    H124673   4.232   0.041   4.941
 8240TIP3    H224674   4.334   0.049   4.830
 8241TIP3   OH224675   1.906   7.029   4.592
 8241TIP3    H124676   1.873   7.109   4.551
 8241TIP3    H224677   1.838   6.963   4.574
 8242TIP3   OH224678   2.062   7.454   4.779
 8242TIP3    H124679   2.071   7.388   4.848
 8242TIP3    H224680   1.972   7.444   4.749
 8243TIP3   OH224681   2.305   7.404   4.643
 8243TIP3    H124682   2.223   7.419   4.691
 8243TIP3    H224683   2.373   7.406   4.710
 8244TIP3   OH224684   2.515   7.421   4.829
 8244TIP3    H124685   2.532   7.327   4.818
 8244TIP3    H224686   2.527   7.436   4.922
 8245TIP3   OH224687   1.510   7.340   5.008
 8245TIP3    H124688   1.511   7.254   4.964
 8245TIP3    H224689   1.548   7.322   5.094
 8246TIP3   OH224690   1.969   7.042   4.855
 8246TIP3    H124691   2.040   6.979   4.852
 8246TIP3    H224692   1.934   7.045   4.766
 8247TIP3   OH224693   2.072   7.260   4.984
 8247TIP3    H124694   2.037   7.183   4.941
 8247TIP3    H224695   1.995   7.312   5.007
 8248TIP3   OH224696   2.371   7.395   3.013
 8248TIP3    H124697   2.336   7.446   2.940
 8248TIP3    H224698   2.319   7.314   3.013
 8249TIP3   OH224699   5.034   0.292   3.558
 8249TIP3    H124700   4.952   0.243   3.561
 8249TIP3    H224701   5.058   0.304   3.650
 8250TIP3   OH224702   5.474   0.474   4.548
 8250TIP3    H124703   5.397   0.428   4.515
 8250TIP3    H224704   5.529   0.487   4.471
 8251TIP3   OH224705   2.296   7.130   3.002
 8251TIP3    H124706   2.367   7.091   3.052
 8251TIP3    H224707   2.223   7.070   3.013
 8252TIP3   OH224708   2.374   7.359   3.366
 8252TIP3    H124709   2.417   7.274   3.370
 8252TIP3    H224710   2.446   7.422   3.376
 8253TIP3   OH224711   5.209   0.021   4.007
 8253TIP3    H124712   5.259   0.094   3.972
 8253TIP3    H224713   5.134   0.062   4.050
 8254TIP3   OH224714   5.164   0.288   4.135
 8254TIP3    H124715   5.075   0.319   4.153
 8254TIP3    H224716   5.221   0.356   4.170
 8255TIP3   OH224717   1.275   7.435   4.911
 8255TIP3    H124718   1.363   7.401   4.929
 8255TIP3    H224719   1.227   7.422   4.993
 8256TIP3   OH224720   3.059   7.325   4.682
 8256TIP3    H124721   3.122   7.261   4.649
 8256TIP3    H224722   3.028   7.370   4.604
 8257TIP3   OH224723   2.507   7.125   3.441
 8257TIP3    H124724   2.546   7.117   3.528
 8257TIP3    H224725   2.439   7.058   3.440
 8258TIP3   OH224726   1.181   7.094   4.313
 8258TIP3    H124727   1.258   7.039   4.298
 8258TIP3    H224728   1.216   7.181   4.328
 8259TIP3   OH224729   0.904   7.389   4.360
 8259TIP3    H124730   0.936   7.417   4.275
 8259TIP3    H224731   0.983   7.371   4.412
 8260TIP3   OH224732   2.917   7.434   4.479
 8260TIP3    H124733   2.834   7.464   4.517
 8260TIP3    H224734   2.893   7.357   4.428
 8261TIP3   OH224735   2.551   7.056   3.085
 8261TIP3    H124736   2.584   6.993   3.021
 8261TIP3    H224737   2.619   7.124   3.089
 8262TIP3   OH224738   0.959   6.857   3.833
 8262TIP3    H124739   0.876   6.876   3.877
 8262TIP3    H224740   0.976   6.934   3.780
 8263TIP3   OH224741   1.195   6.964   4.681
 8263TIP3    H124742   1.141   6.958   4.759
 8263TIP3    H224743   1.141   7.010   4.617
 8264TIP3   OH224744   2.824   7.190   4.379
 8264TIP3    H124745   2.733   7.203   4.351
 8264TIP3    H224746   2.837   7.095   4.375
 8265TIP3   OH224747   2.081   7.078   4.074
 8265TIP3    H124748   1.988   7.055   4.072
 8265TIP3    H224749   2.116   7.048   3.990
 8266TIP3   OH224750   2.544   7.018   3.916
 8266TIP3    H124751   2.579   7.068   3.843
 8266TIP3    H224752   2.449   7.027   3.909
 8267TIP3   OH224753   2.651   7.093   3.677
 8267TIP3    H124754   2.719   7.032   3.651
 8267TIP3    H224755   2.687   7.180   3.660
 8268TIP3   OH224756   1.285   6.806   4.019
 8268TIP3    H124757   1.193   6.782   4.026
 8268TIP3    H224758   1.332   6.723   4.013
 8269TIP3   OH224759   1.082   6.684   3.657
 8269TIP3    H124760   1.115   6.740   3.587
 8269TIP3    H224761   1.044   6.745   3.720
 8270TIP3   OH224762   1.730   6.862   3.921
 8270TIP3    H124763   1.779   6.905   3.851
 8270TIP3    H224764   1.779   6.882   4.001
 8271TIP3   OH224765   2.270   7.016   3.870
 8271TIP3    H124766   2.257   6.984   3.780
 8271TIP3    H224767   2.263   6.937   3.924
 8272TIP3   OH224768   2.310   6.933   3.455
 8272TIP3    H124769   2.232   6.981   3.482
 8272TIP3    H224770   2.301   6.847   3.495
 8273TIP3   OH224771   1.209   6.813   3.440
 8273TIP3    H124772   1.255   6.754   3.381
 8273TIP3    H224773   1.279   6.865   3.480
 8274TIP3   OH224774   1.701   6.995   3.523
 8274TIP3    H124775   1.755   6.959   3.592
 8274TIP3    H224776   1.706   7.090   3.535
 8275TIP3   OH224777   1.506   7.070   4.915
 8275TIP3    H124778   1.471   7.003   4.974
 8275TIP3    H224779   1.598   7.077   4.939
 8276TIP3   OH224780   1.757   7.084   5.031
 8276TIP3    H124781   1.831   7.069   4.972
 8276TIP3    H224782   1.759   7.009   5.091
 8277TIP3   OH224783   2.577   7.158   4.809
 8277TIP3    H124784   2.595   7.135   4.900
 8277TIP3    H224785   2.663   7.161   4.767
 8278TIP3   OH224786   5.437   0.111   3.299
 8278TIP3    H124787   5.425   0.201   3.329
 8278TIP3    H224788   5.358   0.065   3.328
 8279TIP3   OH224789   7.276   0.124   3.439
 8279TIP3    H124790   7.277   0.209   3.484
 8279TIP3    H224791   7.318   0.141   3.355
 8280TIP3   OH224792   6.733   0.344   3.533
 8280TIP3    H124793   6.720   0.250   3.542
 8280TIP3    H224794   6.675   0.383   3.599
 8281TIP3   OH224795   3.355   7.432   3.476
 8281TIP3    H124796   3.327   7.503   3.419
 8281TIP3    H224797   3.310   7.355   3.444
 8282TIP3   OH224798   5.695   0.292   3.637
 8282TIP3    H124799   5.746   0.212   3.652
 8282TIP3    H224800   5.605   0.262   3.624
 8283TIP3   OH224801   7.336   0.342   3.597
 8283TIP3    H124802   7.296   0.409   3.653
 8283TIP3    H224803   7.366   0.275   3.658
 8284TIP3   OH224804   3.321   7.422   3.938
 8284TIP3    H124805   3.256   7.445   3.872
 8284TIP3    H224806   3.275   7.429   4.022
 8285TIP3   OH224807   6.864   0.130   3.335
 8285TIP3    H124808   6.788   0.101   3.387
 8285TIP3    H224809   6.916   0.182   3.397
 8286TIP3   OH224810   5.848   0.071   3.697
 8286TIP3    H124811   5.910   0.134   3.734
 8286TIP3    H224812   5.896   0.030   3.625
 8287TIP3   OH224813   6.982   0.058   3.652
 8287TIP3    H124814   6.890   0.075   3.634
 8287TIP3    H224815   7.029   0.123   3.599
 8288TIP3   OH224816   3.666   7.160   3.650
 8288TIP3    H124817   3.664   7.068   3.677
 8288TIP3    H224818   3.588   7.198   3.689
 8289TIP3   OH224819   6.250   0.252   2.726
 8289TIP3    H124820   6.193   0.326   2.705
 8289TIP3    H224821   6.225   0.184   2.663
 8290TIP3   OH224822   4.297   7.130   2.766
 8290TIP3    H124823   4.220   7.152   2.818
 8290TIP3    H224824   4.311   7.206   2.710
 8291TIP3   OH224825   7.037   0.526   4.009
 8291TIP3    H124826   7.002   0.599   3.958
 8291TIP3    H224827   6.994   0.532   4.094
 8292TIP3   OH224828   3.431   7.237   3.770
 8292TIP3    H124829   3.347   7.204   3.737
 8292TIP3    H224830   3.408   7.312   3.825
 8293TIP3   OH224831   3.938   7.374   3.999
 8293TIP3    H124832   4.002   7.351   4.067
 8293TIP3    H224833   3.853   7.351   4.037
 8294TIP3   OH224834   6.832   0.311   3.894
 8294TIP3    H124835   6.805   0.282   3.981
 8294TIP3    H224836   6.817   0.406   3.895
 8295TIP3   OH224837   3.595   7.258   2.769
 8295TIP3    H124838   3.555   7.272   2.854
 8295TIP3    H224839   3.549   7.182   2.732
 8296TIP3   OH224840   5.983   0.261   3.829
 8296TIP3    H124841   5.939   0.254   3.913
 8296TIP3    H224842   5.981   0.355   3.808
 8297TIP3   OH224843   5.919   0.184   3.306
 8297TIP3    H124844   5.829   0.218   3.312
 8297TIP3    H224845   5.919   0.130   3.226
 8298TIP3   OH224846   6.375   0.195   2.964
 8298TIP3    H124847   6.333   0.268   3.010
 8298TIP3    H224848   6.338   0.198   2.876
 8299TIP3   OH224849   6.595   0.464   4.139
 8299TIP3    H124850   6.533   0.406   4.183
 8299TIP3    H224851   6.670   0.470   4.198
 8300TIP3   OH224852   5.849   0.271   4.064
 8300TIP3    H124853   5.761   0.308   4.063
 8300TIP3    H224854   5.839   0.186   4.108
 8301TIP3   OH224855   3.250   7.272   2.745
 8301TIP3    H124856   3.230   7.273   2.838
 8301TIP3    H224857   3.167   7.296   2.703
 8302TIP3   OH224858   2.782   7.309   3.588
 8302TIP3    H124859   2.865   7.328   3.632
 8302TIP3    H224860   2.808   7.272   3.504
 8303TIP3   OH224861   2.750   7.250   3.087
 8303TIP3    H124862   2.792   7.287   3.009
 8303TIP3    H224863   2.694   7.321   3.119
 8304TIP3   OH224864   6.241   0.068   3.394
 8304TIP3    H124865   6.159   0.040   3.434
 8304TIP3    H224866   6.304  -0.000   3.417
 8305TIP3   OH224867   3.007   7.461   3.455
 8305TIP3    H124868   2.949   7.487   3.383
 8305TIP3    H224869   3.066   7.396   3.417
 8306TIP3   OH224870   5.861   0.058   3.067
 8306TIP3    H124871   5.927   0.108   3.018
 8306TIP3    H224872   5.784   0.058   3.011
 8307TIP3   OH224873   6.687   0.076   3.575
 8307TIP3    H124874   6.660   0.091   3.665
 8307TIP3    H224875   6.608   0.045   3.531
 8308TIP3   OH224876   5.678   0.033   2.865
 8308TIP3    H124877   5.587   0.017   2.889
 8308TIP3    H224878   5.683   0.013   2.772
 8309TIP3   OH224879   6.413   0.214   3.553
 8309TIP3    H124880   6.364   0.173   3.482
 8309TIP3    H224881   6.352   0.216   3.626
 8310TIP3   OH224882   3.176   7.263   3.349
 8310TIP3    H124883   3.139   7.190   3.398
 8310TIP3    H224884   3.188   7.227   3.260
 8311TIP3   OH224885   6.250   0.254   3.763
 8311TIP3    H124886   6.157   0.270   3.778
 8311TIP3    H224887   6.294   0.310   3.827
 8312TIP3   OH224888   3.839   7.369   2.792
 8312TIP3    H124889   3.749   7.338   2.787
 8312TIP3    H224890   3.839   7.451   2.743
 8313TIP3   OH224891   6.682   0.158   2.853
 8313TIP3    H124892   6.766   0.110   2.855
 8313TIP3    H224893   6.699   0.233   2.796
 8314TIP3   OH224894   6.992   0.331   2.599
 8314TIP3    H124895   6.954   0.275   2.531
 8314TIP3    H224896   7.082   0.346   2.569
 8315TIP3   OH224897   5.811   0.015   4.165
 8315TIP3    H124898   5.718  -0.007   4.160
 8315TIP3    H224899   5.840  -0.022   4.249
 8316TIP3   OH224900   6.615   0.143   3.834
 8316TIP3    H124901   6.697   0.187   3.858
 8316TIP3    H224902   6.608   0.071   3.896
 8317TIP3   OH224903   3.924   7.425   3.046
 8317TIP3    H124904   3.897   7.398   2.958
 8317TIP3    H224905   3.999   7.368   3.066
 8318TIP3   OH224906   6.170   0.083   3.127
 8318TIP3    H124907   6.248   0.120   3.085
 8318TIP3    H224908   6.191   0.082   3.221
 8319TIP3   OH224909   6.442   0.348   3.937
 8319TIP3    H124910   6.492   0.398   4.002
 8319TIP3    H224911   6.497   0.273   3.917
 8320TIP3   OH224912   3.726   7.263   3.198
 8320TIP3    H124913   3.755   7.286   3.286
 8320TIP3    H224914   3.778   7.318   3.140
 8321TIP3   OH224915   3.229   7.234   3.026
 8321TIP3    H124916   3.218   7.326   3.052
 8321TIP3    H224917   3.324   7.220   3.027
 8322TIP3   OH224918   7.107   0.248   3.870
 8322TIP3    H124919   7.011   0.247   3.863
 8322TIP3    H224920   7.132   0.157   3.857
 8323TIP3   OH224921   6.747   0.471   3.295
 8323TIP3    H124922   6.735   0.430   3.380
 8323TIP3    H224923   6.832   0.438   3.264
 8324TIP3   OH224924   5.413  -0.014   2.879
 8324TIP3    H124925   5.368   0.059   2.922
 8324TIP3    H224926   5.356  -0.038   2.806
 8325TIP3   OH224927   3.169   7.156   3.736
 8325TIP3    H124928   3.138   7.123   3.651
 8325TIP3    H224929   3.159   7.082   3.795
 8326TIP3   OH224930   6.205   0.269   4.176
 8326TIP3    H124931   6.205   0.195   4.115
 8326TIP3    H224932   6.164   0.340   4.128
 8327TIP3   OH224933   6.205   0.079   3.975
 8327TIP3    H124934   6.233   0.122   3.894
 8327TIP3    H224935   6.115   0.050   3.958
 8328TIP3   OH224936   6.882   0.659   4.211
 8328TIP3    H124937   6.857   0.583   4.263
 8328TIP3    H224938   6.862   0.734   4.267
 8329TIP3   OH224939   6.099   0.359   4.416
 8329TIP3    H124940   6.021   0.310   4.443
 8329TIP3    H224941   6.121   0.323   4.330
 8330TIP3   OH224942   3.686   7.306   4.084
 8330TIP3    H124943   3.646   7.385   4.048
 8330TIP3    H224944   3.623   7.236   4.065
 8331TIP3   OH224945   6.457   0.279   4.278
 8331TIP3    H124946   6.436   0.245   4.365
 8331TIP3    H224947   6.375   0.272   4.229
 8332TIP3   OH224948   6.729   0.199   4.123
 8332TIP3    H124949   6.651   0.209   4.178
 8332TIP3    H224950   6.800   0.185   4.185
 8333TIP3   OH224951   6.943   0.198   4.305
 8333TIP3    H124952   7.004   0.139   4.261
 8333TIP3    H224953   6.963   0.188   4.398
 8334TIP3   OH224954   5.920   0.163   4.489
 8334TIP3    H124955   5.914   0.075   4.451
 8334TIP3    H224956   5.956   0.149   4.576
 8335TIP3   OH224957   3.777   7.294   4.340
 8335TIP3    H124958   3.853   7.239   4.324
 8335TIP3    H224959   3.733   7.300   4.255
 8336TIP3   OH224960   6.506   0.053   4.490
 8336TIP3    H124961   6.473  -0.016   4.432
 8336TIP3    H224962   6.431   0.110   4.504
 8337TIP3   OH224963   6.888   0.161   2.420
 8337TIP3    H124964   6.862   0.196   2.335
 8337TIP3    H224965   6.828   0.088   2.435
 8338TIP3   OH224966   7.272   0.728   3.984
 8338TIP3    H124967   7.178   0.744   3.973
 8338TIP3    H224968   7.312   0.768   3.907
 8339TIP3   OH224969   4.084   7.401   2.488
 8339TIP3    H124970   4.164   7.363   2.527
 8339TIP3    H224971   4.021   7.330   2.490
 8340TIP3   OH224972   7.018   0.296   3.497
 8340TIP3    H124973   7.082   0.351   3.450
 8340TIP3    H224974   6.962   0.358   3.543
 8341TIP3   OH224975   6.948   0.542   3.624
 8341TIP3    H124976   6.857   0.562   3.646
 8341TIP3    H224977   6.966   0.593   3.546
 8342TIP3   OH224978   5.679   0.207   4.365
 8342TIP3    H124979   5.758   0.210   4.419
 8342TIP3    H224980   5.625   0.139   4.405
 8343TIP3   OH224981   4.267   7.415   2.932
 8343TIP3    H124982   4.316   7.410   3.014
 8343TIP3    H224983   4.208   7.339   2.935
 8344TIP3   OH224984   2.995   7.364   3.759
 8344TIP3    H124985   3.048   7.285   3.761
 8344TIP3    H224986   3.053   7.432   3.725
 8345TIP3   OH224987   5.381   0.213   3.906
 8345TIP3    H124988   5.406   0.206   3.814
 8345TIP3    H224989   5.454   0.258   3.948
 8346TIP3   OH224990   7.417   0.184   4.038
 8346TIP3    H124991   7.347   0.151   4.095
 8346TIP3    H224992   7.401   0.143   3.954
 8347TIP3   OH224993   4.339   7.325   2.577
 8347TIP3    H124994   4.376   7.264   2.514
 8347TIP3    H224995   4.402   7.397   2.580
 8348TIP3   OH224996   2.772   7.169   3.346
 8348TIP3    H124997   2.682   7.149   3.369
 8348TIP3    H224998   2.766   7.209   3.259
 8349TIP3   OH224999   2.999   7.204   4.164
 8349TIP3    H125000   2.942   7.197   4.241
 8349TIP3    H225001   2.952   7.261   4.103
 8350TIP3   OH225002   4.625   7.443   3.879
 8350TIP3    H125003   4.588   7.449   3.967
 8350TIP3    H225004   4.652   7.351   3.870
 8351TIP3   OH225005   3.797   7.324   3.457
 8351TIP3    H125006   3.773   7.266   3.530
 8351TIP3    H225007   3.885   7.296   3.433
 8352TIP3   OH225008   4.349   7.283   3.383
 8352TIP3    H125009   4.387   7.334   3.312
 8352TIP3    H225010   4.287   7.343   3.425
 8353TIP3   OH225011   4.443   7.379   3.144
 8353TIP3    H125012   4.515   7.320   3.121
 8353TIP3    H225013   4.481   7.466   3.139
 8354TIP3   OH225014   3.072   7.058   3.498
 8354TIP3    H125015   2.982   7.029   3.509
 8354TIP3    H225016   3.123   6.977   3.493
 8355TIP3   OH225017   2.902   6.977   3.176
 8355TIP3    H125018   2.922   7.025   3.096
 8355TIP3    H225019   2.864   7.043   3.235
 8356TIP3   OH225020   3.542   7.122   3.392
 8356TIP3    H125021   3.588   7.175   3.328
 8356TIP3    H225022   3.585   7.142   3.475
 8357TIP3   OH225023   4.038   7.241   3.355
 8357TIP3    H125024   4.103   7.214   3.289
 8357TIP3    H225025   4.046   7.175   3.424
 8358TIP3   OH225026   4.087   7.200   2.940
 8358TIP3    H125027   4.009   7.183   2.887
 8358TIP3    H225028   4.093   7.124   2.999
 8359TIP3   OH225029   3.015   7.084   2.934
 8359TIP3    H125030   3.057   7.015   2.883
 8359TIP3    H225031   3.088   7.132   2.975
 8360TIP3   OH225032   3.499   7.285   3.024
 8360TIP3    H125033   3.564   7.246   3.082
 8360TIP3    H225034   3.493   7.377   3.053
 8361TIP3   OH225035   3.295   7.342   4.396
 8361TIP3    H125036   3.258   7.275   4.453
 8361TIP3    H225037   3.386   7.349   4.423
 8362TIP3   OH225038   3.544   7.348   4.523
 8362TIP3    H125039   3.620   7.316   4.475
 8362TIP3    H225040   3.532   7.285   4.594
 8363TIP3   OH225041   7.180   0.435   2.789
 8363TIP3    H125042   7.170   0.527   2.812
 8363TIP3    H225043   7.095   0.395   2.811
 8364TIP3   OH225044   0.543   0.635   2.953
 8364TIP3    H125045   0.551   0.571   3.023
 8364TIP3    H225046   0.465   0.607   2.905
 8365TIP3   OH225047   7.762   0.287   2.966
 8365TIP3    H125048   7.742   0.362   2.910
 8365TIP3    H225049   7.705   0.217   2.933
 8366TIP3   OH225050   0.535   0.383   2.617
 8366TIP3    H125051   0.604   0.367   2.680
 8366TIP3    H225052   0.580   0.421   2.541
 8367TIP3   OH225053   7.369   0.487   3.122
 8367TIP3    H125054   7.461   0.483   3.147
 8367TIP3    H225055   7.365   0.445   3.036
 8368TIP3   OH225056   7.752   0.271   3.386
 8368TIP3    H125057   7.702   0.318   3.319
 8368TIP3    H225058   7.706   0.289   3.468
 8369TIP3   OH225059   0.723   0.391   2.825
 8369TIP3    H125060   0.664   0.392   2.901
 8369TIP3    H225061   0.740   0.484   2.808
 8370TIP3   OH225062   7.632   0.407   3.179
 8370TIP3    H125063   7.683   0.485   3.200
 8370TIP3    H225064   7.680   0.367   3.106
 8371TIP3   OH225065   0.829   0.301   3.117
 8371TIP3    H125066   0.738   0.325   3.100
 8371TIP3    H225067   0.879   0.342   3.047
 8372TIP3   OH225068   5.460   7.423   3.138
 8372TIP3    H125069   5.454   7.331   3.164
 8372TIP3    H225070   5.381   7.463   3.176
 8373TIP3   OH225071   0.130   0.473   2.171
 8373TIP3    H125072   0.039   0.499   2.156
 8373TIP3    H225073   0.162   0.448   2.084
 8374TIP3   OH225074   6.087   7.396   2.247
 8374TIP3    H125075   6.009   7.411   2.300
 8374TIP3    H225076   6.091   7.473   2.189
 8375TIP3   OH225077   7.855   0.053   3.257
 8375TIP3    H125078   7.771   0.020   3.226
 8375TIP3    H225079   7.835   0.139   3.294
 8376TIP3   OH225080   0.486   0.200   3.465
 8376TIP3    H125081   0.557   0.170   3.522
 8376TIP3    H225082   0.406   0.179   3.514
 8377TIP3   OH225083   0.701   0.624   3.365
 8377TIP3    H125084   0.664   0.604   3.451
 8377TIP3    H225085   0.697   0.720   3.360
 8378TIP3   OH225086   0.100   0.090   2.248
 8378TIP3    H125087   0.065   0.100   2.336
 8378TIP3    H225088   0.060   0.010   2.215
 8379TIP3   OH225089   7.780   0.619   3.274
 8379TIP3    H125090   7.740   0.621   3.361
 8379TIP3    H225091   7.782   0.710   3.246
 8380TIP3   OH225092   7.649   0.472   2.804
 8380TIP3    H125093   7.561   0.449   2.833
 8380TIP3    H225094   7.654   0.440   2.714
 8381TIP3   OH225095   0.250   0.544   2.525
 8381TIP3    H125096   0.216   0.603   2.458
 8381TIP3    H225097   0.337   0.518   2.494
 8382TIP3   OH225098   0.373   0.826   3.553
 8382TIP3    H125099   0.417   0.799   3.633
 8382TIP3    H225100   0.432   0.890   3.513
 8383TIP3   OH225101   0.356   0.516   2.786
 8383TIP3    H125102   0.299   0.549   2.716
 8383TIP3    H225103   0.419   0.461   2.741
 8384TIP3   OH225104   7.656   0.605   3.519
 8384TIP3    H125105   7.652   0.657   3.598
 8384TIP3    H225106   7.658   0.514   3.550
 8385TIP3   OH225107   7.659   0.085   2.214
 8385TIP3    H125108   7.651   0.098   2.309
 8385TIP3    H225109   7.582   0.129   2.178
 8386TIP3   OH225110   7.203   0.163   3.083
 8386TIP3    H125111   7.286   0.189   3.125
 8386TIP3    H225112   7.229   0.128   2.998
 8387TIP3   OH225113   7.150   0.095   2.593
 8387TIP3    H125114   7.202   0.136   2.523
 8387TIP3    H225115   7.083   0.160   2.615
 8388TIP3   OH225116   0.127   0.264   2.851
 8388TIP3    H125117   0.051   0.274   2.908
 8388TIP3    H225118   0.202   0.269   2.911
 8389TIP3   OH225119   7.419   0.345   2.888
 8389TIP3    H125120   7.339   0.356   2.836
 8389TIP3    H225121   7.453   0.259   2.862
 8390TIP3   OH225122   7.676   0.348   2.557
 8390TIP3    H125123   7.770   0.365   2.556
 8390TIP3    H225124   7.647   0.373   2.470
 8391TIP3   OH225125   0.564   0.367   3.056
 8391TIP3    H125126   0.539   0.391   3.146
 8391TIP3    H225127   0.493   0.310   3.026
 8392TIP3   OH225128   7.522   0.352   2.322
 8392TIP3    H125129   7.438   0.337   2.366
 8392TIP3    H225130   7.507   0.326   2.231
 8393TIP3   OH225131   0.167   0.612   2.971
 8393TIP3    H125132   0.234   0.571   2.917
 8393TIP3    H225133   0.163   0.557   3.049
 8394TIP3   OH225134   7.570   0.108   2.848
 8394TIP3    H125135   7.541   0.032   2.898
 8394TIP3    H225136   7.610   0.072   2.769
 8395TIP3   OH225137   0.125   0.495   3.222
 8395TIP3    H125138   0.041   0.539   3.231
 8395TIP3    H225139   0.186   0.549   3.274
 8396TIP3   OH225140   0.315   0.253   2.247
 8396TIP3    H125141   0.238   0.197   2.246
 8396TIP3    H225142   0.283   0.339   2.223
 8397TIP3   OH225143   7.638   0.343   3.622
 8397TIP3    H125144   7.546   0.360   3.642
 8397TIP3    H225145   7.668   0.287   3.694
 8398TIP3   OH225146   0.500   0.432   3.312
 8398TIP3    H125147   0.573   0.485   3.343
 8398TIP3    H225148   0.498   0.357   3.372
 8399TIP3   OH225149   0.404   0.169   2.499
 8399TIP3    H125150   0.379   0.201   2.413
 8399TIP3    H225151   0.447   0.243   2.541
 8400TIP3   OH225152   0.053   0.362   2.601
 8400TIP3    H125153   0.118   0.427   2.574
 8400TIP3    H225154   0.075   0.343   2.692
 8401TIP3   OH225155   0.289   0.613   3.405
 8401TIP3    H125156   0.324   0.690   3.449
 8401TIP3    H225157   0.367   0.562   3.380
 8402TIP3   OH225158   0.226   0.061   2.686
 8402TIP3    H125159   0.204   0.137   2.740
 8402TIP3    H225160   0.294   0.093   2.626
 8403TIP3   OH225161   7.637   0.080   2.496
 8403TIP3    H125162   7.630   0.171   2.526
 8403TIP3    H225163   7.730   0.060   2.501
 8404TIP3   OH225164   0.938   0.550   3.240
 8404TIP3    H125165   0.852   0.575   3.274
 8404TIP3    H225166   0.937   0.454   3.240
 8405TIP3   OH225167   0.707   0.714   2.754
 8405TIP3    H125168   0.646   0.694   2.825
 8405TIP3    H225169   0.718   0.809   2.759
 8406TIP3   OH225170   7.197   0.303   2.387
 8406TIP3    H125171   7.195   0.392   2.351
 8406TIP3    H225172   7.166   0.248   2.315
 8407TIP3   OH225173   4.958   7.424   3.224
 8407TIP3    H125174   4.926   7.391   3.140
 8407TIP3    H225175   4.947   7.352   3.285
 8408TIP3   OH225176   0.092   0.578   3.616
 8408TIP3    H125177   0.085   0.492   3.576
 8408TIP3    H225178   0.137   0.631   3.551
 8409TIP3   OH225179   0.101   0.348   3.458
 8409TIP3    H125180   0.136   0.388   3.378
 8409TIP3    H225181   0.013   0.319   3.434
 8410TIP3   OH225182   0.784   0.841   3.669
 8410TIP3    H125183   0.850   0.773   3.682
 8410TIP3    H225184   0.815   0.916   3.720
 8411TIP3   OH225185   7.885   0.672   3.858
 8411TIP3    H125186   7.823   0.601   3.877
 8411TIP3    H225187   7.917   0.652   3.769
 8412TIP3   OH225188   0.229   0.128   3.552
 8412TIP3    H125189   0.187   0.207   3.519
 8412TIP3    H225190   0.165   0.059   3.538
 8413TIP3   OH225191   0.341   0.537   3.741
 8413TIP3    H125192   0.313   0.556   3.830
 8413TIP3    H225193   0.261   0.545   3.688
 8414TIP3   OH225194   0.571   0.534   3.586
 8414TIP3    H125195   0.486   0.537   3.631
 8414TIP3    H225196   0.633   0.510   3.654
 8415TIP3   OH225197   0.762   0.469   3.767
 8415TIP3    H125198   0.784   0.377   3.783
 8415TIP3    H225199   0.788   0.514   3.847
 8416TIP3   OH225200   7.740   0.451   3.942
 8416TIP3    H125201   7.749   0.367   3.897
 8416TIP3    H225202   7.778   0.435   4.029
 8417TIP3   OH225203   0.303   0.143   3.812
 8417TIP3    H125204   0.366   0.071   3.812
 8417TIP3    H225205   0.272   0.148   3.722
 8418TIP3   OH225206   0.379   0.342   3.989
 8418TIP3    H125207   0.365   0.277   3.920
 8418TIP3    H225208   0.308   0.405   3.977
 8419TIP3   OH225209   0.645   0.196   1.952
 8419TIP3    H125210   0.683   0.156   1.873
 8419TIP3    H225211   0.556   0.161   1.955
 8420TIP3   OH225212   0.672   0.455   2.393
 8420TIP3    H125213   0.720   0.373   2.404
 8420TIP3    H225214   0.718   0.500   2.321
 8421TIP3   OH225215   7.482   0.434   3.843
 8421TIP3    H125216   7.572   0.455   3.868
 8421TIP3    H225217   7.435   0.428   3.926
 8422TIP3   OH225218   1.449   0.409   3.692
 8422TIP3    H125219   1.507   0.351   3.643
 8422TIP3    H225220   1.459   0.494   3.650
 8423TIP3   OH225221   0.797   0.221   2.448
 8423TIP3    H125222   0.864   0.203   2.515
 8423TIP3    H225223   0.745   0.141   2.446
 8424TIP3   OH225224   7.437   0.203   3.228
 8424TIP3    H125225   7.498   0.129   3.231
 8424TIP3    H225226   7.493   0.279   3.209
 8425TIP3   OH225227   7.204   0.466   3.341
 8425TIP3    H125228   7.252   0.479   3.259
 8425TIP3    H225229   7.272   0.446   3.406
 8426TIP3   OH225230   1.254   0.469   3.381
 8426TIP3    H125231   1.211   0.549   3.412
 8426TIP3    H225232   1.181   0.413   3.353
 8427TIP3   OH225233   4.551   7.437   2.840
 8427TIP3    H125234   4.460   7.424   2.866
 8427TIP3    H225235   4.545   7.481   2.756
 8428TIP3   OH225236   7.418   0.040   3.657
 8428TIP3    H125237   7.354   0.020   3.725
 8428TIP3    H225238   7.366   0.051   3.577
 8429TIP3   OH225239   1.090   0.266   3.286
 8429TIP3    H125240   1.017   0.206   3.279
 8429TIP3    H225241   1.157   0.218   3.335
 8430TIP3   OH225242   0.361   0.182   2.989
 8430TIP3    H125243   0.319   0.111   3.037
 8430TIP3    H225244   0.428   0.139   2.935
 8431TIP3   OH225245   0.868   0.103   2.859
 8431TIP3    H125246   0.915   0.148   2.790
 8431TIP3    H225247   0.789   0.155   2.873
 8432TIP3   OH225248   1.003   0.188   2.636
 8432TIP3    H125249   1.061   0.118   2.609
 8432TIP3    H225250   1.057   0.267   2.633
 8433TIP3   OH225251   4.860   7.327   2.985
 8433TIP3    H125252   4.771   7.294   2.999
 8433TIP3    H225253   4.914   7.248   2.980
 8434TIP3   OH225254   4.668   7.239   2.646
 8434TIP3    H125255   4.701   7.290   2.572
 8434TIP3    H225256   4.644   7.305   2.711
 8435TIP3   OH225257   5.342   7.372   2.884
 8435TIP3    H125258   5.388   7.420   2.815
 8435TIP3    H225259   5.384   7.400   2.965
 8436TIP3   OH225260   0.565   0.052   2.857
 8436TIP3    H125261   0.610   0.019   2.779
 8436TIP3    H225262   0.576  -0.018   2.922
 8437TIP3   OH225263   5.888   7.454   2.430
 8437TIP3    H125264   5.809   7.504   2.449
 8437TIP3    H225265   5.873   7.369   2.471
 8438TIP3   OH225266   4.791   7.370   2.405
 8438TIP3    H125267   4.835   7.306   2.350
 8438TIP3    H225268   4.862   7.423   2.443
 8439TIP3   OH225269   0.012   0.107   2.508
 8439TIP3    H125270   0.075   0.059   2.563
 8439TIP3    H225271   0.023   0.199   2.533
 8440TIP3   OH225272   7.737   0.182   3.857
 8440TIP3    H125273   7.676   0.153   3.924
 8440TIP3    H225274   7.823   0.164   3.893
 8441TIP3   OH225275   0.086   0.150   3.987
 8441TIP3    H125276   0.155   0.164   3.922
 8441TIP3    H225277   0.114   0.073   4.036
 8442TIP3   OH225278   0.865   0.220   3.798
 8442TIP3    H125279   0.891   0.191   3.886
 8442TIP3    H225280   0.946   0.223   3.749
 8443TIP3   OH225281   1.274   0.293   3.078
 8443TIP3    H125282   1.205   0.295   3.144
 8443TIP3    H225283   1.290   0.385   3.057
 8444TIP3   OH225284   4.607   4.358   0.626
 8444TIP3    H125285   4.638   4.270   0.647
 8444TIP3    H225286   4.675   4.396   0.570
 8445TIP3   OH225287   5.039   4.898   0.035
 8445TIP3    H125288   5.041   4.993   0.029
 8445TIP3    H225289   5.131   4.871   0.036
 8446TIP3   OH225290   4.328   5.272   0.487
 8446TIP3    H125291   4.250   5.217   0.482
 8446TIP3    H225292   4.315   5.326   0.564
 8447TIP3   OH225293   4.578   5.153   0.211
 8447TIP3    H125294   4.654   5.103   0.180
 8447TIP3    H225295   4.598   5.174   0.302
 8448TIP3   OH225296   4.626   5.235   0.467
 8448TIP3    H125297   4.547   5.279   0.496
 8448TIP3    H225298   4.665   5.201   0.548
 8449TIP3   OH225299   4.770   4.277   0.222
 8449TIP3    H125300   4.749   4.269   0.128
 8449TIP3    H225301   4.861   4.307   0.223
 8450TIP3   OH225302   4.413   4.617   0.384
 8450TIP3    H125303   4.324   4.645   0.405
 8450TIP3    H225304   4.464   4.640   0.462
 8451TIP3   OH225305   5.174   4.099   0.404
 8451TIP3    H125306   5.113   4.116   0.332
 8451TIP3    H225307   5.255   4.144   0.378
 8452TIP3   OH225308   4.913   5.034   0.457
 8452TIP3    H125309   4.836   4.978   0.461
 8452TIP3    H225310   4.985   4.974   0.436
 8453TIP3   OH225311   4.670   4.635   0.213
 8453TIP3    H125312   4.740   4.691   0.245
 8453TIP3    H225313   4.594   4.658   0.267
 8454TIP3   OH225314   5.059   5.181   0.044
 8454TIP3    H125315   5.111   5.256   0.014
 8454TIP3    H225316   4.969   5.214   0.049
 8455TIP3   OH225317   4.935   4.711   0.533
 8455TIP3    H125318   4.873   4.639   0.520
 8455TIP3    H225319   5.019   4.675   0.508
 8456TIP3   OH225320   4.302   4.820   0.627
 8456TIP3    H125321   4.227   4.842   0.682
 8456TIP3    H225322   4.315   4.898   0.572
 8457TIP3   OH225323   4.254   4.842   0.147
 8457TIP3    H125324   4.194   4.850   0.222
 8457TIP3    H225325   4.339   4.823   0.187
 8458TIP3   OH225326   4.727   4.955   0.093
 8458TIP3    H125327   4.792   4.908   0.145
 8458TIP3    H225328   4.763   4.955   0.004
 8459TIP3   OH225329   5.022   4.369   0.055
 8459TIP3    H125330   5.010   4.342  -0.036
 8459TIP3    H225331   4.996   4.461   0.056
 8460TIP3   OH225332   4.035   5.205   0.267
 8460TIP3    H125333   4.124   5.194   0.234
 8460TIP3    H225334   4.018   5.299   0.258
 8461TIP3   OH225335   5.194   4.644   0.468
 8461TIP3    H125336   5.271   4.661   0.413
 8461TIP3    H225337   5.231   4.632   0.556
 8462TIP3   OH225338   5.288   4.520   0.699
 8462TIP3    H125339   5.237   4.501   0.778
 8462TIP3    H225340   5.368   4.562   0.732
 8463TIP3   OH225341   5.265   4.396   0.195
 8463TIP3    H125342   5.180   4.387   0.153
 8463TIP3    H225343   5.247   4.388   0.288
 8464TIP3   OH225344   5.015   4.134   0.193
 8464TIP3    H125345   5.030   4.214   0.143
 8464TIP3    H225346   4.977   4.073   0.130
 8465TIP3   OH225347   4.786   5.148   0.669
 8465TIP3    H125348   4.849   5.118   0.604
 8465TIP3    H225349   4.802   5.092   0.745
 8466TIP3   OH225350   4.282   5.116   0.185
 8466TIP3    H125351   4.373   5.144   0.182
 8466TIP3    H225352   4.283   5.025   0.156
 8467TIP3   OH225353   5.113   5.177   0.311
 8467TIP3    H125354   5.043   5.145   0.367
 8467TIP3    H225355   5.080   5.166   0.222
 8468TIP3   OH225356   6.482   4.762   0.375
 8468TIP3    H125357   6.462   4.851   0.345
 8468TIP3    H225358   6.419   4.707   0.329
 8469TIP3   OH225359   6.468   4.858   0.651
 8469TIP3    H125360   6.482   4.812   0.734
 8469TIP3    H225361   6.473   4.789   0.584
 8470TIP3   OH225362   6.749   5.063   0.405
 8470TIP3    H125363   6.827   5.023   0.444
 8470TIP3    H225364   6.753   5.155   0.433
 8471TIP3   OH225365   5.784   5.110   0.878
 8471TIP3    H125366   5.793   5.030   0.930
 8471TIP3    H225367   5.860   5.110   0.820
 8472TIP3   OH225368   5.465   4.303   0.701
 8472TIP3    H125369   5.395   4.368   0.692
 8472TIP3    H225370   5.433   4.227   0.653
 8473TIP3   OH225371   5.524   4.581   0.828
 8473TIP3    H125372   5.582   4.531   0.885
 8473TIP3    H225373   5.575   4.594   0.748
 8474TIP3   OH225374   6.420   5.508   0.412
 8474TIP3    H125375   6.452   5.438   0.355
 8474TIP3    H225376   6.487   5.517   0.479
 8475TIP3   OH225377   6.206   5.001   0.770
 8475TIP3    H125378   6.249   4.993   0.855
 8475TIP3    H225379   6.255   5.071   0.726
 8476TIP3   OH225380   6.801   4.350   0.722
 8476TIP3    H125381   6.889   4.361   0.686
 8476TIP3    H225382   6.743   4.379   0.652
 8477TIP3   OH225383   5.936   4.145   0.772
 8477TIP3    H125384   5.950   4.236   0.801
 8477TIP3    H225385   6.001   4.131   0.704
 8478TIP3   OH225386   6.809   4.252   0.401
 8478TIP3    H125387   6.778   4.169   0.436
 8478TIP3    H225388   6.828   4.234   0.309
 8479TIP3   OH225389   6.151   4.526   0.636
 8479TIP3    H125390   6.233   4.486   0.608
 8479TIP3    H225391   6.084   4.479   0.586
 8480TIP3   OH225392   7.481   4.524   1.066
 8480TIP3    H125393   7.451   4.477   0.988
 8480TIP3    H225394   7.402   4.566   1.099
 8481TIP3   OH225395   6.378   4.979   0.243
 8481TIP3    H125396   6.356   4.963   0.151
 8481TIP3    H225397   6.321   5.051   0.269
 8482TIP3   OH225398   5.366   4.737   0.283
 8482TIP3    H125399   5.333   4.761   0.197
 8482TIP3    H225400   5.396   4.820   0.321
 8483TIP3   OH225401   6.801   5.312   0.515
 8483TIP3    H125402   6.725   5.314   0.573
 8483TIP3    H225403   6.802   5.399   0.474
 8484TIP3   OH225404   6.509   5.342   0.215
 8484TIP3    H125405   6.557   5.262   0.197
 8484TIP3    H225406   6.570   5.412   0.193
 8485TIP3   OH225407   6.657   5.127   0.154
 8485TIP3    H125408   6.662   5.052   0.094
 8485TIP3    H225409   6.685   5.092   0.238
 8486TIP3   OH225410   7.160   5.210   0.837
 8486TIP3    H125411   7.119   5.252   0.912
 8486TIP3    H225412   7.138   5.266   0.762
 8487TIP3   OH225413   6.329   4.615   0.194
 8487TIP3    H125414   6.245   4.657   0.177
 8487TIP3    H225415   6.377   4.622   0.111
 8488TIP3   OH225416   3.658   0.698   6.347
 8488TIP3    H125417   3.724   0.748   6.395
 8488TIP3    H225418   3.708   0.641   6.289
 8489TIP3   OH225419   7.322   4.829   0.799
 8489TIP3    H125420   7.250   4.887   0.825
 8489TIP3    H225421   7.334   4.846   0.706
 8490TIP3   OH225422   6.660   4.718   0.158
 8490TIP3    H125423   6.619   4.739   0.242
 8490TIP3    H225424   6.748   4.687   0.181
 8491TIP3   OH225425   6.905   4.685   1.001
 8491TIP3    H125426   6.857   4.768   0.995
 8491TIP3    H225427   6.838   4.617   1.000
 8492TIP3   OH225428   5.923   4.671   0.549
 8492TIP3    H125429   5.913   4.629   0.463
 8492TIP3    H225430   6.017   4.688   0.556
 8493TIP3   OH225431   5.962   5.092   0.678
 8493TIP3    H125432   5.983   5.128   0.591
 8493TIP3    H225433   6.046   5.058   0.710
 8494TIP3   OH225434   7.538   6.190   6.339
 8494TIP3    H125435   7.600   6.194   6.267
 8494TIP3    H225436   7.574   6.248   6.406
 8495TIP3   OH225437   6.597   5.307   0.692
 8495TIP3    H125438   6.543   5.386   0.700
 8495TIP3    H225439   6.574   5.254   0.769
 8496TIP3   OH225440   3.881   0.841   6.436
 8496TIP3    H125441   3.934   0.905   6.484
 8496TIP3    H225442   3.911   0.848   6.346
 8497TIP3   OH225443   6.247   5.238   0.270
 8497TIP3    H125444   6.333   5.276   0.254
 8497TIP3    H225445   6.198   5.251   0.188
 8498TIP3   OH225446   5.824   4.539   0.317
 8498TIP3    H125447   5.732   4.548   0.293
 8498TIP3    H225448   5.826   4.465   0.377
 8499TIP3   OH225449   4.239   1.435   6.049
 8499TIP3    H125450   4.233   1.528   6.026
 8499TIP3    H225451   4.327   1.410   6.023
 8500TIP3   OH225452   7.259   5.494   0.864
 8500TIP3    H125453   7.295   5.413   0.899
 8500TIP3    H225454   7.293   5.563   0.921
 8501TIP3   OH225455   6.151   5.473   0.068
 8501TIP3    H125456   6.102   5.451  -0.012
 8501TIP3    H225457   6.120   5.560   0.092
 8502TIP3   OH225458   5.675   5.348   0.406
 8502TIP3    H125459   5.689   5.297   0.485
 8502TIP3    H225460   5.596   5.311   0.367
 8503TIP3   OH225461   3.723   1.666   6.150
 8503TIP3    H125462   3.773   1.593   6.115
 8503TIP3    H225463   3.757   1.679   6.239
 8504TIP3   OH225464   6.401   5.434  -0.030
 8504TIP3    H125465   6.314   5.444   0.008
 8504TIP3    H225466   6.452   5.390   0.038
 8505TIP3   OH225467   3.966   0.824   6.178
 8505TIP3    H125468   3.920   0.832   6.094
 8505TIP3    H225469   4.051   0.866   6.162
 8506TIP3   OH225470   5.955   4.375   0.512
 8506TIP3    H125471   5.883   4.329   0.554
 8506TIP3    H225472   5.985   4.316   0.443
 8507TIP3   OH225473   6.456   4.391   0.287
 8507TIP3    H125474   6.408   4.468   0.255
 8507TIP3    H225475   6.522   4.374   0.220
 8508TIP3   OH225476   6.632   4.424   0.506
 8508TIP3    H125477   6.571   4.435   0.433
 8508TIP3    H225478   6.707   4.377   0.468
 8509TIP3   OH225479   6.007   3.951   0.059
 8509TIP3    H125480   6.006   4.028   0.117
 8509TIP3    H225481   5.924   3.954   0.013
 8510TIP3   OH225482   5.579   3.921   0.364
 8510TIP3    H125483   5.562   3.995   0.305
 8510TIP3    H225484   5.550   3.952   0.449
 8511TIP3   OH225485   6.581   4.757   0.914
 8511TIP3    H125486   6.641   4.719   0.850
 8511TIP3    H225487   6.639   4.799   0.978
 8512TIP3   OH225488   6.404   4.097   0.602
 8512TIP3    H125489   6.356   4.016   0.587
 8512TIP3    H225490   6.383   4.121   0.692
 8513TIP3   OH225491   5.733   4.282   0.640
 8513TIP3    H125492   5.640   4.278   0.660
 8513TIP3    H225493   5.772   4.210   0.689
 8514TIP3   OH225494   6.052   4.216   0.311
 8514TIP3    H125495   6.139   4.200   0.275
 8514TIP3    H225496   5.996   4.223   0.234
 8515TIP3   OH225497   5.876   4.220   0.099
 8515TIP3    H125498   5.831   4.158   0.041
 8515TIP3    H225499   5.922   4.279   0.040
 8516TIP3   OH225500   6.989   5.902   1.147
 8516TIP3    H125501   7.045   5.935   1.077
 8516TIP3    H225502   7.028   5.936   1.227
 8517TIP3   OH225503   6.485   4.380   0.866
 8517TIP3    H125504   6.466   4.419   0.781
 8517TIP3    H225505   6.432   4.430   0.928
 8518TIP3   OH225506   6.101   4.747   0.121
 8518TIP3    H125507   6.016   4.712   0.093
 8518TIP3    H225508   6.079   4.812   0.187
 8519TIP3   OH225509   7.088   4.952   0.865
 8519TIP3    H125510   7.114   5.043   0.852
 8519TIP3    H225511   6.998   4.948   0.833
 8520TIP3   OH225512   3.932   0.414   6.372
 8520TIP3    H125513   3.891   0.351   6.431
 8520TIP3    H225514   3.968   0.481   6.429
 8521TIP3   OH225515   6.651   4.340   0.096
 8521TIP3    H125516   6.746   4.345   0.107
 8521TIP3    H225517   6.628   4.420   0.048
 8522TIP3   OH225518   5.936   4.879   0.907
 8522TIP3    H125519   5.889   4.817   0.851
 8522TIP3    H225520   5.984   4.824   0.968
 8523TIP3   OH225521   6.261   4.921  -0.015
 8523TIP3    H125522   6.217   5.006  -0.011
 8523TIP3    H225523   6.203   4.861   0.031
 8524TIP3   OH225524   6.767   5.374   0.996
 8524TIP3    H125525   6.727   5.312   1.057
 8524TIP3    H225526   6.861   5.365   1.011
 8525TIP3   OH225527   4.424   0.698   6.358
 8525TIP3    H125528   4.366   0.648   6.300
 8525TIP3    H225529   4.418   0.788   6.327
 8526TIP3   OH225530   7.347   5.331   1.067
 8526TIP3    H125531   7.288   5.338   1.142
 8526TIP3    H225532   7.339   5.240   1.039
 8527TIP3   OH225533   4.140   1.513   6.302
 8527TIP3    H125534   4.121   1.442   6.363
 8527TIP3    H225535   4.174   1.470   6.224
 8528TIP3   OH225536   6.719   4.945   0.713
 8528TIP3    H125537   6.642   4.925   0.660
 8528TIP3    H225538   6.791   4.950   0.650
 8529TIP3   OH225539   5.871   5.094   0.396
 8529TIP3    H125540   5.887   5.170   0.339
 8529TIP3    H225541   5.820   5.034   0.341
 8530TIP3   OH225542   5.513   4.363   0.092
 8530TIP3    H125543   5.561   4.441   0.117
 8530TIP3    H225544   5.427   4.374   0.133
 8531TIP3   OH225545   6.080   4.935   0.313
 8531TIP3    H125546   6.012   4.990   0.350
 8531TIP3    H225547   6.132   4.907   0.388
 8532TIP3   OH225548   6.145   5.505   0.973
 8532TIP3    H125549   6.189   5.566   0.913
 8532TIP3    H225550   6.183   5.525   1.059
 8533TIP3   OH225551   5.886   5.328   0.243
 8533TIP3    H125552   5.804   5.340   0.292
 8533TIP3    H225553   5.914   5.417   0.222
 8534TIP3   OH225554   6.596   5.113   0.887
 8534TIP3    H125555   6.636   5.110   0.974
 8534TIP3    H225556   6.642   5.047   0.836
 8535TIP3   OH225557   3.902   1.253   6.210
 8535TIP3    H125558   3.947   1.235   6.293
 8535TIP3    H225559   3.817   1.209   6.218
 8536TIP3   OH225560   6.884   5.624   0.878
 8536TIP3    H125561   6.870   5.531   0.862
 8536TIP3    H225562   6.849   5.668   0.800
 8537TIP3   OH225563   4.217   1.711   6.009
 8537TIP3    H125564   4.227   1.775   5.939
 8537TIP3    H225565   4.146   1.744   6.063
 8538TIP3   OH225566   4.067   1.195   6.425
 8538TIP3    H125567   4.050   1.124   6.487
 8538TIP3    H225568   4.161   1.190   6.408
 8539TIP3   OH225569   3.262   1.208   6.209
 8539TIP3    H125570   3.273   1.117   6.180
 8539TIP3    H225571   3.243   1.201   6.303
 8540TIP3   OH225572   5.825   4.933   0.019
 8540TIP3    H125573   5.831   4.901   0.109
 8540TIP3    H225574   5.834   5.028   0.027
 8541TIP3   OH225575   5.591   4.610   0.187
 8541TIP3    H125576   5.516   4.636   0.241
 8541TIP3    H225577   5.606   4.686   0.130
 8542TIP3   OH225578   3.494   1.435   6.447
 8542TIP3    H125579   3.399   1.433   6.459
 8542TIP3    H225580   3.508   1.506   6.384
 8543TIP3   OH225581   6.316   4.151   0.282
 8543TIP3    H125582   6.369   4.230   0.276
 8543TIP3    H225583   6.353   4.102   0.355
 8544TIP3   OH225584   5.853   5.201   0.011
 8544TIP3    H125585   5.826   5.269  -0.051
 8544TIP3    H225586   5.862   5.248   0.094
 8545TIP3   OH225587   6.883   4.580   0.475
 8545TIP3    H125588   6.937   4.512   0.515
 8545TIP3    H225589   6.908   4.660   0.521
 8546TIP3   OH225590   2.936   1.103   6.453
 8546TIP3    H125591   3.006   1.168   6.463
 8546TIP3    H225592   2.971   1.040   6.390
 8547TIP3   OH225593   5.524   4.109  -0.022
 8547TIP3    H125594   5.545   4.195   0.015
 8547TIP3    H225595   5.441   4.086   0.019
 8548TIP3   OH225596   6.825   5.571   0.434
 8548TIP3    H125597   6.766   5.633   0.389
 8548TIP3    H225598   6.913   5.600   0.409
 8549TIP3   OH225599   5.375   4.994   0.383
 8549TIP3    H125600   5.438   5.028   0.445
 8549TIP3    H225601   5.383   5.050   0.306
 8550TIP3   OH225602   3.410   1.417   6.114
 8550TIP3    H125603   3.362   1.344   6.153
 8550TIP3    H225604   3.484   1.376   6.070
 8551TIP3   OH225605   3.849   1.455   6.033
 8551TIP3    H125606   3.884   1.391   6.096
 8551TIP3    H225607   3.908   1.448   5.957
 8552TIP3   OH225608   3.067   0.911   6.311
 8552TIP3    H125609   3.118   0.888   6.388
 8552TIP3    H225610   3.133   0.928   6.243
 8553TIP3   OH225611   3.647   1.131   6.169
 8553TIP3    H125612   3.626   1.144   6.262
 8553TIP3    H225613   3.628   1.039   6.153
 8554TIP3   OH225614   6.821   4.945   1.009
 8554TIP3    H125615   6.847   5.020   0.956
 8554TIP3    H225616   6.795   4.983   1.093
 8555TIP3   OH225617   5.887   4.580   0.055
 8555TIP3    H125618   5.870   4.550   0.144
 8555TIP3    H225619   5.940   4.510   0.016
 8556TIP3   OH225620   3.390   0.652   6.383
 8556TIP3    H125621   3.363   0.660   6.292
 8556TIP3    H225622   3.485   0.665   6.381
 8557TIP3   OH225623   4.182   0.955   6.069
 8557TIP3    H125624   4.170   0.915   5.983
 8557TIP3    H225625   4.160   1.047   6.057
 8558TIP3   OH225626   3.209   1.707   6.311
 8558TIP3    H125627   3.301   1.693   6.288
 8558TIP3    H225628   3.173   1.756   6.237
 8559TIP3   OH225629   5.300   4.814   0.023
 8559TIP3    H125630   5.394   4.833   0.019
 8559TIP3    H225631   5.290   4.730  -0.022
 8560TIP3   OH225632   5.202   5.418   0.384
 8560TIP3    H125633   5.155   5.341   0.353
 8560TIP3    H225634   5.235   5.393   0.470
 8561TIP3   OH225635   5.308   5.280   0.591
 8561TIP3    H125636   5.218   5.259   0.614
 8561TIP3    H225637   5.359   5.206   0.623
 8562TIP3   OH225638   7.066   5.689   0.408
 8562TIP3    H125639   7.090   5.672   0.499
 8562TIP3    H225640   7.147   5.719   0.367
 8563TIP3   OH225641   7.124   5.626   0.666
 8563TIP3    H125642   7.189   5.574   0.712
 8563TIP3    H225643   7.118   5.707   0.717
 8564TIP3   OH225644   4.340   1.177   6.396
 8564TIP3    H125645   4.396   1.247   6.362
 8564TIP3    H225646   4.391   1.138   6.467
 8565TIP3   OH225647   7.118   4.769   0.137
 8565TIP3    H125648   7.051   4.723   0.188
 8565TIP3    H225649   7.185   4.792   0.200
 8566TIP3   OH225650   7.188   5.164   0.528
 8566TIP3    H125651   7.241   5.088   0.503
 8566TIP3    H225652   7.220   5.235   0.473
 8567TIP3   OH225653   6.979   5.392   0.710
 8567TIP3    H125654   7.023   5.474   0.687
 8567TIP3    H225655   6.932   5.366   0.631
 8568TIP3   OH225656   4.387   0.945   6.251
 8568TIP3    H125657   4.318   0.946   6.185
 8568TIP3    H225658   4.375   1.027   6.300
 8569TIP3   OH225659   4.241   0.567   6.205
 8569TIP3    H125660   4.188   0.590   6.129
 8569TIP3    H225661   4.223   0.474   6.219
 8570TIP3   OH225662   6.902   4.603   0.212
 8570TIP3    H125663   6.916   4.513   0.183
 8570TIP3    H225664   6.893   4.596   0.307
 8571TIP3   OH225665   7.252   5.069   1.181
 8571TIP3    H125666   7.197   4.992   1.168
 8571TIP3    H225667   7.316   5.066   1.110
 8572TIP3   OH225668   6.932   4.335   0.138
 8572TIP3    H125669   7.004   4.302   0.192
 8572TIP3    H225670   6.973   4.357   0.054
 8573TIP3   OH225671   7.056   4.453   0.636
 8573TIP3    H125672   7.135   4.479   0.588
 8573TIP3    H225673   7.068   4.489   0.724
 8574TIP3   OH225674   7.122   4.634   0.841
 8574TIP3    H125675   7.053   4.648   0.906
 8574TIP3    H225676   7.185   4.704   0.857
 8575TIP3   OH225677   6.657   5.556   0.134
 8575TIP3    H125678   6.707   5.536   0.054
 8575TIP3    H225679   6.696   5.637   0.166
 8576TIP3   OH225680   6.515   5.732   1.094
 8576TIP3    H125681   6.528   5.655   1.037
 8576TIP3    H225682   6.603   5.757   1.122
 8577TIP3   OH225683   5.746   5.521   0.864
 8577TIP3    H125684   5.775   5.458   0.930
 8577TIP3    H225685   5.820   5.526   0.802
 8578TIP3   OH225686   6.309   5.647   0.815
 8578TIP3    H125687   6.281   5.598   0.738
 8578TIP3    H225688   6.286   5.738   0.795
 8579TIP3   OH225689   6.557   5.589   0.638
 8579TIP3    H125690   6.493   5.652   0.671
 8579TIP3    H225691   6.637   5.640   0.627
 8580TIP3   OH225692   6.796   5.750   0.645
 8580TIP3    H125693   6.767   5.833   0.608
 8580TIP3    H225694   6.826   5.699   0.570
 8581TIP3   OH225695   5.586   5.288   0.961
 8581TIP3    H125696   5.494   5.282   0.935
 8581TIP3    H225697   5.632   5.231   0.899
 8582TIP3   OH225698   5.730   5.285   0.671
 8582TIP3    H125699   5.752   5.209   0.724
 8582TIP3    H225700   5.803   5.346   0.685
 8583TIP3   OH225701   5.982   5.391   0.773
 8583TIP3    H125702   6.038   5.391   0.695
 8583TIP3    H225703   6.034   5.437   0.839
 8584TIP3   OH225704   5.347   5.131   0.108
 8584TIP3    H125705   5.252   5.139   0.107
 8584TIP3    H225706   5.376   5.194   0.174
 8585TIP3   OH225707   3.469   1.642   6.255
 8585TIP3    H125708   3.552   1.669   6.215
 8585TIP3    H225709   3.440   1.568   6.201
 8586TIP3   OH225710   4.167   1.778   6.353
 8586TIP3    H125711   4.162   1.684   6.342
 8586TIP3    H225712   4.124   1.814   6.275
 8587TIP3   OH225713   2.778   1.468   6.297
 8587TIP3    H125714   2.763   1.448   6.389
 8587TIP3    H225715   2.863   1.427   6.277
 8588TIP3   OH225716   7.065   5.642   1.179
 8588TIP3    H125717   6.988   5.605   1.222
 8588TIP3    H225718   7.043   5.734   1.166
 8589TIP3   OH225719   5.661   1.309   6.297
 8589TIP3    H125720   5.633   1.397   6.273
 8589TIP3    H225721   5.591   1.252   6.264
 8590TIP3   OH225722   0.374   5.035   0.238
 8590TIP3    H125723   0.417   5.018   0.322
 8590TIP3    H225724   0.326   4.954   0.219
 8591TIP3   OH225725   7.598   4.903   0.601
 8591TIP3    H125726   7.632   4.840   0.665
 8591TIP3    H225727   7.672   4.922   0.544
 8592TIP3   OH225728   5.932   1.607   6.389
 8592TIP3    H125729   5.919   1.542   6.458
 8592TIP3    H225730   5.951   1.688   6.435
 8593TIP3   OH225731   7.568   5.311   0.303
 8593TIP3    H125732   7.558   5.216   0.299
 8593TIP3    H225733   7.662   5.325   0.294
 8594TIP3   OH225734   7.247   4.528   0.090
 8594TIP3    H125735   7.213   4.617   0.095
 8594TIP3    H225736   7.192   4.484   0.025
 8595TIP3   OH225737   7.351   4.818   0.283
 8595TIP3    H125738   7.403   4.740   0.305
 8595TIP3    H225739   7.415   4.881   0.251
 8596TIP3   OH225740   5.589   2.033   6.403
 8596TIP3    H125741   5.614   1.972   6.334
 8596TIP3    H225742   5.601   1.983   6.484
 8597TIP3   OH225743   0.193   5.254   0.259
 8597TIP3    H125744   0.235   5.175   0.226
 8597TIP3    H225745   0.265   5.310   0.288
 8598TIP3   OH225746   0.610   4.714   0.344
 8598TIP3    H125747   0.639   4.623   0.339
 8598TIP3    H225748   0.568   4.730   0.259
 8599TIP3   OH225749   7.859   4.405   0.272
 8599TIP3    H125750   7.821   4.472   0.216
 8599TIP3    H225751   7.820   4.323   0.241
 8600TIP3   OH225752   5.885   0.815   6.393
 8600TIP3    H125753   5.965   0.775   6.360
 8600TIP3    H225754   5.822   0.807   6.321
 8601TIP3   OH225755   7.496   4.597   0.372
 8601TIP3    H125756   7.576   4.581   0.420
 8601TIP3    H225757   7.502   4.541   0.295
 8602TIP3   OH225758  -0.009   4.808   0.196
 8602TIP3    H125759   0.085   4.793   0.200
 8602TIP3    H225760  -0.046   4.724   0.168
 8603TIP3   OH225761   5.563   1.526   6.153
 8603TIP3    H125762   5.526   1.499   6.068
 8603TIP3    H225763   5.507   1.599   6.180
 8604TIP3   OH225764   0.038   5.170   0.472
 8604TIP3    H125765  -0.016   5.241   0.508
 8604TIP3    H225766   0.085   5.211   0.399
 8605TIP3   OH225767   7.734   4.525   0.491
 8605TIP3    H125768   7.797   4.586   0.528
 8605TIP3    H225769   7.785   4.473   0.429
 8606TIP3   OH225770   7.781   5.376   0.577
 8606TIP3    H125771   7.769   5.465   0.544
 8606TIP3    H225772   7.704   5.360   0.632
 8607TIP3   OH225773   4.528   1.357   6.312
 8607TIP3    H125774   4.590   1.314   6.253
 8607TIP3    H225775   4.565   1.443   6.328
 8608TIP3   OH225776   0.692   5.580   0.072
 8608TIP3    H125777   0.603   5.575   0.108
 8608TIP3    H225778   0.694   5.663   0.025
 8609TIP3   OH225779   5.671   1.895   6.177
 8609TIP3    H125780   5.722   1.814   6.171
 8609TIP3    H225781   5.730   1.963   6.145
 8610TIP3   OH225782   5.808   1.664   6.149
 8610TIP3    H125783   5.738   1.598   6.144
 8610TIP3    H225784   5.861   1.636   6.224
 8611TIP3   OH225785   0.918   5.468   0.408
 8611TIP3    H125786   0.914   5.391   0.351
 8611TIP3    H225787   0.918   5.542   0.348
 8612TIP3   OH225788   5.496   1.149   6.143
 8612TIP3    H125789   5.416   1.200   6.128
 8612TIP3    H225790   5.539   1.146   6.057
 8613TIP3   OH225791   5.432   0.985   5.845
 8613TIP3    H125792   5.507   1.041   5.867
 8613TIP3    H225793   5.459   0.897   5.872
 8614TIP3   OH225794   1.139   5.148   0.307
 8614TIP3    H125795   1.049   5.181   0.305
 8614TIP3    H225796   1.164   5.142   0.214
 8615TIP3   OH225797   5.841   1.239   6.105
 8615TIP3    H125798   5.786   1.267   6.178
 8615TIP3    H225799   5.928   1.228   6.143
 8616TIP3   OH225800   0.777   5.019   0.548
 8616TIP3    H125801   0.789   5.087   0.615
 8616TIP3    H225802   0.693   5.039   0.508
 8617TIP3   OH225803   7.699   4.953   0.051
 8617TIP3    H125804   7.658   4.900  -0.018
 8617TIP3    H225805   7.769   4.897   0.086
 8618TIP3   OH225806   7.832   5.362   0.198
 8618TIP3    H125807   7.806   5.345   0.107
 8618TIP3    H225808   7.920   5.325   0.206
 8619TIP3   OH225809   7.808   4.934   0.426
 8619TIP3    H125810   7.843   4.896   0.345
 8619TIP3    H225811   7.860   5.013   0.440
 8620TIP3   OH225812   0.447   5.582   0.195
 8620TIP3    H125813   0.443   5.659   0.252
 8620TIP3    H225814   0.435   5.508   0.254
 8621TIP3   OH225815   0.083   5.473   0.742
 8621TIP3    H125816   0.025   5.540   0.780
 8621TIP3    H225817   0.025   5.419   0.688
 8622TIP3   OH225818   5.670   1.118   5.924
 8622TIP3    H125819   5.729   1.174   5.974
 8622TIP3    H225820   5.701   1.127   5.833
 8623TIP3   OH225821   7.770   5.045   0.850
 8623TIP3    H125822   7.759   5.132   0.888
 8623TIP3    H225823   7.697   4.994   0.885
 8624TIP3   OH225824   5.426   1.767   6.190
 8624TIP3    H125825   5.507   1.817   6.194
 8624TIP3    H225826   5.366   1.821   6.138
 8625TIP3   OH225827   7.802   5.669   0.804
 8625TIP3    H125828   7.781   5.674   0.710
 8625TIP3    H225829   7.718   5.654   0.847
 8626TIP3   OH225830   4.931   1.091   6.299
 8626TIP3    H125831   4.870   1.146   6.250
 8626TIP3    H225832   4.889   1.005   6.303
 8627TIP3   OH225833   7.421   5.160   0.696
 8627TIP3    H125834   7.332   5.166   0.664
 8627TIP3    H225835   7.460   5.088   0.647
 8628TIP3   OH225836   7.308   5.377   0.401
 8628TIP3    H125837   7.393   5.355   0.364
 8628TIP3    H225838   7.325   5.449   0.461
 8629TIP3   OH225839   1.162   5.859   0.485
 8629TIP3    H125840   1.165   5.763   0.479
 8629TIP3    H225841   1.075   5.878   0.519
 8630TIP3   OH225842   0.268   5.618   0.604
 8630TIP3    H125843   0.259   5.708   0.636
 8630TIP3    H225844   0.201   5.570   0.652
 8631TIP3   OH225845   5.314   1.989   6.013
 8631TIP3    H125846   5.264   1.974   5.933
 8631TIP3    H225847   5.283   2.074   6.045
 8632TIP3   OH225848   4.755   1.856   6.398
 8632TIP3    H125849   4.799   1.846   6.483
 8632TIP3    H225850   4.706   1.774   6.387
 8633TIP3   OH225851   5.508   1.907   5.643
 8633TIP3    H125852   5.559   1.834   5.610
 8633TIP3    H225853   5.545   1.925   5.730
 8634TIP3   OH225854   5.567   1.964   5.909
 8634TIP3    H125855   5.483   1.966   5.954
 8634TIP3    H225856   5.628   1.925   5.972
 8635TIP3   OH225857   7.568   5.379   0.759
 8635TIP3    H125858   7.627   5.347   0.828
 8635TIP3    H225859   7.512   5.304   0.739
 8636TIP3   OH225860   0.719   4.757   0.596
 8636TIP3    H125861   0.689   4.736   0.507
 8636TIP3    H225862   0.744   4.849   0.592
 8637TIP3   OH225863   5.771   1.124   5.671
 8637TIP3    H125864   5.732   1.129   5.584
 8637TIP3    H225865   5.838   1.192   5.672
 8638TIP3   OH225866   7.915   4.719   0.582
 8638TIP3    H125867   7.862   4.725   0.662
 8638TIP3    H225868   7.890   4.796   0.531
 8639TIP3   OH225869   7.748   4.587   0.103
 8639TIP3    H125870   7.657   4.558   0.109
 8639TIP3    H225871   7.775   4.566   0.014
 8640TIP3   OH225872   5.628   0.957   6.282
 8640TIP3    H125873   5.569   1.026   6.252
 8640TIP3    H225874   5.689   0.945   6.209
 8641TIP3   OH225875   0.504   4.956   0.885
 8641TIP3    H125876   0.452   4.909   0.950
 8641TIP3    H225877   0.594   4.944   0.914
 8642TIP3   OH225878   0.500   4.729   0.091
 8642TIP3    H125879   0.446   4.769   0.024
 8642TIP3    H225880   0.540   4.654   0.048
 8643TIP3   OH225881   7.720   4.712   0.774
 8643TIP3    H125882   7.684   4.766   0.844
 8643TIP3    H225883   7.706   4.622   0.803
 8644TIP3   OH225884   5.118   0.485   6.130
 8644TIP3    H125885   5.100   0.579   6.128
 8644TIP3    H225886   5.079   0.451   6.050
 8645TIP3   OH225887   4.663   0.545   6.341
 8645TIP3    H125888   4.692   0.565   6.252
 8645TIP3    H225889   4.580   0.590   6.351
 8646TIP3   OH225890   0.502   4.943   0.465
 8646TIP3    H125891   0.541   4.869   0.419
 8646TIP3    H225892   0.453   4.903   0.537
 8647TIP3   OH225893   0.197   4.423   0.125
 8647TIP3    H125894   0.119   4.424   0.180
 8647TIP3    H225895   0.269   4.399   0.183
 8648TIP3   OH225896   7.505   4.453   0.131
 8648TIP3    H125897   7.414   4.482   0.118
 8648TIP3    H225898   7.512   4.373   0.077
 8649TIP3   OH225899   5.181   0.779   6.306
 8649TIP3    H125900   5.272   0.755   6.287
 8649TIP3    H225901   5.136   0.772   6.222
 8650TIP3   OH225902   5.060   0.751   6.059
 8650TIP3    H125903   4.985   0.721   6.008
 8650TIP3    H225904   5.103   0.816   6.003
 8651TIP3   OH225905   0.861   6.187   0.560
 8651TIP3    H125906   0.857   6.198   0.465
 8651TIP3    H225907   0.939   6.235   0.586
 8652TIP3   OH225908   7.737   5.300   0.964
 8652TIP3    H125909   7.818   5.332   1.003
 8652TIP3    H225910   7.679   5.285   1.039
 8653TIP3   OH225911   0.263   4.772   0.242
 8653TIP3    H125912   0.335   4.730   0.195
 8653TIP3    H225913   0.267   4.735   0.330
 8654TIP3   OH225914   0.276   4.674   0.497
 8654TIP3    H125915   0.188   4.681   0.532
 8654TIP3    H225916   0.334   4.697   0.569
 8655TIP3   OH225917   5.285   1.313   6.089
 8655TIP3    H125918   5.211   1.257   6.066
 8655TIP3    H225919   5.260   1.355   6.171
 8656TIP3   OH225920   0.891   5.253   0.234
 8656TIP3    H125921   0.921   5.303   0.158
 8656TIP3    H225922   0.807   5.216   0.206
 8657TIP3   OH225923   5.807   0.643   5.949
 8657TIP3    H125924   5.764   0.590   6.016
 8657TIP3    H225925   5.787   0.734   5.974
 8658TIP3   OH225926   0.380   5.343   0.634
 8658TIP3    H125927   0.441   5.333   0.707
 8658TIP3    H225928   0.345   5.432   0.644
 8659TIP3   OH225929   5.777   0.899   6.056
 8659TIP3    H125930   5.869   0.916   6.073
 8659TIP3    H225931   5.748   0.973   6.002
 8660TIP3   OH225932   7.578   5.030   0.284
 8660TIP3    H125933   7.612   5.014   0.196
 8660TIP3    H225934   7.645   4.996   0.343
 8661TIP3   OH225935   5.427   1.461   5.909
 8661TIP3    H125936   5.376   1.542   5.910
 8661TIP3    H225937   5.377   1.400   5.964
 8662TIP3   OH225938   7.564   4.864   0.937
 8662TIP3    H125939   7.563   4.845   1.031
 8662TIP3    H225940   7.480   4.830   0.905
 8663TIP3   OH225941   0.284   5.113   0.934
 8663TIP3    H125942   0.215   5.049   0.917
 8663TIP3    H225943   0.362   5.075   0.893
 8664TIP3   OH225944   0.534   5.645   0.523
 8664TIP3    H125945   0.440   5.630   0.530
 8664TIP3    H225946   0.559   5.680   0.608
 8665TIP3   OH225947   6.161   1.004   5.853
 8665TIP3    H125948   6.114   0.951   5.788
 8665TIP3    H225949   6.159   1.092   5.817
 8666TIP3   OH225950   1.166   5.591   0.487
 8666TIP3    H125951   1.085   5.552   0.519
 8666TIP3    H225952   1.198   5.530   0.420
 8667TIP3   OH225953   5.986   1.740   5.755
 8667TIP3    H125954   5.941   1.676   5.810
 8667TIP3    H225955   6.024   1.689   5.684
 8668TIP3   OH225956   0.643   5.136   0.144
 8668TIP3    H125957   0.550   5.117   0.159
 8668TIP3    H225958   0.679   5.054   0.110
 8669TIP3   OH225959   5.059   1.638   6.403
 8669TIP3    H125960   5.057   1.717   6.348
 8669TIP3    H225961   4.967   1.611   6.407
 8670TIP3   OH225962   4.617   0.927   6.096
 8670TIP3    H125963   4.661   1.012   6.095
 8670TIP3    H225964   4.543   0.940   6.156
 8671TIP3   OH225965   5.189   1.407   6.325
 8671TIP3    H125966   5.155   1.493   6.349
 8671TIP3    H225967   5.148   1.347   6.388
 8672TIP3   OH225968   0.093   5.687   0.391
 8672TIP3    H125969   0.129   5.761   0.343
 8672TIP3    H225970   0.165   5.655   0.445
 8673TIP3   OH225971   4.985   1.865   6.251
 8673TIP3    H125972   4.901   1.872   6.295
 8673TIP3    H225973   5.022   1.954   6.256
 8674TIP3   OH225974   0.433   5.358   0.364
 8674TIP3    H125975   0.414   5.349   0.458
 8674TIP3    H225976   0.519   5.319   0.353
 8675TIP3   OH225977   5.656   1.523   5.751
 8675TIP3    H125978   5.733   1.482   5.792
 8675TIP3    H225979   5.583   1.497   5.806
 8676TIP3   OH225980   0.696   5.844   0.410
 8676TIP3    H125981   0.627   5.781   0.431
 8676TIP3    H225982   0.660   5.898   0.340
 8677TIP3   OH225983   6.033   2.003   5.490
 8677TIP3    H125984   6.075   2.089   5.479
 8677TIP3    H225985   5.949   2.023   5.532
 8678TIP3   OH225986   5.866   1.406   5.885
 8678TIP3    H125987   5.853   1.359   5.967
 8678TIP3    H225988   5.960   1.421   5.880
 8679TIP3   OH225989   7.416   5.587   0.565
 8679TIP3    H125990   7.468   5.534   0.625
 8679TIP3    H225991   7.422   5.676   0.599
 8680TIP3   OH225992   5.045   1.488   5.713
 8680TIP3    H125993   5.069   1.403   5.677
 8680TIP3    H225994   5.030   1.473   5.806
 8681TIP3   OH225995   4.978   1.456   5.972
 8681TIP3    H125996   4.941   1.389   6.030
 8681TIP3    H225997   5.006   1.526   6.030
 8682TIP3   OH225998   5.273   1.683   5.914
 8682TIP3    H125999   5.187   1.693   5.954
 8682TIP3    H226000   5.288   1.765   5.868
 8683TIP3   OH226001   5.464   0.734   6.297
 8683TIP3    H126002   5.517   0.814   6.299
 8683TIP3    H226003   5.457   0.708   6.388
 8684TIP3   OH226004   0.458   4.768   0.686
 8684TIP3    H126005   0.459   4.835   0.754
 8684TIP3    H226006   0.550   4.752   0.666
 8685TIP3   OH226007   5.025   1.751   6.008
 8685TIP3    H126008   4.937   1.766   5.972
 8685TIP3    H226009   5.021   1.788   6.096
 8686TIP3   OH226010   0.739   4.884   0.065
 8686TIP3    H126011   0.667   4.824   0.083
 8686TIP3    H226012   0.815   4.842   0.107
 8687TIP3   OH226013   4.662   0.652   6.081
 8687TIP3    H126014   4.648   0.746   6.091
 8687TIP3    H226015   4.586   0.621   6.031
 8688TIP3   OH226016   5.984   2.121   6.437
 8688TIP3    H126017   5.942   2.173   6.369
 8688TIP3    H226018   6.078   2.133   6.422
 8689TIP3   OH226019   4.593   1.636   6.358
 8689TIP3    H126020   4.533   1.660   6.429
 8689TIP3    H226021   4.548   1.666   6.278
 8690TIP3   OH226022   7.417   5.898   0.962
 8690TIP3    H126023   7.493   5.915   1.018
 8690TIP3    H226024   7.388   5.810   0.986
 8691TIP3   OH226025  -0.019   5.813   1.025
 8691TIP3    H126026   0.072   5.788   1.037
 8691TIP3    H226027  -0.047   5.768   0.945
 8692TIP3   OH226028   5.207   1.678   5.603
 8692TIP3    H126029   5.161   1.608   5.650
 8692TIP3    H226030   5.289   1.637   5.573
 8693TIP3   OH226031   0.595   5.742   0.772
 8693TIP3    H126032   0.608   5.663   0.826
 8693TIP3    H226033   0.673   5.795   0.788
 8694TIP3   OH226034   5.652   1.695   5.540
 8694TIP3    H126035   5.663   1.635   5.613
 8694TIP3    H226036   5.733   1.688   5.490
 8695TIP3   OH226037   7.590   5.245   1.182
 8695TIP3    H126038   7.604   5.151   1.192
 8695TIP3    H226039   7.497   5.253   1.162
 8696TIP3   OH226040   4.832   1.183   5.814
 8696TIP3    H126041   4.803   1.195   5.904
 8696TIP3    H226042   4.926   1.204   5.816
 8697TIP3   OH226043   0.238   5.382   0.946
 8697TIP3    H126044   0.191   5.402   0.865
 8697TIP3    H226045   0.263   5.290   0.937
 8698TIP3   OH226046   5.364   1.414   5.638
 8698TIP3    H126047   5.384   1.425   5.731
 8698TIP3    H226048   5.370   1.319   5.623
 8699TIP3   OH226049   0.686   5.409   0.540
 8699TIP3    H126050   0.771   5.432   0.503
 8699TIP3    H226051   0.632   5.488   0.527
 8700TIP3   OH226052   7.679   4.967   1.188
 8700TIP3    H126053   7.758   4.921   1.158
 8700TIP3    H226054   7.674   4.949   1.282
 8701TIP3   OH226055   5.082   1.140   6.057
 8701TIP3    H126056   5.031   1.111   6.133
 8701TIP3    H226057   5.097   1.060   6.006
 8702TIP3   OH226058   0.110   4.920   0.822
 8702TIP3    H126059   0.025   4.963   0.824
 8702TIP3    H226060   0.150   4.948   0.739
 8703TIP3   OH226061   5.163   0.937   5.886
 8703TIP3    H126062   5.128   0.944   5.797
 8703TIP3    H226063   5.256   0.960   5.877
 8704TIP3   OH226064   0.642   5.268   0.957
 8704TIP3    H126065   0.692   5.252   0.877
 8704TIP3    H226066   0.664   5.195   1.014
 8705TIP3   OH226067   0.150   4.680   0.940
 8705TIP3    H126068   0.180   4.613   0.878
 8705TIP3    H226069   0.137   4.758   0.886
 8706TIP3   OH226070   0.232   5.026   0.602
 8706TIP3    H126071   0.313   5.073   0.581
 8706TIP3    H226072   0.163   5.076   0.559
 8707TIP3   OH226073   0.787   5.235   0.724
 8707TIP3    H126074   0.747   5.298   0.664
 8707TIP3    H226075   0.882   5.249   0.713
 8708TIP3   OH226076   0.003   4.792   1.154
 8708TIP3    H126077   0.050   4.736   1.217
 8708TIP3    H226078   0.038   4.767   1.069
 8709TIP3   OH226079   0.349   4.829   1.067
 8709TIP3    H126080   0.398   4.776   1.130
 8709TIP3    H226081   0.276   4.773   1.040
 8710TIP3   OH226082   4.973   1.963   5.718
 8710TIP3    H126083   5.066   1.949   5.734
 8710TIP3    H226084   4.957   2.053   5.748
 8711TIP3   OH226085   4.484   1.343   5.945
 8711TIP3    H126086   4.560   1.330   6.001
 8711TIP3    H226087   4.461   1.254   5.915
 8712TIP3   OH226088   7.007   5.654   0.000
 8712TIP3    H126089   6.941   5.599  -0.043
 8712TIP3    H226090   7.052   5.595   0.060
 8713TIP3   OH226091   7.158   5.495   0.169
 8713TIP3    H126092   7.164   5.422   0.231
 8713TIP3    H226093   7.202   5.568   0.213
 8714TIP3   OH226094   6.252   2.178   6.422
 8714TIP3    H126095   6.277   2.201   6.512
 8714TIP3    H226096   6.312   2.228   6.367
 8715TIP3   OH226097   1.015   5.926   0.250
 8715TIP3    H126098   0.967   5.843   0.245
 8715TIP3    H226099   1.084   5.911   0.314
 8716TIP3   OH226100   0.997   5.653   0.767
 8716TIP3    H126101   0.958   5.637   0.853
 8716TIP3    H226102   1.083   5.691   0.786
 8717TIP3   OH226103   6.142   1.417   5.920
 8717TIP3    H126104   6.199   1.485   5.883
 8717TIP3    H226105   6.193   1.380   5.992
 8718TIP3   OH226106   6.287   1.288   6.116
 8718TIP3    H126107   6.217   1.261   6.175
 8718TIP3    H226108   6.356   1.321   6.173
 8719TIP3   OH226109   1.055   5.405   0.065
 8719TIP3    H126110   1.105   5.334   0.025
 8719TIP3    H226111   1.059   5.476   0.001
 8720TIP3   OH226112   0.872   5.693   0.253
 8720TIP3    H126113   0.806   5.732   0.310
 8720TIP3    H226114   0.821   5.649   0.184
 8721TIP3   OH226115   6.130   1.242   5.712
 8721TIP3    H126116   6.113   1.304   5.641
 8721TIP3    H226117   6.137   1.298   5.790
 8722TIP3   OH226118   6.035   0.856   5.651
 8722TIP3    H126119   5.966   0.902   5.603
 8722TIP3    H226120   6.089   0.816   5.583
 8723TIP3   OH226121   6.072   1.174   6.248
 8723TIP3    H126122   6.062   1.083   6.220
 8723TIP3    H226123   6.051   1.174   6.341
 8724TIP3   OH226124   7.340   4.929   0.531
 8724TIP3    H126125   7.323   4.886   0.448
 8724TIP3    H226126   7.434   4.917   0.546
 8725TIP3   OH226127   1.054   5.254   0.668
 8725TIP3    H126128   1.093   5.168   0.654
 8725TIP3    H226129   1.125   5.306   0.707
 8726TIP3   OH226130   6.046   0.930   6.107
 8726TIP3    H126131   6.095   0.857   6.145
 8726TIP3    H226132   6.096   0.954   6.029
 8727TIP3   OH226133   0.968   4.777   0.177
 8727TIP3    H126134   1.054   4.792   0.136
 8727TIP3    H226135   0.979   4.809   0.266
 8728TIP3   OH226136   1.003   4.913   0.418
 8728TIP3    H126137   0.929   4.957   0.460
 8728TIP3    H226138   1.059   4.985   0.389
 8729TIP3   OH226139   7.288   4.583   0.557
 8729TIP3    H126140   7.351   4.592   0.486
 8729TIP3    H226141   7.342   4.573   0.635
 8730TIP3   OH226142   5.820   2.086   6.058
 8730TIP3    H126143   5.873   2.060   5.983
 8730TIP3    H226144   5.871   2.155   6.101
 8731TIP3   OH226145   7.568   5.606   0.920
 8731TIP3    H126146   7.549   5.523   0.875
 8731TIP3    H226147   7.562   5.584   1.013
 8732TIP3   OH226148   7.762   5.648   0.531
 8732TIP3    H126149   7.710   5.723   0.502
 8732TIP3    H226150   7.846   5.657   0.486
 8733TIP3   OH226151   0.254   5.881   0.690
 8733TIP3    H126152   0.292   5.878   0.777
 8733TIP3    H226153   0.314   5.935   0.639
 8734TIP3   OH226154   0.440   6.035   0.558
 8734TIP3    H126155   0.499   5.981   0.506
 8734TIP3    H226156   0.497   6.091   0.610
 8735TIP3   OH226157   7.417   5.883   0.589
 8735TIP3    H126158   7.334   5.914   0.553
 8735TIP3    H226159   7.439   5.946   0.657
 8736TIP3   OH226160   7.649   5.881   0.442
 8736TIP3    H126161   7.567   5.884   0.491
 8736TIP3    H226162   7.626   5.908   0.353
 8737TIP3   OH226163   0.162   5.903   0.235
 8737TIP3    H126164   0.090   5.914   0.174
 8737TIP3    H226165   0.170   5.989   0.277
 8738TIP3   OH226166   0.426   5.844   0.290
 8738TIP3    H126167   0.335   5.861   0.266
 8738TIP3    H226168   0.477   5.908   0.240
 8739TIP3   OH226169   0.631   6.011   0.189
 8739TIP3    H126170   0.624   6.096   0.145
 8739TIP3    H226171   0.660   5.951   0.120
 8740TIP3   OH226172   7.331   5.684   0.313
 8740TIP3    H126173   7.353   5.665   0.404
 8740TIP3    H226174   7.402   5.645   0.262
 8741TIP3   OH226175   7.533   5.559   0.181
 8741TIP3    H126176   7.544   5.472   0.221
 8741TIP3    H226177   7.621   5.597   0.183
 8742TIP3   OH226178   7.802   5.641   0.194
 8742TIP3    H126179   7.817   5.547   0.180
 8742TIP3    H226180   7.862   5.664   0.265
 8743TIP3   OH226181   4.470   1.743   6.129
 8743TIP3    H126182   4.386   1.703   6.106
 8743TIP3    H226183   4.456   1.837   6.114
 8744TIP3   OH226184   5.245   1.910   5.739
 8744TIP3    H126185   5.331   1.937   5.709
 8744TIP3    H226186   5.227   1.829   5.692
 8745TIP3   OH226187   5.968   2.010   5.831
 8745TIP3    H126188   5.978   1.917   5.810
 8745TIP3    H226189   5.924   2.047   5.755
 8746TIP3   OH226190   4.563   1.775   5.824
 8746TIP3    H126191   4.537   1.776   5.916
 8746TIP3    H226192   4.617   1.696   5.816
 8747TIP3   OH226193   0.910   5.917   0.571
 8747TIP3    H126194   0.839   5.879   0.520
 8747TIP3    H226195   0.890   6.011   0.575
 8748TIP3   OH226196   7.456   1.583   5.767
 8748TIP3    H126197   7.424   1.668   5.737
 8748TIP3    H226198   7.388   1.521   5.742
 8749TIP3   OH226199   1.489   5.191   0.056
 8749TIP3    H126200   1.532   5.135   0.121
 8749TIP3    H226201   1.559   5.217  -0.004
 8750TIP3   OH226202   7.702   1.856   5.819
 8750TIP3    H126203   7.684   1.792   5.889
 8750TIP3    H226204   7.721   1.937   5.866
 8751TIP3   OH226205   6.709   1.854   6.248
 8751TIP3    H126206   6.690   1.760   6.240
 8751TIP3    H226207   6.804   1.859   6.248
 8752TIP3   OH226208   6.401   1.059   6.017
 8752TIP3    H126209   6.369   1.143   6.049
 8752TIP3    H226210   6.336   1.033   5.951
 8753TIP3   OH226211   6.527   1.355   6.243
 8753TIP3    H126212   6.586   1.282   6.263
 8753TIP3    H226213   6.586   1.426   6.218
 8754TIP3   OH226214   7.384   2.294   5.884
 8754TIP3    H126215   7.413   2.217   5.836
 8754TIP3    H226216   7.414   2.281   5.974
 8755TIP3   OH226217   7.240   1.806   6.165
 8755TIP3    H126218   7.261   1.745   6.093
 8755TIP3    H226219   7.303   1.877   6.154
 8756TIP3   OH226220   6.951   1.008   6.308
 8756TIP3    H126221   6.943   1.034   6.216
 8756TIP3    H226222   6.960   0.913   6.306
 8757TIP3   OH226223   6.676   1.124   6.321
 8757TIP3    H126224   6.764   1.100   6.351
 8757TIP3    H226225   6.666   1.079   6.237
 8758TIP3   OH226226   7.065   1.344   6.086
 8758TIP3    H126227   7.119   1.350   6.008
 8758TIP3    H226228   7.020   1.260   6.078
 8759TIP3   OH226229   7.354   1.799   5.628
 8759TIP3    H126230   7.310   1.763   5.551
 8759TIP3    H226231   7.298   1.870   5.658
 8760TIP3   OH226232   7.100   1.740   6.412
 8760TIP3    H126233   7.038   1.800   6.454
 8760TIP3    H226234   7.133   1.788   6.336
 8761TIP3   OH226235   1.658   5.641   0.080
 8761TIP3    H126236   1.625   5.728   0.056
 8761TIP3    H226237   1.594   5.608   0.143
 8762TIP3   OH226238   6.316   1.594   5.794
 8762TIP3    H126239   6.261   1.585   5.716
 8762TIP3    H226240   6.336   1.688   5.798
 8763TIP3   OH226241   7.717   2.083   5.971
 8763TIP3    H126242   7.643   2.076   6.031
 8763TIP3    H226243   7.735   2.177   5.966
 8764TIP3   OH226244   7.471   2.125   5.671
 8764TIP3    H126245   7.532   2.053   5.653
 8764TIP3    H226246   7.519   2.204   5.647
 8765TIP3   OH226247   7.607   1.889   5.568
 8765TIP3    H126248   7.518   1.859   5.588
 8765TIP3    H226249   7.655   1.878   5.650
 8766TIP3   OH226250   7.294   1.410   5.624
 8766TIP3    H126251   7.207   1.448   5.610
 8766TIP3    H226252   7.333   1.407   5.536
 8767TIP3   OH226253   7.254   1.210   5.332
 8767TIP3    H126254   7.324   1.258   5.375
 8767TIP3    H226255   7.298   1.152   5.270
 8768TIP3   OH226256   7.649   1.479   5.605
 8768TIP3    H126257   7.583   1.512   5.666
 8768TIP3    H226258   7.730   1.481   5.655
 8769TIP3   OH226259   6.848   1.488   5.976
 8769TIP3    H126260   6.810   1.427   5.913
 8769TIP3    H226261   6.914   1.436   6.022
 8770TIP3   OH226262   6.973   1.908   6.134
 8770TIP3    H126263   6.940   1.892   6.046
 8770TIP3    H226264   7.058   1.864   6.136
 8771TIP3   OH226265   6.959   1.518   6.326
 8771TIP3    H126266   7.017   1.459   6.279
 8771TIP3    H226267   7.017   1.582   6.367
 8772TIP3   OH226268   7.497   2.059   6.140
 8772TIP3    H126269   7.484   2.153   6.156
 8772TIP3    H226270   7.486   2.019   6.226
 8773TIP3   OH226271   1.876   5.795   0.177
 8773TIP3    H126272   1.817   5.835   0.241
 8773TIP3    H226273   1.827   5.720   0.143
 8774TIP3   OH226274   7.473   1.371   5.403
 8774TIP3    H126275   7.531   1.427   5.454
 8774TIP3    H226276   7.496   1.389   5.312
 8775TIP3   OH226277   7.213   2.028   5.682
 8775TIP3    H126278   7.296   2.075   5.688
 8775TIP3    H226279   7.155   2.088   5.634
 8776TIP3   OH226280   1.657   5.903   0.320
 8776TIP3    H126281   1.623   5.909   0.231
 8776TIP3    H226282   1.582   5.875   0.372
 8777TIP3   OH226283   6.737   1.323   5.784
 8777TIP3    H126284   6.658   1.368   5.754
 8777TIP3    H226285   6.711   1.231   5.789
 8778TIP3   OH226286   7.802   1.921   5.008
 8778TIP3    H126287   7.777   2.011   5.029
 8778TIP3    H226288   7.856   1.929   4.929
 8779TIP3   OH226289   1.234   5.420   0.279
 8779TIP3    H126290   1.173   5.437   0.207
 8779TIP3    H226291   1.219   5.328   0.301
 8780TIP3   OH226292   6.388   1.903   6.355
 8780TIP3    H126293   6.483   1.907   6.343
 8780TIP3    H226294   6.366   1.983   6.402
 8781TIP3   OH226295   7.107   2.246   5.509
 8781TIP3    H126296   7.060   2.226   5.428
 8781TIP3    H226297   7.069   2.329   5.538
 8782TIP3   OH226298   6.541   2.107   5.879
 8782TIP3    H126299   6.584   2.098   5.964
 8782TIP3    H226300   6.492   2.026   5.868
 8783TIP3   OH226301   7.312   2.184   5.135
 8783TIP3    H126302   7.360   2.108   5.102
 8783TIP3    H226303   7.344   2.195   5.225
 8784TIP3   OH226304   7.359   2.216   5.405
 8784TIP3    H126305   7.273   2.220   5.447
 8784TIP3    H226306   7.418   2.186   5.475
 8785TIP3   OH226307   1.469   5.578   0.273
 8785TIP3    H126308   1.516   5.550   0.351
 8785TIP3    H226309   1.390   5.524   0.272
 8786TIP3   OH226310   7.553   1.412   5.141
 8786TIP3    H126311   7.511   1.393   5.057
 8786TIP3    H226312   7.616   1.482   5.121
 8787TIP3   OH226313   6.942   1.105   6.040
 8787TIP3    H126314   6.847   1.095   6.051
 8787TIP3    H226315   6.958   1.086   5.948
 8788TIP3   OH226316   7.414   1.190   5.748
 8788TIP3    H126317   7.372   1.269   5.714
 8788TIP3    H226318   7.483   1.170   5.684
 8789TIP3   OH226319   6.934   0.843   5.431
 8789TIP3    H126320   6.912   0.843   5.525
 8789TIP3    H226321   6.896   0.762   5.398
 8790TIP3   OH226322   6.513   0.864   5.816
 8790TIP3    H126323   6.493   0.932   5.752
 8790TIP3    H226324   6.428   0.823   5.833
 8791TIP3   OH226325   6.678   1.037   6.050
 8791TIP3    H126326   6.588   1.059   6.026
 8791TIP3    H226327   6.684   0.942   6.036
 8792TIP3   OH226328   6.962   1.060   5.775
 8792TIP3    H126329   7.050   1.036   5.745
 8792TIP3    H226330   6.909   1.058   5.695
 8793TIP3   OH226331   6.787   1.073   5.543
 8793TIP3    H126332   6.730   1.025   5.484
 8793TIP3    H226333   6.858   1.105   5.487
 8794TIP3   OH226334   7.054   1.541   5.580
 8794TIP3    H126335   6.975   1.493   5.555
 8794TIP3    H226336   7.031   1.584   5.662
 8795TIP3   OH226337   7.635   0.907   5.411
 8795TIP3    H126338   7.619   0.845   5.482
 8795TIP3    H226339   7.629   0.993   5.453
 8796TIP3   OH226340   7.604   1.161   5.533
 8796TIP3    H126341   7.681   1.211   5.560
 8796TIP3    H226342   7.554   1.223   5.479
 8797TIP3   OH226343   6.715   1.571   6.202
 8797TIP3    H126344   6.746   1.556   6.113
 8797TIP3    H226345   6.792   1.554   6.257
 8798TIP3   OH226346   7.199   1.705   5.418
 8798TIP3    H126347   7.150   1.787   5.414
 8798TIP3    H226348   7.144   1.647   5.470
 8799TIP3   OH226349   7.696   2.011   5.306
 8799TIP3    H126350   7.669   1.964   5.385
 8799TIP3    H226351   7.713   1.943   5.241
 8800TIP3   OH226352   6.846   1.895   5.886
 8800TIP3    H126353   6.845   1.974   5.832
 8800TIP3    H226354   6.754   1.870   5.894
 8801TIP3   OH226355   6.374   1.274   5.526
 8801TIP3    H126356   6.437   1.331   5.569
 8801TIP3    H226357   6.289   1.317   5.539
 8802TIP3   OH226358   6.974   1.664   5.807
 8802TIP3    H126359   6.944   1.752   5.829
 8802TIP3    H226360   6.928   1.607   5.869
 8803TIP3   OH226361   7.122   2.233   6.355
 8803TIP3    H126362   7.163   2.303   6.304
 8803TIP3    H226363   7.190   2.208   6.418
 8804TIP3   OH226364   6.777   2.121   5.738
 8804TIP3    H126365   6.689   2.127   5.776
 8804TIP3    H226366   6.811   2.210   5.743
 8805TIP3   OH226367   7.490   1.752   5.184
 8805TIP3    H126368   7.529   1.719   5.265
 8805TIP3    H226369   7.401   1.716   5.184
 8806TIP3   OH226370   7.770   2.202   5.011
 8806TIP3    H126371   7.808   2.236   4.930
 8806TIP3    H226372   7.706   2.268   5.037
 8807TIP3   OH226373   7.628   1.670   5.405
 8807TIP3    H126374   7.649   1.600   5.467
 8807TIP3    H226375   7.629   1.750   5.457
 8808TIP3   OH226376   1.292   5.846   0.050
 8808TIP3    H126377   1.342   5.780   0.100
 8808TIP3    H226378   1.316   5.929   0.090
 8809TIP3   OH226379   6.842   1.753   5.197
 8809TIP3    H126380   6.849   1.662   5.168
 8809TIP3    H226381   6.833   1.747   5.293
 8810TIP3   OH226382   6.803   1.752   5.469
 8810TIP3    H126383   6.860   1.725   5.541
 8810TIP3    H226384   6.797   1.847   5.477
 8811TIP3   OH226385   6.522   1.455   5.677
 8811TIP3    H126386   6.453   1.491   5.731
 8811TIP3    H226387   6.535   1.520   5.607
 8812TIP3   OH226388   7.062   1.936   5.407
 8812TIP3    H126389   6.977   1.960   5.444
 8812TIP3    H226390   7.083   2.009   5.348
 8813TIP3   OH226391   7.235   0.989   5.792
 8813TIP3    H126392   7.299   1.059   5.779
 8813TIP3    H226393   7.237   0.971   5.886
 8814TIP3   OH226394   6.813   2.024   5.485
 8814TIP3    H126395   6.788   2.095   5.426
 8814TIP3    H226396   6.797   2.060   5.573
 8815TIP3   OH226397   6.555   1.630   5.468
 8815TIP3    H126398   6.633   1.685   5.469
 8815TIP3    H226399   6.571   1.567   5.398
 8816TIP3   OH226400   6.439   1.009   5.593
 8816TIP3    H126401   6.515   1.029   5.538
 8816TIP3    H226402   6.387   1.090   5.592
 8817TIP3   OH226403   7.752   2.362   5.947
 8817TIP3    H126404   7.708   2.412   5.879
 8817TIP3    H226405   7.843   2.390   5.942
 8818TIP3   OH226406   6.381   1.882   5.842
 8818TIP3    H126407   6.313   1.900   5.906
 8818TIP3    H226408   6.346   1.915   5.759
 8819TIP3   OH226409   1.270   6.125   0.443
 8819TIP3    H126410   1.354   6.124   0.490
 8819TIP3    H226411   1.237   6.036   0.450
 8820TIP3   OH226412   7.003   1.940   5.082
 8820TIP3    H126413   6.952   1.873   5.128
 8820TIP3    H226414   7.075   1.891   5.041
 8821TIP3   OH226415   7.433   1.968   5.027
 8821TIP3    H126416   7.470   1.899   5.084
 8821TIP3    H226417   7.483   1.960   4.946
 8822TIP3   OH226418   6.660   1.431   5.309
 8822TIP3    H126419   6.710   1.411   5.388
 8822TIP3    H226420   6.726   1.455   5.244
 8823TIP3   OH226421   7.233   1.656   5.151
 8823TIP3    H126422   7.209   1.669   5.243
 8823TIP3    H226423   7.219   1.562   5.136
 8824TIP3   OH226424   6.836   1.384   5.524
 8824TIP3    H126425   6.806   1.351   5.609
 8824TIP3    H226426   6.883   1.309   5.485
 8825TIP3   OH226427   6.976   1.192   5.380
 8825TIP3    H126428   6.946   1.199   5.289
 8825TIP3    H226429   7.071   1.191   5.374
 8826TIP3   OH226430   6.804   2.236   5.305
 8826TIP3    H126431   6.893   2.213   5.276
 8826TIP3    H226432   6.763   2.275   5.228
 8827TIP3   OH226433   6.159   2.184   5.930
 8827TIP3    H126434   6.101   2.124   5.885
 8827TIP3    H226435   6.207   2.130   5.993
 8828TIP3   OH226436   6.303   2.037   6.111
 8828TIP3    H126437   6.299   1.963   6.173
 8828TIP3    H226438   6.355   2.103   6.157
 8829TIP3   OH226439   0.093   2.482   5.912
 8829TIP3    H126440   0.117   2.565   5.954
 8829TIP3    H226441   0.153   2.474   5.838
 8830TIP3   OH226442   1.220   5.166   0.045
 8830TIP3    H126443   1.211   5.141  -0.047
 8830TIP3    H226444   1.312   5.188   0.056
 8831TIP3   OH226445   1.218   4.869   0.080
 8831TIP3    H126446   1.281   4.844   0.013
 8831TIP3    H226447   1.213   4.964   0.074
 8832TIP3   OH226448   7.589   2.341   5.565
 8832TIP3    H126449   7.639   2.334   5.484
 8832TIP3    H226450   7.635   2.408   5.616
 8833TIP3   OH226451   1.455   5.839   0.502
 8833TIP3    H126452   1.362   5.822   0.484
 8833TIP3    H226453   1.473   5.790   0.582
 8834TIP3   OH226454   1.617   5.914   0.042
 8834TIP3    H126455   1.575   5.992   0.006
 8834TIP3    H226456   1.705   5.915   0.004
 8835TIP3   OH226457   1.309   6.149   0.079
 8835TIP3    H126458   1.218   6.164   0.055
 8835TIP3    H226459   1.328   6.214   0.146
 8836TIP3   OH226460   6.807   2.430   6.382
 8836TIP3    H126461   6.722   2.432   6.426
 8836TIP3    H226462   6.787   2.450   6.290
 8837TIP3   OH226463   7.207   2.440   6.189
 8837TIP3    H126464   7.138   2.451   6.122
 8837TIP3    H226465   7.222   2.529   6.221
 8838TIP3   OH226466   7.456   2.326   6.167
 8838TIP3    H126467   7.371   2.370   6.175
 8838TIP3    H226468   7.519   2.398   6.165
 8839TIP3   OH226469   7.633   2.535   6.135
 8839TIP3    H126470   7.652   2.624   6.107
 8839TIP3    H226471   7.685   2.479   6.077
 8840TIP3   OH226472   6.483   2.210   6.252
 8840TIP3    H126473   6.507   2.185   6.341
 8840TIP3    H226474   6.553   2.175   6.197
 8841TIP3   OH226475   6.684   2.093   6.115
 8841TIP3    H126476   6.692   2.009   6.159
 8841TIP3    H226477   6.772   2.131   6.119
 8842TIP3   OH226478   6.951   2.185   6.139
 8842TIP3    H126479   6.967   2.091   6.127
 8842TIP3    H226480   7.001   2.207   6.218
 8843TIP3   OH226481   6.278   1.994   5.614
 8843TIP3    H126482   6.198   1.951   5.584
 8843TIP3    H226483   6.267   2.086   5.591
 8844TIP3   OH226484   7.057   2.158   5.233
 8844TIP3    H126485   7.141   2.187   5.198
 8844TIP3    H226486   7.028   2.089   5.174
 8845TIP3   OH226487   7.723   2.282   5.329
 8845TIP3    H126488   7.717   2.187   5.317
 8845TIP3    H226489   7.689   2.319   5.247
 8846TIP3   OH226490   6.361   1.989   5.293
 8846TIP3    H126491   6.352   1.976   5.387
 8846TIP3    H226492   6.442   1.945   5.269
 8847TIP3   OH226493   0.026   2.415   5.446
 8847TIP3    H126494  -0.046   2.369   5.404
 8847TIP3    H226495   0.064   2.350   5.505
 8848TIP3   OH226496   4.422   6.381   0.460
 8848TIP3    H126497   4.355   6.435   0.418
 8848TIP3    H226498   4.372   6.322   0.517
 8849TIP3   OH226499   4.528   6.649   0.632
 8849TIP3    H126500   4.580   6.592   0.575
 8849TIP3    H226501   4.592   6.707   0.674
 8850TIP3   OH226502   4.225   7.056   0.510
 8850TIP3    H126503   4.278   7.018   0.441
 8850TIP3    H226504   4.233   6.996   0.584
 8851TIP3   OH226505   5.053   5.890   0.797
 8851TIP3    H126506   5.111   5.870   0.870
 8851TIP3    H226507   5.098   5.958   0.747
 8852TIP3   OH226508   4.637   5.697   0.594
 8852TIP3    H126509   4.667   5.634   0.660
 8852TIP3    H226510   4.716   5.741   0.565
 8853TIP3   OH226511   4.231   6.537   0.339
 8853TIP3    H126512   4.204   6.510   0.251
 8853TIP3    H226513   4.199   6.626   0.348
 8854TIP3   OH226514   4.789   5.737   0.836
 8854TIP3    H126515   4.869   5.698   0.801
 8854TIP3    H226516   4.759   5.797   0.768
 8855TIP3   OH226517   3.199   6.336   0.438
 8855TIP3    H126518   3.128   6.391   0.405
 8855TIP3    H226519   3.228   6.379   0.518
 8856TIP3   OH226520   4.691   6.812   0.776
 8856TIP3    H126521   4.619   6.843   0.832
 8856TIP3    H226522   4.694   6.875   0.704
 8857TIP3   OH226523   4.383   6.904   0.341
 8857TIP3    H126524   4.444   6.829   0.339
 8857TIP3    H226525   4.439   6.980   0.322
 8858TIP3   OH226526   4.550   6.689   0.324
 8858TIP3    H126527   4.542   6.640   0.242
 8858TIP3    H226528   4.584   6.625   0.387
 8859TIP3   OH226529   5.023   6.749   1.040
 8859TIP3    H126530   4.930   6.737   1.058
 8859TIP3    H226531   5.037   6.843   1.046
 8860TIP3   OH226532   4.202   6.186   0.331
 8860TIP3    H126533   4.118   6.227   0.351
 8860TIP3    H226534   4.217   6.208   0.239
 8861TIP3   OH226535   4.116   5.959   0.025
 8861TIP3    H126536   4.168   6.031   0.062
 8861TIP3    H226537   4.178   5.912  -0.031
 8862TIP3   OH226538   5.036   6.469   1.014
 8862TIP3    H126539   5.026   6.562   1.032
 8862TIP3    H226540   5.002   6.457   0.926
 8863TIP3   OH226541   4.494   6.275   0.220
 8863TIP3    H126542   4.464   6.307   0.306
 8863TIP3    H226543   4.565   6.214   0.241
 8864TIP3   OH226544   3.777   6.184   0.714
 8864TIP3    H126545   3.701   6.148   0.669
 8864TIP3    H226546   3.821   6.107   0.752
 8865TIP3   OH226547   4.492   6.879   0.948
 8865TIP3    H126548   4.449   6.961   0.922
 8865TIP3    H226549   4.420   6.817   0.960
 8866TIP3   OH226550   4.288   6.191   0.065
 8866TIP3    H126551   4.365   6.224   0.112
 8866TIP3    H226552   4.323   6.161  -0.019
 8867TIP3   OH226553   4.138   6.793   0.371
 8867TIP3    H126554   4.226   6.831   0.370
 8867TIP3    H226555   4.080   6.864   0.342
 8868TIP3   OH226556   4.828   5.325   0.113
 8868TIP3    H126557   4.742   5.356   0.142
 8868TIP3    H226558   4.868   5.401   0.071
 8869TIP3   OH226559   3.586   6.090   0.551
 8869TIP3    H126560   3.523   6.127   0.489
 8869TIP3    H226561   3.543   6.011   0.585
 8870TIP3   OH226562   2.062   3.000   6.202
 8870TIP3    H126563   2.057   3.091   6.175
 8870TIP3    H226564   2.151   2.973   6.178
 8871TIP3   OH226565   5.068   7.028   1.140
 8871TIP3    H126566   5.117   6.969   1.197
 8871TIP3    H226567   5.025   7.089   1.199
 8872TIP3   OH226568   4.001   7.022   0.230
 8872TIP3    H126569   3.957   7.003   0.147
 8872TIP3    H226570   3.965   7.106   0.258
 8873TIP3   OH226571   3.465   6.771   0.539
 8873TIP3    H126572   3.383   6.812   0.565
 8873TIP3    H226573   3.439   6.690   0.495
 8874TIP3   OH226574   1.567   3.228   6.297
 8874TIP3    H126575   1.616   3.154   6.261
 8874TIP3    H226576   1.604   3.240   6.384
 8875TIP3   OH226577   4.249   6.996   0.114
 8875TIP3    H126578   4.164   7.001   0.157
 8875TIP3    H226579   4.305   6.952   0.178
 8876TIP3   OH226580   1.785   2.374   6.294
 8876TIP3    H126581   1.759   2.375   6.202
 8876TIP3    H226582   1.873   2.412   6.294
 8877TIP3   OH226583   4.171   5.503   0.113
 8877TIP3    H126584   4.242   5.455   0.157
 8877TIP3    H226585   4.123   5.436   0.064
 8878TIP3   OH226586   4.253   5.968   0.523
 8878TIP3    H126587   4.230   6.050   0.478
 8878TIP3    H226588   4.345   5.953   0.501
 8879TIP3   OH226589   4.459   6.076   0.778
 8879TIP3    H126590   4.395   6.117   0.720
 8879TIP3    H226591   4.458   5.984   0.754
 8880TIP3   OH226592   3.741   5.407   0.076
 8880TIP3    H126593   3.784   5.449   0.151
 8880TIP3    H226594   3.691   5.478   0.034
 8881TIP3   OH226595   3.909   5.675   0.454
 8881TIP3    H126596   3.979   5.719   0.405
 8881TIP3    H226597   3.831   5.726   0.435
 8882TIP3   OH226598   3.589   5.914   0.195
 8882TIP3    H126599   3.527   5.841   0.202
 8882TIP3    H226600   3.653   5.885   0.130
 8883TIP3   OH226601   7.366   0.067   1.226
 8883TIP3    H126602   7.343   0.096   1.137
 8883TIP3    H226603   7.459   0.086   1.234
 8884TIP3   OH226604   3.965   6.317   0.240
 8884TIP3    H126605   3.921   6.234   0.258
 8884TIP3    H226606   3.941   6.373   0.314
 8885TIP3   OH226607   4.386   5.665   0.051
 8885TIP3    H126608   4.306   5.627   0.086
 8885TIP3    H226609   4.430   5.702   0.127
 8886TIP3   OH226610   4.556   5.953   0.108
 8886TIP3    H126611   4.616   5.926   0.177
 8886TIP3    H226612   4.469   5.949   0.148
 8887TIP3   OH226613   4.101   6.499   0.095
 8887TIP3    H126614   4.044   6.576   0.108
 8887TIP3    H226615   4.053   6.427   0.137
 8888TIP3   OH226616   4.895   5.982   0.056
 8888TIP3    H126617   4.843   5.934  -0.008
 8888TIP3    H226618   4.888   6.074   0.030
 8889TIP3   OH226619   1.969   3.060   6.456
 8889TIP3    H126620   1.947   2.975   6.496
 8889TIP3    H226621   2.001   3.037   6.369
 8890TIP3   OH226622   3.714   6.797   0.650
 8890TIP3    H126623   3.781   6.800   0.581
 8890TIP3    H226624   3.631   6.785   0.603
 8891TIP3   OH226625   3.212   5.881   0.392
 8891TIP3    H126626   3.257   5.915   0.469
 8891TIP3    H226627   3.168   5.957   0.354
 8892TIP3   OH226628   3.926   6.492   0.442
 8892TIP3    H126629   3.901   6.580   0.469
 8892TIP3    H226630   3.990   6.464   0.508
 8893TIP3   OH226631   3.633   6.936   0.372
 8893TIP3    H126632   3.545   6.915   0.403
 8893TIP3    H226633   3.643   7.029   0.389
 8894TIP3   OH226634   1.731   2.810   6.358
 8894TIP3    H126635   1.787   2.803   6.435
 8894TIP3    H226636   1.647   2.773   6.386
 8895TIP3   OH226637   4.643   7.174   0.970
 8895TIP3    H126638   4.582   7.129   1.028
 8895TIP3    H226639   4.608   7.263   0.963
 8896TIP3   OH226640   2.053   3.271   6.160
 8896TIP3    H126641   2.075   3.329   6.087
 8896TIP3    H226642   1.981   3.315   6.204
 8897TIP3   OH226643   4.556   6.515   0.107
 8897TIP3    H126644   4.527   6.432   0.143
 8897TIP3    H226645   4.649   6.502   0.089
 8898TIP3   OH226646   1.100   2.766   6.371
 8898TIP3    H126647   1.116   2.679   6.335
 8898TIP3    H226648   1.079   2.751   6.463
 8899TIP3   OH226649   3.671   6.504   0.194
 8899TIP3    H126650   3.748   6.491   0.249
 8899TIP3    H226651   3.663   6.599   0.186
 8900TIP3   OH226652   3.409   6.179   0.368
 8900TIP3    H126653   3.337   6.223   0.414
 8900TIP3    H226654   3.424   6.234   0.291
 8901TIP3   OH226655   4.512   5.491   0.486
 8901TIP3    H126656   4.427   5.510   0.446
 8901TIP3    H226657   4.550   5.577   0.503
 8902TIP3   OH226658   3.928   6.713   0.145
 8902TIP3    H126659   3.833   6.720   0.135
 8902TIP3    H226660   3.963   6.781   0.088
 8903TIP3   OH226661   4.145   5.728   0.609
 8903TIP3    H126662   4.178   5.815   0.587
 8903TIP3    H226663   4.193   5.703   0.688
 8904TIP3   OH226664   4.321   5.495   0.682
 8904TIP3    H126665   4.333   5.481   0.776
 8904TIP3    H226666   4.409   5.497   0.646
 8905TIP3   OH226667   3.660   6.773   0.155
 8905TIP3    H126668   3.649   6.833   0.081
 8905TIP3    H226669   3.634   6.823   0.232
 8906TIP3   OH226670   3.716   5.474   0.494
 8906TIP3    H126671   3.649   5.538   0.520
 8906TIP3    H226672   3.793   5.527   0.474
 8907TIP3   OH226673   4.652   6.250   0.689
 8907TIP3    H126674   4.602   6.169   0.705
 8907TIP3    H226675   4.742   6.227   0.708
 8908TIP3   OH226676   3.427   6.382   0.179
 8908TIP3    H126677   3.507   6.435   0.186
 8908TIP3    H226678   3.437   6.334   0.097
 8909TIP3   OH226679   3.385   5.746   0.239
 8909TIP3    H126680   3.325   5.791   0.298
 8909TIP3    H226681   3.330   5.686   0.188
 8910TIP3   OH226682   4.675   7.186   0.478
 8910TIP3    H126683   4.636   7.268   0.507
 8910TIP3    H226684   4.768   7.205   0.471
 8911TIP3   OH226685   3.195   6.625   0.543
 8911TIP3    H126686   3.223   6.617   0.634
 8911TIP3    H226687   3.175   6.718   0.532
 8912TIP3   OH226688   1.252   2.974   6.275
 8912TIP3    H126689   1.204   2.899   6.310
 8912TIP3    H226690   1.323   2.935   6.224
 8913TIP3   OH226691   1.689   3.014   6.181
 8913TIP3    H126692   1.719   2.945   6.240
 8913TIP3    H226693   1.745   3.007   6.104
 8914TIP3   OH226694   0.900   2.504   6.428
 8914TIP3    H126695   0.946   2.481   6.508
 8914TIP3    H226696   0.968   2.509   6.361
 8915TIP3   OH226697   1.453   2.685   6.283
 8915TIP3    H126698   1.448   2.697   6.378
 8915TIP3    H226699   1.448   2.591   6.270
 8916TIP3   OH226700   3.884   6.047   0.292
 8916TIP3    H126701   3.807   6.093   0.258
 8916TIP3    H226702   3.902   5.979   0.227
 8917TIP3   OH226703   3.851   5.905   0.058
 8917TIP3    H126704   3.812   5.920  -0.028
 8917TIP3    H226705   3.945   5.918   0.044
 8918TIP3   OH226706   2.019   2.505   6.218
 8918TIP3    H126707   2.009   2.466   6.131
 8918TIP3    H226708   1.995   2.597   6.206
 8919TIP3   OH226709   1.054   3.264   6.441
 8919TIP3    H126710   1.148   3.255   6.431
 8919TIP3    H226711   1.025   3.310   6.362
 8920TIP3   OH226712   3.153   6.411   0.122
 8920TIP3    H126713   3.243   6.409   0.156
 8920TIP3    H226714   3.132   6.320   0.105
 8921TIP3   OH226715   3.000   7.030   0.775
 8921TIP3    H126716   2.937   6.965   0.743
 8921TIP3    H226717   3.038   6.990   0.853
 8922TIP3   OH226718   4.930   7.277   0.493
 8922TIP3    H126719   4.952   7.327   0.572
 8922TIP3    H226720   5.014   7.261   0.450
 8923TIP3   OH226721   4.889   7.295   0.988
 8923TIP3    H126722   4.809   7.242   0.982
 8923TIP3    H226723   4.920   7.280   1.077
 8924TIP3   OH226724   4.821   6.463   0.079
 8924TIP3    H126725   4.881   6.529   0.044
 8924TIP3    H226726   4.871   6.419   0.148
 8925TIP3   OH226727   4.977   6.329   0.257
 8925TIP3    H126728   4.935   6.328   0.342
 8925TIP3    H226729   5.063   6.369   0.272
 8926TIP3   OH226730   4.945   6.698   0.671
 8926TIP3    H126731   5.017   6.711   0.610
 8926TIP3    H226732   4.869   6.736   0.626
 8927TIP3   OH226733   4.830   6.977   0.944
 8927TIP3    H126734   4.758   7.040   0.945
 8927TIP3    H226735   4.798   6.905   0.889
 8928TIP3   OH226736   2.232   2.503   6.390
 8928TIP3    H126737   2.159   2.494   6.328
 8928TIP3    H226738   2.213   2.584   6.437
 8929TIP3   OH226739   2.122   2.140   6.310
 8929TIP3    H126740   2.040   2.187   6.296
 8929TIP3    H226741   2.102   2.049   6.288
 8930TIP3   OH226742   4.655   6.167   0.418
 8930TIP3    H126743   4.747   6.146   0.410
 8930TIP3    H226744   4.648   6.214   0.501
 8931TIP3   OH226745   2.056   1.874   6.279
 8931TIP3    H126746   2.113   1.848   6.351
 8931TIP3    H226747   1.976   1.824   6.292
 8932TIP3   OH226748   4.770   5.888   0.282
 8932TIP3    H126749   4.796   5.796   0.289
 8932TIP3    H226750   4.812   5.919   0.202
 8933TIP3   OH226751   4.899   6.140   0.778
 8933TIP3    H126752   4.982   6.142   0.731
 8933TIP3    H226753   4.910   6.071   0.843
 8934TIP3   OH226754   4.858   5.628   0.293
 8934TIP3    H126755   4.889   5.580   0.369
 8934TIP3    H226756   4.796   5.569   0.250
 8935TIP3   OH226757   2.283   1.829   6.445
 8935TIP3    H126758   2.331   1.774   6.382
 8935TIP3    H226759   2.336   1.909   6.451
 8936TIP3   OH226760   4.502   7.133   0.273
 8936TIP3    H126761   4.551   7.119   0.192
 8936TIP3    H226762   4.569   7.156   0.337
 8937TIP3   OH226763   4.210   7.365   0.905
 8937TIP3    H126764   4.180   7.341   0.817
 8937TIP3    H226765   4.161   7.444   0.926
 8938TIP3   OH226766   4.353   7.110   0.896
 8938TIP3    H126767   4.259   7.112   0.876
 8938TIP3    H226768   4.388   7.188   0.854
 8939TIP3   OH226769   4.466   7.319   0.753
 8939TIP3    H126770   4.411   7.398   0.746
 8939TIP3    H226771   4.552   7.347   0.723
 8940TIP3   OH226772   3.775   7.002   0.838
 8940TIP3    H126773   3.777   6.919   0.790
 8940TIP3    H226774   3.811   6.981   0.924
 8941TIP3   OH226775   4.904   5.394   0.826
 8941TIP3    H126776   4.949   5.479   0.820
 8941TIP3    H226777   4.814   5.414   0.799
 8942TIP3   OH226778   4.996   5.554   0.514
 8942TIP3    H126779   5.053   5.492   0.468
 8942TIP3    H226780   5.026   5.550   0.605
 8943TIP3   OH226781   4.634   5.473   0.241
 8943TIP3    H126782   4.591   5.559   0.239
 8943TIP3    H226783   4.626   5.444   0.332
 8944TIP3   OH226784   3.066   6.826   0.359
 8944TIP3    H126785   3.039   6.755   0.301
 8944TIP3    H226786   3.063   6.905   0.304
 8945TIP3   OH226787   3.646   5.256   0.342
 8945TIP3    H126788   3.663   5.286   0.252
 8945TIP3    H226789   3.650   5.336   0.395
 8946TIP3   OH226790   4.063   5.434   0.539
 8946TIP3    H126791   4.101   5.438   0.627
 8946TIP3    H226792   4.027   5.522   0.524
 8947TIP3   OH226793   1.319   3.199   6.412
 8947TIP3    H126794   1.400   3.228   6.370
 8947TIP3    H226795   1.287   3.128   6.357
 8948TIP3   OH226796   4.636   7.054   0.046
 8948TIP3    H126797   4.630   6.959   0.038
 8948TIP3    H226798   4.596   7.088  -0.033
 8949TIP3   OH226799   3.261   6.760   0.036
 8949TIP3    H126800   3.294   6.808   0.113
 8949TIP3    H226801   3.337   6.710   0.006
 8950TIP3   OH226802   3.516   2.849   6.448
 8950TIP3    H126803   3.485   2.931   6.487
 8950TIP3    H226804   3.439   2.811   6.407
 8951TIP3   OH226805   6.111   6.582   0.381
 8951TIP3    H126806   6.163   6.567   0.459
 8951TIP3    H226807   6.076   6.496   0.358
 8952TIP3   OH226808   5.466   6.418   0.702
 8952TIP3    H126809   5.454   6.360   0.777
 8952TIP3    H226810   5.520   6.490   0.735
 8953TIP3   OH226811   6.468   6.876   0.115
 8953TIP3    H126812   6.413   6.824   0.173
 8953TIP3    H226813   6.452   6.967   0.142
 8954TIP3   OH226814   5.429   6.872   0.419
 8954TIP3    H126815   5.411   6.779   0.430
 8954TIP3    H226816   5.524   6.878   0.410
 8955TIP3   OH226817   5.116   6.089   0.193
 8955TIP3    H126818   5.075   6.172   0.214
 8955TIP3    H226819   5.048   6.040   0.147
 8956TIP3   OH226820   5.218   6.416   0.340
 8956TIP3    H126821   5.255   6.341   0.387
 8956TIP3    H226822   5.290   6.478   0.334
 8957TIP3   OH226823   6.041   7.295   0.081
 8957TIP3    H126824   6.007   7.256   0.001
 8957TIP3    H226825   6.077   7.221   0.131
 8958TIP3   OH226826   5.948   6.808   0.395
 8958TIP3    H126827   5.989   6.723   0.378
 8958TIP3    H226828   6.022   6.867   0.407
 8959TIP3   OH226829   6.957   6.123   0.397
 8959TIP3    H126830   6.980   6.206   0.438
 8959TIP3    H226831   6.983   6.133   0.306
 8960TIP3   OH226832   6.355   6.283   0.434
 8960TIP3    H126833   6.398   6.203   0.463
 8960TIP3    H226834   6.314   6.260   0.351
 8961TIP3   OH226835   5.720   5.945   0.370
 8961TIP3    H126836   5.700   6.026   0.323
 8961TIP3    H226837   5.658   5.880   0.335
 8962TIP3   OH226838   6.405   6.053   0.039
 8962TIP3    H126839   6.470   6.046   0.108
 8962TIP3    H226840   6.453   6.089  -0.036
 8963TIP3   OH226841   5.332   6.211   0.481
 8963TIP3    H126842   5.418   6.217   0.523
 8963TIP3    H226843   5.343   6.145   0.412
 8964TIP3   OH226844   5.772   6.384   0.277
 8964TIP3    H126845   5.864   6.362   0.294
 8964TIP3    H226846   5.728   6.300   0.270
 8965TIP3   OH226847   7.026   6.344   0.549
 8965TIP3    H126848   6.943   6.393   0.553
 8965TIP3    H226849   7.050   6.333   0.641
 8966TIP3   OH226850   5.697   5.916   0.883
 8966TIP3    H126851   5.698   6.005   0.849
 8966TIP3    H226852   5.764   5.916   0.951
 8967TIP3   OH226853   5.813   6.741   0.627
 8967TIP3    H126854   5.747   6.807   0.649
 8967TIP3    H226855   5.863   6.781   0.555
 8968TIP3   OH226856   6.573   6.071   0.251
 8968TIP3    H126857   6.534   6.049   0.335
 8968TIP3    H226858   6.625   6.149   0.267
 8969TIP3   OH226859   5.576   6.087   0.569
 8969TIP3    H126860   5.626   6.123   0.642
 8969TIP3    H226861   5.642   6.051   0.510
 8970TIP3   OH226862   5.617   6.927   0.695
 8970TIP3    H126863   5.594   7.015   0.666
 8970TIP3    H226864   5.536   6.877   0.691
 8971TIP3   OH226865   2.368   2.915   6.422
 8971TIP3    H126866   2.342   2.932   6.332
 8971TIP3    H226867   2.395   3.000   6.456
 8972TIP3   OH226868   6.438   7.149   0.216
 8972TIP3    H126869   6.346   7.139   0.241
 8972TIP3    H226870   6.441   7.231   0.167
 8973TIP3   OH226871   6.754   6.024   0.566
 8973TIP3    H126872   6.671   6.029   0.520
 8973TIP3    H226873   6.820   6.046   0.500
 8974TIP3   OH226874   6.033   5.719   0.487
 8974TIP3    H126875   5.986   5.636   0.497
 8974TIP3    H226876   5.977   5.784   0.529
 8975TIP3   OH226877   6.678   7.030   0.555
 8975TIP3    H126878   6.663   6.954   0.498
 8975TIP3    H226879   6.660   7.105   0.498
 8976TIP3   OH226880   3.335   2.719   6.282
 8976TIP3    H126881   3.252   2.761   6.262
 8976TIP3    H226882   3.381   2.714   6.198
 8977TIP3   OH226883   3.293   2.516   5.977
 8977TIP3    H126884   3.359   2.565   6.026
 8977TIP3    H226885   3.343   2.448   5.932
 8978TIP3   OH226886   6.859   6.688   0.420
 8978TIP3    H126887   6.775   6.735   0.424
 8978TIP3    H226888   6.891   6.704   0.331
 8979TIP3   OH226889   3.691   2.787   6.246
 8979TIP3    H126890   3.638   2.816   6.320
 8979TIP3    H226891   3.776   2.767   6.285
 8980TIP3   OH226892   6.544   6.563   0.681
 8980TIP3    H126893   6.559   6.640   0.736
 8980TIP3    H226894   6.458   6.577   0.643
 8981TIP3   OH226895   5.540   6.497   0.178
 8981TIP3    H126896   5.502   6.434   0.116
 8981TIP3    H226897   5.622   6.456   0.206
 8982TIP3   OH226898   5.693   6.914   0.336
 8982TIP3    H126899   5.672   6.902   0.243
 8982TIP3    H226900   5.781   6.878   0.346
 8983TIP3   OH226901   5.683   6.535   0.500
 8983TIP3    H126902   5.727   6.522   0.416
 8983TIP3    H226903   5.733   6.605   0.542
 8984TIP3   OH226904   6.184   7.136   0.312
 8984TIP3    H126905   6.177   7.212   0.370
 8984TIP3    H226906   6.185   7.061   0.371
 8985TIP3   OH226907   5.834   7.056   0.802
 8985TIP3    H126908   5.793   7.134   0.840
 8985TIP3    H226909   5.765   7.015   0.751
 8986TIP3   OH226910   3.520   2.653   6.076
 8986TIP3    H126911   3.581   2.711   6.123
 8986TIP3    H226912   3.548   2.658   5.984
 8987TIP3   OH226913   5.579   6.608   0.867
 8987TIP3    H126914   5.626   6.688   0.886
 8987TIP3    H226915   5.590   6.554   0.945
 8988TIP3   OH226916   5.720   7.286   0.894
 8988TIP3    H126917   5.705   7.324   0.808
 8988TIP3    H226918   5.642   7.232   0.910
 8989TIP3   OH226919   4.030   1.876   6.134
 8989TIP3    H126920   3.955   1.897   6.189
 8989TIP3    H226921   4.041   1.951   6.076
 8990TIP3   OH226922   2.783   2.603   6.442
 8990TIP3    H126923   2.707   2.654   6.413
 8990TIP3    H226924   2.749   2.516   6.459
 8991TIP3   OH226925   3.853   3.254   5.689
 8991TIP3    H126926   3.842   3.344   5.659
 8991TIP3    H226927   3.942   3.230   5.662
 8992TIP3   OH226928   5.266   6.640   0.952
 8992TIP3    H126929   5.185   6.690   0.963
 8992TIP3    H226930   5.238   6.548   0.952
 8993TIP3   OH226931   5.053   6.905   0.497
 8993TIP3    H126932   5.147   6.912   0.516
 8993TIP3    H226933   5.011   6.954   0.567
 8994TIP3   OH226934   6.907   7.390   0.633
 8994TIP3    H126935   6.911   7.295   0.644
 8994TIP3    H226936   6.827   7.417   0.678
 8995TIP3   OH226937   6.042   7.201   0.717
 8995TIP3    H126938   6.029   7.288   0.756
 8995TIP3    H226939   5.970   7.149   0.752
 8996TIP3   OH226940   3.049   3.629   6.141
 8996TIP3    H126941   3.047   3.580   6.059
 8996TIP3    H226942   3.129   3.600   6.184
 8997TIP3   OH226943   5.217   7.136   0.073
 8997TIP3    H126944   5.277   7.122   0.147
 8997TIP3    H226945   5.177   7.051   0.058
 8998TIP3   OH226946   6.845   6.519   0.844
 8998TIP3    H126947   6.791   6.504   0.921
 8998TIP3    H226948   6.842   6.436   0.796
 8999TIP3   OH226949   5.330   6.920   0.991
 8999TIP3    H126950   5.349   6.828   0.974
 8999TIP3    H226951   5.251   6.938   0.939
 9000TIP3   OH226952   5.807   5.800   0.632
 9000TIP3    H126953   5.772   5.762   0.552
 9000TIP3    H226954   5.730   5.814   0.688
 9001TIP3   OH226955   6.376   5.943   0.999
 9001TIP3    H126956   6.427   5.872   1.039
 9001TIP3    H226957   6.286   5.912   1.001
 9002TIP3   OH226958   6.556   6.313   0.784
 9002TIP3    H126959   6.488   6.313   0.852
 9002TIP3    H226960   6.547   6.399   0.742
 9003TIP3   OH226961   3.598   2.618   5.811
 9003TIP3    H126962   3.555   2.626   5.726
 9003TIP3    H226963   3.676   2.673   5.803
 9004TIP3   OH226964   3.309   2.053   6.130
 9004TIP3    H126965   3.269   2.061   6.217
 9004TIP3    H226966   3.272   1.972   6.094
 9005TIP3   OH226967   5.800   6.296   0.570
 9005TIP3    H126968   5.755   6.276   0.652
 9005TIP3    H226969   5.755   6.374   0.537
 9006TIP3   OH226970   5.618   6.157   0.231
 9006TIP3    H126971   5.528   6.138   0.258
 9006TIP3    H226972   5.624   6.123   0.142
 9007TIP3   OH226973   3.453   2.506   6.412
 9007TIP3    H126974   3.409   2.582   6.375
 9007TIP3    H226975   3.510   2.474   6.342
 9008TIP3   OH226976   6.249   6.516   0.944
 9008TIP3    H126977   6.208   6.495   1.029
 9008TIP3    H226978   6.329   6.563   0.967
 9009TIP3   OH226979   6.254   6.236   0.181
 9009TIP3    H126980   6.193   6.259   0.111
 9009TIP3    H226981   6.305   6.164   0.146
 9010TIP3   OH226982   5.485   6.256   0.942
 9010TIP3    H126983   5.414   6.301   0.987
 9010TIP3    H226984   5.448   6.171   0.917
 9011TIP3   OH226985   2.973   2.032   6.111
 9011TIP3    H126986   2.961   2.036   6.206
 9011TIP3    H226987   2.896   2.077   6.076
 9012TIP3   OH226988   5.122   5.899   0.452
 9012TIP3    H126989   5.206   5.907   0.496
 9012TIP3    H226990   5.138   5.836   0.381
 9013TIP3   OH226991   2.445   2.056   6.461
 9013TIP3    H126992   2.488   2.088   6.382
 9013TIP3    H226993   2.382   2.124   6.483
 9014TIP3   OH226994   6.289   6.507   0.575
 9014TIP3    H126995   6.326   6.438   0.519
 9014TIP3    H226996   6.249   6.459   0.647
 9015TIP3   OH226997   5.986   5.954   0.277
 9015TIP3    H126998   5.906   5.954   0.329
 9015TIP3    H226999   6.056   5.968   0.341
 9016TIP3   OH227000   5.374   6.036   0.275
 9016TIP3    H127001   5.285   6.041   0.240
 9016TIP3    H227002   5.403   5.947   0.256
 9017TIP3   OH227003   2.991   2.298   6.442
 9017TIP3    H127004   3.085   2.312   6.431
 9017TIP3    H227005   2.953   2.320   6.357
 9018TIP3   OH227006   6.456   6.027   0.495
 9018TIP3    H127007   6.444   6.035   0.590
 9018TIP3    H227008   6.379   5.978   0.466
 9019TIP3   OH227009   2.873   2.323   6.199
 9019TIP3    H127010   2.810   2.274   6.146
 9019TIP3    H227011   2.925   2.372   6.136
 9020TIP3   OH227012   1.356   0.287   0.722
 9020TIP3    H127013   1.351   0.301   0.627
 9020TIP3    H227014   1.435   0.333   0.750
 9021TIP3   OH227015   5.519   6.917   1.267
 9021TIP3    H127016   5.604   6.953   1.240
 9021TIP3    H227017   5.522   6.826   1.238
 9022TIP3   OH227018   6.036   6.313   0.340
 9022TIP3    H127019   6.107   6.282   0.284
 9022TIP3    H227020   6.040   6.257   0.418
 9023TIP3   OH227021   5.527   5.792   0.237
 9023TIP3    H127022   5.479   5.710   0.252
 9023TIP3    H227023   5.558   5.785   0.147
 9024TIP3   OH227024   6.041   6.176   0.588
 9024TIP3    H127025   5.959   6.226   0.585
 9024TIP3    H227026   6.102   6.233   0.635
 9025TIP3   OH227027   3.100   2.848   6.216
 9025TIP3    H127028   3.024   2.793   6.196
 9025TIP3    H227029   3.077   2.890   6.299
 9026TIP3   OH227030   6.619   6.820   0.385
 9026TIP3    H127031   6.648   6.867   0.307
 9026TIP3    H227032   6.537   6.777   0.358
 9027TIP3   OH227033   3.560   2.161   6.130
 9027TIP3    H127034   3.467   2.138   6.128
 9027TIP3    H227035   3.560   2.256   6.143
 9028TIP3   OH227036   6.126   6.918   0.724
 9028TIP3    H127037   6.189   6.901   0.794
 9028TIP3    H227038   6.111   7.013   0.728
 9029TIP3   OH227039   3.619   2.424   6.203
 9029TIP3    H127040   3.714   2.429   6.215
 9029TIP3    H227041   3.597   2.502   6.151
 9030TIP3   OH227042   5.427   6.589   0.409
 9030TIP3    H127043   5.464   6.571   0.322
 9030TIP3    H227044   5.496   6.564   0.470
 9031TIP3   OH227045   3.248   3.002   6.032
 9031TIP3    H127046   3.224   3.091   6.057
 9031TIP3    H227047   3.203   2.946   6.096
 9032TIP3   OH227048   6.046   6.703   1.050
 9032TIP3    H127049   5.988   6.627   1.045
 9032TIP3    H227050   6.085   6.697   1.138
 9033TIP3   OH227051   6.307   7.198   0.656
 9033TIP3    H127052   6.211   7.199   0.653
 9033TIP3    H227053   6.330   7.240   0.739
 9034TIP3   OH227054   4.033   2.507   6.023
 9034TIP3    H127055   3.978   2.461   5.959
 9034TIP3    H227056   4.036   2.597   5.990
 9035TIP3   OH227057   6.919   7.110   0.651
 9035TIP3    H127058   6.825   7.096   0.640
 9035TIP3    H227059   6.957   7.084   0.567
 9036TIP3   OH227060   3.782   3.323   5.949
 9036TIP3    H127061   3.732   3.252   5.991
 9036TIP3    H227062   3.804   3.288   5.862
 9037TIP3   OH227063   6.376   6.686   0.304
 9037TIP3    H127064   6.285   6.659   0.319
 9037TIP3    H227065   6.416   6.610   0.262
 9038TIP3   OH227066   5.553   6.921   0.092
 9038TIP3    H127067   5.550   6.994   0.031
 9038TIP3    H227068   5.466   6.917   0.130
 9039TIP3   OH227069   2.475   2.483   6.261
 9039TIP3    H127070   2.517   2.567   6.280
 9039TIP3    H227071   2.392   2.487   6.308
 9040TIP3   OH227072   5.645   6.679  -0.003
 9040TIP3    H127073   5.622   6.768   0.025
 9040TIP3    H227074   5.607   6.623   0.065
 9041TIP3   OH227075   5.846   7.250   0.519
 9041TIP3    H127076   5.874   7.328   0.470
 9041TIP3    H227077   5.925   7.222   0.566
 9042TIP3   OH227078   2.828   3.416   6.392
 9042TIP3    H127079   2.737   3.428   6.420
 9042TIP3    H227080   2.865   3.504   6.391
 9043TIP3   OH227081   6.202   6.904   0.464
 9043TIP3    H127082   6.181   6.899   0.557
 9043TIP3    H227083   6.279   6.848   0.453
 9044TIP3   OH227084   3.498   3.031   5.868
 9044TIP3    H127085   3.569   3.007   5.928
 9044TIP3    H227086   3.419   3.028   5.922
 9045TIP3   OH227087   6.439   7.424   0.559
 9045TIP3    H127088   6.371   7.358   0.569
 9045TIP3    H227089   6.410   7.478   0.485
 9046TIP3   OH227090   3.815   3.525   5.629
 9046TIP3    H127091   3.838   3.597   5.571
 9046TIP3    H227092   3.719   3.527   5.632
 9047TIP3   OH227093   3.714   2.960   6.028
 9047TIP3    H127094   3.702   2.911   6.109
 9047TIP3    H227095   3.809   2.973   6.022
 9048TIP3   OH227096   5.283   7.097   0.635
 9048TIP3    H127097   5.319   7.012   0.660
 9048TIP3    H227098   5.298   7.153   0.712
 9049TIP3   OH227099   2.881   3.034   5.854
 9049TIP3    H127100   2.902   2.944   5.829
 9049TIP3    H227101   2.868   3.029   5.949
 9050TIP3   OH227102   2.841   3.047   6.129
 9050TIP3    H127103   2.917   3.019   6.181
 9050TIP3    H227104   2.845   3.142   6.130
 9051TIP3   OH227105   2.565   2.736   6.338
 9051TIP3    H127106   2.500   2.785   6.389
 9051TIP3    H227107   2.588   2.795   6.266
 9052TIP3   OH227108   6.399   6.083   0.758
 9052TIP3    H127109   6.451   6.163   0.750
 9052TIP3    H227110   6.389   6.070   0.852
 9053TIP3   OH227111   3.633   2.112   6.392
 9053TIP3    H127112   3.609   2.133   6.302
 9053TIP3    H227113   3.673   2.193   6.425
 9054TIP3   OH227114   3.150   3.242   6.120
 9054TIP3    H127115   3.061   3.279   6.120
 9054TIP3    H227116   3.204   3.311   6.158
 9055TIP3   OH227117   5.903   6.037   0.029
 9055TIP3    H127118   5.961   6.107   0.001
 9055TIP3    H227119   5.929   6.017   0.118
 9056TIP3   OH227120   6.203   6.324   0.763
 9056TIP3    H127121   6.215   6.399   0.821
 9056TIP3    H227122   6.219   6.248   0.818
 9057TIP3   OH227123   6.077   5.745   0.114
 9057TIP3    H127124   6.060   5.821   0.170
 9057TIP3    H227125   6.147   5.774   0.055
 9058TIP3   OH227126   2.871   3.317   6.136
 9058TIP3    H127127   2.842   3.383   6.073
 9058TIP3    H227128   2.858   3.358   6.222
 9059TIP3   OH227129   2.942   2.028   6.390
 9059TIP3    H127130   2.933   2.123   6.405
 9059TIP3    H227131   3.036   2.012   6.394
 9060TIP3   OH227132   6.823   6.250   0.752
 9060TIP3    H127133   6.728   6.265   0.753
 9060TIP3    H227134   6.839   6.205   0.670
 9061TIP3   OH227135   6.475   6.437   0.197
 9061TIP3    H127136   6.399   6.380   0.208
 9061TIP3    H227137   6.544   6.396   0.250
 9062TIP3   OH227138   2.592   2.917   6.127
 9062TIP3    H127139   2.664   2.980   6.136
 9062TIP3    H227140   2.623   2.855   6.061
 9063TIP3   OH227141   2.493   2.206   6.237
 9063TIP3    H127142   2.508   2.300   6.251
 9063TIP3    H227143   2.416   2.202   6.182
 9064TIP3   OH227144   6.459   7.416   0.131
 9064TIP3    H127145   6.418   7.474   0.066
 9064TIP3    H227146   6.553   7.427   0.117
 9065TIP3   OH227147   5.542   5.751   0.677
 9065TIP3    H127148   5.538   5.708   0.592
 9065TIP3    H227149   5.541   5.679   0.740
 9066TIP3   OH227150   5.056   6.901   0.047
 9066TIP3    H127151   5.020   6.944   0.126
 9066TIP3    H227152   5.012   6.945  -0.026
 9067TIP3   OH227153   5.214   7.386   1.113
 9067TIP3    H127154   5.277   7.453   1.141
 9067TIP3    H227155   5.244   7.306   1.157
 9068TIP3   OH227156   5.775   7.408   1.158
 9068TIP3    H127157   5.830   7.484   1.176
 9068TIP3    H227158   5.816   7.365   1.084
 9069TIP3   OH227159   3.060   3.227   5.762
 9069TIP3    H127160   3.001   3.163   5.802
 9069TIP3    H227161   3.136   3.176   5.736
 9070TIP3   OH227162   6.346   7.314   0.900
 9070TIP3    H127163   6.344   7.241   0.962
 9070TIP3    H227164   6.423   7.365   0.924
 9071TIP3   OH227165   2.709   2.723   5.974
 9071TIP3    H127166   2.762   2.701   6.051
 9071TIP3    H227167   2.773   2.737   5.905
 9072TIP3   OH227168   5.957   6.953   1.019
 9072TIP3    H127169   5.939   6.969   0.926
 9072TIP3    H227170   5.985   6.861   1.023
 9073TIP3   OH227171   3.187   2.934   5.773
 9073TIP3    H127172   3.202   2.953   5.866
 9073TIP3    H227173   3.198   2.839   5.766
 9074TIP3   OH227174   6.453   6.967   0.700
 9074TIP3    H127175   6.534   6.990   0.654
 9074TIP3    H227176   6.393   7.039   0.681
 9075TIP3   OH227177   2.887   2.668   6.184
 9075TIP3    H127178   2.864   2.635   6.271
 9075TIP3    H227179   2.934   2.595   6.143
 9076TIP3   OH227180   5.884   6.489   1.049
 9076TIP3    H127181   5.790   6.502   1.061
 9076TIP3    H227182   5.892   6.449   0.963
 9077TIP3   OH227183   3.023   2.479   6.031
 9077TIP3    H127184   2.992   2.483   5.941
 9077TIP3    H227185   3.118   2.490   6.025
 9078TIP3   OH227186   6.455   6.905   1.140
 9078TIP3    H127187   6.402   6.873   1.068
 9078TIP3    H227188   6.443   6.841   1.210
 9079TIP3   OH227189   3.808   2.774   5.720
 9079TIP3    H127190   3.797   2.738   5.631
 9079TIP3    H227191   3.777   2.864   5.713
 9080TIP3   OH227192   5.924   6.283   1.216
 9080TIP3    H127193   5.861   6.221   1.179
 9080TIP3    H227194   5.917   6.361   1.160
 9081TIP3   OH227195   5.963   5.996   0.781
 9081TIP3    H127196   5.978   6.060   0.711
 9081TIP3    H227197   5.890   5.943   0.750
 9082TIP3   OH227198   5.977   6.564   0.760
 9082TIP3    H127199   6.050   6.618   0.790
 9082TIP3    H227200   5.918   6.625   0.717
 9083TIP3   OH227201   6.643   6.534   1.266
 9083TIP3    H127202   6.685   6.448   1.277
 9083TIP3    H227203   6.711   6.588   1.225
 9084TIP3   OH227204   6.591   6.782   0.847
 9084TIP3    H127205   6.535   6.849   0.807
 9084TIP3    H227206   6.680   6.810   0.827
 9085TIP3   OH227207   6.129   5.850   1.042
 9085TIP3    H127208   6.044   5.892   1.042
 9085TIP3    H227209   6.111   5.758   1.064
 9086TIP3   OH227210   6.184   6.370   1.173
 9086TIP3    H127211   6.238   6.306   1.219
 9086TIP3    H227212   6.096   6.332   1.173
 9087TIP3   OH227213   6.393   6.266   0.993
 9087TIP3    H127214   6.322   6.322   1.025
 9087TIP3    H227215   6.446   6.248   1.070
 9088TIP3   OH227216   6.564   6.214   1.194
 9088TIP3    H127217   6.613   6.135   1.169
 9088TIP3    H227218   6.586   6.228   1.286
 9089TIP3   OH227219   2.824   3.507   5.941
 9089TIP3    H127220   2.917   3.493   5.924
 9089TIP3    H227221   2.795   3.564   5.869
 9090TIP3   OH227222   2.318   2.911   6.139
 9090TIP3    H127223   2.413   2.923   6.133
 9090TIP3    H227224   2.302   2.825   6.099
 9091TIP3   OH227225   4.835   7.221   0.139
 9091TIP3    H127226   4.774   7.166   0.090
 9091TIP3    H227227   4.889   7.159   0.189
 9092TIP3   OH227228   5.002   7.050   0.275
 9092TIP3    H127229   5.010   6.986   0.345
 9092TIP3    H227230   5.062   7.121   0.300
 9093TIP3   OH227231   1.465   0.007   0.129
 9093TIP3    H127232   1.485   0.035   0.218
 9093TIP3    H227233   1.521   0.061   0.073
 9094TIP3   OH227234   1.486   0.039   0.409
 9094TIP3    H127235   1.438  -0.043   0.403
 9094TIP3    H227236   1.556   0.022   0.472
 9095TIP3   OH227237   6.789   7.187   0.988
 9095TIP3    H127238   6.715   7.200   1.047
 9095TIP3    H227239   6.836   7.270   0.989
 9096TIP3   OH227240   3.996   2.972   6.038
 9096TIP3    H127241   4.049   3.047   6.011
 9096TIP3    H227242   4.041   2.937   6.115
 9097TIP3   OH227243   4.127   2.832   6.241
 9097TIP3    H127244   4.059   2.799   6.300
 9097TIP3    H227245   4.192   2.872   6.299
 9098TIP3   OH227246   6.802   6.967   0.228
 9098TIP3    H127247   6.850   6.897   0.183
 9098TIP3    H227248   6.797   7.038   0.164
 9099TIP3   OH227249   6.606   7.252   0.411
 9099TIP3    H127250   6.540   7.297   0.463
 9099TIP3    H227251   6.557   7.212   0.339
 9100TIP3   OH227252   4.024   2.747   5.886
 9100TIP3    H127253   3.950   2.749   5.826
 9100TIP3    H227254   4.014   2.825   5.941
 9101TIP3   OH227255   3.888   2.392   5.821
 9101TIP3    H127256   3.837   2.434   5.751
 9101TIP3    H227257   3.877   2.298   5.805
 9102TIP3   OH227258   3.920   2.700   6.381
 9102TIP3    H127259   3.926   2.605   6.373
 9102TIP3    H227260   3.898   2.716   6.473
 9103TIP3   OH227261   5.217   6.493   0.617
 9103TIP3    H127262   5.211   6.500   0.522
 9103TIP3    H227263   5.310   6.478   0.634
 9104TIP3   OH227264   6.848   6.861   0.781
 9104TIP3    H127265   6.917   6.796   0.766
 9104TIP3    H227266   6.869   6.933   0.722
 9105TIP3   OH227267   7.049   6.675   0.772
 9105TIP3    H127268   6.977   6.618   0.800
 9105TIP3    H227269   7.128   6.635   0.808
 9106TIP3   OH227270   3.846   2.120   5.791
 9106TIP3    H127271   3.906   2.098   5.862
 9106TIP3    H227272   3.760   2.087   5.820
 9107TIP3   OH227273   3.910   2.416   6.262
 9107TIP3    H127274   3.957   2.334   6.275
 9107TIP3    H227275   3.952   2.457   6.186
 9108TIP3   OH227276   6.691   6.309   0.326
 9108TIP3    H127277   6.772   6.326   0.278
 9108TIP3    H227278   6.703   6.353   0.410
 9109TIP3   OH227279   6.766   6.464   0.544
 9109TIP3    H127280   6.693   6.497   0.597
 9109TIP3    H227281   6.802   6.542   0.502
 9110TIP3   OH227282   7.341   6.163   1.137
 9110TIP3    H127283   7.361   6.077   1.175
 9110TIP3    H227284   7.426   6.207   1.132
 9111TIP3   OH227285   4.027   2.167   6.319
 9111TIP3    H127286   4.070   2.153   6.403
 9111TIP3    H227287   3.966   2.095   6.311
 9112TIP3   OH227288   5.357   5.933   0.585
 9112TIP3    H127289   5.399   5.849   0.604
 9112TIP3    H227290   5.429   5.991   0.562
 9113TIP3   OH227291   5.156   6.118   0.683
 9113TIP3    H127292   5.206   6.120   0.601
 9113TIP3    H227293   5.203   6.178   0.741
 9114TIP3   OH227294   7.101   6.267   0.804
 9114TIP3    H127295   7.007   6.262   0.820
 9114TIP3    H227296   7.136   6.187   0.843
 9115TIP3   OH227297   4.070   2.077   5.951
 9115TIP3    H127298   4.121   2.018   5.895
 9115TIP3    H227299   4.123   2.157   5.957
 9116TIP3   OH227300   5.126   5.697   0.267
 9116TIP3    H127301   5.036   5.667   0.274
 9116TIP3    H227302   5.135   5.726   0.176
 9117TIP3   OH227303   3.562   3.662   6.206
 9117TIP3    H127304   3.491   3.599   6.216
 9117TIP3    H227305   3.641   3.608   6.194
 9118TIP3   OH227306   5.351   7.123   1.186
 9118TIP3    H127307   5.325   7.064   1.115
 9118TIP3    H227308   5.419   7.075   1.234
 9119TIP3   OH227309   5.609   7.196   0.642
 9119TIP3    H127310   5.556   7.270   0.612
 9119TIP3    H227311   5.692   7.206   0.596
 9120TIP3   OH227312   0.737   0.009   0.825
 9120TIP3    H127313   0.778   0.002   0.911
 9120TIP3    H227314   0.799   0.060   0.773
 9121TIP3   OH227315   0.929   0.155   0.698
 9121TIP3    H127316   0.992   0.104   0.647
 9121TIP3    H227317   0.983   0.210   0.755
 9122TIP3   OH227318   7.012   5.935   0.725
 9122TIP3    H127319   6.928   5.890   0.715
 9122TIP3    H227320   7.050   5.896   0.803
 9123TIP3   OH227321   7.895   0.040   0.657
 9123TIP3    H127322   7.852   0.091   0.588
 9123TIP3    H227323   7.852   0.067   0.738
 9124TIP3   OH227324   0.244  -0.009   0.562
 9124TIP3    H127325   0.159   0.009   0.601
 9124TIP3    H227326   0.234   0.015   0.470
 9125TIP3   OH227327   0.645   0.023   0.377
 9125TIP3    H127328   0.578   0.035   0.310
 9125TIP3    H227329   0.653   0.109   0.419
 9126TIP3   OH227330   6.171   7.390   0.432
 9126TIP3    H127331   6.081   7.412   0.407
 9126TIP3    H227332   6.224   7.456   0.387
 9127TIP3   OH227333   1.100   0.124   0.337
 9127TIP3    H127334   1.094   0.212   0.300
 9127TIP3    H227335   1.129   0.069   0.264
 9128TIP3   OH227336   5.185   7.223   0.414
 9128TIP3    H127337   5.207   7.191   0.502
 9128TIP3    H227338   5.258   7.193   0.359
 9129TIP3   OH227339   5.390   7.106   0.285
 9129TIP3    H127340   5.397   7.027   0.338
 9129TIP3    H227341   5.476   7.148   0.291
 9130TIP3   OH227342   5.652   7.193   0.325
 9130TIP3    H127343   5.669   7.099   0.317
 9130TIP3    H227344   5.718   7.224   0.388
 9131TIP3   OH227345   6.239   5.886   0.402
 9131TIP3    H127346   6.177   5.821   0.435
 9131TIP3    H227347   6.294   5.837   0.340
 9132TIP3   OH227348   6.681   5.779   0.334
 9132TIP3    H127349   6.727   5.824   0.263
 9132TIP3    H227350   6.588   5.794   0.315
 9133TIP3   OH227351   6.812   5.828   0.095
 9133TIP3    H127352   6.882   5.769   0.067
 9133TIP3    H227353   6.849   5.916   0.085
 9134TIP3   OH227354   5.390   5.555   0.222
 9134TIP3    H127355   5.312   5.535   0.274
 9134TIP3    H227356   5.418   5.470   0.187
 9135TIP3   OH227357   5.210   5.422   0.025
 9135TIP3    H127358   5.260   5.460  -0.047
 9135TIP3    H227359   5.203   5.493   0.089
 9136TIP3   OH227360   5.882   5.601   0.233
 9136TIP3    H127361   5.950   5.655   0.192
 9136TIP3    H227362   5.885   5.627   0.325
 9137TIP3   OH227363   6.412   5.732   0.255
 9137TIP3    H127364   6.434   5.703   0.167
 9137TIP3    H227365   6.410   5.652   0.307
 9138TIP3   OH227366   3.846   1.954   6.322
 9138TIP3    H127367   3.766   2.004   6.341
 9138TIP3    H227368   3.829   1.867   6.358
 9139TIP3   OH227369   2.296   3.305   6.295
 9139TIP3    H127370   2.213   3.272   6.260
 9139TIP3    H227371   2.301   3.395   6.264
 9140TIP3   OH227372   2.734   1.849   6.294
 9140TIP3    H127373   2.785   1.795   6.234
 9140TIP3    H227374   2.798   1.906   6.336
 9141TIP3   OH227375   3.217   2.059   6.391
 9141TIP3    H127376   3.278   2.007   6.443
 9141TIP3    H227377   3.233   2.149   6.417
 9142TIP3   OH227378   3.090   3.470   5.903
 9142TIP3    H127379   3.184   3.489   5.908
 9142TIP3    H227380   3.084   3.387   5.856
 9143TIP3   OH227381   3.811   3.593   5.986
 9143TIP3    H127382   3.805   3.498   5.978
 9143TIP3    H227383   3.739   3.626   5.931
 9144TIP3   OH227384   2.405   3.294   5.958
 9144TIP3    H127385   2.415   3.312   6.052
 9144TIP3    H227386   2.486   3.249   5.934
 9145TIP3   OH227387   6.700   5.994   1.118
 9145TIP3    H127388   6.789   6.006   1.150
 9145TIP3    H227389   6.709   5.990   1.022
 9146TIP3   OH227390   1.391   0.013   0.728
 9146TIP3    H127391   1.318  -0.014   0.674
 9146TIP3    H227392   1.381   0.108   0.736
 9147TIP3   OH227393   5.301   3.122   5.919
 9147TIP3    H127394   5.270   3.209   5.893
 9147TIP3    H227395   5.230   3.063   5.896
 9148TIP3   OH227396   5.297   3.114   6.345
 9148TIP3    H127397   5.350   3.096   6.423
 9148TIP3    H227398   5.252   3.031   6.328
 9149TIP3   OH227399   7.228   6.696   0.235
 9149TIP3    H127400   7.263   6.649   0.310
 9149TIP3    H227401   7.305   6.726   0.187
 9150TIP3   OH227402   5.565   3.422   6.020
 9150TIP3    H127403   5.554   3.355   6.087
 9150TIP3    H227404   5.586   3.502   6.068
 9151TIP3   OH227405   4.591   3.399   6.371
 9151TIP3    H127406   4.572   3.306   6.383
 9151TIP3    H227407   4.687   3.403   6.367
 9152TIP3   OH227408   4.270   2.602   6.161
 9152TIP3    H127409   4.235   2.687   6.188
 9152TIP3    H227410   4.196   2.557   6.120
 9153TIP3   OH227411   4.357   2.921   6.377
 9153TIP3    H127412   4.406   2.844   6.407
 9153TIP3    H227413   4.424   2.987   6.359
 9154TIP3   OH227414   5.224   3.851   6.032
 9154TIP3    H127415   5.251   3.786   5.967
 9154TIP3    H227416   5.224   3.804   6.115
 9155TIP3   OH227417   5.108   3.336   6.348
 9155TIP3    H127418   5.153   3.255   6.322
 9155TIP3    H227419   5.177   3.393   6.380
 9156TIP3   OH227420   6.133   2.656   6.364
 9156TIP3    H127421   6.149   2.740   6.408
 9156TIP3    H227422   6.154   2.673   6.272
 9157TIP3   OH227423   5.510   2.821   6.385
 9157TIP3    H127424   5.544   2.736   6.414
 9157TIP3    H227425   5.475   2.803   6.297
 9158TIP3   OH227426   4.868   2.483   6.346
 9158TIP3    H127427   4.845   2.556   6.289
 9158TIP3    H227428   4.810   2.412   6.319
 9159TIP3   OH227429   5.564   2.582   5.979
 9159TIP3    H127430   5.626   2.576   6.051
 9159TIP3    H227431   5.615   2.616   5.905
 9160TIP3   OH227432   7.124   6.422   0.024
 9160TIP3    H127433   7.207   6.405   0.068
 9160TIP3    H227434   7.129   6.370  -0.057
 9161TIP3   OH227435   4.912   2.896   6.286
 9161TIP3    H127436   5.006   2.881   6.294
 9161TIP3    H227437   4.876   2.814   6.253
 9162TIP3   OH227438   0.923   6.604   0.076
 9162TIP3    H127439   0.832   6.633   0.073
 9162TIP3    H227440   0.955   6.634   0.161
 9163TIP3   OH227441   7.482   6.208   0.346
 9163TIP3    H127442   7.429   6.244   0.275
 9163TIP3    H227443   7.430   6.225   0.425
 9164TIP3   OH227444   5.198   3.340   5.780
 9164TIP3    H127445   5.158   3.310   5.699
 9164TIP3    H227446   5.145   3.414   5.807
 9165TIP3   OH227447   7.575   6.986   0.108
 9165TIP3    H127448   7.522   7.057   0.143
 9165TIP3    H227449   7.624   7.026   0.036
 9166TIP3   OH227450   5.720   2.607   6.201
 9166TIP3    H127451   5.679   2.584   6.284
 9166TIP3    H227452   5.776   2.682   6.221
 9167TIP3   OH227453   7.370   6.318   0.117
 9167TIP3    H127454   7.424   6.393   0.142
 9167TIP3    H227455   7.419   6.276   0.047
 9168TIP3   OH227456   7.420   7.189   0.214
 9168TIP3    H127457   7.406   7.279   0.184
 9168TIP3    H227458   7.343   7.168   0.267
 9169TIP3   OH227459   4.160   3.171   5.921
 9169TIP3    H127460   4.118   3.190   5.837
 9169TIP3    H227461   4.181   3.257   5.957
 9170TIP3   OH227462   5.602   3.669   6.160
 9170TIP3    H127463   5.515   3.661   6.200
 9170TIP3    H227464   5.600   3.753   6.114
 9171TIP3   OH227465   0.659   6.269   0.074
 9171TIP3    H127466   0.575   6.286   0.029
 9171TIP3    H227467   0.725   6.297   0.011
 9172TIP3   OH227468   7.822   5.901   0.075
 9172TIP3    H127469   7.816   5.809   0.102
 9172TIP3    H227470   7.746   5.943   0.115
 9173TIP3   OH227471   5.310   3.700   5.814
 9173TIP3    H127472   5.362   3.621   5.804
 9173TIP3    H227473   5.368   3.771   5.785
 9174TIP3   OH227474   5.448   3.469   5.774
 9174TIP3    H127475   5.374   3.408   5.773
 9174TIP3    H227476   5.497   3.445   5.852
 9175TIP3   OH227477   0.577   7.276   0.055
 9175TIP3    H127478   0.555   7.203  -0.002
 9175TIP3    H227479   0.562   7.354   0.002
 9176TIP3   OH227480   5.126   2.957   5.775
 9176TIP3    H127481   5.044   3.002   5.756
 9176TIP3    H227482   5.174   2.958   5.692
 9177TIP3   OH227483   5.094   2.770   5.462
 9177TIP3    H127484   5.159   2.819   5.513
 9177TIP3    H227485   5.144   2.702   5.418
 9178TIP3   OH227486   6.015   3.219   6.368
 9178TIP3    H127487   5.930   3.263   6.367
 9178TIP3    H227488   6.050   3.231   6.280
 9179TIP3   OH227489   5.487   3.049   5.732
 9179TIP3    H127490   5.432   3.079   5.805
 9179TIP3    H227491   5.570   3.024   5.772
 9180TIP3   OH227492   0.444   6.803   0.224
 9180TIP3    H127493   0.442   6.884   0.275
 9180TIP3    H227494   0.361   6.802   0.177
 9181TIP3   OH227495   4.714   3.031   6.137
 9181TIP3    H127496   4.678   2.969   6.074
 9181TIP3    H227497   4.787   2.983   6.178
 9182TIP3   OH227498   4.855   3.452   6.278
 9182TIP3    H127499   4.831   3.437   6.187
 9182TIP3    H227500   4.942   3.414   6.286
 9183TIP3   OH227501   7.446   6.749   0.062
 9183TIP3    H127502   7.485   6.713  -0.017
 9183TIP3    H227503   7.494   6.830   0.078
 9184TIP3   OH227504   5.365   3.662   6.292
 9184TIP3    H127505   5.351   3.742   6.342
 9184TIP3    H227506   5.349   3.592   6.355
 9185TIP3   OH227507   7.616   7.284   0.385
 9185TIP3    H127508   7.556   7.341   0.433
 9185TIP3    H227509   7.560   7.232   0.327
 9186TIP3   OH227510   5.314   2.912   5.566
 9186TIP3    H127511   5.375   2.970   5.613
 9186TIP3    H227512   5.344   2.916   5.475
 9187TIP3   OH227513   7.376   6.837   0.513
 9187TIP3    H127514   7.380   6.928   0.544
 9187TIP3    H227515   7.283   6.818   0.505
 9188TIP3   OH227516   5.062   3.578   5.820
 9188TIP3    H127517   5.143   3.629   5.827
 9188TIP3    H227518   5.001   3.637   5.776
 9189TIP3   OH227519   7.408   7.445   0.470
 9189TIP3    H127520   7.383   7.454   0.378
 9189TIP3    H227521   7.325   7.430   0.516
 9190TIP3   OH227522   5.826   2.136   5.625
 9190TIP3    H127523   5.751   2.157   5.681
 9190TIP3    H227524   5.836   2.212   5.568
 9191TIP3   OH227525   4.584   2.872   5.938
 9191TIP3    H127526   4.507   2.922   5.910
 9191TIP3    H227527   4.549   2.787   5.964
 9192TIP3   OH227528   5.651   3.512   5.179
 9192TIP3    H127529   5.643   3.606   5.160
 9192TIP3    H227530   5.739   3.489   5.151
 9193TIP3   OH227531   7.005   7.009   0.414
 9193TIP3    H127532   6.933   6.991   0.353
 9193TIP3    H227533   7.040   6.923   0.435
 9194TIP3   OH227534   6.840   7.201   0.073
 9194TIP3    H127535   6.929   7.225   0.098
 9194TIP3    H227536   6.786   7.276   0.100
 9195TIP3   OH227537   3.441   0.208   0.122
 9195TIP3    H127538   3.446   0.113   0.130
 9195TIP3    H227539   3.359   0.231   0.165
 9196TIP3   OH227540   7.804   7.429   0.248
 9196TIP3    H127541   7.796   7.519   0.278
 9196TIP3    H227542   7.737   7.381   0.296
 9197TIP3   OH227543   4.952   3.805   5.650
 9197TIP3    H127544   4.901   3.785   5.572
 9197TIP3    H227545   4.916   3.887   5.683
 9198TIP3   OH227546   4.385   3.657   6.026
 9198TIP3    H127547   4.426   3.647   6.112
 9198TIP3    H227548   4.331   3.579   6.017
 9199TIP3   OH227549   5.155   3.737   5.277
 9199TIP3    H127550   5.205   3.663   5.243
 9199TIP3    H227551   5.188   3.749   5.365
 9200TIP3   OH227552   5.206   3.778   5.547
 9200TIP3    H127553   5.119   3.782   5.587
 9200TIP3    H227554   5.261   3.741   5.616
 9201TIP3   OH227555   0.690   6.773   0.397
 9201TIP3    H127556   0.614   6.748   0.345
 9201TIP3    H227557   0.713   6.693   0.445
 9202TIP3   OH227558   7.205   7.192   0.386
 9202TIP3    H127559   7.257   7.178   0.466
 9202TIP3    H227560   7.133   7.130   0.392
 9203TIP3   OH227561   7.587   5.996   0.200
 9203TIP3    H127562   7.502   5.964   0.167
 9203TIP3    H227563   7.565   6.075   0.248
 9204TIP3   OH227564   0.224   6.118   0.400
 9204TIP3    H127565   0.292   6.092   0.461
 9204TIP3    H227566   0.142   6.102   0.448
 9205TIP3   OH227567   0.455   6.544   0.324
 9205TIP3    H127568   0.407   6.537   0.407
 9205TIP3    H227569   0.432   6.631   0.291
 9206TIP3   OH227570   5.394   2.888   5.304
 9206TIP3    H127571   5.349   2.891   5.220
 9206TIP3    H227572   5.476   2.934   5.289
 9207TIP3   OH227573   5.102   2.332   5.627
 9207TIP3    H127574   5.075   2.318   5.718
 9207TIP3    H227575   5.024   2.311   5.575
 9208TIP3   OH227576   7.522   6.528   0.212
 9208TIP3    H127577   7.477   6.536   0.296
 9208TIP3    H227578   7.501   6.609   0.166
 9209TIP3   OH227579   4.770   2.680   6.182
 9209TIP3    H127580   4.681   2.658   6.209
 9209TIP3    H227581   4.778   2.644   6.093
 9210TIP3   OH227582   5.247   2.749   5.909
 9210TIP3    H127583   5.201   2.823   5.870
 9210TIP3    H227584   5.308   2.720   5.841
 9211TIP3   OH227585   0.168   6.748   0.532
 9211TIP3    H127586   0.139   6.681   0.594
 9211TIP3    H227587   0.260   6.763   0.553
 9212TIP3   OH227588   5.418   2.767   6.132
 9212TIP3    H127589   5.348   2.787   6.070
 9212TIP3    H227590   5.466   2.695   6.092
 9213TIP3   OH227591   7.362   6.545   0.434
 9213TIP3    H127592   7.371   6.610   0.503
 9213TIP3    H227593   7.344   6.463   0.480
 9214TIP3   OH227594   4.804   2.281   5.608
 9214TIP3    H127595   4.788   2.279   5.703
 9214TIP3    H227596   4.722   2.315   5.571
 9215TIP3   OH227597   6.943   6.051   0.020
 9215TIP3    H127598   7.017   6.091   0.066
 9215TIP3    H227599   6.977   6.035  -0.069
 9216TIP3   OH227600   4.222   2.311   5.966
 9216TIP3    H127601   4.267   2.347   5.890
 9216TIP3    H227602   4.159   2.378   5.991
 9217TIP3   OH227603   0.193   6.748   0.107
 9217TIP3    H127604   0.218   6.680   0.044
 9217TIP3    H227605   0.150   6.700   0.178
 9218TIP3   OH227606   5.133   2.466   6.231
 9218TIP3    H127607   5.055   2.469   6.287
 9218TIP3    H227608   5.206   2.460   6.291
 9219TIP3   OH227609   4.531   2.557   6.242
 9219TIP3    H127610   4.442   2.560   6.206
 9219TIP3    H227611   4.558   2.466   6.230
 9220TIP3   OH227612   4.785   2.547   5.940
 9220TIP3    H127613   4.879   2.561   5.932
 9220TIP3    H227614   4.750   2.567   5.853
 9221TIP3   OH227615   0.318   6.281  -0.010
 9221TIP3    H127616   0.301   6.299   0.082
 9221TIP3    H227617   0.249   6.220  -0.036
 9222TIP3   OH227618   4.684   2.570   5.689
 9222TIP3    H127619   4.627   2.515   5.634
 9222TIP3    H227620   4.733   2.623   5.626
 9223TIP3   OH227621   3.142   0.534   0.209
 9223TIP3    H127622   3.135   0.550   0.114
 9223TIP3    H227623   3.224   0.577   0.234
 9224TIP3   OH227624   7.359   7.105   0.615
 9224TIP3    H127625   7.440   7.120   0.664
 9224TIP3    H227626   7.290   7.105   0.681
 9225TIP3   OH227627   5.183   2.843   6.341
 9225TIP3    H127628   5.253   2.795   6.297
 9225TIP3    H227629   5.180   2.806   6.429
 9226TIP3   OH227630   4.674   2.308   6.236
 9226TIP3    H127631   4.642   2.234   6.288
 9226TIP3    H227632   4.703   2.269   6.153
 9227TIP3   OH227633   7.789   6.474   0.155
 9227TIP3    H127634   7.702   6.506   0.180
 9227TIP3    H227635   7.849   6.525   0.209
 9228TIP3   OH227636   4.890   3.094   5.718
 9228TIP3    H127637   4.814   3.040   5.694
 9228TIP3    H227638   4.863   3.137   5.799
 9229TIP3   OH227639   5.779   3.355   6.325
 9229TIP3    H127640   5.814   3.404   6.251
 9229TIP3    H227641   5.700   3.313   6.290
 9230TIP3   OH227642   5.361   2.419   5.621
 9230TIP3    H127643   5.267   2.402   5.620
 9230TIP3    H227644   5.368   2.514   5.636
 9231TIP3   OH227645   0.034   7.161   0.288
 9231TIP3    H127646   0.081   7.148   0.371
 9231TIP3    H227647  -0.009   7.246   0.299
 9232TIP3   OH227648   5.417   2.682   5.694
 9232TIP3    H127649   5.512   2.686   5.706
 9232TIP3    H227650   5.396   2.761   5.644
 9233TIP3   OH227651   4.579   3.106   6.367
 9233TIP3    H127652   4.619   3.091   6.282
 9233TIP3    H227653   4.646   3.077   6.430
 9234TIP3   OH227654   5.041   3.257   5.561
 9234TIP3    H127655   4.993   3.340   5.559
 9234TIP3    H227656   4.986   3.200   5.614
 9235TIP3   OH227657   7.103   6.773   0.525
 9235TIP3    H127658   7.102   6.750   0.618
 9235TIP3    H227659   7.028   6.727   0.488
 9236TIP3   OH227660   7.835   6.904   0.572
 9236TIP3    H127661   7.766   6.843   0.547
 9236TIP3    H227662   7.916   6.861   0.543
 9237TIP3   OH227663   2.809   0.002   0.172
 9237TIP3    H127664   2.715  -0.014   0.175
 9237TIP3    H227665   2.830   0.037   0.258
 9238TIP3   OH227666   5.830   2.766   5.510
 9238TIP3    H127667   5.774   2.721   5.448
 9238TIP3    H227668   5.836   2.856   5.477
 9239TIP3   OH227669   0.820   7.381   0.138
 9239TIP3    H127670   0.728   7.356   0.142
 9239TIP3    H227671   0.852   7.343   0.056
 9240TIP3   OH227672   5.572   3.583   5.449
 9240TIP3    H127673   5.542   3.518   5.512
 9240TIP3    H227674   5.587   3.534   5.368
 9241TIP3   OH227675   5.551   3.218   6.221
 9241TIP3    H127676   5.462   3.197   6.247
 9241TIP3    H227677   5.586   3.137   6.183
 9242TIP3   OH227678   4.703   3.455   6.038
 9242TIP3    H127679   4.697   3.530   5.979
 9242TIP3    H227680   4.618   3.450   6.081
 9243TIP3   OH227681   4.265   2.740   5.752
 9243TIP3    H127682   4.306   2.824   5.775
 9243TIP3    H227683   4.183   2.740   5.801
 9244TIP3   OH227684   4.787   3.212   5.938
 9244TIP3    H127685   4.769   3.301   5.969
 9244TIP3    H227686   4.764   3.156   6.012
 9245TIP3   OH227687   2.355   0.053   0.040
 9245TIP3    H127688   2.391   0.126  -0.010
 9245TIP3    H227689   2.429   0.020   0.092
 9246TIP3   OH227690   4.621   3.676   5.885
 9246TIP3    H127691   4.533   3.682   5.924
 9246TIP3    H227692   4.656   3.765   5.892
 9247TIP3   OH227693   0.073   7.165   0.015
 9247TIP3    H127694   0.059   7.162   0.110
 9247TIP3    H227695   0.149   7.110  -0.000
 9248TIP3   OH227696   5.332   3.318   5.332
 9248TIP3    H127697   5.384   3.289   5.407
 9248TIP3    H227698   5.247   3.275   5.345
 9249TIP3   OH227699   2.964   0.208   0.052
 9249TIP3    H127700   2.894   0.146   0.073
 9249TIP3    H227701   2.928   0.262  -0.018
 9250TIP3   OH227702   5.647   3.787   5.138
 9250TIP3    H127703   5.670   3.853   5.074
 9250TIP3    H227704   5.574   3.825   5.187
 9251TIP3   OH227705   7.311   6.294   0.550
 9251TIP3    H127706   7.216   6.297   0.543
 9251TIP3    H227707   7.328   6.243   0.629
 9252TIP3   OH227708   5.511   3.229   5.520
 9252TIP3    H127709   5.495   3.177   5.599
 9252TIP3    H227710   5.606   3.238   5.516
 9253TIP3   OH227711   7.052   7.387   0.202
 9253TIP3    H127712   7.105   7.327   0.254
 9253TIP3    H227713   7.065   7.473   0.243
 9254TIP3   OH227714   4.677   3.283   5.344
 9254TIP3    H127715   4.692   3.192   5.319
 9254TIP3    H227716   4.667   3.281   5.439
 9255TIP3   OH227717   4.628   3.301   5.618
 9255TIP3    H127718   4.686   3.274   5.689
 9255TIP3    H227719   4.625   3.396   5.623
 9256TIP3   OH227720   4.356   2.993   5.832
 9256TIP3    H127721   4.291   3.041   5.883
 9256TIP3    H227722   4.377   3.050   5.758
 9257TIP3   OH227723   0.266   6.346   0.251
 9257TIP3    H127724   0.341   6.391   0.290
 9257TIP3    H227725   0.252   6.270   0.308
 9258TIP3   OH227726   5.414   2.366   5.890
 9258TIP3    H127727   5.398   2.385   5.798
 9258TIP3    H227728   5.459   2.443   5.923
 9259TIP3   OH227729   4.896   3.486   5.553
 9259TIP3    H127730   4.812   3.509   5.592
 9259TIP3    H227731   4.919   3.561   5.498
 9260TIP3   OH227732   5.062   2.554   5.975
 9260TIP3    H127733   5.123   2.623   5.949
 9260TIP3    H227734   5.085   2.535   6.066
 9261TIP3   OH227735   0.098   6.584   0.307
 9261TIP3    H127736   0.120   6.628   0.389
 9261TIP3    H227737   0.148   6.502   0.310
 9262TIP3   OH227738   5.231   2.259   6.067
 9262TIP3    H127739   5.208   2.335   6.121
 9262TIP3    H227740   5.302   2.290   6.011
 9263TIP3   OH227741   4.647   3.573   5.633
 9263TIP3    H127742   4.627   3.646   5.573
 9263TIP3    H227743   4.635   3.610   5.720
 9264TIP3   OH227744   4.744   2.272   5.884
 9264TIP3    H127745   4.721   2.362   5.907
 9264TIP3    H227746   4.838   2.266   5.898
 9265TIP3   OH227747   0.708   6.456   0.280
 9265TIP3    H127748   0.620   6.488   0.301
 9265TIP3    H227749   0.694   6.393   0.209
 9266TIP3   OH227750   5.642   2.960   6.133
 9266TIP3    H127751   5.565   2.904   6.145
 9266TIP3    H227752   5.709   2.921   6.188
 9267TIP3   OH227753   4.385   3.163   5.614
 9267TIP3    H127754   4.455   3.228   5.622
 9267TIP3    H227755   4.418   3.102   5.548
 9268TIP3   OH227756   4.286   2.462   5.747
 9268TIP3    H127757   4.300   2.556   5.757
 9268TIP3    H227758   4.217   2.456   5.680
 9269TIP3   OH227759   5.621   3.935   6.075
 9269TIP3    H127760   5.580   3.987   6.006
 9269TIP3    H227761   5.715   3.947   6.061
 9270TIP3   OH227762   7.326   5.913   0.156
 9270TIP3    H127763   7.293   5.878   0.073
 9270TIP3    H227764   7.320   5.841   0.218
 9271TIP3   OH227765   4.199   3.445   5.991
 9271TIP3    H127766   4.152   3.479   6.068
 9271TIP3    H227767   4.152   3.482   5.916
 9272TIP3   OH227768   1.785   0.248   0.624
 9272TIP3    H127769   1.867   0.253   0.673
 9272TIP3    H227770   1.771   0.154   0.611
 9273TIP3   OH227771   2.248   0.157   0.667
 9273TIP3    H127772   2.338   0.127   0.677
 9273TIP3    H227773   2.213   0.105   0.594
 9274TIP3   OH227774   4.835   3.481   5.230
 9274TIP3    H127775   4.788   3.413   5.277
 9274TIP3    H227776   4.911   3.437   5.192
 9275TIP3   OH227777   2.862   0.099   0.423
 9275TIP3    H127778   2.876   0.029   0.486
 9275TIP3    H227779   2.938   0.157   0.433
 9276TIP3   OH227780   5.283   3.525   5.159
 9276TIP3    H127781   5.314   3.460   5.222
 9276TIP3    H227782   5.343   3.518   5.086
 9277TIP3   OH227783   7.151   7.108   0.807
 9277TIP3    H127784   7.181   7.018   0.817
 9277TIP3    H227785   7.065   7.101   0.766
 9278TIP3   OH227786   4.509   2.977   5.457
 9278TIP3    H127787   4.559   2.953   5.535
 9278TIP3    H227788   4.576   2.990   5.389
 9279TIP3   OH227789   7.774   7.180   0.588
 9279TIP3    H127790   7.726   7.199   0.507
 9279TIP3    H227791   7.805   7.091   0.577
 9280TIP3   OH227792   5.072   3.201   5.294
 9280TIP3    H127793   5.051   3.212   5.387
 9280TIP3    H227794   5.055   3.108   5.276
 9281TIP3   OH227795   0.348   7.226   0.206
 9281TIP3    H127796   0.425   7.254   0.158
 9281TIP3    H227797   0.282   7.294   0.189
 9282TIP3   OH227798   7.289   6.870   0.813
 9282TIP3    H127799   7.353   6.812   0.772
 9282TIP3    H227800   7.315   6.872   0.905
 9283TIP3   OH227801   4.678   2.919   5.672
 9283TIP3    H127802   4.656   2.891   5.761
 9283TIP3    H227803   4.727   2.846   5.635
 9284TIP3   OH227804   7.632   6.729   0.473
 9284TIP3    H127805   7.546   6.769   0.482
 9284TIP3    H227806   7.663   6.757   0.387
 9285TIP3   OH227807   4.823   2.735   5.519
 9285TIP3    H127808   4.792   2.740   5.429
 9285TIP3    H227809   4.918   2.746   5.513
 9286TIP3   OH227810   0.225   7.100   0.555
 9286TIP3    H127811   0.294   7.061   0.501
 9286TIP3    H227812   0.220   7.043   0.631
 9287TIP3   OH227813   5.612   3.024   5.196
 9287TIP3    H127814   5.600   2.984   5.109
 9287TIP3    H227815   5.587   3.115   5.183
 9288TIP3   OH227816   7.735   6.496   0.575
 9288TIP3    H127817   7.735   6.425   0.511
 9288TIP3    H227818   7.698   6.571   0.527
 9289TIP3   OH227819   7.741   6.294   0.376
 9289TIP3    H127820   7.765   6.334   0.293
 9289TIP3    H227821   7.649   6.268   0.365
 9290TIP3   OH227822   7.747   6.820   0.244
 9290TIP3    H127823   7.834   6.858   0.237
 9290TIP3    H227824   7.690   6.881   0.197
 9291TIP3   OH227825   0.437   6.775   0.631
 9291TIP3    H127826   0.475   6.688   0.643
 9291TIP3    H227827   0.511   6.832   0.611
 9292TIP3   OH227828   0.462   7.045   0.374
 9292TIP3    H127829   0.410   7.107   0.322
 9292TIP3    H227830   0.552   7.057   0.343
 9293TIP3   OH227831   7.620   6.591   0.813
 9293TIP3    H127832   7.558   6.522   0.836
 9293TIP3    H227833   7.651   6.567   0.726
 9294TIP3   OH227834   7.861   6.064   0.480
 9294TIP3    H127835   7.820   6.144   0.447
 9294TIP3    H227836   7.794   5.997   0.467
 9295TIP3   OH227837   0.085   6.536   0.683
 9295TIP3    H127838   0.072   6.523   0.777
 9295TIP3    H227839  -0.000   6.515   0.644
 9296TIP3   OH227840   0.324   6.486   0.552
 9296TIP3    H127841   0.245   6.489   0.606
 9296TIP3    H227842   0.394   6.461   0.613
 9297TIP3   OH227843   0.557   6.453   0.702
 9297TIP3    H127844   0.573   6.359   0.707
 9297TIP3    H227845   0.557   6.481   0.793
 9298TIP3   OH227846   7.476   6.361   0.873
 9298TIP3    H127847   7.472   6.274   0.834
 9298TIP3    H227848   7.511   6.347   0.961
 9299TIP3   OH227849   0.028   6.038   0.744
 9299TIP3    H127850   0.097   5.971   0.737
 9299TIP3    H227851  -0.002   6.050   0.653
 9300TIP3   OH227852   0.120   6.256   0.885
 9300TIP3    H127853   0.088   6.184   0.830
 9300TIP3    H227854   0.048   6.318   0.886
 9301TIP3   OH227855   4.647   3.782   5.450
 9301TIP3    H127856   4.735   3.760   5.420
 9301TIP3    H227857   4.607   3.829   5.376
 9302TIP3   OH227858   4.110   3.164   5.623
 9302TIP3    H127859   4.205   3.172   5.628
 9302TIP3    H227860   4.095   3.076   5.588
 9303TIP3   OH227861   4.009   3.751   6.088
 9303TIP3    H127862   3.943   3.699   6.043
 9303TIP3    H227863   4.051   3.689   6.148
 9304TIP3   OH227864   4.155   3.583   6.255
 9304TIP3    H127865   4.147   3.513   6.320
 9304TIP3    H227866   4.207   3.650   6.299
 9305TIP3   OH227867   5.892   3.985   6.069
 9305TIP3    H127868   5.909   4.008   6.161
 9305TIP3    H227869   5.936   4.054   6.019
 9306TIP3   OH227870   5.910   4.015   6.348
 9306TIP3    H127871   5.865   3.931   6.347
 9306TIP3    H227872   5.982   4.003   6.409
 9307TIP3   OH227873   3.332  -0.015   0.462
 9307TIP3    H127874   3.258  -0.006   0.522
 9307TIP3    H227875   3.377   0.069   0.467
 9308TIP3   OH227876   5.791   3.232   5.526
 9308TIP3    H127877   5.849   3.304   5.499
 9308TIP3    H227878   5.834   3.194   5.602
 9309TIP3   OH227879   5.916   3.089   5.729
 9309TIP3    H127880   5.849   3.051   5.785
 9309TIP3    H227881   5.981   3.125   5.790
 9310TIP3   OH227882   5.961   3.495   6.164
 9310TIP3    H127883   6.014   3.427   6.122
 9310TIP3    H227884   5.964   3.569   6.103
 9311TIP3   OH227885   5.772   3.773   6.356
 9311TIP3    H127886   5.704   3.819   6.406
 9311TIP3    H227887   5.725   3.733   6.283
 9312TIP3   OH227888   5.822   3.006   5.373
 9312TIP3    H127889   5.749   3.005   5.311
 9312TIP3    H227890   5.807   3.084   5.426
 9313TIP3   OH227891   5.677   2.660   5.311
 9313TIP3    H127892   5.630   2.692   5.234
 9313TIP3    H227893   5.667   2.564   5.306
 9314TIP3   OH227894   5.713   2.950   5.864
 9314TIP3    H127895   5.718   2.856   5.850
 9314TIP3    H227896   5.693   2.960   5.957
 9315TIP3   OH227897   6.966   6.748   0.178
 9315TIP3    H127898   6.956   6.714   0.090
 9315TIP3    H227899   7.060   6.739   0.198
 9316TIP3   OH227900   0.716   7.094   0.272
 9316TIP3    H127901   0.784   7.029   0.254
 9316TIP3    H227902   0.711   7.147   0.193
 9317TIP3   OH227903   0.899   6.888   0.265
 9317TIP3    H127904   0.824   6.848   0.309
 9317TIP3    H227905   0.973   6.831   0.287
 9318TIP3   OH227906   5.632   2.391   5.288
 9318TIP3    H127907   5.701   2.360   5.347
 9318TIP3    H227908   5.554   2.343   5.316
 9319TIP3   OH227909   5.706   2.675   5.750
 9319TIP3    H127910   5.751   2.591   5.764
 9319TIP3    H227911   5.749   2.712   5.673
 9320TIP3   OH227912   5.857   2.839   6.273
 9320TIP3    H127913   5.938   2.856   6.226
 9320TIP3    H227914   5.870   2.879   6.359
 9321TIP3   OH227915   0.662   6.713   0.050
 9321TIP3    H127916   0.590   6.742   0.106
 9321TIP3    H227917   0.694   6.794   0.009
 9322TIP3   OH227918   7.247   6.509   0.861
 9322TIP3    H127919   7.332   6.464   0.858
 9322TIP3    H227920   7.183   6.438   0.870
 9323TIP3   OH227921   1.108   6.320   0.560
 9323TIP3    H127922   1.169   6.252   0.533
 9323TIP3    H227923   1.080   6.361   0.478
 9324TIP3   OH227924   5.819   2.425   5.804
 9324TIP3    H127925   5.864   2.409   5.887
 9324TIP3    H227926   5.758   2.352   5.795
 9325TIP3   OH227927   7.158   6.133   0.175
 9325TIP3    H127928   7.214   6.055   0.181
 9325TIP3    H227929   7.219   6.205   0.161
 9326TIP3   OH227930   6.936   6.392   0.231
 9326TIP3    H127931   6.989   6.393   0.151
 9326TIP3    H227932   6.975   6.458   0.287
 9327TIP3   OH227933   0.967   6.425   0.351
 9327TIP3    H127934   0.878   6.460   0.349
 9327TIP3    H227935   0.960   6.339   0.310
 9328TIP3   OH227936   5.861   2.340   5.443
 9328TIP3    H127937   5.901   2.280   5.380
 9328TIP3    H227938   5.921   2.415   5.446
 9329TIP3   OH227939   4.287   2.187   6.202
 9329TIP3    H127940   4.201   2.176   6.241
 9329TIP3    H227941   4.271   2.239   6.123
 9330TIP3   OH227942   5.455   3.899   5.707
 9330TIP3    H127943   5.513   3.890   5.632
 9330TIP3    H227944   5.494   3.969   5.760
 9331TIP3   OH227945   7.175   5.987   0.516
 9331TIP3    H127946   7.121   5.971   0.593
 9331TIP3    H227947   7.115   6.026   0.452
 9332TIP3   OH227948   7.183   7.419   0.633
 9332TIP3    H127949   7.089   7.398   0.627
 9332TIP3    H227950   7.206   7.396   0.723
 9333TIP3   OH227951   2.126   0.017   0.188
 9333TIP3    H127952   2.075   0.091   0.157
 9333TIP3    H227953   2.211   0.026   0.144
 9334TIP3   OH227954   2.522   0.245   0.329
 9334TIP3    H127955   2.559   0.239   0.417
 9334TIP3    H227956   2.585   0.299   0.280
 9335TIP3   OH227957   2.712   0.398   0.200
 9335TIP3    H127958   2.772   0.345   0.148
 9335TIP3    H227959   2.769   0.453   0.254
 9336TIP3   OH227960   0.888   6.168   0.275
 9336TIP3    H127961   0.799   6.154   0.243
 9336TIP3    H227962   0.928   6.081   0.272
 9337TIP3   OH227963   1.786   0.258   0.235
 9337TIP3    H127964   1.694   0.275   0.212
 9337TIP3    H227965   1.807   0.324   0.301
 9338TIP3   OH227966   2.017   0.248   0.086
 9338TIP3    H127967   1.934   0.253   0.134
 9338TIP3    H227968   1.994   0.272  -0.004
 9339TIP3   OH227969   5.065   3.988   6.327
 9339TIP3    H127970   4.992   3.999   6.267
 9339TIP3    H227971   5.075   4.074   6.369
 9340TIP3   OH227972   5.329   3.924   6.378
 9340TIP3    H127973   5.237   3.944   6.358
 9340TIP3    H227974   5.378   3.991   6.331
 9341TIP3   OH227975   5.530   4.096   6.280
 9341TIP3    H127976   5.527   4.183   6.240
 9341TIP3    H227977   5.560   4.038   6.209
 9342TIP3   OH227978   4.333   3.757   6.403
 9342TIP3    H127979   4.357   3.731   6.492
 9342TIP3    H227980   4.403   3.723   6.347
 9343TIP3   OH227981   4.534   3.641   6.260
 9343TIP3    H127982   4.545   3.557   6.305
 9343TIP3    H227983   4.620   3.683   6.266
 9344TIP3   OH227984   4.802   3.728   6.288
 9344TIP3    H127985   4.822   3.636   6.272
 9344TIP3    H227986   4.856   3.752   6.363
 9345TIP3   OH227987   5.363   2.375   6.367
 9345TIP3    H127988   5.325   2.304   6.419
 9345TIP3    H227989   5.432   2.333   6.316
 9346TIP3   OH227990   5.864   2.297   6.265
 9346TIP3    H127991   5.900   2.342   6.189
 9346TIP3    H227992   5.770   2.314   6.261
 9347TIP3   OH227993   5.976   2.368   6.025
 9347TIP3    H127994   6.043   2.306   5.993
 9347TIP3    H227995   6.016   2.454   6.013
 9348TIP3   OH227996   4.597   2.080   6.372
 9348TIP3    H127997   4.509   2.044   6.383
 9348TIP3    H227998   4.653   2.003   6.368
 9349TIP3   OH227999   4.403   1.992   6.039
 9349TIP3    H128000   4.421   2.049   5.963
 9349TIP3    H228001   4.367   2.052   6.105
 9350TIP3   OH228002   5.082   2.121   6.265
 9350TIP3    H128003   5.134   2.168   6.200
 9350TIP3    H228004   5.119   2.147   6.350
 9351TIP3   OH228005   5.578   2.253   6.240
 9351TIP3    H128006   5.602   2.214   6.156
 9351TIP3    H228007   5.583   2.180   6.302
 9352TIP3   OH228008   5.634   2.213   5.809
 9352TIP3    H128009   5.555   2.260   5.835
 9352TIP3    H228010   5.625   2.126   5.846
 9353TIP3   OH228011   4.072   3.549   5.765
 9353TIP3    H128012   3.981   3.530   5.741
 9353TIP3    H228013   4.083   3.642   5.744
 9354TIP3   OH228014   4.518   2.113   5.807
 9354TIP3    H128015   4.557   2.025   5.802
 9354TIP3    H228016   4.590   2.169   5.836
 9355TIP3   OH228017   5.019   2.295   5.890
 9355TIP3    H128018   5.085   2.256   5.947
 9355TIP3    H228019   5.025   2.389   5.909
 9356TIP3   OH228020   4.899   3.704   5.376
 9356TIP3    H128021   4.983   3.732   5.339
 9356TIP3    H228022   4.869   3.634   5.319
 9357TIP3   OH228023   5.609   3.852   5.478
 9357TIP3    H128024   5.600   3.757   5.473
 9357TIP3    H228025   5.561   3.885   5.402
 9358TIP3   OH228026   7.472   6.094   0.782
 9358TIP3    H128027   7.436   6.030   0.843
 9358TIP3    H228028   7.564   6.100   0.805
 9359TIP3   OH228029   7.715   6.092   0.916
 9359TIP3    H128030   7.792   6.069   0.865
 9359TIP3    H228031   7.709   6.024   0.983
 9360TIP3   OH228032   4.192   3.542   5.433
 9360TIP3    H128033   4.184   3.549   5.528
 9360TIP3    H228034   4.274   3.494   5.419
 9361TIP3   OH228035   0.626   6.184   0.705
 9361TIP3    H128036   0.647   6.157   0.795
 9361TIP3    H228037   0.710   6.184   0.659
 9362TIP3   OH228038   3.187   0.263   0.211
 9362TIP3    H128039   3.112   0.232   0.160
 9362TIP3    H228040   3.171   0.357   0.221
 9363TIP3   OH228041   7.082   3.358   5.829
 9363TIP3    H128042   7.129   3.348   5.912
 9363TIP3    H228043   7.039   3.273   5.816
 9364TIP3   OH228044   6.389   3.231   6.176
 9364TIP3    H128045   6.426   3.180   6.248
 9364TIP3    H228046   6.465   3.258   6.125
 9365TIP3   OH228047   7.294   3.654   5.560
 9365TIP3    H128048   7.322   3.590   5.625
 9365TIP3    H228049   7.342   3.734   5.583
 9366TIP3   OH228050   6.390   3.657   5.855
 9366TIP3    H128051   6.369   3.564   5.868
 9366TIP3    H228052   6.485   3.661   5.858
 9367TIP3   OH228053   6.068   2.865   5.646
 9367TIP3    H128054   6.028   2.948   5.672
 9367TIP3    H228055   5.996   2.814   5.608
 9368TIP3   OH228056   6.146   3.173   5.870
 9368TIP3    H128057   6.196   3.095   5.897
 9368TIP3    H228058   6.213   3.236   5.845
 9369TIP3   OH228059   7.016   4.113   5.522
 9369TIP3    H128060   7.046   4.036   5.474
 9369TIP3    H228061   7.031   4.091   5.614
 9370TIP3   OH228062   6.911   3.589   5.836
 9370TIP3    H128063   6.952   3.504   5.815
 9370TIP3    H228064   6.982   3.643   5.868
 9371TIP3   OH228065   7.878   2.911   5.892
 9371TIP3    H128066   7.887   2.995   5.936
 9371TIP3    H228067   7.913   2.926   5.804
 9372TIP3   OH228068   7.296   3.076   5.879
 9372TIP3    H128069   7.338   2.994   5.906
 9372TIP3    H228070   7.257   3.056   5.794
 9373TIP3   OH228071   6.662   2.738   5.830
 9373TIP3    H128072   6.638   2.810   5.771
 9373TIP3    H228073   6.607   2.665   5.802
 9374TIP3   OH228074   7.345   2.833   5.481
 9374TIP3    H128075   7.410   2.818   5.550
 9374TIP3    H228076   7.397   2.861   5.405
 9375TIP3   OH228077   6.286   2.952   5.961
 9375TIP3    H128078   6.369   2.933   6.005
 9375TIP3    H228079   6.289   2.899   5.881
 9376TIP3   OH228080   6.704   3.151   5.777
 9376TIP3    H128081   6.797   3.134   5.784
 9376TIP3    H228082   6.667   3.069   5.744
 9377TIP3   OH228083   7.908   3.119   6.073
 9377TIP3    H128084   7.846   3.183   6.039
 9377TIP3    H228085   7.859   3.073   6.142
 9378TIP3   OH228086   6.639   2.742   6.284
 9378TIP3    H128087   6.588   2.777   6.211
 9378TIP3    H228088   6.584   2.757   6.361
 9379TIP3   OH228089   7.006   3.572   5.352
 9379TIP3    H128090   6.966   3.489   5.325
 9379TIP3    H228091   6.938   3.638   5.334
 9380TIP3   OH228092   6.736   3.520   6.043
 9380TIP3    H128093   6.683   3.592   6.078
 9380TIP3    H228094   6.787   3.561   5.973
 9381TIP3   OH228095   7.510   2.835   5.697
 9381TIP3    H128096   7.465   2.813   5.779
 9381TIP3    H228097   7.558   2.916   5.718
 9382TIP3   OH228098   6.533   2.849   6.051
 9382TIP3    H128099   6.588   2.923   6.075
 9382TIP3    H228100   6.581   2.806   5.980
 9383TIP3   OH228101   6.579   3.721   6.150
 9383TIP3    H128102   6.566   3.812   6.123
 9383TIP3    H228103   6.501   3.701   6.203
 9384TIP3   OH228104   5.960   3.425   5.408
 9384TIP3    H128105   5.919   3.447   5.325
 9384TIP3    H228106   5.984   3.510   5.446
 9385TIP3   OH228107   7.367   3.917   5.605
 9385TIP3    H128108   7.290   3.916   5.662
 9385TIP3    H228109   7.375   4.009   5.579
 9386TIP3   OH228110   7.667   2.800   6.037
 9386TIP3    H128111   7.583   2.805   5.991
 9386TIP3    H228112   7.731   2.829   5.973
 9387TIP3   OH228113   6.980   2.439   6.013
 9387TIP3    H128114   6.973   2.347   6.039
 9387TIP3    H228115   6.902   2.480   6.049
 9388TIP3   OH228116   7.110   3.939   5.318
 9388TIP3    H128117   7.171   3.870   5.290
 9388TIP3    H228118   7.153   4.021   5.292
 9389TIP3   OH228119   7.270   3.716   5.271
 9389TIP3    H128120   7.267   3.673   5.186
 9389TIP3    H228121   7.361   3.743   5.281
 9390TIP3   OH228122   7.607   3.830   5.977
 9390TIP3    H128123   7.581   3.752   5.927
 9390TIP3    H228124   7.703   3.829   5.976
 9391TIP3   OH228125   6.953   3.256   5.257
 9391TIP3    H128126   6.862   3.280   5.240
 9391TIP3    H228127   6.987   3.232   5.171
 9392TIP3   OH228128   6.899   3.017   4.944
 9392TIP3    H128129   6.965   3.062   4.996
 9392TIP3    H228130   6.949   2.952   4.894
 9393TIP3   OH228131   7.794   3.455   5.832
 9393TIP3    H128132   7.766   3.533   5.880
 9393TIP3    H228133   7.815   3.486   5.744
 9394TIP3   OH228134   7.486   3.350   6.177
 9394TIP3    H128135   7.489   3.435   6.221
 9394TIP3    H228136   7.403   3.350   6.129
 9395TIP3   OH228137   6.510   3.286   5.624
 9395TIP3    H128138   6.473   3.225   5.561
 9395TIP3    H228139   6.581   3.237   5.666
 9396TIP3   OH228140   6.658   3.709   5.768
 9396TIP3    H128141   6.631   3.691   5.678
 9396TIP3    H228142   6.744   3.670   5.777
 9397TIP3   OH228143   6.606   3.282   6.003
 9397TIP3    H128144   6.645   3.244   5.923
 9397TIP3    H228145   6.655   3.363   6.017
 9398TIP3   OH228146   7.148   3.896   5.765
 9398TIP3    H128147   7.138   3.982   5.806
 9398TIP3    H228148   7.143   3.834   5.837
 9399TIP3   OH228149   6.774   3.815   6.324
 9399TIP3    H128150   6.715   3.874   6.370
 9399TIP3    H228151   6.718   3.765   6.265
 9400TIP3   OH228152   7.125   3.159   5.051
 9400TIP3    H128153   7.200   3.202   5.092
 9400TIP3    H228154   7.140   3.170   4.957
 9401TIP3   OH228155   1.263   7.089   0.009
 9401TIP3    H128156   1.267   7.182   0.031
 9401TIP3    H228157   1.169   7.069   0.005
 9402TIP3   OH228158   6.867   3.805   5.316
 9402TIP3    H128159   6.938   3.870   5.320
 9402TIP3    H228160   6.796   3.850   5.271
 9403TIP3   OH228161   6.568   3.977   6.409
 9403TIP3    H128162   6.541   3.988   6.318
 9403TIP3    H228163   6.488   3.955   6.456
 9404TIP3   OH228164   7.622   2.419   5.110
 9404TIP3    H128165   7.540   2.437   5.155
 9404TIP3    H228166   7.662   2.505   5.098
 9405TIP3   OH228167   6.383   3.128   5.424
 9405TIP3    H128168   6.304   3.173   5.396
 9405TIP3    H228169   6.355   3.038   5.443
 9406TIP3   OH228170   7.399   3.788   4.659
 9406TIP3    H128171   7.400   3.881   4.637
 9406TIP3    H228172   7.485   3.756   4.631
 9407TIP3   OH228173   6.164   3.533   6.358
 9407TIP3    H128174   6.094   3.515   6.296
 9407TIP3    H228175   6.198   3.447   6.383
 9408TIP3   OH228176   6.006   3.733   6.014
 9408TIP3    H128177   6.095   3.759   6.037
 9408TIP3    H228178   5.952   3.808   6.038
 9409TIP3   OH228179   7.823   4.137   6.030
 9409TIP3    H128180   7.815   4.042   6.020
 9409TIP3    H228181   7.747   4.162   6.082
 9410TIP3   OH228182   6.965   3.950   6.180
 9410TIP3    H128183   6.965   4.040   6.211
 9410TIP3    H228184   6.896   3.907   6.231
 9411TIP3   OH228185   6.740   4.068   5.126
 9411TIP3    H128186   6.673   4.052   5.059
 9411TIP3    H228187   6.712   4.149   5.168
 9412TIP3   OH228188   6.182   3.916   5.518
 9412TIP3    H128189   6.226   3.909   5.602
 9412TIP3    H228190   6.133   3.834   5.509
 9413TIP3   OH228191   6.932   3.994   4.774
 9413TIP3    H128192   6.984   3.921   4.740
 9413TIP3    H228193   6.969   4.011   4.861
 9414TIP3   OH228194   6.998   4.043   5.038
 9414TIP3    H128195   6.912   4.045   5.078
 9414TIP3    H228196   7.059   4.033   5.111
 9415TIP3   OH228197   7.729   3.266   6.323
 9415TIP3    H128198   7.654   3.288   6.268
 9415TIP3    H228199   7.741   3.171   6.311
 9416TIP3   OH228200   6.363   3.721   6.322
 9416TIP3    H128201   6.413   3.710   6.403
 9416TIP3    H228202   6.291   3.658   6.330
 9417TIP3   OH228203   6.744   2.531   6.133
 9417TIP3    H128204   6.661   2.495   6.102
 9417TIP3    H228205   6.719   2.610   6.181
 9418TIP3   OH228206   7.271   2.661   6.351
 9418TIP3    H128207   7.335   2.633   6.417
 9418TIP3    H228208   7.186   2.645   6.391
 9419TIP3   OH228209   7.488   3.083   6.262
 9419TIP3    H128210   7.450   3.079   6.350
 9419TIP3    H228211   7.472   3.173   6.233
 9420TIP3   OH228212   7.185   3.196   4.792
 9420TIP3    H128213   7.138   3.178   4.711
 9420TIP3    H228214   7.273   3.222   4.764
 9421TIP3   OH228215   6.893   2.567   5.109
 9421TIP3    H128216   6.857   2.574   5.198
 9421TIP3    H228217   6.857   2.485   5.076
 9422TIP3   OH228218   6.682   3.059   6.151
 9422TIP3    H128219   6.636   3.065   6.235
 9422TIP3    H228220   6.661   3.141   6.107
 9423TIP3   OH228221   6.563   2.938   5.669
 9423TIP3    H128222   6.475   2.911   5.694
 9423TIP3    H228223   6.573   2.904   5.580
 9424TIP3   OH228224   7.040   3.030   5.400
 9424TIP3    H128225   7.008   3.112   5.362
 9424TIP3    H228226   7.092   2.989   5.331
 9425TIP3   OH228227   1.947   7.006  -0.005
 9425TIP3    H128228   1.925   6.941   0.061
 9425TIP3    H228229   2.039   7.027   0.011
 9426TIP3   OH228230   7.197   3.015   5.628
 9426TIP3    H128231   7.132   3.036   5.561
 9426TIP3    H228232   7.246   2.941   5.591
 9427TIP3   OH228233   6.519   3.072   6.372
 9427TIP3    H128234   6.528   3.137   6.442
 9427TIP3    H228235   6.500   2.990   6.417
 9428TIP3   OH228236   6.565   2.549   5.085
 9428TIP3    H128237   6.555   2.550   5.180
 9428TIP3    H228238   6.485   2.591   5.052
 9429TIP3   OH228239   6.109   2.590   5.949
 9429TIP3    H128240   6.183   2.626   5.998
 9429TIP3    H228241   6.145   2.567   5.864
 9430TIP3   OH228242   6.021   2.570   5.455
 9430TIP3    H128243   6.067   2.604   5.378
 9430TIP3    H228244   5.957   2.637   5.477
 9431TIP3   OH228245   7.245   3.285   6.045
 9431TIP3    H128246   7.274   3.218   5.983
 9431TIP3    H228247   7.198   3.237   6.113
 9432TIP3   OH228248   6.929   2.734   5.721
 9432TIP3    H128249   6.850   2.732   5.775
 9432TIP3    H228250   7.001   2.722   5.783
 9433TIP3   OH228251   6.326   2.811   5.729
 9433TIP3    H128252   6.238   2.816   5.692
 9433TIP3    H228253   6.353   2.720   5.715
 9434TIP3   OH228254   6.579   2.817   5.423
 9434TIP3    H128255   6.674   2.826   5.412
 9434TIP3    H228256   6.544   2.834   5.335
 9435TIP3   OH228257   7.371   2.808   5.936
 9435TIP3    H128258   7.350   2.831   6.027
 9435TIP3    H228259   7.302   2.748   5.909
 9436TIP3   OH228260   6.467   2.843   5.174
 9436TIP3    H128261   6.404   2.791   5.123
 9436TIP3    H228262   6.522   2.884   5.108
 9437TIP3   OH228263   7.559   4.511   6.143
 9437TIP3    H128264   7.554   4.530   6.050
 9437TIP3    H228265   7.638   4.555   6.173
 9438TIP3   OH228266   1.251   7.354   0.104
 9438TIP3    H128267   1.332   7.375   0.152
 9438TIP3    H228268   1.181   7.364   0.169
 9439TIP3   OH228269   6.974   3.093   5.824
 9439TIP3    H128270   7.039   3.041   5.776
 9439TIP3    H228271   6.970   3.052   5.911
 9440TIP3   OH228272   6.470   2.562   5.719
 9440TIP3    H128273   6.438   2.488   5.771
 9440TIP3    H228274   6.495   2.523   5.635
 9441TIP3   OH228275   6.943   2.995   6.086
 9441TIP3    H128276   6.856   3.028   6.112
 9441TIP3    H228277   7.005   3.047   6.137
 9442TIP3   OH228278   6.694   3.351   5.211
 9442TIP3    H128279   6.622   3.294   5.185
 9442TIP3    H228280   6.665   3.391   5.293
 9443TIP3   OH228281   7.541   3.613   5.830
 9443TIP3    H128282   7.576   3.649   5.749
 9443TIP3    H228283   7.477   3.548   5.801
 9444TIP3   OH228284   7.146   2.662   5.115
 9444TIP3    H128285   7.053   2.639   5.110
 9444TIP3    H228286   7.147   2.757   5.128
 9445TIP3   OH228287   7.084   3.685   6.224
 9445TIP3    H128288   7.139   3.679   6.302
 9445TIP3    H228289   7.048   3.774   6.227
 9446TIP3   OH228290   7.193   2.925   5.189
 9446TIP3    H128291   7.287   2.924   5.203
 9446TIP3    H228292   7.179   2.996   5.126
 9447TIP3   OH228293   6.377   3.367   5.854
 9447TIP3    H128294   6.416   3.350   5.768
 9447TIP3    H228295   6.442   3.337   5.917
 9448TIP3   OH228296   6.842   3.510   5.043
 9448TIP3    H128297   6.803   3.597   5.047
 9448TIP3    H228298   6.788   3.456   5.101
 9449TIP3   OH228299   0.991   7.022   0.035
 9449TIP3    H128300   0.991   6.999   0.127
 9449TIP3    H228301   0.916   6.975  -0.002
 9450TIP3   OH228302   1.721   7.159   0.058
 9450TIP3    H128303   1.651   7.099   0.032
 9450TIP3    H228304   1.801   7.119   0.023
 9451TIP3   OH228305   7.233   3.970   6.103
 9451TIP3    H128306   7.138   3.959   6.108
 9451TIP3    H228307   7.255   4.019   6.182
 9452TIP3   OH228308   7.594   3.053   5.029
 9452TIP3    H128309   7.544   3.009   4.960
 9452TIP3    H228310   7.604   3.143   4.998
 9453TIP3   OH228311   7.365   3.817   4.928
 9453TIP3    H128312   7.322   3.738   4.960
 9453TIP3    H228313   7.369   3.806   4.834
 9454TIP3   OH228314   7.340   3.445   5.731
 9454TIP3    H128315   7.254   3.421   5.765
 9454TIP3    H228316   7.374   3.364   5.692
 9455TIP3   OH228317   6.500   3.707   5.531
 9455TIP3    H128318   6.489   3.784   5.475
 9455TIP3    H228319   6.418   3.701   5.580
 9456TIP3   OH228320   6.061   2.995   5.236
 9456TIP3    H128321   6.104   3.077   5.260
 9456TIP3    H228322   5.980   2.994   5.287
 9457TIP3   OH228323   6.594   3.469   5.432
 9457TIP3    H128324   6.569   3.556   5.462
 9457TIP3    H228325   6.567   3.410   5.503
 9458TIP3   OH228326   6.785   4.037   5.977
 9458TIP3    H128327   6.822   4.109   5.926
 9458TIP3    H228328   6.859   4.001   6.026
 9459TIP3   OH228329   6.421   3.930   5.382
 9459TIP3    H128330   6.333   3.938   5.418
 9459TIP3    H228331   6.456   4.019   5.385
 9460TIP3   OH228332   7.145   3.687   5.955
 9460TIP3    H128333   7.120   3.682   6.048
 9460TIP3    H228334   7.238   3.665   5.954
 9461TIP3   OH228335   7.112   3.579   4.817
 9461TIP3    H128336   7.144   3.570   4.907
 9461TIP3    H228337   7.031   3.529   4.814
 9462TIP3   OH228338   7.353   4.219   6.016
 9462TIP3    H128339   7.319   4.131   6.006
 9462TIP3    H228340   7.358   4.253   5.927
 9463TIP3   OH228341   7.437   4.054   4.626
 9463TIP3    H128342   7.491   4.111   4.571
 9463TIP3    H228343   7.369   4.111   4.660
 9464TIP3   OH228344   1.198   6.541   0.039
 9464TIP3    H128345   1.103   6.553   0.043
 9464TIP3    H228346   1.217   6.482   0.112
 9465TIP3   OH228347   7.273   3.556   5.047
 9465TIP3    H128348   7.239   3.473   5.080
 9465TIP3    H228349   7.363   3.536   5.021
 9466TIP3   OH228350   6.211   3.918   6.134
 9466TIP3    H128351   6.265   3.865   6.192
 9466TIP3    H228352   6.221   4.008   6.166
 9467TIP3   OH228353   6.466   3.544   4.833
 9467TIP3    H128354   6.480   3.454   4.805
 9467TIP3    H228355   6.455   3.539   4.928
 9468TIP3   OH228356   6.424   3.553   5.108
 9468TIP3    H128357   6.483   3.516   5.174
 9468TIP3    H228358   6.431   3.648   5.120
 9469TIP3   OH228359   6.155   3.247   5.317
 9469TIP3    H128360   6.090   3.294   5.369
 9469TIP3    H228361   6.173   3.304   5.243
 9470TIP3   OH228362   7.309   2.884   6.192
 9470TIP3    H128363   7.385   2.932   6.224
 9470TIP3    H228364   7.301   2.809   6.251
 9471TIP3   OH228365   7.202   2.616   5.384
 9471TIP3    H128366   7.183   2.635   5.292
 9471TIP3    H228367   7.245   2.695   5.416
 9472TIP3   OH228368   6.708   3.751   5.041
 9472TIP3    H128369   6.622   3.768   5.079
 9472TIP3    H228370   6.727   3.828   4.988
 9473TIP3   OH228371   6.861   2.828   5.468
 9473TIP3    H128372   6.919   2.900   5.444
 9473TIP3    H228373   6.884   2.807   5.558
 9474TIP3   OH228374   7.144   3.113   6.232
 9474TIP3    H128375   7.168   3.159   6.312
 9474TIP3    H228376   7.199   3.035   6.232
 9475TIP3   OH228377   7.018   2.518   5.562
 9475TIP3    H128378   6.996   2.596   5.613
 9475TIP3    H228379   7.087   2.545   5.503
 9476TIP3   OH228380   6.459   3.823   5.135
 9476TIP3    H128381   6.434   3.895   5.078
 9476TIP3    H228382   6.446   3.856   5.224
 9477TIP3   OH228383   6.536   2.542   5.363
 9477TIP3    H128384   6.524   2.632   5.393
 9477TIP3    H228385   6.631   2.527   5.370
 9478TIP3   OH228386   7.737   2.984   6.241
 9478TIP3    H128387   7.646   3.012   6.247
 9478TIP3    H228388   7.733   2.904   6.188
 9479TIP3   OH228389   7.414   3.199   5.620
 9479TIP3    H128390   7.338   3.141   5.630
 9479TIP3    H228391   7.480   3.161   5.678
 9480TIP3   OH228392   6.179   3.423   5.099
 9480TIP3    H128393   6.253   3.483   5.110
 9480TIP3    H228394   6.210   3.358   5.036
 9481TIP3   OH228395   6.086   2.716   5.232
 9481TIP3    H128396   6.098   2.811   5.240
 9481TIP3    H228397   6.021   2.706   5.163
 9482TIP3   OH228398   7.395   4.185   5.548
 9482TIP3    H128399   7.356   4.244   5.482
 9482TIP3    H228400   7.489   4.202   5.542
 9483TIP3   OH228401   6.484   2.441   6.095
 9483TIP3    H128402   6.452   2.406   6.012
 9483TIP3    H228403   6.474   2.368   6.157
 9484TIP3   OH228404   6.005   3.695   5.488
 9484TIP3    H128405   5.960   3.732   5.564
 9484TIP3    H228406   5.964   3.739   5.413
 9485TIP3   OH228407   3.572   0.479   0.119
 9485TIP3    H128408   3.652   0.479   0.171
 9485TIP3    H228409   3.544   0.388   0.118
 9486TIP3   OH228410   4.037   0.425   0.147
 9486TIP3    H128411   4.129   0.399   0.157
 9486TIP3    H228412   4.003   0.367   0.079
 9487TIP3   OH228413   6.618   3.739   4.710
 9487TIP3    H128414   6.574   3.670   4.759
 9487TIP3    H228415   6.696   3.697   4.674
 9488TIP3   OH228416   7.284   4.089   6.345
 9488TIP3    H128417   7.300   4.013   6.401
 9488TIP3    H228418   7.360   4.145   6.359
 9489TIP3   OH228419   7.062   3.789   4.652
 9489TIP3    H128420   7.098   3.721   4.709
 9489TIP3    H228421   7.115   3.785   4.573
 9490TIP3   OH228422   1.047   7.355   0.296
 9490TIP3    H128423   1.067   7.262   0.303
 9490TIP3    H228424   0.961   7.358   0.254
 9491TIP3   OH228425   6.305   3.233   4.948
 9491TIP3    H128426   6.356   3.208   5.025
 9491TIP3    H228427   6.370   3.246   4.879
 9492TIP3   OH228428   1.666   7.434   0.072
 9492TIP3    H128429   1.620   7.454  -0.010
 9492TIP3    H228430   1.698   7.345   0.060
 9493TIP3   OH228431   6.869   3.452   4.778
 9493TIP3    H128432   6.847   3.461   4.871
 9493TIP3    H228433   6.854   3.359   4.759
 9494TIP3   OH228434   7.400   3.752   6.140
 9494TIP3    H128435   7.477   3.782   6.090
 9494TIP3    H228436   7.336   3.822   6.129
 9495TIP3   OH228437   1.159   7.101   0.300
 9495TIP3    H128438   1.236   7.072   0.251
 9495TIP3    H228439   1.191   7.111   0.390
 9496TIP3   OH228440   6.483   3.177   5.159
 9496TIP3    H128441   6.458   3.145   5.246
 9496TIP3    H228442   6.529   3.103   5.119
 9497TIP3   OH228443   6.786   3.262   6.409
 9497TIP3    H128444   6.699   3.302   6.418
 9497TIP3    H228445   6.818   3.292   6.324
 9498TIP3   OH228446   6.623   2.992   5.002
 9498TIP3    H128447   6.592   2.996   4.912
 9498TIP3    H228448   6.719   2.995   4.994
 9499TIP3   OH228449   2.025   7.339   0.045
 9499TIP3    H128450   2.100   7.306  -0.004
 9499TIP3    H228451   2.021   7.283   0.123
 9500TIP3   OH228452   7.420   3.281   4.673
 9500TIP3    H128453   7.396   3.238   4.590
 9500TIP3    H228454   7.396   3.372   4.661
 9501TIP3   OH228455   1.611   6.750   0.061
 9501TIP3    H128456   1.615   6.679  -0.003
 9501TIP3    H228457   1.579   6.825   0.011
 9502TIP3   OH228458   6.899   2.823   6.316
 9502TIP3    H128459   6.926   2.859   6.232
 9502TIP3    H228460   6.809   2.795   6.303
 9503TIP3   OH228461   6.906   3.361   6.187
 9503TIP3    H128462   6.993   3.402   6.184
 9503TIP3    H228463   6.851   3.420   6.137
 9504TIP3   OH228464   2.214   7.053   0.068
 9504TIP3    H128465   2.252   6.968   0.090
 9504TIP3    H228466   2.286   7.104   0.033
 9505TIP3   OH228467   7.534   3.591   6.316
 9505TIP3    H128468   7.479   3.651   6.265
 9505TIP3    H228469   7.622   3.604   6.281
 9506TIP3   OH228470   1.488   6.849   0.295
 9506TIP3    H128471   1.423   6.782   0.318
 9506TIP3    H228472   1.519   6.823   0.208
 9507TIP3   OH228473   7.018   2.603   6.444
 9507TIP3    H128474   6.978   2.682   6.407
 9507TIP3    H228475   6.955   2.533   6.426
 9508TIP3   OH228476   1.863   6.802   0.159
 9508TIP3    H128477   1.845   6.792   0.252
 9508TIP3    H228478   1.782   6.778   0.115
 9509TIP3   OH228479   2.119   6.761   0.055
 9509TIP3    H128480   2.038   6.757   0.107
 9509TIP3    H228481   2.186   6.726   0.114
 9510TIP3   OH228482   1.335   6.623   0.358
 9510TIP3    H128483   1.338   6.534   0.322
 9510TIP3    H228484   1.378   6.616   0.443
 9511TIP3   OH228485   1.811   6.312   0.268
 9511TIP3    H128486   1.889   6.257   0.273
 9511TIP3    H228487   1.791   6.317   0.174
 9512TIP3   OH228488   1.877   6.527   0.441
 9512TIP3    H128489   1.866   6.453   0.381
 9512TIP3    H228490   1.817   6.594   0.407
 9513TIP3   OH228491   6.427   4.029   4.958
 9513TIP3    H128492   6.506   4.017   4.905
 9513TIP3    H228493   6.357   4.046   4.895
 9514TIP3   OH228494   5.905   3.427   5.102
 9514TIP3    H128495   6.000   3.434   5.108
 9514TIP3    H228496   5.889   3.338   5.070
 9515TIP3   OH228497   5.812   4.006   5.577
 9515TIP3    H128498   5.746   3.953   5.533
 9515TIP3    H228499   5.855   3.946   5.637
 9516TIP3   OH228500   5.954   3.836   5.743
 9516TIP3    H128501   5.946   3.768   5.810
 9516TIP3    H228502   6.007   3.904   5.786
 9517TIP3   OH228503   7.658   4.251   5.544
 9517TIP3    H128504   7.688   4.277   5.631
 9517TIP3    H228505   7.724   4.286   5.485
 9518TIP3   OH228506   7.683   4.281   5.826
 9518TIP3    H128507   7.626   4.203   5.819
 9518TIP3    H228508   7.754   4.253   5.884
 9519TIP3   OH228509   7.758   3.983   6.422
 9519TIP3    H128510   7.678   3.990   6.474
 9519TIP3    H228511   7.788   4.073   6.410
 9520TIP3   OH228512   7.533   3.500   5.002
 9520TIP3    H128513   7.590   3.574   4.983
 9520TIP3    H228514   7.572   3.457   5.077
 9521TIP3   OH228515   7.625   3.351   5.204
 9521TIP3    H128516   7.562   3.301   5.257
 9521TIP3    H228517   7.706   3.349   5.255
 9522TIP3   OH228518   7.653   3.724   5.609
 9522TIP3    H128519   7.735   3.676   5.600
 9522TIP3    H228520   7.670   3.808   5.565
 9523TIP3   OH228521   7.546   4.044   5.813
 9523TIP3    H128522   7.564   3.978   5.880
 9523TIP3    H228523   7.512   3.994   5.739
 9524TIP3   OH228524   7.618   3.276   4.861
 9524TIP3    H128525   7.555   3.266   4.790
 9524TIP3    H228526   7.593   3.358   4.904
 9525TIP3   OH228527   7.468   2.953   4.813
 9525TIP3    H128528   7.479   2.987   4.724
 9525TIP3    H228529   7.429   2.866   4.801
 9526TIP3   OH228530   7.454   3.192   5.346
 9526TIP3    H128531   7.458   3.098   5.332
 9526TIP3    H228532   7.444   3.203   5.440
 9527TIP3   OH228533   6.126   3.274   6.124
 9527TIP3    H128534   6.116   3.239   6.036
 9527TIP3    H228535   6.220   3.268   6.142
 9528TIP3   OH228536   7.785   3.628   6.195
 9528TIP3    H128537   7.842   3.551   6.191
 9528TIP3    H228538   7.813   3.683   6.122
 9529TIP3   OH228539   0.049   3.410   6.241
 9529TIP3    H128540  -0.021   3.353   6.272
 9529TIP3    H228541   0.090   3.444   6.320
 9530TIP3   OH228542   7.372   2.697   4.774
 9530TIP3    H128543   7.457   2.661   4.797
 9530TIP3    H228544   7.309   2.631   4.801
 9531TIP3   OH228545   7.470   2.927   5.243
 9531TIP3    H128546   7.517   2.845   5.259
 9531TIP3    H228547   7.517   2.967   5.170
 9532TIP3   OH228548   7.603   3.079   5.787
 9532TIP3    H128549   7.686   3.107   5.748
 9532TIP3    H228550   7.603   3.120   5.874
 9533TIP3   OH228551   7.681   3.260   5.996
 9533TIP3    H128552   7.611   3.302   6.047
 9533TIP3    H228553   7.713   3.330   5.939
 9534TIP3   OH228554   1.070   6.681   0.320
 9534TIP3    H128555   1.165   6.675   0.330
 9534TIP3    H228556   1.037   6.597   0.352
 9535TIP3   OH228557   7.575   2.688   5.320
 9535TIP3    H128558   7.632   2.672   5.395
 9535TIP3    H228559   7.524   2.608   5.310
 9536TIP3   OH228560   6.323   2.665   6.111
 9536TIP3    H128561   6.375   2.585   6.118
 9536TIP3    H228562   6.387   2.734   6.094
 9537TIP3   OH228563   6.103   2.922   6.177
 9537TIP3    H128564   6.154   2.915   6.096
 9537TIP3    H228565   6.136   3.001   6.219
 9538TIP3   OH228566   7.618   2.608   4.845
 9538TIP3    H128567   7.651   2.524   4.814
 9538TIP3    H228568   7.670   2.626   4.924
 9539TIP3   OH228569   6.093   2.445   5.687
 9539TIP3    H128570   6.006   2.429   5.725
 9539TIP3    H228571   6.075   2.496   5.608
 9540TIP3   OH228572   7.226   4.151   5.200
 9540TIP3    H128573   7.285   4.143   5.125
 9540TIP3    H228574   7.264   4.221   5.253
 9541TIP3   OH228575   1.048   6.221   0.049
 9541TIP3    H128576   0.994   6.205   0.126
 9541TIP3    H228577   0.991   6.269  -0.011
 9542TIP3   OH228578   3.720   0.204   0.125
 9542TIP3    H128579   3.625   0.195   0.113
 9542TIP3    H228580   3.731   0.211   0.220
 9543TIP3   OH228581   6.557   3.998   6.126
 9543TIP3    H128582   6.505   4.071   6.094
 9543TIP3    H228583   6.642   4.008   6.083
 9544TIP3   OH228584   6.973   4.212   6.256
 9544TIP3    H128585   7.006   4.212   6.346
 9544TIP3    H228586   7.035   4.266   6.208
 9545TIP3   OH228587   7.151   4.375   6.129
 9545TIP3    H128588   7.220   4.322   6.089
 9545TIP3    H228589   7.199   4.438   6.183
 9546TIP3   OH228590   6.206   4.210   6.158
 9546TIP3    H128591   6.116   4.234   6.136
 9546TIP3    H228592   6.230   4.271   6.228
 9547TIP3   OH228593   6.443   4.225   6.019
 9547TIP3    H128594   6.359   4.224   6.064
 9547TIP3    H228595   6.422   4.251   5.929
 9548TIP3   OH228596   6.858   4.248   5.810
 9548TIP3    H128597   6.783   4.262   5.752
 9548TIP3    H228598   6.870   4.332   5.854
 9549TIP3   OH228599   7.117   4.159   5.826
 9549TIP3    H128600   7.030   4.198   5.823
 9549TIP3    H228601   7.177   4.233   5.811
 9550TIP3   OH228602   7.324   4.342   5.764
 9550TIP3    H128603   7.327   4.429   5.724
 9550TIP3    H228604   7.354   4.283   5.696
 9551TIP3   OH228605   6.128   4.014   5.882
 9551TIP3    H128606   6.147   3.989   5.972
 9551TIP3    H228607   6.203   3.980   5.832
 9552TIP3   OH228608   6.335   3.899   5.747
 9552TIP3    H128609   6.345   3.816   5.792
 9552TIP3    H228610   6.420   3.941   5.753
 9553TIP3   OH228611   6.601   3.985   5.774
 9553TIP3    H128612   6.622   3.893   5.761
 9553TIP3    H228613   6.654   4.012   5.849
 9554TIP3   OH228614   7.149   2.634   5.866
 9554TIP3    H128615   7.106   2.563   5.914
 9554TIP3    H228616   7.215   2.590   5.813
 9555TIP3   OH228617   7.640   2.536   5.764
 9555TIP3    H128618   7.677   2.594   5.696
 9555TIP3    H228619   7.548   2.560   5.769
 9556TIP3   OH228620   7.746   2.645   5.535
 9556TIP3    H128621   7.829   2.602   5.517
 9556TIP3    H228622   7.768   2.739   5.536
 9557TIP3   OH228623   6.388   2.335   5.859
 9557TIP3    H128624   6.299   2.301   5.865
 9557TIP3    H228625   6.443   2.258   5.852
 9558TIP3   OH228626   6.191   2.241   5.509
 9558TIP3    H128627   6.228   2.289   5.435
 9558TIP3    H228628   6.169   2.309   5.573
 9559TIP3   OH228629   6.872   2.376   5.755
 9559TIP3    H128630   6.920   2.422   5.687
 9559TIP3    H228631   6.914   2.404   5.837
 9560TIP3   OH228632   7.356   2.514   5.730
 9560TIP3    H128633   7.381   2.483   5.643
 9560TIP3    H228634   7.364   2.438   5.786
 9561TIP3   OH228635   7.419   2.463   5.298
 9561TIP3    H128636   7.337   2.506   5.322
 9561TIP3    H228637   7.412   2.375   5.335
 9562TIP3   OH228638   5.899   3.811   5.256
 9562TIP3    H128639   5.811   3.780   5.235
 9562TIP3    H228640   5.898   3.904   5.232
 9563TIP3   OH228641   6.324   2.373   5.280
 9563TIP3    H128642   6.368   2.308   5.225
 9563TIP3    H228643   6.394   2.428   5.314
 9564TIP3   OH228644   6.811   2.574   5.373
 9564TIP3    H128645   6.868   2.520   5.428
 9564TIP3    H228646   6.829   2.664   5.402
 9565TIP3   OH228647   6.666   3.975   4.838
 9565TIP3    H128648   6.756   3.997   4.815
 9565TIP3    H228649   6.647   3.894   4.790
 9566TIP3   OH228650   7.374   4.095   4.972
 9566TIP3    H128651   7.377   4.001   4.959
 9566TIP3    H228652   7.341   4.130   4.890
 9567TIP3   OH228653   1.338   6.346   0.283
 9567TIP3    H128654   1.298   6.276   0.335
 9567TIP3    H228655   1.428   6.351   0.316
 9568TIP3   OH228656   1.579   6.344   0.415
 9568TIP3    H128657   1.661   6.329   0.368
 9568TIP3    H228658   1.571   6.267   0.472
 9569TIP3   OH228659   5.987   3.798   4.948
 9569TIP3    H128660   5.976   3.802   5.043
 9569TIP3    H228661   6.068   3.749   4.935
 9570TIP3   OH228662   7.595   4.238   6.149
 9570TIP3    H128663   7.514   4.214   6.104
 9570TIP3    H228664   7.593   4.333   6.154
 9571TIP3   OH228665   0.215   3.465   5.677
 9571TIP3    H128666   0.242   3.407   5.749
 9571TIP3    H228667   0.240   3.552   5.707
 9572TIP3   OH228668   0.234   3.945   5.329
 9572TIP3    H128669   0.201   3.870   5.278
 9572TIP3    H228670   0.262   3.906   5.411
 9573TIP3   OH228671   7.797   3.071   5.231
 9573TIP3    H128672   7.806   3.160   5.265
 9573TIP3    H228673   7.720   3.074   5.175
 9574TIP3   OH228674   7.864   3.316   5.336
 9574TIP3    H128675   7.951   3.276   5.341
 9574TIP3    H228676   7.880   3.409   5.354
 9575TIP3   OH228677   0.225   3.216   5.306
 9575TIP3    H128678   0.308   3.251   5.338
 9575TIP3    H228679   0.249   3.133   5.263
 9576TIP3   OH228680   0.326   3.883   5.585
 9576TIP3    H128681   0.390   3.944   5.621
 9576TIP3    H228682   0.316   3.816   5.653
 9577TIP3   OH228683   7.673   3.719   4.923
 9577TIP3    H128684   7.602   3.775   4.892
 9577TIP3    H228685   7.739   3.781   4.957
 9578TIP3   OH228686   0.429   3.661   5.985
 9578TIP3    H128687   0.425   3.733   6.047
 9578TIP3    H228688   0.379   3.590   6.026
 9579TIP3   OH228689   0.403   4.391   5.891
 9579TIP3    H128690   0.418   4.318   5.832
 9579TIP3    H228691   0.370   4.349   5.971
 9580TIP3   OH228692   7.738   3.969   5.483
 9580TIP3    H128693   7.819   3.937   5.521
 9580TIP3    H228694   7.724   4.054   5.524
 9581TIP3   OH228695   0.030   4.204   5.008
 9581TIP3    H128696   0.093   4.195   5.079
 9581TIP3    H228697   0.011   4.114   4.981
 9582TIP3   OH228698   0.166   4.051   5.842
 9582TIP3    H128699   0.164   4.113   5.915
 9582TIP3    H228700   0.115   3.976   5.873
 9583TIP3   OH228701   0.298   3.283   5.866
 9583TIP3    H128702   0.284   3.353   5.929
 9583TIP3    H228703   0.298   3.203   5.919
 9584TIP3   OH228704   7.813   2.913   5.482
 9584TIP3    H128705   7.875   2.941   5.549
 9584TIP3    H228706   7.806   2.988   5.423
 9585TIP3   OH228707   7.808   2.899   4.936
 9585TIP3    H128708   7.842   2.967   4.876
 9585TIP3    H228709   7.735   2.941   4.981
 9586TIP3   OH228710   0.122   3.065   5.066
 9586TIP3    H128711   0.045   3.068   5.123
 9586TIP3    H228712   0.170   2.988   5.095
 9587TIP3   OH228713   0.401   3.866   6.169
 9587TIP3    H128714   0.431   3.951   6.137
 9587TIP3    H228715   0.309   3.880   6.190
 9588TIP3   OH228716   0.314   3.667   5.359
 9588TIP3    H128717   0.384   3.678   5.294
 9588TIP3    H228718   0.359   3.674   5.443
 9589TIP3   OH228719   0.258   4.025   4.961
 9589TIP3    H128720   0.334   4.029   4.903
 9589TIP3    H228721   0.243   3.932   4.975
 9590TIP3   OH228722   7.824   3.113   4.765
 9590TIP3    H128723   7.881   3.173   4.716
 9590TIP3    H228724   7.746   3.165   4.785
 9591TIP3   OH228725   0.189   4.198   4.758
 9591TIP3    H128726   0.192   4.163   4.847
 9591TIP3    H228727   0.174   4.292   4.770
 9592TIP3   OH228728   0.280   3.090   6.075
 9592TIP3    H128729   0.185   3.098   6.087
 9592TIP3    H228730   0.311   3.045   6.154
 9593TIP3   OH228731   0.050   4.187   5.618
 9593TIP3    H128732   0.087   4.128   5.684
 9593TIP3    H228733   0.064   4.275   5.653
 9594TIP3   OH228734   0.171   3.549   4.843
 9594TIP3    H128735   0.097   3.495   4.870
 9594TIP3    H228736   0.208   3.504   4.767
 9595TIP3   OH228737   0.254   3.999   4.594
 9595TIP3    H128738   0.242   4.075   4.652
 9595TIP3    H228739   0.219   3.926   4.644
 9596TIP3   OH228740   0.007   3.711   4.583
 9596TIP3    H128741   0.047   3.761   4.654
 9596TIP3    H228742   0.063   3.727   4.507
 9597TIP3   OH228743   7.738   2.875   4.651
 9597TIP3    H128744   7.781   2.958   4.672
 9597TIP3    H228745   7.741   2.825   4.732
 9598TIP3   OH228746   7.821   3.944   4.985
 9598TIP3    H128747   7.792   3.977   5.070
 9598TIP3    H228748   7.761   3.985   4.922
 9599TIP3   OH228749   0.123   4.520   6.055
 9599TIP3    H128750   0.203   4.532   6.106
 9599TIP3    H228751   0.122   4.427   6.034
 9600TIP3   OH228752   0.132   3.898   6.227
 9600TIP3    H128753   0.141   3.813   6.270
 9600TIP3    H228754   0.087   3.879   6.145
 9601TIP3   OH228755   0.226   3.644   6.272
 9601TIP3    H128756   0.193   3.618   6.186
 9601TIP3    H228757   0.315   3.609   6.275
 9602TIP3   OH228758   7.637   3.696   4.575
 9602TIP3    H128759   7.731   3.709   4.590
 9602TIP3    H228760   7.629   3.603   4.553
 9603TIP3   OH228761   7.587   4.251   5.067
 9603TIP3    H128762   7.525   4.196   5.019
 9603TIP3    H228763   7.639   4.189   5.118
 9604TIP3   OH228764   7.735   4.066   5.221
 9604TIP3    H128765   7.718   4.009   5.296
 9604TIP3    H228766   7.786   4.139   5.258
 9605TIP3   OH228767  -0.028   3.551   5.586
 9605TIP3    H128768  -0.014   3.574   5.494
 9605TIP3    H228769   0.059   3.524   5.616
 9606TIP3   OH228770   0.124   2.962   5.665
 9606TIP3    H128771   0.202   2.907   5.650
 9606TIP3    H228772   0.150   3.049   5.633
 9607TIP3   OH228773   7.833   3.201   5.719
 9607TIP3    H128774   7.911   3.205   5.665
 9607TIP3    H228775   7.827   3.287   5.760
 9608TIP3   OH228776   7.780   2.657   5.062
 9608TIP3    H128777   7.812   2.673   5.150
 9608TIP3    H228778   7.793   2.740   5.016
 9609TIP3   OH228779   0.149   2.737   6.023
 9609TIP3    H128780   0.126   2.752   6.115
 9609TIP3    H228781   0.088   2.793   5.974
 9610TIP3   OH228782   0.170   4.234   6.089
 9610TIP3    H128783   0.080   4.206   6.070
 9610TIP3    H228784   0.180   4.218   6.183
 9611TIP3   OH228785   0.473   4.204   5.707
 9611TIP3    H128786   0.405   4.191   5.641
 9611TIP3    H228787   0.554   4.179   5.663
 9612TIP3   OH228788   0.078   4.451   5.686
 9612TIP3    H128789  -0.005   4.495   5.665
 9612TIP3    H228790   0.130   4.518   5.730
 9613TIP3   OH228791   0.219   4.410   5.444
 9613TIP3    H128792   0.178   4.440   5.525
 9613TIP3    H228793   0.237   4.490   5.395
 9614TIP3   OH228794  -0.020   4.259   5.361
 9614TIP3    H128795   0.002   4.230   5.450
 9614TIP3    H228796   0.064   4.260   5.315
 9615TIP3   OH228797   0.209   4.200   5.213
 9615TIP3    H128798   0.213   4.109   5.242
 9615TIP3    H228799   0.294   4.237   5.237
 9616TIP3   OH228800   5.660   0.316   0.055
 9616TIP3    H128801   5.748   0.353   0.067
 9616TIP3    H228802   5.633   0.290   0.143
 9617TIP3   OH228803   7.652   4.056   4.806
 9617TIP3    H128804   7.571   4.039   4.758
 9617TIP3    H228805   7.692   4.130   4.761
 9618TIP3   OH228806   7.664   4.095   4.436
 9618TIP3    H128807   7.716   4.122   4.512
 9618TIP3    H228808   7.684   4.003   4.424
 9619TIP3   OH228809   6.612   0.696   0.140
 9619TIP3    H128810   6.584   0.784   0.113
 9619TIP3    H228811   6.542   0.638   0.110
 9620TIP3   OH228812   6.607   0.687   0.554
 9620TIP3    H128813   6.659   0.665   0.631
 9620TIP3    H228814   6.565   0.605   0.529
 9621TIP3   OH228815   5.959   0.577   0.898
 9621TIP3    H128816   5.867   0.601   0.892
 9621TIP3    H228817   6.005   0.650   0.856
 9622TIP3   OH228818   6.878   0.989   0.228
 9622TIP3    H128819   6.864   0.927   0.300
 9622TIP3    H228820   6.904   1.070   0.271
 9623TIP3   OH228821   5.948   0.963   0.641
 9623TIP3    H128822   5.954   0.868   0.631
 9623TIP3    H228823   6.028   0.996   0.600
 9624TIP3   OH228824   6.530   1.444   0.224
 9624TIP3    H128825   6.559   1.364   0.180
 9624TIP3    H228826   6.499   1.414   0.309
 9625TIP3   OH228827   6.422   0.909   0.570
 9625TIP3    H128828   6.466   0.829   0.541
 9625TIP3    H228829   6.493   0.969   0.592
 9626TIP3   OH228830   7.379   0.236   0.568
 9626TIP3    H128831   7.412   0.307   0.623
 9626TIP3    H228832   7.392   0.267   0.478
 9627TIP3   OH228833   6.825   0.389   0.602
 9627TIP3    H128834   6.891   0.322   0.616
 9627TIP3    H228835   6.796   0.376   0.512
 9628TIP3   OH228836   6.186   0.089   0.546
 9628TIP3    H128837   6.150   0.155   0.487
 9628TIP3    H228838   6.140   0.008   0.521
 9629TIP3   OH228839   6.870   0.166   0.187
 9629TIP3    H128840   6.933   0.172   0.258
 9629TIP3    H228841   6.917   0.200   0.111
 9630TIP3   OH228842   5.844   0.312   0.607
 9630TIP3    H128843   5.902   0.276   0.674
 9630TIP3    H228844   5.820   0.236   0.554
 9631TIP3   OH228845   6.249   0.466   0.463
 9631TIP3    H128846   6.339   0.439   0.478
 9631TIP3    H228847   6.203   0.385   0.439
 9632TIP3   OH228848   7.475   0.425   0.742
 9632TIP3    H128849   7.395   0.479   0.744
 9632TIP3    H228850   7.536   0.471   0.799
 9633TIP3   OH228851   1.248   4.638   6.447
 9633TIP3    H128852   1.210   4.612   6.362
 9633TIP3    H228853   1.194   4.711   6.475
 9634TIP3   OH228854   6.289   0.811   0.797
 9634TIP3    H128855   6.220   0.867   0.833
 9634TIP3    H228856   6.324   0.861   0.723
 9635TIP3   OH228857   7.023   0.210   0.404
 9635TIP3    H128858   7.068   0.133   0.440
 9635TIP3    H228859   7.077   0.284   0.431
 9636TIP3   OH228860   6.028   0.163   0.765
 9636TIP3    H128861   6.075   0.227   0.818
 9636TIP3    H228862   6.092   0.137   0.698
 9637TIP3   OH228863   6.092   0.970   0.910
 9637TIP3    H128864   6.086   1.060   0.878
 9637TIP3    H228865   6.001   0.942   0.921
 9638TIP3   OH228866   6.924   1.232   0.361
 9638TIP3    H128867   6.835   1.227   0.396
 9638TIP3    H228868   6.926   1.314   0.312
 9639TIP3   OH228869   7.185   0.188   0.766
 9639TIP3    H128870   7.099   0.176   0.725
 9639TIP3    H228871   7.244   0.206   0.693
 9640TIP3   OH228872   3.860   7.195   0.652
 9640TIP3    H128873   3.828   7.128   0.712
 9640TIP3    H228874   3.891   7.266   0.709
 9641TIP3   OH228875   6.622   1.268   0.023
 9641TIP3    H128876   6.677   1.191   0.012
 9641TIP3    H228877   6.676   1.341  -0.005
 9642TIP3   OH228878   6.766   1.040  -0.018
 9642TIP3    H128879   6.691   0.980  -0.018
 9642TIP3    H228880   6.815   1.018   0.060
 9643TIP3   OH228881   7.144   1.126   0.721
 9643TIP3    H128882   7.134   1.050   0.663
 9643TIP3    H228883   7.154   1.200   0.661
 9644TIP3   OH228884   1.175   4.261   6.436
 9644TIP3    H128885   1.095   4.310   6.416
 9644TIP3    H228886   1.223   4.258   6.353
 9645TIP3   OH228887   1.143   4.071   6.121
 9645TIP3    H128888   1.208   4.120   6.171
 9645TIP3    H228889   1.193   4.004   6.076
 9646TIP3   OH228890   7.330   0.778   0.578
 9646TIP3    H128891   7.250   0.831   0.575
 9646TIP3    H228892   7.378   0.802   0.499
 9647TIP3   OH228893   1.529   4.352   6.397
 9647TIP3    H128894   1.476   4.381   6.472
 9647TIP3    H228895   1.613   4.329   6.436
 9648TIP3   OH228896   7.020   0.650   0.879
 9648TIP3    H128897   7.026   0.735   0.922
 9648TIP3    H228898   6.938   0.652   0.831
 9649TIP3   OH228899   6.049   0.602   0.343
 9649TIP3    H128900   6.035   0.540   0.272
 9649TIP3    H228901   6.124   0.568   0.391
 9650TIP3   OH228902   6.176   1.027   0.491
 9650TIP3    H128903   6.161   1.011   0.398
 9650TIP3    H228904   6.263   0.990   0.508
 9651TIP3   OH228905   6.229   0.555   0.723
 9651TIP3    H128906   6.235   0.543   0.628
 9651TIP3    H228907   6.245   0.648   0.737
 9652TIP3   OH228908   6.682   1.215   0.485
 9652TIP3    H128909   6.676   1.296   0.536
 9652TIP3    H228910   6.674   1.146   0.550
 9653TIP3   OH228911   6.299   1.127   1.011
 9653TIP3    H128912   6.231   1.179   0.969
 9653TIP3    H228913   6.266   1.038   1.010
 9654TIP3   OH228914   1.361   4.213   6.229
 9654TIP3    H128915   1.421   4.271   6.277
 9654TIP3    H228916   1.391   4.218   6.138
 9655TIP3   OH228917   6.374   1.150   0.039
 9655TIP3    H128918   6.457   1.199   0.041
 9655TIP3    H228919   6.315   1.207  -0.010
 9656TIP3   OH228920   1.867   3.436   6.281
 9656TIP3    H128921   1.793   3.462   6.336
 9656TIP3    H228922   1.881   3.511   6.224
 9657TIP3   OH228923   5.876   0.450   0.167
 9657TIP3    H128924   5.845   0.540   0.168
 9657TIP3    H228925   5.871   0.422   0.259
 9658TIP3   OH228926   1.693   4.812   5.844
 9658TIP3    H128927   1.689   4.906   5.825
 9658TIP3    H228928   1.782   4.786   5.820
 9659TIP3   OH228929   7.393   1.514   0.772
 9659TIP3    H128930   7.399   1.419   0.777
 9659TIP3    H228931   7.313   1.536   0.821
 9660TIP3   OH228932   6.495   1.240   0.865
 9660TIP3    H128933   6.507   1.318   0.920
 9660TIP3    H228934   6.422   1.193   0.905
 9661TIP3   OH228935   0.994   5.108   6.314
 9661TIP3    H128936   0.942   5.092   6.235
 9661TIP3    H228937   0.957   5.188   6.351
 9662TIP3   OH228938   1.197   5.038   5.945
 9662TIP3    H128939   1.249   4.965   5.910
 9662TIP3    H228940   1.229   5.050   6.034
 9663TIP3   OH228941   1.247   5.077   6.213
 9663TIP3    H128942   1.161   5.084   6.254
 9663TIP3    H228943   1.304   5.042   6.281
 9664TIP3   OH228944   7.267   0.618   1.058
 9664TIP3    H128945   7.181   0.651   1.032
 9664TIP3    H228946   7.265   0.525   1.033
 9665TIP3   OH228947   3.655   7.307   0.896
 9665TIP3    H128948   3.595   7.295   0.822
 9665TIP3    H228949   3.668   7.401   0.901
 9666TIP3   OH228950   6.990   0.411   1.017
 9666TIP3    H128951   6.935   0.443   1.088
 9666TIP3    H228952   7.000   0.486   0.958
 9667TIP3   OH228953   1.441   4.194   5.968
 9667TIP3    H128954   1.395   4.195   5.884
 9667TIP3    H228955   1.523   4.241   5.952
 9668TIP3   OH228956   1.164   3.606   6.279
 9668TIP3    H128957   1.114   3.612   6.360
 9668TIP3    H228958   1.130   3.528   6.236
 9669TIP3   OH228959   6.170   0.362   0.898
 9669TIP3    H128960   6.113   0.399   0.965
 9669TIP3    H228961   6.180   0.431   0.833
 9670TIP3   OH228962   6.067   0.268   0.376
 9670TIP3    H128963   5.979   0.243   0.406
 9670TIP3    H228964   6.076   0.225   0.291
 9671TIP3   OH228965   6.568   0.334   0.120
 9671TIP3    H128966   6.521   0.408   0.080
 9671TIP3    H228967   6.627   0.303   0.051
 9672TIP3   OH228968   6.734   0.356   0.345
 9672TIP3    H128969   6.663   0.378   0.285
 9672TIP3    H228970   6.780   0.283   0.302
 9673TIP3   OH228971   0.850   3.582   6.283
 9673TIP3    H128972   0.825   3.585   6.375
 9673TIP3    H228973   0.783   3.634   6.239
 9674TIP3   OH228974   3.044   7.383   0.269
 9674TIP3    H128975   3.054   7.415   0.180
 9674TIP3    H228976   2.953   7.356   0.275
 9675TIP3   OH228977   6.769   0.597   0.768
 9675TIP3    H128978   6.791   0.525   0.710
 9675TIP3    H228979   6.744   0.556   0.851
 9676TIP3   OH228980   6.435   0.060   0.418
 9676TIP3    H128981   6.359   0.067   0.477
 9676TIP3    H228982   6.510   0.085   0.473
 9677TIP3   OH228983   5.843   0.105   0.417
 9677TIP3    H128984   5.770   0.061   0.373
 9677TIP3    H228985   5.910   0.037   0.426
 9678TIP3   OH228986   6.095   0.134   0.141
 9678TIP3    H128987   6.188   0.151   0.127
 9678TIP3    H228988   6.052   0.162   0.060
 9679TIP3   OH228989   6.923   0.124   0.685
 9679TIP3    H128990   6.887   0.151   0.770
 9679TIP3    H228991   6.847   0.121   0.627
 9680TIP3   OH228992   0.706   3.912   6.356
 9680TIP3    H128993   0.649   3.853   6.306
 9680TIP3    H228994   0.767   3.946   6.291
 9681TIP3   OH228995   7.152   1.825   0.839
 9681TIP3    H128996   7.144   1.836   0.744
 9681TIP3    H228997   7.228   1.878   0.862
 9682TIP3   OH228998   6.507   0.408   0.547
 9682TIP3    H128999   6.586   0.366   0.513
 9682TIP3    H229000   6.503   0.381   0.638
 9683TIP3   OH229001   3.395   7.348   0.397
 9683TIP3    H129002   3.360   7.265   0.429
 9683TIP3    H229003   3.408   7.335   0.303
 9684TIP3   OH229004   6.451   0.369   0.833
 9684TIP3    H129005   6.356   0.364   0.843
 9684TIP3    H229006   6.471   0.462   0.848
 9685TIP3   OH229007   0.947   4.409   6.381
 9685TIP3    H129008   0.879   4.344   6.368
 9685TIP3    H229009   0.924   4.452   6.464
 9686TIP3   OH229010   7.099   0.926   0.535
 9686TIP3    H129011   7.135   0.977   0.462
 9686TIP3    H229012   7.017   0.891   0.501
 9687TIP3   OH229013   1.410   3.718   6.282
 9687TIP3    H129014   1.317   3.694   6.278
 9687TIP3    H229015   1.410   3.813   6.292
 9688TIP3   OH229016   6.608   0.986   0.928
 9688TIP3    H129017   6.603   0.976   1.023
 9688TIP3    H229018   6.569   1.072   0.910
 9689TIP3   OH229019   1.462   3.983   6.353
 9689TIP3    H129020   1.558   3.988   6.360
 9689TIP3    H229021   1.439   4.060   6.302
 9690TIP3   OH229022   5.972   0.687   0.602
 9690TIP3    H129023   5.986   0.672   0.509
 9690TIP3    H229024   5.961   0.600   0.640
 9691TIP3   OH229025   1.098   4.564   6.216
 9691TIP3    H129026   1.053   4.648   6.217
 9691TIP3    H229027   1.044   4.507   6.270
 9692TIP3   OH229028   6.764   1.289   0.801
 9692TIP3    H129029   6.671   1.267   0.801
 9692TIP3    H229030   6.782   1.316   0.891
 9693TIP3   OH229031   1.874   4.070   6.176
 9693TIP3    H129032   1.816   4.025   6.114
 9693TIP3    H229033   1.880   4.160   6.142
 9694TIP3   OH229034   7.397   1.245   0.806
 9694TIP3    H129035   7.311   1.221   0.841
 9694TIP3    H229036   7.406   1.194   0.726
 9695TIP3   OH229037   1.613   4.884   6.112
 9695TIP3    H129038   1.589   4.816   6.174
 9695TIP3    H229039   1.633   4.837   6.031
 9696TIP3   OH229040   6.857   0.799   0.440
 9696TIP3    H129041   6.766   0.776   0.458
 9696TIP3    H229042   6.894   0.721   0.399
 9697TIP3   OH229043   6.018   1.031   0.252
 9697TIP3    H129044   6.003   1.106   0.194
 9697TIP3    H229045   5.949   1.038   0.318
 9698TIP3   OH229046   6.115   0.795   0.155
 9698TIP3    H129047   6.090   0.883   0.183
 9698TIP3    H229048   6.095   0.740   0.231
 9699TIP3   OH229049   6.300   1.346   0.685
 9699TIP3    H129050   6.344   1.398   0.617
 9699TIP3    H229051   6.372   1.303   0.731
 9700TIP3   OH229052   5.922   1.251   0.104
 9700TIP3    H129053   5.833   1.275   0.131
 9700TIP3    H229054   5.971   1.333   0.107
 9701TIP3   OH229055   6.672   1.000   0.661
 9701TIP3    H129056   6.660   0.985   0.754
 9701TIP3    H229057   6.741   0.939   0.635
 9702TIP3   OH229058   1.375   4.621   6.004
 9702TIP3    H129059   1.434   4.594   6.075
 9702TIP3    H229060   1.290   4.586   6.030
 9703TIP3   OH229061   6.956   1.470   0.696
 9703TIP3    H129062   6.881   1.416   0.723
 9703TIP3    H229063   6.920   1.531   0.632
 9704TIP3   OH229064   1.695   5.086   5.804
 9704TIP3    H129065   1.728   5.154   5.745
 9704TIP3    H229066   1.621   5.127   5.849
 9705TIP3   OH229067   1.557   4.534   6.188
 9705TIP3    H129068   1.540   4.482   6.266
 9705TIP3    H229069   1.652   4.543   6.183
 9706TIP3   OH229070   0.715   4.598   6.015
 9706TIP3    H129071   0.730   4.507   5.989
 9706TIP3    H229072   0.706   4.594   6.110
 9707TIP3   OH229073   0.697   4.605   6.294
 9707TIP3    H129074   0.767   4.579   6.353
 9707TIP3    H229075   0.697   4.701   6.298
 9708TIP3   OH229076   6.831   0.202   0.928
 9708TIP3    H129077   6.885   0.273   0.961
 9708TIP3    H229078   6.780   0.174   1.004
 9709TIP3   OH229079   4.098   7.394   0.096
 9709TIP3    H129080   4.077   7.412   0.005
 9709TIP3    H229081   4.140   7.474   0.127
 9710TIP3   OH229082   0.958   4.796   6.219
 9710TIP3    H129083   0.873   4.818   6.258
 9710TIP3    H229084   0.978   4.869   6.161
 9711TIP3   OH229085   6.371   0.149   0.166
 9711TIP3    H129086   6.436   0.216   0.144
 9711TIP3    H229087   6.389   0.127   0.257
 9712TIP3   OH229088   6.692   0.486   1.014
 9712TIP3    H129089   6.616   0.543   1.005
 9712TIP3    H229090   6.655   0.398   1.022
 9713TIP3   OH229091   3.905   7.296   0.265
 9713TIP3    H129092   3.882   7.372   0.318
 9713TIP3    H229093   3.977   7.326   0.209
 9714TIP3   OH229094   0.708   4.879   6.301
 9714TIP3    H129095   0.683   4.949   6.241
 9714TIP3    H229096   0.688   4.914   6.388
 9715TIP3   OH229097   3.428   7.310   0.113
 9715TIP3    H129098   3.416   7.405   0.122
 9715TIP3    H229099   3.523   7.299   0.110
 9716TIP3   OH229100   7.258   0.353   0.986
 9716TIP3    H129101   7.164   0.352   1.003
 9716TIP3    H229102   7.268   0.303   0.905
 9717TIP3   OH229103   6.945   0.549   0.342
 9717TIP3    H129104   6.870   0.489   0.351
 9717TIP3    H229105   7.013   0.510   0.398
 9718TIP3   OH229106   0.432   4.499   6.286
 9718TIP3    H129107   0.506   4.557   6.306
 9718TIP3    H229108   0.472   4.423   6.244
 9719TIP3   OH229109   0.404   3.764   6.470
 9719TIP3    H129110   0.417   3.858   6.456
 9719TIP3    H229111   0.353   3.735   6.395
 9720TIP3   OH229112   6.956   1.486   0.254
 9720TIP3    H129113   6.909   1.542   0.192
 9720TIP3    H229114   7.047   1.513   0.246
 9721TIP3   OH229115   3.367   7.389   0.924
 9721TIP3    H129116   3.376   7.466   0.867
 9721TIP3    H229117   3.307   7.331   0.877
 9722TIP3   OH229118   0.900   4.773   5.909
 9722TIP3    H129119   0.833   4.719   5.950
 9722TIP3    H229120   0.974   4.713   5.895
 9723TIP3   OH229121   6.867   1.313   1.058
 9723TIP3    H129122   6.913   1.234   1.030
 9723TIP3    H229123   6.937   1.374   1.081
 9724TIP3   OH229124   1.334   4.830   5.831
 9724TIP3    H129125   1.364   4.764   5.894
 9724TIP3    H229126   1.395   4.822   5.758
 9725TIP3   OH229127   0.593   4.309   6.168
 9725TIP3    H129128   0.653   4.289   6.240
 9725TIP3    H229129   0.650   4.320   6.092
 9726TIP3   OH229130   1.092   4.510   5.947
 9726TIP3    H129131   1.085   4.518   6.042
 9726TIP3    H229132   1.087   4.416   5.930
 9727TIP3   OH229133   6.944   1.095   0.898
 9727TIP3    H129134   7.020   1.108   0.841
 9727TIP3    H229135   6.871   1.133   0.850
 9728TIP3   OH229136   0.759   4.213   6.366
 9728TIP3    H129137   0.714   4.167   6.437
 9728TIP3    H229138   0.795   4.144   6.312
 9729TIP3   OH229139   0.873   4.039   6.181
 9729TIP3    H129140   0.839   4.038   6.092
 9729TIP3    H229141   0.968   4.046   6.171
 9730TIP3   OH229142   1.659   4.326   5.860
 9730TIP3    H129143   1.647   4.286   5.774
 9730TIP3    H229144   1.633   4.417   5.847
 9731TIP3   OH229145   6.407   0.104   0.933
 9731TIP3    H129146   6.431   0.191   0.899
 9731TIP3    H229147   6.402   0.116   1.028
 9732TIP3   OH229148   6.492   0.645   0.901
 9732TIP3    H129149   6.557   0.711   0.876
 9732TIP3    H229150   6.408   0.686   0.883
 9733TIP3   OH229151   7.073   0.883   1.012
 9733TIP3    H129152   7.015   0.953   0.985
 9733TIP3    H229153   7.159   0.909   0.980
 9734TIP3   OH229154   0.686   5.088   6.117
 9734TIP3    H129155   0.771   5.066   6.079
 9734TIP3    H229156   0.647   5.151   6.055
 9735TIP3   OH229157   7.206   1.596   0.259
 9735TIP3    H129158   7.235   1.600   0.350
 9735TIP3    H229159   7.285   1.613   0.208
 9736TIP3   OH229160   7.252   1.571   0.534
 9736TIP3    H129161   7.213   1.484   0.525
 9736TIP3    H229162   7.320   1.560   0.601
 9737TIP3   OH229163   7.293   1.295   1.100
 9737TIP3    H129164   7.230   1.284   1.171
 9737TIP3    H229165   7.334   1.379   1.116
 9738TIP3   OH229166   1.835   4.535   6.190
 9738TIP3    H129167   1.891   4.607   6.161
 9738TIP3    H229168   1.881   4.497   6.265
 9739TIP3   OH229169   1.962   4.390   6.390
 9739TIP3    H129170   1.894   4.355   6.446
 9739TIP3    H229171   2.027   4.428   6.450
 9740TIP3   OH229172   7.265   1.060   0.356
 9740TIP3    H129173   7.325   0.992   0.326
 9740TIP3    H229174   7.281   1.134   0.298
 9741TIP3   OH229175   7.121   1.328   0.534
 9741TIP3    H129176   7.057   1.372   0.589
 9741TIP3    H229177   7.069   1.285   0.466
 9742TIP3   OH229178   1.868   4.309   6.038
 9742TIP3    H129179   1.796   4.308   5.975
 9742TIP3    H229180   1.854   4.387   6.090
 9743TIP3   OH229181   1.716   3.962   5.981
 9743TIP3    H129182   1.675   3.999   5.903
 9743TIP3    H229183   1.709   3.868   5.970
 9744TIP3   OH229184   7.024   0.532   0.076
 9744TIP3    H129185   7.030   0.438   0.065
 9744TIP3    H229186   7.002   0.545   0.168
 9745TIP3   OH229187   7.318   0.952   0.907
 9745TIP3    H129188   7.378   0.879   0.895
 9745TIP3    H229189   7.317   0.996   0.822
 9746TIP3   OH229190   7.470   0.726   0.911
 9746TIP3    H129191   7.403   0.687   0.966
 9746TIP3    H229192   7.548   0.673   0.926
 9747TIP3   OH229193   1.682   3.693   5.949
 9747TIP3    H129194   1.750   3.663   6.010
 9747TIP3    H229195   1.602   3.649   5.978
 9748TIP3   OH229196   1.750   3.977   6.413
 9748TIP3    H129197   1.797   3.895   6.426
 9748TIP3    H229198   1.792   4.017   6.337
 9749TIP3   OH229199   7.155   0.435   0.485
 9749TIP3    H129200   7.237   0.450   0.437
 9749TIP3    H229201   7.172   0.470   0.573
 9750TIP3   OH229202   7.234   0.563   0.718
 9750TIP3    H129203   7.163   0.596   0.774
 9750TIP3    H229204   7.269   0.642   0.676
 9751TIP3   OH229205   7.802   0.227   1.394
 9751TIP3    H129206   7.731   0.171   1.361
 9751TIP3    H229207   7.759   0.308   1.418
 9752TIP3   OH229208   4.503   7.454   0.016
 9752TIP3    H129209   4.550   7.439   0.098
 9752TIP3    H229210   4.443   7.380   0.009
 9753TIP3   OH229211   5.777  -0.009   0.712
 9753TIP3    H129212   5.748  -0.043   0.797
 9753TIP3    H229213   5.834   0.065   0.734
 9754TIP3   OH229214   7.529   0.310   1.058
 9754TIP3    H129215   7.442   0.348   1.074
 9754TIP3    H229216   7.514   0.240   0.995
 9755TIP3   OH229217   1.911   3.638   6.102
 9755TIP3    H129218   1.959   3.579   6.044
 9755TIP3    H229219   1.965   3.717   6.107
 9756TIP3   OH229220   1.490   5.198   6.364
 9756TIP3    H129221   1.551   5.188   6.292
 9756TIP3    H229222   1.532   5.260   6.423
 9757TIP3   OH229223   6.103   1.247   0.869
 9757TIP3    H129224   6.016   1.281   0.886
 9757TIP3    H229225   6.137   1.300   0.798
 9758TIP3   OH229226   6.530   1.446   1.038
 9758TIP3    H129227   6.535   1.493   1.121
 9758TIP3    H229228   6.563   1.509   0.973
 9759TIP3   OH229229   6.704   1.589   0.813
 9759TIP3    H129230   6.687   1.524   0.745
 9759TIP3    H229231   6.719   1.670   0.766
 9760TIP3   OH229232   7.441   0.103   0.914
 9760TIP3    H129233   7.365   0.084   0.859
 9760TIP3    H229234   7.476   0.016   0.937
 9761TIP3   OH229235   6.407   1.505   0.481
 9761TIP3    H129236   6.328   1.521   0.430
 9761TIP3    H229237   6.406   1.573   0.549
 9762TIP3   OH229238   6.667   1.477   0.567
 9762TIP3    H129239   6.583   1.490   0.522
 9762TIP3    H229240   6.727   1.538   0.523
 9763TIP3   OH229241   6.884   1.626   0.476
 9763TIP3    H129242   6.872   1.714   0.440
 9763TIP3    H229243   6.913   1.574   0.401
 9764TIP3   OH229244   6.130   1.303   0.469
 9764TIP3    H129245   6.131   1.207   0.466
 9764TIP3    H229246   6.169   1.324   0.554
 9765TIP3   OH229247   6.700   0.064   0.514
 9765TIP3    H129248   6.705  -0.020   0.560
 9765TIP3    H229249   6.747   0.049   0.433
 9766TIP3   OH229250   4.501   7.412   0.459
 9766TIP3    H129251   4.557   7.411   0.382
 9766TIP3    H229252   4.421   7.368   0.430
 9767TIP3   OH229253   4.659   7.407   0.239
 9767TIP3    H129254   4.722   7.341   0.212
 9767TIP3    H229255   4.704   7.490   0.225
 9768TIP3   OH229256   3.269   7.110   0.457
 9768TIP3    H129257   3.188   7.156   0.481
 9768TIP3    H229258   3.268   7.031   0.511
 9769TIP3   OH229259   3.063   7.062   0.226
 9769TIP3    H129260   3.113   7.072   0.144
 9769TIP3    H229261   3.076   7.145   0.271
 9770TIP3   OH229262   3.702   7.194   0.432
 9770TIP3    H129263   3.756   7.229   0.361
 9770TIP3    H229264   3.761   7.194   0.508
 9771TIP3   OH229265   4.265   7.301   0.365
 9771TIP3    H129266   4.299   7.285   0.277
 9771TIP3    H229267   4.242   7.214   0.398
 9772TIP3   OH229268   4.319   7.244   0.022
 9772TIP3    H129269   4.236   7.290   0.037
 9772TIP3    H229270   4.303   7.155   0.054
 9773TIP3   OH229271   3.240   7.127   0.025
 9773TIP3    H129272   3.284   7.069  -0.037
 9773TIP3    H229273   3.310   7.182   0.060
 9774TIP3   OH229274   3.696   7.339   0.086
 9774TIP3    H129275   3.766   7.296   0.137
 9774TIP3    H229276   3.707   7.432   0.104
 9775TIP3   OH229277   0.938   5.014   6.035
 9775TIP3    H129278   1.023   5.040   6.001
 9775TIP3    H229279   0.914   4.936   5.984
 9776TIP3   OH229280   1.651   5.153   6.143
 9776TIP3    H129281   1.643   5.058   6.137
 9776TIP3    H229282   1.608   5.185   6.064
 9777TIP3   OH229283   7.142   1.556   0.882
 9777TIP3    H129284   7.078   1.522   0.819
 9777TIP3    H229285   7.140   1.651   0.869
 9778TIP3   OH229286   3.128   4.673   6.093
 9778TIP3    H129287   3.104   4.760   6.060
 9778TIP3    H229288   3.065   4.614   6.053
 9779TIP3   OH229289   0.446   0.767   0.042
 9779TIP3    H129290   0.492   0.830   0.098
 9779TIP3    H229291   0.456   0.802  -0.047
 9780TIP3   OH229292   7.720   0.900   0.357
 9780TIP3    H129293   7.764   0.848   0.424
 9780TIP3    H229294   7.744   0.991   0.377
 9781TIP3   OH229295   3.412   4.979   6.169
 9781TIP3    H129296   3.415   4.911   6.236
 9781TIP3    H229297   3.433   5.060   6.216
 9782TIP3   OH229298   7.630   1.215   0.107
 9782TIP3    H129299   7.634   1.122   0.085
 9782TIP3    H229300   7.681   1.224   0.187
 9783TIP3   OH229301   2.111   4.162   6.312
 9783TIP3    H129302   2.074   4.247   6.336
 9783TIP3    H229303   2.039   4.116   6.270
 9784TIP3   OH229304   7.450   0.748   0.088
 9784TIP3    H129305   7.501   0.671   0.112
 9784TIP3    H229306   7.515   0.814   0.063
 9785TIP3   OH229307   3.056   5.412   6.177
 9785TIP3    H129308   3.087   5.345   6.116
 9785TIP3    H229309   3.043   5.365   6.260
 9786TIP3   OH229310   0.300   1.187   0.056
 9786TIP3    H129311   0.331   1.122  -0.006
 9786TIP3    H229312   0.379   1.222   0.097
 9787TIP3   OH229313   1.342   0.488   0.064
 9787TIP3    H129314   1.360   0.572   0.107
 9787TIP3    H229315   1.362   0.504  -0.028
 9788TIP3   OH229316   0.694   0.617   0.088
 9788TIP3    H129317   0.766   0.558   0.108
 9788TIP3    H229318   0.683   0.610  -0.007
 9789TIP3   OH229319   0.080   0.346   0.037
 9789TIP3    H129320   0.053   0.417  -0.021
 9789TIP3    H229321   0.033   0.269   0.004
 9790TIP3   OH229322   3.412   4.138   6.120
 9790TIP3    H129323   3.477   4.129   6.189
 9790TIP3    H229324   3.461   4.169   6.044
 9791TIP3   OH229325   7.591   0.527   0.178
 9791TIP3    H129326   7.676   0.514   0.220
 9791TIP3    H229327   7.596   0.478   0.097
 9792TIP3   OH229328   1.402   0.709   0.229
 9792TIP3    H129329   1.311   0.740   0.226
 9792TIP3    H229330   1.436   0.744   0.312
 9793TIP3   OH229331   0.062   0.315   0.485
 9793TIP3    H129332   0.008   0.352   0.415
 9793TIP3    H229333   0.024   0.350   0.566
 9794TIP3   OH229334   3.039   4.886   5.939
 9794TIP3    H129335   2.998   4.858   5.858
 9794TIP3    H229336   2.989   4.964   5.965
 9795TIP3   OH229337   0.141   1.086   0.271
 9795TIP3    H129338   0.064   1.129   0.308
 9795TIP3    H229339   0.176   1.150   0.208
 9796TIP3   OH229340   3.589   4.158   6.326
 9796TIP3    H129341   3.633   4.085   6.371
 9796TIP3    H229342   3.633   4.236   6.361
 9797TIP3   OH229343   7.841   0.427   0.264
 9797TIP3    H129344   7.892   0.505   0.287
 9797TIP3    H229345   7.885   0.392   0.187
 9798TIP3   OH229346   2.001   4.728   6.072
 9798TIP3    H129347   1.966   4.749   5.986
 9798TIP3    H229348   2.026   4.812   6.110
 9799TIP3   OH229349   3.445   5.225   6.309
 9799TIP3    H129350   3.360   5.214   6.352
 9799TIP3    H229351   3.439   5.309   6.264
 9800TIP3   OH229352   1.135   0.387   0.239
 9800TIP3    H129353   1.046   0.403   0.207
 9800TIP3    H229354   1.191   0.412   0.165
 9801TIP3   OH229355   0.414   0.021   0.212
 9801TIP3    H129356   0.403  -0.074   0.220
 9801TIP3    H229357   0.331   0.057   0.243
 9802TIP3   OH229358   3.151   5.256   5.966
 9802TIP3    H129359   3.204   5.177   5.956
 9802TIP3    H229360   3.207   5.327   5.937
 9803TIP3   OH229361   3.299   5.033   5.922
 9803TIP3    H129362   3.241   4.959   5.907
 9803TIP3    H229363   3.347   5.009   6.002
 9804TIP3   OH229364   1.038   1.404   0.211
 9804TIP3    H129365   1.029   1.328   0.152
 9804TIP3    H229366   1.023   1.480   0.154
 9805TIP3   OH229367   2.966   4.523   5.926
 9805TIP3    H129368   2.883   4.565   5.906
 9805TIP3    H229369   3.011   4.518   5.842
 9806TIP3   OH229370   2.937   4.330   5.613
 9806TIP3    H129371   3.003   4.377   5.663
 9806TIP3    H229372   2.984   4.257   5.573
 9807TIP3   OH229373   1.232   1.048   0.072
 9807TIP3    H129374   1.151   1.099   0.074
 9807TIP3    H229375   1.265   1.060  -0.017
 9808TIP3   OH229376   3.317   4.614   5.895
 9808TIP3    H129377   3.265   4.637   5.972
 9808TIP3    H229378   3.401   4.584   5.931
 9809TIP3   OH229379   0.917   0.914   0.373
 9809TIP3    H129380   0.914   0.997   0.421
 9809TIP3    H229381   0.838   0.914   0.319
 9810TIP3   OH229382   2.555   4.537   6.318
 9810TIP3    H129383   2.502   4.524   6.239
 9810TIP3    H229384   2.589   4.450   6.339
 9811TIP3   OH229385   2.714   5.053   6.397
 9811TIP3    H129386   2.686   5.004   6.319
 9811TIP3    H229387   2.787   5.002   6.432
 9812TIP3   OH229388   0.078   0.843   0.162
 9812TIP3    H129389   0.067   0.865   0.070
 9812TIP3    H229390   0.098   0.926   0.205
 9813TIP3   OH229391   0.583   1.483   0.002
 9813TIP3    H129392   0.562   1.566   0.045
 9813TIP3    H229393   0.557   1.416   0.066
 9814TIP3   OH229394   0.142   1.371   0.517
 9814TIP3    H129395   0.093   1.435   0.568
 9814TIP3    H229396   0.075   1.318   0.474
 9815TIP3   OH229397   3.155   4.470   5.721
 9815TIP3    H129398   3.214   4.529   5.770
 9815TIP3    H229399   3.184   4.478   5.630
 9816TIP3   OH229400   7.855   0.932   0.644
 9816TIP3    H129401   7.875   1.018   0.680
 9816TIP3    H229402   7.760   0.925   0.650
 9817TIP3   OH229403   2.906   5.130   5.974
 9817TIP3    H129404   2.987   5.180   5.978
 9817TIP3    H229405   2.845   5.187   5.927
 9818TIP3   OH229406   7.887   1.566   0.635
 9818TIP3    H129407   7.859   1.587   0.546
 9818TIP3    H229408   7.806   1.546   0.681
 9819TIP3   OH229409   2.416   4.438   6.089
 9819TIP3    H129410   2.338   4.482   6.055
 9819TIP3    H229411   2.388   4.347   6.103
 9820TIP3   OH229412   3.491   5.070   5.330
 9820TIP3    H129413   3.485   5.163   5.309
 9820TIP3    H229414   3.580   5.045   5.306
 9821TIP3   OH229415   7.415   1.082   0.595
 9821TIP3    H129416   7.373   1.081   0.509
 9821TIP3    H229417   7.494   1.029   0.583
 9822TIP3   OH229418   7.372   1.274   0.203
 9822TIP3    H129419   7.456   1.251   0.163
 9822TIP3    H229420   7.396   1.340   0.269
 9823TIP3   OH229421   1.276   1.751   0.273
 9823TIP3    H129422   1.281   1.657   0.288
 9823TIP3    H229423   1.196   1.778   0.318
 9824TIP3   OH229424   0.356   1.517   0.407
 9824TIP3    H129425   0.349   1.607   0.437
 9824TIP3    H229426   0.280   1.473   0.443
 9825TIP3   OH229427   2.795   5.361   5.801
 9825TIP3    H129428   2.748   5.340   5.720
 9825TIP3    H229429   2.757   5.443   5.832
 9826TIP3   OH229430   2.230   5.214   6.184
 9826TIP3    H129431   2.277   5.203   6.267
 9826TIP3    H229432   2.181   5.133   6.173
 9827TIP3   OH229433   2.994   5.293   5.428
 9827TIP3    H129434   3.045   5.219   5.393
 9827TIP3    H229435   3.029   5.307   5.516
 9828TIP3   OH229436   3.048   5.336   5.698
 9828TIP3    H129437   2.962   5.339   5.740
 9828TIP3    H229438   3.106   5.300   5.764
 9829TIP3   OH229439   1.167   0.860   0.534
 9829TIP3    H129440   1.081   0.871   0.492
 9829TIP3    H229441   1.184   0.766   0.530
 9830TIP3   OH229442   0.171   0.110   0.326
 9830TIP3    H129443   0.087   0.078   0.293
 9830TIP3    H229444   0.148   0.188   0.377
 9831TIP3   OH229445   0.699   0.232   0.552
 9831TIP3    H129446   0.773   0.209   0.608
 9831TIP3    H229447   0.622   0.211   0.605
 9832TIP3   OH229448   0.919   0.650   0.461
 9832TIP3    H129449   0.881   0.645   0.549
 9832TIP3    H229450   0.902   0.740   0.433
 9833TIP3   OH229451   3.233   4.468   5.460
 9833TIP3    H129452   3.190   4.457   5.376
 9833TIP3    H229453   3.317   4.508   5.439
 9834TIP3   OH229454   2.940   3.877   5.780
 9834TIP3    H129455   2.911   3.870   5.871
 9834TIP3    H229456   2.912   3.795   5.740
 9835TIP3   OH229457   0.100   0.638   0.340
 9835TIP3    H129458   0.045   0.659   0.416
 9835TIP3    H229459   0.087   0.712   0.280
 9836TIP3   OH229460   2.591   4.260   6.328
 9836TIP3    H129461   2.507   4.222   6.354
 9836TIP3    H229462   2.609   4.220   6.242
 9837TIP3   OH229463   3.090   4.317   6.061
 9837TIP3    H129464   3.042   4.387   6.018
 9837TIP3    H229465   3.145   4.279   5.993
 9838TIP3   OH229466   0.647   0.863   0.680
 9838TIP3    H129467   0.622   0.796   0.743
 9838TIP3    H229468   0.740   0.879   0.698
 9839TIP3   OH229469   3.277   4.327   6.267
 9839TIP3    H129470   3.201   4.342   6.211
 9839TIP3    H229471   3.322   4.253   6.228
 9840TIP3   OH229472   7.828   0.672   0.546
 9840TIP3    H129473   7.837   0.747   0.606
 9840TIP3    H229474   7.819   0.596   0.604
 9841TIP3   OH229475   2.604   3.846   5.748
 9841TIP3    H129476   2.601   3.850   5.844
 9841TIP3    H229477   2.526   3.893   5.720
 9842TIP3   OH229478   7.432   0.178   0.174
 9842TIP3    H129479   7.503   0.212   0.227
 9842TIP3    H229480   7.469   0.170   0.086
 9843TIP3   OH229481   2.061   3.872   6.117
 9843TIP3    H129482   2.107   3.907   6.041
 9843TIP3    H229483   1.998   3.940   6.141
 9844TIP3   OH229484   0.666   0.854   0.228
 9844TIP3    H129485   0.689   0.775   0.179
 9844TIP3    H229486   0.626   0.821   0.308
 9845TIP3   OH229487   0.361   0.421   0.048
 9845TIP3    H129488   0.271   0.388   0.040
 9845TIP3    H229489   0.416   0.345   0.028
 9846TIP3   OH229490   2.370   4.112   6.397
 9846TIP3    H129491   2.284   4.114   6.356
 9846TIP3    H229492   2.404   4.025   6.375
 9847TIP3   OH229493   2.624   4.111   6.097
 9847TIP3    H129494   2.719   4.117   6.092
 9847TIP3    H229495   2.594   4.130   6.008
 9848TIP3   OH229496   0.857   0.403   0.172
 9848TIP3    H129497   0.801   0.414   0.248
 9848TIP3    H229498   0.819   0.329   0.124
 9849TIP3   OH229499   2.515   4.142   5.845
 9849TIP3    H129500   2.452   4.092   5.793
 9849TIP3    H229501   2.570   4.186   5.780
 9850TIP3   OH229502   0.986   2.095   0.362
 9850TIP3    H129503   0.982   2.112   0.268
 9850TIP3    H229504   1.066   2.138   0.391
 9851TIP3   OH229505   7.876   1.148   0.811
 9851TIP3    H129506   7.947   1.191   0.858
 9851TIP3    H229507   7.800   1.205   0.824
 9852TIP3   OH229508   2.530   3.874   6.382
 9852TIP3    H129509   2.495   3.798   6.428
 9852TIP3    H229510   2.566   3.839   6.301
 9853TIP3   OH229511   0.370   0.609   0.298
 9853TIP3    H129512   0.280   0.629   0.325
 9853TIP3    H229513   0.424   0.658   0.361
 9854TIP3   OH229514   2.723   4.657   5.877
 9854TIP3    H129515   2.650   4.601   5.852
 9854TIP3    H229516   2.701   4.687   5.965
 9855TIP3   OH229517   3.642   4.926   6.480
 9855TIP3    H129518   3.682   4.974   6.407
 9855TIP3    H229519   3.568   4.880   6.440
 9856TIP3   OH229520   3.192   3.980   5.744
 9856TIP3    H129521   3.101   3.952   5.754
 9856TIP3    H229522   3.192   4.071   5.772
 9857TIP3   OH229523   0.485   1.256   0.443
 9857TIP3    H129524   0.531   1.252   0.527
 9857TIP3    H229525   0.438   1.340   0.445
 9858TIP3   OH229526   3.252   4.236   5.846
 9858TIP3    H129527   3.347   4.235   5.851
 9858TIP3    H229528   3.231   4.314   5.793
 9859TIP3   OH229529   7.665   0.929   0.079
 9859TIP3    H129530   7.728   0.894   0.016
 9859TIP3    H229531   7.706   0.915   0.164
 9860TIP3   OH229532   2.879   4.813   5.716
 9860TIP3    H129533   2.834   4.897   5.712
 9860TIP3    H229534   2.822   4.757   5.770
 9861TIP3   OH229535   7.593   0.878   0.697
 9861TIP3    H129536   7.611   0.883   0.791
 9861TIP3    H229537   7.516   0.821   0.690
 9862TIP3   OH229538   0.410   1.014   0.723
 9862TIP3    H129539   0.341   0.953   0.698
 9862TIP3    H229540   0.491   0.973   0.694
 9863TIP3   OH229541   0.634   1.546   0.330
 9863TIP3    H129542   0.539   1.533   0.340
 9863TIP3    H229543   0.661   1.590   0.411
 9864TIP3   OH229544   3.677   4.319   5.652
 9864TIP3    H129545   3.620   4.269   5.593
 9864TIP3    H229546   3.676   4.408   5.617
 9865TIP3   OH229547   1.288   1.468   0.298
 9865TIP3    H129548   1.193   1.458   0.290
 9865TIP3    H229549   1.322   1.440   0.213
 9866TIP3   OH229550   3.413   5.141   5.596
 9866TIP3    H129551   3.385   5.072   5.656
 9866TIP3    H229552   3.430   5.096   5.513
 9867TIP3   OH229553   3.435   4.778   6.371
 9867TIP3    H129554   3.364   4.756   6.432
 9867TIP3    H229555   3.457   4.695   6.329
 9868TIP3   OH229556   2.536   4.990   6.177
 9868TIP3    H129557   2.535   5.065   6.118
 9868TIP3    H229558   2.461   5.004   6.235
 9869TIP3   OH229559   2.106   4.296   5.898
 9869TIP3    H129560   2.146   4.380   5.918
 9869TIP3    H229561   2.025   4.296   5.949
 9870TIP3   OH229562   2.640   4.739   6.123
 9870TIP3    H129563   2.606   4.826   6.141
 9870TIP3    H229564   2.618   4.687   6.200
 9871TIP3   OH229565   0.176   1.615   0.199
 9871TIP3    H129566   0.219   1.685   0.149
 9871TIP3    H229567   0.247   1.573   0.248
 9872TIP3   OH229568   2.462   5.230   6.036
 9872TIP3    H129569   2.377   5.236   6.078
 9872TIP3    H229570   2.499   5.318   6.042
 9873TIP3   OH229571   0.548   1.254   0.176
 9873TIP3    H129572   0.520   1.250   0.267
 9873TIP3    H229573   0.643   1.246   0.180
 9874TIP3   OH229574   3.177   4.877   5.485
 9874TIP3    H129575   3.225   4.852   5.564
 9874TIP3    H229576   3.094   4.830   5.491
 9875TIP3   OH229577   0.794   1.770   0.207
 9875TIP3    H129578   0.720   1.710   0.216
 9875TIP3    H229579   0.769   1.828   0.135
 9876TIP3   OH229580   3.486   5.343   5.288
 9876TIP3    H129581   3.503   5.404   5.216
 9876TIP3    H229582   3.416   5.384   5.338
 9877TIP3   OH229583   7.823   0.433   0.697
 9877TIP3    H129584   7.761   0.362   0.683
 9877TIP3    H229585   7.818   0.452   0.791
 9878TIP3   OH229586   3.344   4.802   5.690
 9878TIP3    H129587   3.329   4.744   5.764
 9878TIP3    H229588   3.440   4.805   5.681
 9879TIP3   OH229589   7.573   1.462   0.335
 9879TIP3    H129590   7.623   1.382   0.352
 9879TIP3    H229591   7.629   1.532   0.368
 9880TIP3   OH229592   2.524   4.840   5.496
 9880TIP3    H129593   2.535   4.749   5.470
 9880TIP3    H229594   2.510   4.836   5.590
 9881TIP3   OH229595   2.466   4.858   5.767
 9881TIP3    H129596   2.534   4.830   5.829
 9881TIP3    H229597   2.466   4.954   5.773
 9882TIP3   OH229598   2.192   4.551   5.973
 9882TIP3    H129599   2.128   4.599   6.026
 9882TIP3    H229600   2.213   4.609   5.900
 9883TIP3   OH229601   0.719   0.462   0.405
 9883TIP3    H129602   0.798   0.507   0.435
 9883TIP3    H229603   0.711   0.386   0.463
 9884TIP3   OH229604   3.251   3.929   6.022
 9884TIP3    H129605   3.239   3.941   5.928
 9884TIP3    H229606   3.302   4.005   6.049
 9885TIP3   OH229607   2.737   5.043   5.707
 9885TIP3    H129608   2.651   5.068   5.743
 9885TIP3    H229609   2.761   5.117   5.651
 9886TIP3   OH229610   2.898   4.126   6.126
 9886TIP3    H129611   2.955   4.198   6.100
 9886TIP3    H229612   2.954   4.067   6.176
 9887TIP3   OH229613   0.580   0.710   0.446
 9887TIP3    H129614   0.594   0.751   0.532
 9887TIP3    H229615   0.623   0.625   0.453
 9888TIP3   OH229616   3.068   3.944   6.230
 9888TIP3    H129617   3.115   3.929   6.313
 9888TIP3    H229618   3.130   3.919   6.162
 9889TIP3   OH229619   2.487   5.131   5.782
 9889TIP3    H129620   2.467   5.204   5.723
 9889TIP3    H229621   2.476   5.168   5.869
 9890TIP3   OH229622   2.589   3.840   6.027
 9890TIP3    H129623   2.582   3.930   6.058
 9890TIP3    H229624   2.682   3.818   6.035
 9891TIP3   OH229625   1.181   0.583   0.443
 9891TIP3    H129626   1.087   0.599   0.454
 9891TIP3    H229627   1.185   0.519   0.371
 9892TIP3   OH229628   3.486   4.515   6.285
 9892TIP3    H129629   3.414   4.453   6.285
 9892TIP3    H229630   3.555   4.472   6.335
 9893TIP3   OH229631   2.221   4.727   5.758
 9893TIP3    H129632   2.293   4.790   5.768
 9893TIP3    H229633   2.254   4.663   5.695
 9894TIP3   OH229634   2.130   4.018   5.898
 9894TIP3    H129635   2.142   4.113   5.904
 9894TIP3    H229636   2.083   4.006   5.815
 9895TIP3   OH229637   3.463   5.493   6.226
 9895TIP3    H129638   3.422   5.545   6.157
 9895TIP3    H229639   3.557   5.504   6.212
 9896TIP3   OH229640   5.172   7.474   0.298
 9896TIP3    H129641   5.138   7.447   0.213
 9896TIP3    H229642   5.176   7.393   0.350
 9897TIP3   OH229643   2.052   4.994   6.160
 9897TIP3    H129644   2.011   5.031   6.238
 9897TIP3    H229645   2.009   5.039   6.087
 9898TIP3   OH229646   7.530   1.794   0.757
 9898TIP3    H129647   7.613   1.793   0.806
 9898TIP3    H229648   7.506   1.701   0.749
 9899TIP3   OH229649   0.096   1.724   0.831
 9899TIP3    H129650   0.188   1.699   0.836
 9899TIP3    H229651   0.060   1.671   0.760
 9900TIP3   OH229652   2.679   5.041   5.386
 9900TIP3    H129653   2.632   4.971   5.431
 9900TIP3    H229654   2.754   4.998   5.346
 9901TIP3   OH229655   0.707   1.659   0.570
 9901TIP3    H129656   0.722   1.589   0.633
 9901TIP3    H229657   0.782   1.719   0.582
 9902TIP3   OH229658   3.123   5.082   5.311
 9902TIP3    H129659   3.156   5.018   5.374
 9902TIP3    H229660   3.182   5.074   5.236
 9903TIP3   OH229661   7.630   1.219   0.946
 9903TIP3    H129662   7.646   1.124   0.951
 9903TIP3    H229663   7.548   1.228   0.898
 9904TIP3   OH229664   2.346   4.535   5.609
 9904TIP3    H129665   2.396   4.511   5.687
 9904TIP3    H229666   2.412   4.548   5.541
 9905TIP3   OH229667   0.321   1.289   0.721
 9905TIP3    H129668   0.264   1.300   0.646
 9905TIP3    H229669   0.356   1.200   0.712
 9906TIP3   OH229670   2.924   4.756   5.451
 9906TIP3    H129671   2.899   4.766   5.543
 9906TIP3    H229672   2.905   4.664   5.431
 9907TIP3   OH229673   0.805   1.323   0.336
 9907TIP3    H129674   0.885   1.359   0.298
 9907TIP3    H229675   0.743   1.396   0.336
 9908TIP3   OH229676   7.718   0.953   0.946
 9908TIP3    H129677   7.793   0.981   0.893
 9908TIP3    H229678   7.749   0.955   1.036
 9909TIP3   OH229679   2.518   4.478   5.823
 9909TIP3    H129680   2.497   4.447   5.911
 9909TIP3    H229681   2.567   4.406   5.784
 9910TIP3   OH229682   0.216   0.838   0.615
 9910TIP3    H129683   0.127   0.872   0.620
 9910TIP3    H229684   0.249   0.869   0.531
 9911TIP3   OH229685   2.664   4.295   5.670
 9911TIP3    H129686   2.633   4.297   5.579
 9911TIP3    H229687   2.759   4.302   5.664
 9912TIP3   OH229688   0.700   1.211   0.711
 9912TIP3    H129689   0.765   1.171   0.653
 9912TIP3    H229690   0.698   1.155   0.788
 9913TIP3   OH229691   3.457   4.585   5.345
 9913TIP3    H129692   3.443   4.541   5.262
 9913TIP3    H229693   3.432   4.676   5.329
 9914TIP3   OH229694   0.364   0.620   0.697
 9914TIP3    H129695   0.331   0.542   0.652
 9914TIP3    H229696   0.303   0.690   0.671
 9915TIP3   OH229697   0.320   0.397   0.524
 9915TIP3    H129698   0.346   0.441   0.443
 9915TIP3    H229699   0.229   0.372   0.510
 9916TIP3   OH229700   0.339   0.946   0.395
 9916TIP3    H129701   0.410   1.009   0.404
 9916TIP3    H229702   0.269   0.995   0.351
 9917TIP3   OH229703   0.914   0.894   0.781
 9917TIP3    H129704   0.958   0.811   0.798
 9917TIP3    H229705   0.985   0.957   0.771
 9918TIP3   OH229706   0.939   1.160   0.513
 9918TIP3    H129707   0.884   1.217   0.460
 9918TIP3    H229708   1.028   1.176   0.482
 9919TIP3   OH229709   0.205   0.717   1.002
 9919TIP3    H129710   0.121   0.725   1.047
 9919TIP3    H229711   0.189   0.653   0.933
 9920TIP3   OH229712   0.436   0.176   0.642
 9920TIP3    H129713   0.401   0.257   0.605
 9920TIP3    H229714   0.377   0.107   0.611
 9921TIP3   OH229715   0.584   0.654   0.845
 9921TIP3    H129716   0.557   0.640   0.935
 9921TIP3    H229717   0.505   0.637   0.793
 9922TIP3   OH229718   0.811   0.597   0.700
 9922TIP3    H129719   0.737   0.605   0.760
 9922TIP3    H229720   0.885   0.573   0.756
 9923TIP3   OH229721   1.050   0.560   0.838
 9923TIP3    H129722   1.062   0.467   0.853
 9923TIP3    H229723   1.044   0.599   0.925
 9924TIP3   OH229724  -0.008   0.465   1.073
 9924TIP3    H129725   0.060   0.466   1.005
 9924TIP3    H229726   0.038   0.490   1.153
 9925TIP3   OH229727   0.510   0.155   0.901
 9925TIP3    H129728   0.581   0.092   0.889
 9925TIP3    H229729   0.475   0.169   0.812
 9926TIP3   OH229730   0.619   0.380   1.022
 9926TIP3    H129731   0.587   0.311   0.963
 9926TIP3    H229732   0.545   0.439   1.032
 9927TIP3   OH229733   2.486   5.343   5.601
 9927TIP3    H129734   2.575   5.320   5.574
 9927TIP3    H229735   2.448   5.387   5.525
 9928TIP3   OH229736   1.947   4.724   5.776
 9928TIP3    H129737   2.042   4.736   5.774
 9928TIP3    H229738   1.933   4.638   5.739
 9929TIP3   OH229739   1.856   5.303   6.246
 9929TIP3    H129740   1.792   5.248   6.201
 9929TIP3    H229741   1.899   5.243   6.308
 9930TIP3   OH229742   7.267   1.412  -0.035
 9930TIP3    H129743   7.262   1.341   0.030
 9930TIP3    H229744   7.320   1.479   0.008
 9931TIP3   OH229745   3.735   5.542   6.220
 9931TIP3    H129746   3.754   5.568   6.310
 9931TIP3    H229747   3.788   5.601   6.166
 9932TIP3   OH229748   1.121   1.851   0.049
 9932TIP3    H129749   1.071   1.769   0.045
 9932TIP3    H229750   1.190   1.834   0.113
 9933TIP3   OH229751   1.171   1.546   0.615
 9933TIP3    H129752   1.099   1.556   0.677
 9933TIP3    H229753   1.217   1.630   0.618
 9934TIP3   OH229754   3.625   4.790   5.678
 9934TIP3    H129755   3.683   4.860   5.649
 9934TIP3    H229756   3.670   4.752   5.754
 9935TIP3   OH229757   3.752   4.649   5.880
 9935TIP3    H129758   3.685   4.609   5.935
 9935TIP3    H229759   3.817   4.682   5.942
 9936TIP3   OH229760   3.813   5.056   6.309
 9936TIP3    H129761   3.863   4.986   6.266
 9936TIP3    H229762   3.814   5.128   6.247
 9937TIP3   OH229763   0.973   1.618   0.053
 9937TIP3    H129764   0.903   1.660   0.104
 9937TIP3    H229765   0.928   1.575  -0.019
 9938TIP3   OH229766   3.662   4.563   5.526
 9938TIP3    H129767   3.591   4.563   5.462
 9938TIP3    H229768   3.646   4.640   5.580
 9939TIP3   OH229769   3.514   4.195   5.468
 9939TIP3    H129770   3.462   4.210   5.389
 9939TIP3    H229771   3.507   4.100   5.483
 9940TIP3   OH229772   3.548   4.506   6.012
 9940TIP3    H129773   3.554   4.412   5.994
 9940TIP3    H229774   3.533   4.511   6.106
 9941TIP3   OH229775   7.450   0.851   0.342
 9941TIP3    H129776   7.437   0.814   0.255
 9941TIP3    H229777   7.543   0.871   0.347
 9942TIP3   OH229778   1.200   1.204   0.426
 9942TIP3    H129779   1.266   1.136   0.410
 9942TIP3    H229780   1.225   1.275   0.366
 9943TIP3   OH229781   1.377   0.992   0.420
 9943TIP3    H129782   1.303   0.948   0.460
 9943TIP3    H229783   1.452   0.936   0.440
 9944TIP3   OH229784   3.497   3.921   5.485
 9944TIP3    H129785   3.574   3.911   5.542
 9944TIP3    H229786   3.463   3.832   5.476
 9945TIP3   OH229787   3.552   4.232   5.894
 9945TIP3    H129788   3.599   4.150   5.909
 9945TIP3    H229789   3.591   4.268   5.814
 9946TIP3   OH229790   3.701   4.397   6.422
 9946TIP3    H129791   3.782   4.415   6.375
 9946TIP3    H229792   3.715   4.432   6.510
 9947TIP3   OH229793   1.141   0.820   0.201
 9947TIP3    H129794   1.069   0.850   0.257
 9947TIP3    H229795   1.174   0.900   0.160
 9948TIP3   OH229796   7.656   0.523   0.947
 9948TIP3    H129797   7.739   0.533   0.994
 9948TIP3    H229798   7.612   0.451   0.992
 9949TIP3   OH229799   1.606   0.420   0.736
 9949TIP3    H129800   1.671   0.363   0.693
 9949TIP3    H229801   1.568   0.470   0.664
 9950TIP3   OH229802   3.676   3.990   5.951
 9950TIP3    H129803   3.712   3.972   6.038
 9950TIP3    H229804   3.612   3.920   5.936
 9951TIP3   OH229805   7.643   0.242   0.348
 9951TIP3    H129806   7.697   0.165   0.335
 9951TIP3    H229807   7.698   0.315   0.321
 9952TIP3   OH229808   7.406   0.495   0.390
 9952TIP3    H129809   7.460   0.495   0.311
 9952TIP3    H229810   7.430   0.575   0.436
 9953TIP3   OH229811   1.453   0.541   0.546
 9953TIP3    H129812   1.379   0.581   0.592
 9953TIP3    H229813   1.413   0.476   0.488
 9954TIP3   OH229814   3.748   3.915   5.590
 9954TIP3    H129815   3.799   3.847   5.547
 9954TIP3    H229816   3.808   3.990   5.595
 9955TIP3   OH229817   2.138   3.742   6.344
 9955TIP3    H129818   2.052   3.730   6.385
 9955TIP3    H229819   2.121   3.796   6.267
 9956TIP3   OH229820   3.292   5.458   5.859
 9956TIP3    H129821   3.349   5.447   5.783
 9956TIP3    H229822   3.334   5.526   5.911
 9957TIP3   OH229823   7.667   0.216   0.632
 9957TIP3    H129824   7.592   0.227   0.690
 9957TIP3    H229825   7.631   0.223   0.544
 9958TIP3   OH229826   7.667   1.519   0.793
 9958TIP3    H129827   7.574   1.505   0.774
 9958TIP3    H229828   7.677   1.491   0.884
 9959TIP3   OH229829   7.841   1.613   0.368
 9959TIP3    H129830   7.817   1.693   0.321
 9959TIP3    H229831   7.916   1.579   0.321
 9960TIP3   OH229832   0.364   1.790   0.476
 9960TIP3    H129833   0.401   1.786   0.564
 9960TIP3    H229834   0.426   1.845   0.426
 9961TIP3   OH229835   0.557   1.952   0.355
 9961TIP3    H129836   0.623   1.898   0.311
 9961TIP3    H229837   0.608   2.012   0.410
 9962TIP3   OH229838   1.361   0.289   0.436
 9962TIP3    H129839   1.275   0.282   0.396
 9962TIP3    H229840   1.398   0.201   0.429
 9963TIP3   OH229841   7.545   1.844   0.361
 9963TIP3    H129842   7.450   1.856   0.347
 9963TIP3    H229843   7.564   1.895   0.439
 9964TIP3   OH229844   7.772   1.830   0.217
 9964TIP3    H129845   7.689   1.835   0.263
 9964TIP3    H229846   7.749   1.842   0.125
 9965TIP3   OH229847   0.274   1.818   0.029
 9965TIP3    H129848   0.202   1.831  -0.033
 9965TIP3    H229849   0.286   1.904   0.069
 9966TIP3   OH229850   0.537   1.748   0.071
 9966TIP3    H129851   0.445   1.769   0.056
 9966TIP3    H229852   0.585   1.818   0.027
 9967TIP3   OH229853   3.374   5.654   6.432
 9967TIP3    H129854   3.370   5.741   6.392
 9967TIP3    H229855   3.403   5.596   6.361
 9968TIP3   OH229856   7.452   1.583   0.110
 9968TIP3    H129857   7.483   1.557   0.197
 9968TIP3    H229858   7.517   1.548   0.050
 9969TIP3   OH229859   2.379   5.180   6.412
 9969TIP3    H129860   2.385   5.100   6.465
 9969TIP3    H229861   2.465   5.222   6.424
 9970TIP3   OH229862   0.001   1.583  -0.015
 9970TIP3    H129863   0.032   1.496  -0.040
 9970TIP3    H229864   0.045   1.601   0.069
 9971TIP3   OH229865   0.545   0.196   0.034
 9971TIP3    H129866   0.513   0.133   0.098
 9971TIP3    H229867   0.632   0.163   0.009
 9972TIP3   OH229868   3.697   3.889   6.429
 9972TIP3    H129869   3.734   3.894   6.341
 9972TIP3    H229870   3.607   3.858   6.415
 9973TIP3   OH229871   3.817   3.929   6.185
 9973TIP3    H129872   3.882   3.866   6.155
 9973TIP3    H229873   3.857   4.014   6.170
 9974TIP3   OH229874   5.069   7.371   0.066
 9974TIP3    H129875   4.979   7.340   0.069
 9974TIP3    H229876   5.121   7.291   0.053
 9975TIP3   OH229877   2.262   3.549   6.174
 9975TIP3    H129878   2.292   3.596   6.097
 9975TIP3    H229879   2.228   3.617   6.232
 9976TIP3   OH229880   2.917   3.673   6.384
 9976TIP3    H129881   2.960   3.668   6.299
 9976TIP3    H229882   2.977   3.725   6.438
 9977TIP3   OH229883   3.425   3.813   6.408
 9977TIP3    H129884   3.444   3.781   6.320
 9977TIP3    H229885   3.419   3.733   6.461
 9978TIP3   OH229886   3.493   3.787   5.972
 9978TIP3    H129887   3.400   3.807   5.982
 9978TIP3    H229888   3.517   3.740   6.052
 9979TIP3   OH229889   1.937   5.116   5.942
 9979TIP3    H129890   1.854   5.080   5.912
 9979TIP3    H229891   1.939   5.206   5.907
 9980TIP3   OH229892   2.376   3.673   5.937
 9980TIP3    H129893   2.422   3.612   5.880
 9980TIP3    H229894   2.445   3.729   5.973
 9981TIP3   OH229895   2.865   3.828   6.048
 9981TIP3    H129896   2.919   3.754   6.076
 9981TIP3    H229897   2.902   3.903   6.095
 9982TIP3   OH229898   2.740   5.265   5.531
 9982TIP3    H129899   2.823   5.292   5.493
 9982TIP3    H229900   2.710   5.193   5.474
 9983TIP3   OH229901   3.446   5.410   5.632
 9983TIP3    H129902   3.439   5.315   5.625
 9983TIP3    H229903   3.401   5.443   5.553
 9984TIP3   OH229904   0.133   0.180   0.909
 9984TIP3    H129905   0.118   0.191   1.003
 9984TIP3    H229906   0.205   0.118   0.904
 9985TIP3   OH229907   0.347   0.277   1.097
 9985TIP3    H129908   0.403   0.228   1.038
 9985TIP3    H229909   0.348   0.227   1.179
 9986TIP3   OH229910   2.050   5.111   5.589
 9986TIP3    H129911   2.052   5.117   5.685
 9986TIP3    H229912   2.130   5.064   5.567
 9987TIP3   OH229913   1.113   0.291   0.859
 9987TIP3    H129914   1.133   0.265   0.950
 9987TIP3    H229915   1.198   0.287   0.815
 9988TIP3   OH229916   1.024   1.821   0.364
 9988TIP3    H129917   0.947   1.790   0.316
 9988TIP3    H229918   1.010   1.915   0.374
 9989TIP3   OH229919   4.941   4.941   5.553
 9989TIP3    H129920   4.910   5.028   5.527
 9989TIP3    H229921   4.869   4.883   5.531
 9990TIP3   OH229922   4.933   4.927   5.980
 9990TIP3    H129923   4.985   4.910   6.058
 9990TIP3    H229924   4.888   4.844   5.963
 9991TIP3   OH229925   4.233   4.790   6.327
 9991TIP3    H129926   4.271   4.738   6.398
 9991TIP3    H229927   4.308   4.814   6.273
 9992TIP3   OH229928   5.199   5.238   5.646
 9992TIP3    H129929   5.187   5.170   5.713
 9992TIP3    H229930   5.219   5.317   5.696
 9993TIP3   OH229931   4.227   5.217   6.011
 9993TIP3    H129932   4.208   5.123   6.019
 9993TIP3    H229933   4.323   5.221   6.005
 9994TIP3   OH229934   3.907   4.428   5.796
 9994TIP3    H129935   3.865   4.510   5.820
 9994TIP3    H229936   3.838   4.375   5.757
 9995TIP3   OH229937   3.984   4.728   6.021
 9995TIP3    H129938   4.035   4.651   6.046
 9995TIP3    H229939   4.050   4.791   5.992
 9996TIP3   OH229940   4.865   5.663   5.671
 9996TIP3    H129941   4.891   5.598   5.606
 9996TIP3    H229942   4.864   5.616   5.754
 9997TIP3   OH229943   4.742   5.148   5.985
 9997TIP3    H129944   4.786   5.068   5.958
 9997TIP3    H229945   4.812   5.205   6.017
 9998TIP3   OH229946   5.772   4.467   6.003
 9998TIP3    H129947   5.789   4.550   6.049
 9998TIP3    H229948   5.792   4.487   5.912
 9999TIP3   OH229949   5.149   4.635   6.022
 9999TIP3    H129950   5.181   4.550   6.051
 9999TIP3    H229951   5.111   4.618   5.936
10000TIP3   OH229952   4.505   4.293   5.978
10000TIP3    H129953   4.481   4.367   5.921
10000TIP3    H229954   4.449   4.221   5.949
10001TIP3   OH229955   5.201   4.396   5.619
10001TIP3    H129956   5.264   4.389   5.690
10001TIP3    H229957   5.252   4.431   5.545
10002TIP3   OH229958   4.129   4.509   6.111
10002TIP3    H129959   4.212   4.489   6.154
10002TIP3    H229960   4.130   4.457   6.031
10003TIP3   OH229961   4.546   4.709   5.927
10003TIP3    H129962   4.640   4.693   5.934
10003TIP3    H229963   4.510   4.627   5.894
10004TIP3   OH229964   5.822   4.688   6.161
10004TIP3    H129965   5.733   4.723   6.159
10004TIP3    H229966   5.858   4.721   6.244
10005TIP3   OH229967   4.484   4.300   6.434
10005TIP3    H129968   4.433   4.334   6.360
10005TIP3    H229969   4.428   4.316   6.510
10006TIP3   OH229970   4.842   5.161   5.413
10006TIP3    H129971   4.797   5.126   5.335
10006TIP3    H229972   4.786   5.232   5.443
10007TIP3   OH229973   4.577   5.075   6.196
10007TIP3    H129974   4.523   5.147   6.230
10007TIP3    H229975   4.625   5.115   6.124
10008TIP3   OH229976   5.359   4.415   5.840
10008TIP3    H129977   5.315   4.394   5.922
10008TIP3    H229978   5.413   4.492   5.860
10009TIP3   OH229979   4.377   4.405   6.200
10009TIP3    H129980   4.432   4.480   6.224
10009TIP3    H229981   4.424   4.363   6.128
10010TIP3   OH229982   4.420   5.278   6.302
10010TIP3    H129983   4.407   5.368   6.274
10010TIP3    H229984   4.342   5.257   6.354
10011TIP3   OH229985   3.798   4.980   5.560
10011TIP3    H129986   3.762   4.999   5.473
10011TIP3    H229987   3.821   5.066   5.595
10012TIP3   OH229988   5.229   5.484   5.787
10012TIP3    H129989   5.142   5.477   5.827
10012TIP3    H229990   5.228   5.569   5.744
10013TIP3   OH229991   5.572   4.358   6.171
10013TIP3    H129992   5.487   4.381   6.133
10013TIP3    H229993   5.636   4.386   6.105
10014TIP3   OH229994   4.827   3.990   6.168
10014TIP3    H129995   4.818   3.898   6.193
10014TIP3    H229996   4.750   4.033   6.206
10015TIP3   OH229997   4.949   5.513   5.450
10015TIP3    H129998   5.001   5.433   5.439
10015TIP3    H229999   5.008   5.583   5.421
10016TIP3   OH230000   5.093   5.285   5.393
10016TIP3    H130001   5.017   5.228   5.394
10016TIP3    H230002   5.141   5.263   5.473
10017TIP3   OH230003   5.466   5.369   6.129
10017TIP3    H130004   5.444   5.296   6.071
10017TIP3    H230005   5.453   5.447   6.076
10018TIP3   OH230006   4.764   4.777   5.413
10018TIP3    H130007   4.680   4.818   5.395
10018TIP3    H230008   4.808   4.774   5.328
10019TIP3   OH230009   4.730   4.581   5.103
10019TIP3    H130010   4.796   4.629   5.153
10019TIP3    H230011   4.779   4.512   5.058
10020TIP3   OH230012   5.643   5.028   6.005
10020TIP3    H130013   5.558   5.071   5.998
10020TIP3    H230014   5.684   5.043   5.920
10021TIP3   OH230015   5.125   4.865   5.367
10021TIP3    H130016   5.070   4.895   5.440
10021TIP3    H230017   5.207   4.839   5.409
10022TIP3   OH230018   5.344   4.886   6.309
10022TIP3    H130019   5.342   4.970   6.353
10022TIP3    H230020   5.261   4.882   6.261
10023TIP3   OH230021   4.349   4.843   5.775
10023TIP3    H130022   4.312   4.782   5.712
10023TIP3    H230023   4.421   4.795   5.816
10024TIP3   OH230024   4.491   5.267   5.916
10024TIP3    H130025   4.466   5.252   5.825
10024TIP3    H230026   4.578   5.228   5.925
10025TIP3   OH230027   4.447   4.838   6.152
10025TIP3    H130028   4.485   4.802   6.072
10025TIP3    H230029   4.495   4.919   6.167
10026TIP3   OH230030   4.993   5.476   5.923
10026TIP3    H130031   4.985   5.554   5.978
10026TIP3    H230032   4.982   5.403   5.984
10027TIP3   OH230033   1.987   1.642   0.022
10027TIP3    H130034   1.930   1.700   0.072
10027TIP3    H230035   1.929   1.593  -0.036
10028TIP3   OH230036   4.953   4.723   5.205
10028TIP3    H130037   5.012   4.781   5.253
10028TIP3    H230038   4.983   4.727   5.115
10029TIP3   OH230039   1.743   1.196   0.167
10029TIP3    H130040   1.746   1.290   0.184
10029TIP3    H230041   1.649   1.176   0.161
10030TIP3   OH230042   4.700   5.394   5.462
10030TIP3    H130043   4.780   5.446   5.466
10030TIP3    H230044   4.638   5.450   5.415
10031TIP3   OH230045   1.781   1.805   0.111
10031TIP3    H130046   1.757   1.818   0.019
10031TIP3    H230047   1.698   1.791   0.156
10032TIP3   OH230048   5.461   3.949   5.263
10032TIP3    H130049   5.385   3.969   5.318
10032TIP3    H230050   5.471   4.026   5.207
10033TIP3   OH230051   4.221   4.684   5.577
10033TIP3    H130052   4.144   4.732   5.547
10033TIP3    H230053   4.190   4.596   5.596
10034TIP3   OH230054   5.284   5.349   4.780
10034TIP3    H130055   5.273   5.444   4.781
10034TIP3    H230056   5.347   5.333   4.710
10035TIP3   OH230057   1.372   1.365   0.060
10035TIP3    H130058   1.306   1.348  -0.006
10035TIP3    H230059   1.408   1.279   0.082
10036TIP3   OH230060   3.851   5.291   6.160
10036TIP3    H130061   3.940   5.316   6.181
10036TIP3    H230062   3.797   5.365   6.188
10037TIP3   OH230063   5.699   5.738   6.161
10037TIP3    H130064   5.711   5.646   6.186
10037TIP3    H230065   5.623   5.767   6.212
10038TIP3   OH230066   4.800   5.511   6.324
10038TIP3    H130067   4.793   5.600   6.359
10038TIP3    H230068   4.737   5.460   6.375
10039TIP3   OH230069   4.590   5.622   5.287
10039TIP3    H130070   4.538   5.599   5.210
10039TIP3    H230071   4.552   5.703   5.319
10040TIP3   OH230072   4.024   5.473   5.666
10040TIP3    H130073   4.067   5.465   5.751
10040TIP3    H230074   3.974   5.392   5.657
10041TIP3   OH230075   4.790   5.552   4.917
10041TIP3    H130076   4.839   5.477   4.884
10041TIP3    H230077   4.822   5.564   5.007
10042TIP3   OH230078   4.843   5.592   5.187
10042TIP3    H130079   4.755   5.597   5.225
10042TIP3    H230080   4.897   5.555   5.256
10043TIP3   OH230081   5.585   4.837   6.455
10043TIP3    H130082   5.501   4.851   6.411
10043TIP3    H230083   5.603   4.744   6.442
10044TIP3   OH230084   1.569   1.554   0.022
10044TIP3    H130085   1.621   1.542   0.102
10044TIP3    H230086   1.497   1.492   0.030
10045TIP3   OH230087   4.590   4.084   6.291
10045TIP3    H130088   4.507   4.049   6.260
10045TIP3    H230089   4.566   4.164   6.337
10046TIP3   OH230090   2.495   0.479   0.041
10046TIP3    H130091   2.563   0.455   0.104
10046TIP3    H230092   2.413   0.464   0.089
10047TIP3   OH230093   5.347   4.623   6.404
10047TIP3    H130094   5.306   4.619   6.490
10047TIP3    H230095   5.330   4.713   6.374
10048TIP3   OH230096   5.038   4.705   4.946
10048TIP3    H130097   4.987   4.708   4.865
10048TIP3    H230098   5.118   4.753   4.924
10049TIP3   OH230099   4.744   4.121   5.259
10049TIP3    H130100   4.706   4.129   5.347
10049TIP3    H230101   4.704   4.041   5.224
10050TIP3   OH230102   4.527   4.616   6.300
10050TIP3    H130103   4.481   4.623   6.384
10050TIP3    H230104   4.505   4.698   6.254
10051TIP3   OH230105   4.405   4.495   5.821
10051TIP3    H130106   4.316   4.470   5.846
10051TIP3    H230107   4.415   4.462   5.731
10052TIP3   OH230108   4.887   4.572   5.550
10052TIP3    H130109   4.840   4.645   5.510
10052TIP3    H230110   4.944   4.539   5.480
10053TIP3   OH230111   2.438   1.107   0.169
10053TIP3    H130112   2.411   1.040   0.232
10053TIP3    H230113   2.530   1.124   0.190
10054TIP3   OH230114   5.055   4.582   5.771
10054TIP3    H130115   4.986   4.603   5.708
10054TIP3    H230116   5.102   4.509   5.731
10055TIP3   OH230117   1.731   0.908   0.070
10055TIP3    H130118   1.741   0.972   0.141
10055TIP3    H230119   1.712   0.826   0.115
10056TIP3   OH230120   4.409   4.106   5.236
10056TIP3    H130121   4.399   4.110   5.332
10056TIP3    H230122   4.329   4.148   5.203
10057TIP3   OH230123   3.948   4.150   6.104
10057TIP3    H130124   4.027   4.182   6.147
10057TIP3    H230125   3.979   4.122   6.017
10058TIP3   OH230126   3.896   4.149   5.614
10058TIP3    H130127   3.935   4.183   5.533
10058TIP3    H230128   3.821   4.206   5.630
10059TIP3   OH230129   5.093   4.837   6.194
10059TIP3    H130130   5.118   4.769   6.131
10059TIP3    H230131   5.050   4.789   6.265
10060TIP3   OH230132   4.772   4.285   5.871
10060TIP3    H130133   4.693   4.284   5.925
10060TIP3    H230134   4.844   4.276   5.934
10061TIP3   OH230135   4.166   4.370   5.878
10061TIP3    H130136   4.077   4.377   5.841
10061TIP3    H230137   4.191   4.279   5.864
10062TIP3   OH230138   4.422   4.374   5.575
10062TIP3    H130139   4.516   4.384   5.563
10062TIP3    H230140   4.385   4.390   5.488
10063TIP3   OH230141   5.217   4.371   6.077
10063TIP3    H130142   5.199   4.388   6.170
10063TIP3    H230143   5.148   4.311   6.050
10064TIP3   OH230144   4.307   4.396   5.327
10064TIP3    H130145   4.243   4.345   5.277
10064TIP3    H230146   4.359   4.440   5.261
10065TIP3   OH230147   5.430   6.096   6.278
10065TIP3    H130148   5.430   6.102   6.183
10065TIP3    H230149   5.512   6.135   6.306
10066TIP3   OH230150   1.718   1.465   0.253
10066TIP3    H130151   1.799   1.484   0.299
10066TIP3    H230152   1.650   1.472   0.319
10067TIP3   OH230153   4.819   4.657   5.978
10067TIP3    H130154   4.885   4.606   5.932
10067TIP3    H230155   4.816   4.619   6.066
10068TIP3   OH230156   4.312   4.120   5.867
10068TIP3    H130157   4.282   4.046   5.920
10068TIP3    H230158   4.326   4.082   5.780
10069TIP3   OH230159   4.793   4.563   6.242
10069TIP3    H130160   4.706   4.593   6.267
10069TIP3    H230161   4.853   4.613   6.296
10070TIP3   OH230162   4.525   4.907   5.357
10070TIP3    H130163   4.450   4.853   5.332
10070TIP3    H230164   4.498   4.950   5.438
10071TIP3   OH230165   5.411   5.167   5.952
10071TIP3    H130166   5.447   5.216   5.877
10071TIP3    H230167   5.332   5.126   5.917
10072TIP3   OH230168   4.994   4.229   5.261
10072TIP3    H130169   4.901   4.205   5.259
10072TIP3    H230170   4.994   4.324   5.276
10073TIP3   OH230171   4.937   5.244   6.372
10073TIP3    H130172   4.988   5.227   6.452
10073TIP3    H230173   4.897   5.329   6.386
10074TIP3   OH230174   5.050   4.493   5.333
10074TIP3    H130175   5.145   4.497   5.344
10074TIP3    H230176   5.028   4.571   5.282
10075TIP3   OH230177   4.217   4.928   6.004
10075TIP3    H130178   4.255   4.909   5.919
10075TIP3    H230179   4.282   4.897   6.067
10076TIP3   OH230180   4.677   5.073   5.203
10076TIP3    H130181   4.629   5.155   5.200
10076TIP3    H230182   4.621   5.014   5.254
10077TIP3   OH230183   1.471   1.132   0.190
10077TIP3    H130184   1.472   1.107   0.283
10077TIP3    H230185   1.396   1.084   0.154
10078TIP3   OH230186   2.206   1.261   0.206
10078TIP3    H130187   2.138   1.200   0.179
10078TIP3    H230188   2.288   1.219   0.178
10079TIP3   OH230189   5.064   5.533   6.229
10079TIP3    H130190   4.970   5.515   6.233
10079TIP3    H230191   5.088   5.555   6.319
10080TIP3   OH230192   5.465   4.575   5.147
10080TIP3    H130193   5.411   4.528   5.083
10080TIP3    H230194   5.468   4.665   5.113
10081TIP3   OH230195   5.711   5.466   6.209
10081TIP3    H130196   5.619   5.441   6.214
10081TIP3    H230197   5.742   5.428   6.127
10082TIP3   OH230198   5.196   5.390   5.116
10082TIP3    H130199   5.171   5.350   5.199
10082TIP3    H230200   5.182   5.320   5.051
10083TIP3   OH230201   5.184   5.033   5.851
10083TIP3    H130202   5.095   5.011   5.878
10083TIP3    H230203   5.219   4.951   5.816
10084TIP3   OH230204   4.341   5.269   5.675
10084TIP3    H130205   4.335   5.344   5.616
10084TIP3    H230206   4.254   5.261   5.714
10085TIP3   OH230207   3.901   4.555   5.387
10085TIP3    H130208   3.943   4.638   5.409
10085TIP3    H230209   3.820   4.555   5.438
10086TIP3   OH230210   4.426   5.025   5.578
10086TIP3    H130211   4.407   5.114   5.609
10086TIP3    H230212   4.401   4.969   5.651
10087TIP3   OH230213   4.622   5.594   6.124
10087TIP3    H130214   4.660   5.667   6.075
10087TIP3    H230215   4.694   5.559   6.176
10088TIP3   OH230216   4.258   5.491   5.523
10088TIP3    H130217   4.171   5.497   5.562
10088TIP3    H230218   4.293   5.580   5.529
10089TIP3   OH230219   4.976   5.252   6.098
10089TIP3    H130220   4.961   5.248   6.192
10089TIP3    H230221   5.052   5.197   6.083
10090TIP3   OH230222   4.976   5.135   4.966
10090TIP3    H130223   5.025   5.103   5.042
10090TIP3    H230224   4.892   5.089   4.970
10091TIP3   OH230225   5.232   5.741   6.134
10091TIP3    H130226   5.160   5.680   6.153
10091TIP3    H230227   5.196   5.801   6.069
10092TIP3   OH230228   5.297   5.634   4.763
10092TIP3    H130229   5.353   5.711   4.773
10092TIP3    H230230   5.215   5.657   4.808
10093TIP3   OH230231   1.677   0.655   0.188
10093TIP3    H130232   1.581   0.664   0.191
10093TIP3    H230233   1.698   0.602   0.265
10094TIP3   OH230234   5.152   5.043   5.155
10094TIP3    H130235   5.131   4.991   5.232
10094TIP3    H230236   5.247   5.050   5.156
10095TIP3   OH230237   4.055   5.480   6.290
10095TIP3    H130238   4.107   5.420   6.343
10095TIP3    H230239   4.069   5.566   6.330
10096TIP3   OH230240   4.323   5.097   4.985
10096TIP3    H130241   4.332   5.006   4.958
10096TIP3    H230242   4.307   5.092   5.080
10097TIP3   OH230243   4.262   5.115   5.257
10097TIP3    H130244   4.321   5.089   5.327
10097TIP3    H230245   4.261   5.211   5.261
10098TIP3   OH230246   3.996   4.806   5.468
10098TIP3    H130247   3.930   4.853   5.519
10098TIP3    H230248   4.014   4.864   5.394
10099TIP3   OH230249   5.160   4.430   6.338
10099TIP3    H130250   5.236   4.478   6.373
10099TIP3    H230251   5.150   4.355   6.397
10100TIP3   OH230252   5.053   4.178   5.530
10100TIP3    H130253   5.032   4.197   5.439
10100TIP3    H230254   5.096   4.258   5.562
10101TIP3   OH230255   4.535   5.303   5.195
10101TIP3    H130256   4.449   5.324   5.232
10101TIP3    H230257   4.555   5.376   5.136
10102TIP3   OH230258   4.702   4.379   5.619
10102TIP3    H130259   4.764   4.448   5.594
10102TIP3    H230260   4.724   4.358   5.710
10103TIP3   OH230261   5.000   4.672   6.395
10103TIP3    H130262   5.024   4.717   6.476
10103TIP3    H230263   5.049   4.590   6.398
10104TIP3   OH230264   4.866   4.075   5.708
10104TIP3    H130265   4.842   4.153   5.760
10104TIP3    H230266   4.935   4.106   5.649
10105TIP3   OH230267   4.284   5.389   5.270
10105TIP3    H130268   4.263   5.460   5.211
10105TIP3    H230269   4.273   5.426   5.358
10106TIP3   OH230270   4.379   4.100   5.515
10106TIP3    H130271   4.367   4.190   5.544
10106TIP3    H230272   4.474   4.085   5.522
10107TIP3   OH230273   5.609   4.564   6.375
10107TIP3    H130274   5.515   4.573   6.391
10107TIP3    H230275   5.615   4.500   6.304
10108TIP3   OH230276   5.278   4.774   5.771
10108TIP3    H130277   5.201   4.718   5.784
10108TIP3    H230278   5.345   4.734   5.826
10109TIP3   OH230279   4.019   4.980   5.250
10109TIP3    H130280   4.090   5.044   5.257
10109TIP3    H230281   4.050   4.917   5.185
10110TIP3   OH230282   3.933   4.280   5.376
10110TIP3    H130283   3.941   4.375   5.384
10110TIP3    H230284   3.858   4.267   5.318
10111TIP3   OH230285   5.256   5.751   5.703
10111TIP3    H130286   5.215   5.801   5.633
10111TIP3    H230287   5.350   5.762   5.688
10112TIP3   OH230288   4.331   3.994   6.251
10112TIP3    H130289   4.299   3.962   6.166
10112TIP3    H230290   4.320   3.920   6.310
10113TIP3   OH230291   3.848   5.252   5.640
10113TIP3    H130292   3.803   5.287   5.717
10113TIP3    H230293   3.805   5.294   5.565
10114TIP3   OH230294   1.414   2.060   0.258
10114TIP3    H130295   1.494   2.067   0.311
10114TIP3    H230296   1.401   1.966   0.247
10115TIP3   OH230297   1.871   1.981   0.306
10115TIP3    H130298   1.962   1.960   0.325
10115TIP3    H230299   1.846   1.921   0.235
10116TIP3   OH230300   4.475   5.298   4.873
10116TIP3    H130301   4.427   5.228   4.918
10116TIP3    H230302   4.548   5.253   4.831
10117TIP3   OH230303   2.488   1.859   0.037
10117TIP3    H130304   2.501   1.794   0.107
10117TIP3    H230305   2.570   1.910   0.038
10118TIP3   OH230306   4.917   5.342   4.798
10118TIP3    H130307   4.950   5.275   4.857
10118TIP3    H230308   4.975   5.337   4.722
10119TIP3   OH230309   1.519   1.462   0.449
10119TIP3    H130310   1.540   1.370   0.460
10119TIP3    H230311   1.432   1.463   0.410
10120TIP3   OH230312   4.144   4.792   5.096
10120TIP3    H130313   4.194   4.767   5.174
10120TIP3    H230314   4.210   4.805   5.028
10121TIP3   OH230315   2.141   1.533   0.225
10121TIP3    H130316   2.097   1.555   0.143
10121TIP3    H230317   2.174   1.444   0.211
10122TIP3   OH230318   4.727   5.014   4.939
10122TIP3    H130319   4.700   5.025   5.030
10122TIP3    H230320   4.705   4.923   4.919
10123TIP3   OH230321   5.242   5.318   6.285
10123TIP3    H130322   5.321   5.345   6.237
10123TIP3    H230323   5.175   5.381   6.260
10124TIP3   OH230324   1.636   1.209   0.457
10124TIP3    H130325   1.712   1.192   0.402
10124TIP3    H230326   1.673   1.227   0.544
10125TIP3   OH230327   4.315   4.732   5.310
10125TIP3    H130328   4.293   4.701   5.398
10125TIP3    H230329   4.362   4.658   5.270
10126TIP3   OH230330   2.000   1.089   0.113
10126TIP3    H130331   1.914   1.131   0.125
10126TIP3    H230332   2.029   1.119   0.027
10127TIP3   OH230333   4.457   4.548   5.155
10127TIP3    H130334   4.427   4.552   5.064
10127TIP3    H230335   4.552   4.557   5.149
10128TIP3   OH230336   2.491   1.443   0.193
10128TIP3    H130337   2.570   1.408   0.151
10128TIP3    H230338   2.482   1.390   0.273
10129TIP3   OH230339   5.251   4.840   4.824
10129TIP3    H130340   5.235   4.802   4.738
10129TIP3    H230341   5.230   4.933   4.813
10130TIP3   OH230342   2.103   0.858   0.220
10130TIP3    H130343   2.106   0.788   0.155
10130TIP3    H230344   2.068   0.934   0.172
10131TIP3   OH230345   4.743   4.385   6.467
10131TIP3    H130346   4.770   4.422   6.383
10131TIP3    H230347   4.652   4.358   6.454
10132TIP3   OH230348   4.747   4.913   6.338
10132TIP3    H130349   4.835   4.951   6.330
10132TIP3    H230350   4.691   4.973   6.288
10133TIP3   OH230351   2.702   1.149   0.269
10133TIP3    H130352   2.766   1.078   0.266
10133TIP3    H230353   2.753   1.229   0.263
10134TIP3   OH230354   5.368   5.131   6.436
10134TIP3    H130355   5.311   5.196   6.395
10134TIP3    H230356   5.452   5.142   6.392
10135TIP3   OH230357   1.982   0.936   0.460
10135TIP3    H130358   1.913   0.873   0.480
10135TIP3    H230359   2.012   0.912   0.372
10136TIP3   OH230360   2.230   0.430   0.121
10136TIP3    H130361   2.190   0.510   0.088
10136TIP3    H230362   2.163   0.362   0.108
10137TIP3   OH230363   2.356   0.898   0.327
10137TIP3    H130364   2.345   0.887   0.422
10137TIP3    H230365   2.270   0.877   0.290
10138TIP3   OH230366   2.594   0.847   0.188
10138TIP3    H130367   2.519   0.851   0.247
10138TIP3    H230368   2.667   0.824   0.245
10139TIP3   OH230369   2.834   0.800   0.325
10139TIP3    H130370   2.848   0.707   0.338
10139TIP3    H230371   2.826   0.836   0.413
10140TIP3   OH230372   1.815   0.720   0.526
10140TIP3    H130373   1.821   0.632   0.490
10140TIP3    H230374   1.853   0.713   0.613
10141TIP3   OH230375   2.295   0.402   0.386
10141TIP3    H130376   2.363   0.336   0.380
10141TIP3    H230377   2.265   0.415   0.296
10142TIP3   OH230378   2.389   0.616   0.533
10142TIP3    H130379   2.358   0.544   0.478
10142TIP3    H230380   2.316   0.678   0.533
10143TIP3   OH230381   4.282   5.601   5.090
10143TIP3    H130382   4.370   5.577   5.060
10143TIP3    H230383   4.242   5.644   5.014
10144TIP3   OH230384   3.745   4.981   5.265
10144TIP3    H130385   3.840   4.991   5.263
10144TIP3    H230386   3.729   4.895   5.227
10145TIP3   OH230387   3.650   5.564   5.729
10145TIP3    H130388   3.585   5.510   5.683
10145TIP3    H230389   3.695   5.503   5.787
10146TIP3   OH230390   3.796   5.396   5.894
10146TIP3    H130391   3.788   5.327   5.959
10146TIP3    H230392   3.848   5.464   5.937
10147TIP3   OH230393   5.528   5.802   5.688
10147TIP3    H130394   5.540   5.813   5.782
10147TIP3    H230395   5.564   5.883   5.650
10148TIP3   OH230396   5.534   5.827   5.960
10148TIP3    H130397   5.484   5.746   5.965
10148TIP3    H230398   5.607   5.815   6.021
10149TIP3   OH230399   2.926   1.779   0.031
10149TIP3    H130400   2.836   1.813   0.032
10149TIP3    H230401   2.979   1.855   0.008
10150TIP3   OH230402   5.431   5.036   5.172
10150TIP3    H130403   5.495   5.102   5.145
10150TIP3    H230404   5.470   4.994   5.248
10151TIP3   OH230405   5.558   4.897   5.372
10151TIP3    H130406   5.491   4.861   5.431
10151TIP3    H230407   5.623   4.935   5.431
10152TIP3   OH230408   5.585   5.306   5.785
10152TIP3    H130409   5.641   5.239   5.745
10152TIP3    H230410   5.593   5.382   5.727
10153TIP3   OH230411   5.399   5.588   5.980
10153TIP3    H130412   5.335   5.632   6.035
10153TIP3    H230413   5.348   5.548   5.910
10154TIP3   OH230414   5.453   4.815   5.011
10154TIP3    H130415   5.383   4.818   4.946
10154TIP3    H230416   5.438   4.892   5.066
10155TIP3   OH230417   5.320   4.461   4.943
10155TIP3    H130418   5.273   4.501   4.870
10155TIP3    H230419   5.313   4.367   4.928
10156TIP3   OH230420   5.349   4.763   5.503
10156TIP3    H130421   5.352   4.669   5.490
10156TIP3    H230422   5.328   4.773   5.596
10157TIP3   OH230423   3.970   4.828   6.276
10157TIP3    H130424   3.959   4.793   6.187
10157TIP3    H230425   4.064   4.823   6.292
10158TIP3   OH230426   5.606   5.156   6.298
10158TIP3    H130427   5.678   5.093   6.288
10158TIP3    H230428   5.608   5.207   6.217
10159TIP3   OH230429   5.794   4.960   6.329
10159TIP3    H130430   5.722   4.921   6.380
10159TIP3    H230431   5.872   4.912   6.356
10160TIP3   OH230432   5.283   4.187   4.910
10160TIP3    H130433   5.342   4.168   4.982
10160TIP3    H230434   5.197   4.158   4.941
10161TIP3   OH230435   5.342   4.487   5.388
10161TIP3    H130436   5.387   4.403   5.401
10161TIP3    H230437   5.383   4.525   5.311
10162TIP3   OH230438   5.493   4.650   5.909
10162TIP3    H130439   5.574   4.667   5.862
10162TIP3    H230440   5.506   4.690   5.995
10163TIP3   OH230441   5.561   4.799   6.135
10163TIP3    H130442   5.488   4.826   6.190
10163TIP3    H230443   5.593   4.879   6.095
10164TIP3   OH230444   1.554   0.785   0.466
10164TIP3    H130445   1.648   0.780   0.484
10164TIP3    H230446   1.518   0.704   0.503
10165TIP3   OH230447   3.391   0.658   0.217
10165TIP3    H130448   3.458   0.599   0.182
10165TIP3    H230449   3.363   0.710   0.141
10166TIP3   OH230450   5.458   4.237   5.439
10166TIP3    H130451   5.503   4.223   5.522
10166TIP3    H230452   5.395   4.165   5.434
10167TIP3   OH230453   4.168   4.220   6.260
10167TIP3    H130454   4.221   4.140   6.269
10167TIP3    H230455   4.232   4.289   6.243
10168TIP3   OH230456   3.947   4.481   6.329
10168TIP3    H130457   3.997   4.472   6.247
10168TIP3    H230458   3.979   4.563   6.368
10169TIP3   OH230459   3.243   0.792   0.031
10169TIP3    H130460   3.167   0.831   0.075
10169TIP3    H230461   3.206   0.723  -0.025
10170TIP3   OH230462   5.501   4.150   5.078
10170TIP3    H130463   5.549   4.090   5.021
10170TIP3    H230464   5.557   4.227   5.085
10171TIP3   OH230465   3.944   4.011   5.845
10171TIP3    H130466   3.855   3.992   5.874
10171TIP3    H230467   3.933   4.066   5.767
10172TIP3   OH230468   5.099   5.706   5.340
10172TIP3    H130469   5.161   5.704   5.267
10172TIP3    H230470   5.129   5.779   5.394
10173TIP3   OH230471   1.522   0.327   0.203
10173TIP3    H130472   1.472   0.323   0.284
10173TIP3    H230473   1.465   0.374   0.142
10174TIP3   OH230474   1.553   1.783   0.272
10174TIP3    H130475   1.460   1.761   0.266
10174TIP3    H230476   1.573   1.774   0.365
10175TIP3   OH230477   4.398   5.555   6.278
10175TIP3    H130478   4.344   5.627   6.247
10175TIP3    H230479   4.481   5.565   6.233
10176TIP3   OH230480   4.781   5.771   6.415
10176TIP3    H130481   4.828   5.757   6.497
10176TIP3    H230482   4.841   5.824   6.362
10177TIP3   OH230483   4.956   5.908   6.256
10177TIP3    H130484   4.993   5.847   6.192
10177TIP3    H230485   5.027   5.968   6.276
10178TIP3   OH230486   5.789   4.267   6.372
10178TIP3    H130487   5.703   4.260   6.329
10178TIP3    H230488   5.825   4.178   6.366
10179TIP3   OH230489   4.055   5.791   6.321
10179TIP3    H130490   3.963   5.808   6.299
10179TIP3    H230491   4.076   5.857   6.387
10180TIP3   OH230492   4.284   5.781   6.171
10180TIP3    H130493   4.201   5.786   6.218
10180TIP3    H230494   4.261   5.806   6.081
10181TIP3   OH230495   4.701   5.802   5.957
10181TIP3    H130496   4.626   5.810   5.898
10181TIP3    H230497   4.708   5.889   5.998
10182TIP3   OH230498   4.963   5.743   6.012
10182TIP3    H130499   4.873   5.759   5.986
10182TIP3    H230500   5.015   5.804   5.960
10183TIP3   OH230501   5.165   5.906   5.912
10183TIP3    H130502   5.168   5.995   5.877
10183TIP3    H230503   5.197   5.851   5.841
10184TIP3   OH230504   3.970   5.573   6.040
10184TIP3    H130505   3.994   5.548   6.129
10184TIP3    H230506   4.042   5.539   5.986
10185TIP3   OH230507   4.172   5.458   5.899
10185TIP3    H130508   4.183   5.374   5.943
10185TIP3    H230509   4.258   5.499   5.903
10186TIP3   OH230510   4.439   5.543   5.922
10186TIP3    H130511   4.459   5.451   5.907
10186TIP3    H230512   4.492   5.568   5.997
10187TIP3   OH230513   4.998   4.192   6.012
10187TIP3    H130514   4.959   4.121   6.064
10187TIP3    H230515   5.067   4.149   5.961
10188TIP3   OH230516   5.502   4.106   5.895
10188TIP3    H130517   5.538   4.158   5.823
10188TIP3    H230518   5.410   4.130   5.898
10189TIP3   OH230519   5.618   4.187   5.659
10189TIP3    H130520   5.688   4.127   5.634
10189TIP3    H230521   5.656   4.274   5.646
10190TIP3   OH230522   4.238   3.894   6.012
10190TIP3    H130523   4.148   3.863   6.019
10190TIP3    H230524   4.290   3.814   6.000
10191TIP3   OH230525   4.075   3.811   5.682
10191TIP3    H130526   4.085   3.858   5.599
10191TIP3    H230527   4.034   3.875   5.740
10192TIP3   OH230528   4.724   3.929   5.906
10192TIP3    H130529   4.769   3.979   5.839
10192TIP3    H230530   4.761   3.959   5.988
10193TIP3   OH230531   5.213   4.077   5.880
10193TIP3    H130532   5.223   4.041   5.792
10193TIP3    H230533   5.219   4.001   5.938
10194TIP3   OH230534   5.272   4.027   5.448
10194TIP3    H130535   5.193   4.074   5.473
10194TIP3    H230536   5.261   3.940   5.487
10195TIP3   OH230537   3.732   5.372   5.421
10195TIP3    H130538   3.648   5.339   5.389
10195TIP3    H230539   3.736   5.462   5.390
10196TIP3   OH230540   4.163   3.939   5.425
10196TIP3    H130541   4.208   3.874   5.371
10196TIP3    H230542   4.233   3.993   5.461
10197TIP3   OH230543   4.656   4.127   5.522
10197TIP3    H130544   4.713   4.075   5.578
10197TIP3    H230545   4.669   4.217   5.551
10198TIP3   OH230546   4.534   5.521   5.016
10198TIP3    H130547   4.617   5.549   4.978
10198TIP3    H230548   4.504   5.450   4.960
10199TIP3   OH230549   5.254   5.659   5.104
10199TIP3    H130550   5.236   5.565   5.109
10199TIP3    H230551   5.196   5.691   5.035
10200TIP3   OH230552   1.834   0.451   0.441
10200TIP3    H130553   1.800   0.384   0.500
10200TIP3    H230554   1.926   0.460   0.465
10201TIP3   OH230555   2.081   0.456   0.564
10201TIP3    H130556   2.158   0.432   0.512
10201TIP3    H230557   2.076   0.387   0.631
10202TIP3   OH230558   3.845   5.365   5.075
10202TIP3    H130559   3.843   5.371   5.171
10202TIP3    H230560   3.925   5.318   5.055
10203TIP3   OH230561   2.903   0.535   0.351
10203TIP3    H130562   2.919   0.504   0.440
10203TIP3    H230563   2.989   0.532   0.309
10204TIP3   OH230564   5.464   5.819   6.271
10204TIP3    H130565   5.382   5.786   6.236
10204TIP3    H230566   5.443   5.908   6.301
10205TIP3   OH230567   6.728   5.254   4.992
10205TIP3    H130568   6.680   5.333   4.968
10205TIP3    H230569   6.663   5.184   4.991
10206TIP3   OH230570   6.730   5.208   5.471
10206TIP3    H130571   6.778   5.180   5.549
10206TIP3    H230572   6.679   5.131   5.446
10207TIP3   OH230573   6.018   5.045   5.807
10207TIP3    H130574   6.052   4.984   5.872
10207TIP3    H230575   6.091   5.105   5.790
10208TIP3   OH230576   7.019   5.505   5.170
10208TIP3    H130577   7.003   5.434   5.232
10208TIP3    H230578   7.023   5.584   5.224
10209TIP3   OH230579   6.025   5.463   5.501
10209TIP3    H130580   6.003   5.370   5.503
10209TIP3    H230581   6.088   5.474   5.573
10210TIP3   OH230582   5.705   4.674   5.282
10210TIP3    H130583   5.666   4.757   5.311
10210TIP3    H230584   5.632   4.626   5.243
10211TIP3   OH230585   5.787   4.989   5.507
10211TIP3    H130586   5.836   4.912   5.536
10211TIP3    H230587   5.854   5.055   5.489
10212TIP3   OH230588   6.638   5.934   5.161
10212TIP3    H130589   6.662   5.843   5.182
10212TIP3    H230590   6.597   5.967   5.241
10213TIP3   OH230591   6.555   5.439   5.511
10213TIP3    H130592   6.621   5.374   5.488
10213TIP3    H230593   6.599   5.499   5.571
10214TIP3   OH230594   7.553   4.724   5.491
10214TIP3    H130595   7.573   4.805   5.538
10214TIP3    H230596   7.586   4.739   5.402
10215TIP3   OH230597   6.936   4.890   5.508
10215TIP3    H130598   6.971   4.807   5.540
10215TIP3    H230599   6.904   4.870   5.420
10216TIP3   OH230600   6.297   4.549   5.466
10216TIP3    H130601   6.276   4.623   5.409
10216TIP3    H230602   6.241   4.478   5.434
10217TIP3   OH230603   6.997   4.652   5.104
10217TIP3    H130604   7.059   4.640   5.175
10217TIP3    H230605   7.049   4.687   5.032
10218TIP3   OH230606   5.922   4.766   5.600
10218TIP3    H130607   6.006   4.751   5.644
10218TIP3    H230608   5.927   4.715   5.519
10219TIP3   OH230609   6.348   4.970   5.398
10219TIP3    H130610   6.441   4.952   5.411
10219TIP3    H230611   6.311   4.886   5.370
10220TIP3   OH230612   7.612   4.923   5.678
10220TIP3    H130613   7.524   4.961   5.676
10220TIP3    H230614   7.620   4.885   5.765
10221TIP3   OH230615   6.278   4.555   5.921
10221TIP3    H130616   6.227   4.592   5.849
10221TIP3    H230617   6.224   4.571   5.999
10222TIP3   OH230618   6.376   5.334   5.691
10222TIP3    H130619   6.310   5.398   5.718
10222TIP3    H230620   6.432   5.381   5.629
10223TIP3   OH230621   7.153   4.657   5.328
10223TIP3    H130622   7.105   4.644   5.410
10223TIP3    H230623   7.207   4.734   5.344
10224TIP3   OH230624   6.172   4.662   5.688
10224TIP3    H130625   6.225   4.739   5.710
10224TIP3    H230626   6.219   4.619   5.617
10225TIP3   OH230627   6.176   5.519   5.740
10225TIP3    H130628   6.199   5.612   5.738
10225TIP3    H230629   6.103   5.513   5.801
10226TIP3   OH230630   5.597   5.220   5.042
10226TIP3    H130631   5.519   5.244   4.992
10226TIP3    H230632   5.623   5.302   5.084
10227TIP3   OH230633   7.009   5.750   5.312
10227TIP3    H130634   6.937   5.766   5.373
10227TIP3    H230635   7.018   5.831   5.263
10228TIP3   OH230636   7.363   4.604   5.657
10228TIP3    H130637   7.278   4.631   5.622
10228TIP3    H230638   7.426   4.635   5.593
10229TIP3   OH230639   6.619   4.249   5.652
10229TIP3    H130640   6.614   4.157   5.679
10229TIP3    H230641   6.542   4.290   5.692
10230TIP3   OH230642   6.821   5.765   4.900
10230TIP3    H130643   6.737   5.727   4.926
10230TIP3    H230644   6.813   5.858   4.920
10231TIP3   OH230645   6.953   5.487   4.909
10231TIP3    H130646   6.892   5.414   4.922
10231TIP3    H230647   6.994   5.499   4.994
10232TIP3   OH230648   7.203   5.602   5.657
10232TIP3    H130649   7.213   5.532   5.593
10232TIP3    H230650   7.227   5.682   5.610
10233TIP3   OH230651   6.568   5.040   4.897
10233TIP3    H130652   6.483   5.077   4.876
10233TIP3    H230653   6.614   5.036   4.813
10234TIP3   OH230654   6.531   4.836   4.581
10234TIP3    H130655   6.585   4.891   4.637
10234TIP3    H230656   6.591   4.770   4.546
10235TIP3   OH230657   7.433   5.261   5.473
10235TIP3    H130658   7.352   5.312   5.479
10235TIP3    H230659   7.471   5.287   5.389
10236TIP3   OH230660   6.920   5.132   4.841
10236TIP3    H130661   6.863   5.172   4.907
10236TIP3    H230662   6.997   5.104   4.890
10237TIP3   OH230663   7.129   5.133   5.767
10237TIP3    H130664   7.124   5.205   5.831
10237TIP3    H230665   7.043   5.134   5.725
10238TIP3   OH230666   6.150   5.103   5.253
10238TIP3    H130667   6.112   5.036   5.196
10238TIP3    H230668   6.223   5.060   5.296
10239TIP3   OH230669   6.322   5.547   5.391
10239TIP3    H130670   6.293   5.488   5.321
10239TIP3    H230671   6.400   5.504   5.427
10240TIP3   OH230672   6.251   5.099   5.625
10240TIP3    H130673   6.292   5.066   5.545
10240TIP3    H230674   6.299   5.179   5.645
10241TIP3   OH230675   6.749   4.983   4.685
10241TIP3    H130676   6.809   5.043   4.730
10241TIP3    H230677   6.776   4.985   4.593
10242TIP3   OH230678   6.168   5.187   6.028
10242TIP3    H130679   6.172   5.280   6.051
10242TIP3    H230680   6.078   5.162   6.046
10243TIP3   OH230681   6.223   5.795   6.021
10243TIP3    H130682   6.224   5.796   5.925
10243TIP3    H230683   6.131   5.792   6.044
10244TIP3   OH230684   7.254   4.216   4.749
10244TIP3    H130685   7.179   4.238   4.805
10244TIP3    H230686   7.268   4.295   4.697
10245TIP3   OH230687   6.024   4.930   5.066
10245TIP3    H130688   5.939   4.968   5.044
10245TIP3    H230689   6.005   4.838   5.088
10246TIP3   OH230690   7.080   5.590   4.349
10246TIP3    H130691   7.073   5.680   4.317
10246TIP3    H230692   7.165   5.560   4.317
10247TIP3   OH230693   5.785   5.334   5.983
10247TIP3    H130694   5.716   5.311   5.921
10247TIP3    H230695   5.825   5.251   6.008
10248TIP3   OH230696   5.645   5.549   5.641
10248TIP3    H130697   5.732   5.574   5.670
10248TIP3    H230698   5.590   5.625   5.662
10249TIP3   OH230699   6.383   5.910   4.739
10249TIP3    H130700   6.335   5.893   4.657
10249TIP3    H230701   6.341   5.987   4.776
10250TIP3   OH230702   5.817   5.749   5.184
10250TIP3    H130703   5.885   5.745   5.252
10250TIP3    H230704   5.750   5.688   5.214
10251TIP3   OH230705   6.580   5.800   4.397
10251TIP3    H130706   6.628   5.726   4.361
10251TIP3    H230707   6.614   5.809   4.486
10252TIP3   OH230708   6.625   5.816   4.669
10252TIP3    H130709   6.541   5.846   4.704
10252TIP3    H230710   6.633   5.726   4.700
10253TIP3   OH230711   7.345   5.087   5.963
10253TIP3    H130712   7.303   5.104   5.879
10253TIP3    H230713   7.395   5.007   5.950
10254TIP3   OH230714   5.964   5.532   5.918
10254TIP3    H130715   6.026   5.520   5.990
10254TIP3    H230716   5.896   5.467   5.935
10255TIP3   OH230717   6.383   4.340   5.776
10255TIP3    H130718   6.300   4.307   5.745
10255TIP3    H230719   6.361   4.420   5.824
10256TIP3   OH230720   6.931   4.456   5.976
10256TIP3    H130721   7.003   4.431   6.035
10256TIP3    H230722   6.852   4.441   6.027
10257TIP3   OH230723   7.131   4.874   5.869
10257TIP3    H130724   7.097   4.874   5.958
10257TIP3    H230725   7.124   4.965   5.840
10258TIP3   OH230726   6.825   4.951   4.421
10258TIP3    H130727   6.785   4.957   4.334
10258TIP3    H230728   6.907   4.999   4.413
10259TIP3   OH230729   6.536   4.381   4.728
10259TIP3    H130730   6.488   4.391   4.810
10259TIP3    H230731   6.569   4.291   4.729
10260TIP3   OH230732   6.320   4.878   5.777
10260TIP3    H130733   6.272   4.885   5.860
10260TIP3    H230734   6.296   4.957   5.729
10261TIP3   OH230735   6.204   4.750   5.304
10261TIP3    H130736   6.115   4.727   5.332
10261TIP3    H230737   6.211   4.715   5.215
10262TIP3   OH230738   6.682   4.826   5.031
10262TIP3    H130739   6.638   4.902   4.993
10262TIP3    H230740   6.741   4.796   4.962
10263TIP3   OH230741   6.875   5.094   6.089
10263TIP3    H130742   6.854   5.025   6.152
10263TIP3    H230743   6.968   5.109   6.099
10264TIP3   OH230744   6.850   4.836   5.254
10264TIP3    H130745   6.779   4.852   5.192
10264TIP3    H230746   6.899   4.763   5.216
10265TIP3   OH230747   6.151   4.887   5.992
10265TIP3    H130748   6.159   4.952   6.063
10265TIP3    H230749   6.133   4.805   6.037
10266TIP3   OH230750   5.752   4.408   5.583
10266TIP3    H130751   5.822   4.443   5.637
10266TIP3    H230752   5.794   4.388   5.499
10267TIP3   OH230753   5.656   4.380   5.093
10267TIP3    H130754   5.700   4.414   5.015
10267TIP3    H230755   5.593   4.448   5.118
10268TIP3   OH230756   6.862   5.086   5.680
10268TIP3    H130757   6.892   5.020   5.617
10268TIP3    H230758   6.830   5.035   5.754
10269TIP3   OH230759   6.560   4.541   5.352
10269TIP3    H130760   6.483   4.542   5.408
10269TIP3    H230761   6.634   4.533   5.413
10270TIP3   OH230762   5.965   4.628   5.365
10270TIP3    H130763   5.876   4.632   5.329
10270TIP3    H230764   5.993   4.538   5.350
10271TIP3   OH230765   6.214   4.627   5.058
10271TIP3    H130766   6.309   4.636   5.048
10271TIP3    H230767   6.179   4.639   4.969
10272TIP3   OH230768   7.004   4.625   5.560
10272TIP3    H130769   6.989   4.640   5.653
10272TIP3    H230770   6.934   4.566   5.532
10273TIP3   OH230771   6.112   4.647   4.805
10273TIP3    H130772   6.046   4.605   4.750
10273TIP3    H230773   6.162   4.701   4.744
10274TIP3   OH230774   6.155   5.455   6.102
10274TIP3    H130775   6.240   5.497   6.090
10274TIP3    H230776   6.140   5.459   6.197
10275TIP3   OH230777   6.616   4.918   5.461
10275TIP3    H130778   6.688   4.873   5.419
10275TIP3    H230779   6.609   4.878   5.548
10276TIP3   OH230780   6.104   4.379   5.343
10276TIP3    H130781   6.079   4.302   5.394
10276TIP3    H230782   6.122   4.346   5.256
10277TIP3   OH230783   6.583   4.813   5.719
10277TIP3    H130784   6.497   4.846   5.745
10277TIP3    H230785   6.644   4.858   5.778
10278TIP3   OH230786   6.328   5.166   4.833
10278TIP3    H130787   6.254   5.112   4.806
10278TIP3    H230788   6.295   5.216   4.908
10279TIP3   OH230789   7.212   5.420   5.451
10279TIP3    H130790   7.250   5.473   5.380
10279TIP3    H230791   7.133   5.381   5.412
10280TIP3   OH230792   6.788   4.493   4.748
10280TIP3    H130793   6.693   4.482   4.737
10280TIP3    H230794   6.800   4.587   4.760
10281TIP3   OH230795   6.851   4.754   4.816
10281TIP3    H130796   6.945   4.758   4.830
10281TIP3    H230797   6.831   4.833   4.765
10282TIP3   OH230798   6.010   5.169   5.490
10282TIP3    H130799   6.052   5.158   5.404
10282TIP3    H230800   6.075   5.138   5.553
10283TIP3   OH230801   6.493   5.299   4.650
10283TIP3    H130802   6.535   5.371   4.697
10283TIP3    H230803   6.434   5.259   4.715
10284TIP3   OH230804   5.910   5.117   6.113
10284TIP3    H130805   5.955   5.109   6.196
10284TIP3    H230806   5.839   5.053   6.117
10285TIP3   OH230807   6.634   5.220   6.137
10285TIP3    H130808   6.557   5.175   6.102
10285TIP3    H230809   6.708   5.171   6.101
10286TIP3   OH230810   7.255   4.836   4.630
10286TIP3    H130811   7.198   4.790   4.569
10286TIP3    H230812   7.262   4.925   4.595
10287TIP3   OH230813   6.964   5.589   4.615
10287TIP3    H130814   6.971   5.493   4.614
10287TIP3    H230815   7.002   5.616   4.531
10288TIP3   OH230816   6.987   5.288   5.344
10288TIP3    H130817   6.899   5.271   5.380
10288TIP3    H230818   7.016   5.204   5.311
10289TIP3   OH230819   6.129   5.523   5.154
10289TIP3    H130820   6.113   5.602   5.101
10289TIP3    H230821   6.074   5.535   5.231
10290TIP3   OH230822   5.694   4.801   4.880
10290TIP3    H130823   5.739   4.882   4.904
10290TIP3    H230824   5.613   4.802   4.931
10291TIP3   OH230825   6.188   5.284   5.038
10291TIP3    H130826   6.177   5.371   5.076
10291TIP3    H230827   6.177   5.223   5.111
10292TIP3   OH230828   6.453   5.831   5.609
10292TIP3    H130829   6.507   5.895   5.563
10292TIP3    H230830   6.515   5.769   5.646
10293TIP3   OH230831   6.036   5.751   5.012
10293TIP3    H130832   5.954   5.761   5.059
10293TIP3    H230833   6.077   5.838   5.017
10294TIP3   OH230834   6.746   5.379   4.477
10294TIP3    H130835   6.816   5.355   4.537
10294TIP3    H230836   6.668   5.384   4.531
10295TIP3   OH230837   7.036   5.990   5.590
10295TIP3    H130838   6.945   5.966   5.608
10295TIP3    H230839   7.031   6.066   5.533
10296TIP3   OH230840   7.068   5.854   4.275
10296TIP3    H130841   7.076   5.902   4.193
10296TIP3    H230842   6.999   5.900   4.323
10297TIP3   OH230843   6.106   4.649   6.121
10297TIP3    H130844   6.011   4.645   6.134
10297TIP3    H230845   6.142   4.647   6.210
10298TIP3   OH230846   6.960   5.312   4.635
10298TIP3    H130847   6.938   5.256   4.709
10298TIP3    H230848   7.055   5.308   4.629
10299TIP3   OH230849   5.844   5.737   5.763
10299TIP3    H130850   5.892   5.675   5.818
10299TIP3    H230851   5.862   5.823   5.801
10300TIP3   OH230852   6.166   5.322   4.521
10300TIP3    H130853   6.221   5.271   4.461
10300TIP3    H230854   6.227   5.382   4.564
10301TIP3   OH230855   6.032   5.369   4.790
10301TIP3    H130856   6.079   5.336   4.867
10301TIP3    H230857   6.037   5.465   4.799
10302TIP3   OH230858   5.799   5.050   4.957
10302TIP3    H130859   5.728   5.101   4.996
10302TIP3    H230860   5.846   5.113   4.902
10303TIP3   OH230861   6.946   4.680   5.820
10303TIP3    H130862   7.021   4.731   5.848
10303TIP3    H230863   6.943   4.605   5.880
10304TIP3   OH230864   6.843   4.438   5.016
10304TIP3    H130865   6.824   4.460   4.925
10304TIP3    H230866   6.889   4.516   5.050
10305TIP3   OH230867   6.280   5.542   4.630
10305TIP3    H130868   6.210   5.578   4.685
10305TIP3    H230869   6.358   5.593   4.654
10306TIP3   OH230870   6.495   4.631   5.096
10306TIP3    H130871   6.556   4.701   5.073
10306TIP3    H230872   6.514   4.611   5.187
10307TIP3   OH230873   6.788   4.912   5.879
10307TIP3    H130874   6.821   4.956   5.958
10307TIP3    H230875   6.838   4.831   5.875
10308TIP3   OH230876   6.653   4.334   5.188
10308TIP3    H130877   6.628   4.410   5.241
10308TIP3    H230878   6.725   4.365   5.134
10309TIP3   OH230879   6.056   5.641   4.762
10309TIP3    H130880   6.041   5.710   4.698
10309TIP3    H230881   6.049   5.685   4.847
10310TIP3   OH230882   6.169   4.346   5.038
10310TIP3    H130883   6.157   4.441   5.045
10310TIP3    H230884   6.262   4.335   5.018
10311TIP3   OH230885   7.395   4.819   5.851
10311TIP3    H130886   7.301   4.833   5.862
10311TIP3    H230887   7.401   4.742   5.794
10312TIP3   OH230888   7.069   5.028   5.258
10312TIP3    H130889   6.993   4.970   5.270
10312TIP3    H230890   7.138   4.988   5.311
10313TIP3   OH230891   5.714   4.520   4.867
10313TIP3    H130892   5.721   4.616   4.870
10313TIP3    H230893   5.644   4.503   4.803
10314TIP3   OH230894   7.056   5.997   5.187
10314TIP3    H130895   7.010   6.048   5.121
10314TIP3    H230896   7.145   5.987   5.151
10315TIP3   OH230897   6.124   4.252   5.734
10315TIP3    H130898   6.094   4.220   5.649
10315TIP3    H230899   6.115   4.177   5.792
10316TIP3   OH230900   5.630   5.477   5.128
10316TIP3    H130901   5.609   5.529   5.205
10316TIP3    H230902   5.622   5.539   5.055
10317TIP3   OH230903   5.828   6.042   6.148
10317TIP3    H130904   5.911   6.063   6.190
10317TIP3    H230905   5.830   5.947   6.136
10318TIP3   OH230906   6.342   5.883   6.249
10318TIP3    H130907   6.416   5.941   6.232
10318TIP3    H230908   6.311   5.857   6.162
10319TIP3   OH230909   6.269   5.567   4.348
10319TIP3    H130910   6.267   5.528   4.435
10319TIP3    H230911   6.343   5.526   4.304
10320TIP3   OH230912   6.706   5.582   4.290
10320TIP3    H130913   6.742   5.518   4.351
10320TIP3    H230914   6.764   5.579   4.214
10321TIP3   OH230915   5.894   5.421   6.404
10321TIP3    H130916   5.930   5.336   6.377
10321TIP3    H230917   5.821   5.436   6.345
10322TIP3   OH230918   5.958   5.132   4.601
10322TIP3    H130919   5.991   5.083   4.676
10322TIP3    H230920   6.011   5.101   4.527
10323TIP3   OH230921   6.416   5.256   4.394
10323TIP3    H130922   6.449   5.272   4.482
10323TIP3    H230923   6.438   5.164   4.376
10324TIP3   OH230924   6.985   5.529   5.804
10324TIP3    H130925   7.057   5.562   5.750
10324TIP3    H230926   6.906   5.554   5.758
10325TIP3   OH230927   6.076   5.098   6.334
10325TIP3    H130928   6.100   5.019   6.383
10325TIP3    H230929   6.094   5.170   6.395
10326TIP3   OH230930   6.102   5.000   4.799
10326TIP3    H130931   6.086   4.968   4.888
10326TIP3    H230932   6.148   4.929   4.755
10327TIP3   OH230933   6.421   5.073   6.028
10327TIP3    H130934   6.334   5.113   6.028
10327TIP3    H230935   6.460   5.101   5.946
10328TIP3   OH230936   6.254   4.822   4.644
10328TIP3    H130937   6.226   4.818   4.553
10328TIP3    H230938   6.350   4.828   4.640
10329TIP3   OH230939   6.813   5.428   6.026
10329TIP3    H130940   6.897   5.398   5.990
10329TIP3    H230941   6.784   5.355   6.081
10330TIP3   OH230942   7.039   5.099   4.330
10330TIP3    H130943   7.029   5.063   4.241
10330TIP3    H230944   7.016   5.192   4.321
10331TIP3   OH230945   6.542   4.848   6.129
10331TIP3    H130946   6.544   4.772   6.070
10331TIP3    H230947   6.501   4.917   6.078
10332TIP3   OH230948   6.540   4.634   5.944
10332TIP3    H130949   6.563   4.669   5.858
10332TIP3    H230950   6.448   4.609   5.937
10333TIP3   OH230951   6.559   5.170   5.816
10333TIP3    H130952   6.644   5.186   5.776
10333TIP3    H230953   6.500   5.232   5.774
10334TIP3   OH230954   7.145   5.118   6.175
10334TIP3    H130955   7.181   5.048   6.231
10334TIP3    H230956   7.211   5.131   6.107
10335TIP3   OH230957   7.119   5.339   5.946
10335TIP3    H130958   7.084   5.413   5.897
10335TIP3    H230959   7.197   5.374   5.989
10336TIP3   OH230960   6.409   4.908   6.373
10336TIP3    H130961   6.314   4.913   6.387
10336TIP3    H230962   6.419   4.903   6.277
10337TIP3   OH230963   6.661   4.402   6.045
10337TIP3    H130964   6.623   4.485   6.015
10337TIP3    H230965   6.591   4.338   6.036
10338TIP3   OH230966   6.786   4.894   6.253
10338TIP3    H130967   6.784   4.856   6.341
10338TIP3    H230968   6.702   4.870   6.214
10339TIP3   OH230969   7.019   4.826   6.109
10339TIP3    H130970   6.951   4.831   6.176
10339TIP3    H230971   7.099   4.806   6.158
10340TIP3   OH230972   7.272   4.793   6.224
10340TIP3    H130973   7.282   4.700   6.247
10340TIP3    H230974   7.265   4.838   6.308
10341TIP3   OH230975   6.226   4.648   6.375
10341TIP3    H130976   6.235   4.553   6.367
10341TIP3    H230977   6.286   4.672   6.446
10342TIP3   OH230978   6.742   4.352   6.299
10342TIP3    H130979   6.813   4.290   6.287
10342TIP3    H230980   6.710   4.369   6.211
10343TIP3   OH230981   6.835   4.572   6.431
10343TIP3    H130982   6.815   4.491   6.384
10343TIP3    H230983   6.758   4.627   6.419
10344TIP3   OH230984   6.047   5.816   4.550
10344TIP3    H130985   6.141   5.817   4.529
10344TIP3    H230986   6.008   5.879   4.489
10345TIP3   OH230987   5.458   5.812   5.204
10345TIP3    H130988   5.389   5.759   5.164
10345TIP3    H230989   5.500   5.754   5.266
10346TIP3   OH230990   5.614   5.646   5.365
10346TIP3    H130991   5.601   5.578   5.431
10346TIP3    H230992   5.658   5.717   5.413
10347TIP3   OH230993   7.362   6.025   5.155
10347TIP3    H130994   7.359   6.033   5.250
10347TIP3    H230995   7.372   6.115   5.124
10348TIP3   OH230996   7.231   5.302   4.642
10348TIP3    H130997   7.289   5.374   4.616
10348TIP3    H230998   7.271   5.267   4.722
10349TIP3   OH230999   7.339   5.171   4.856
10349TIP3    H131000   7.275   5.137   4.919
10349TIP3    H231001   7.406   5.212   4.910
10350TIP3   OH231002   7.379   5.555   5.276
10350TIP3    H131003   7.439   5.485   5.249
10350TIP3    H231004   7.388   5.622   5.209
10351TIP3   OH231005   7.224   5.819   5.485
10351TIP3    H131006   7.167   5.882   5.530
10351TIP3    H231007   7.169   5.782   5.416
10352TIP3   OH231008   7.255   5.074   4.495
10352TIP3    H131009   7.181   5.076   4.435
10352TIP3    H231010   7.246   5.154   4.547
10353TIP3   OH231011   7.100   4.735   4.431
10353TIP3    H131012   7.053   4.764   4.352
10353TIP3    H231013   7.096   4.639   4.427
10354TIP3   OH231014   7.133   5.028   4.988
10354TIP3    H131015   7.145   4.934   4.974
10354TIP3    H231016   7.116   5.035   5.082
10355TIP3   OH231017   5.756   5.087   5.761
10355TIP3    H131018   5.746   5.053   5.672
10355TIP3    H231019   5.849   5.081   5.779
10356TIP3   OH231020   7.069   4.466   4.418
10356TIP3    H131021   7.138   4.439   4.479
10356TIP3    H231022   6.992   4.416   4.446
10357TIP3   OH231023   7.136   4.748   4.873
10357TIP3    H131024   7.182   4.665   4.887
10357TIP3    H231025   7.178   4.785   4.795
10358TIP3   OH231026   7.277   4.896   5.394
10358TIP3    H131027   7.358   4.918   5.347
10358TIP3    H231028   7.291   4.930   5.483
10359TIP3   OH231029   7.352   5.043   5.621
10359TIP3    H131030   7.272   5.075   5.664
10359TIP3    H231031   7.383   5.118   5.571
10360TIP3   OH231032   5.971   4.756   6.389
10360TIP3    H131033   6.066   4.747   6.393
10360TIP3    H231034   5.937   4.679   6.435
10361TIP3   OH231035   7.800   4.630   6.181
10361TIP3    H131036   7.877   4.592   6.139
10361TIP3    H231037   7.795   4.719   6.146
10362TIP3   OH231038   7.249   4.500   4.927
10362TIP3    H131039   7.297   4.485   5.009
10362TIP3    H231040   7.188   4.427   4.922
10363TIP3   OH231041   5.962   4.478   5.748
10363TIP3    H131042   6.016   4.399   5.756
10363TIP3    H231043   6.025   4.548   5.733
10364TIP3   OH231044   5.738   4.735   5.814
10364TIP3    H131045   5.792   4.732   5.735
10364TIP3    H231046   5.767   4.815   5.859
10365TIP3   OH231047   7.687   4.788   5.916
10365TIP3    H131048   7.634   4.820   5.990
10365TIP3    H231049   7.655   4.699   5.900
10366TIP3   OH231050   7.296   4.422   4.574
10366TIP3    H131051   7.337   4.361   4.513
10366TIP3    H231052   7.356   4.496   4.578
10367TIP3   OH231053   5.727   4.243   5.318
10367TIP3    H131054   5.642   4.235   5.361
10367TIP3    H231055   5.710   4.300   5.243
10368TIP3   OH231056   5.943   4.286   6.128
10368TIP3    H131057   5.902   4.293   6.214
10368TIP3    H231058   5.891   4.344   6.072
10369TIP3   OH231059   5.963   5.785   6.111
10369TIP3    H131060   5.874   5.755   6.096
10369TIP3    H231061   5.984   5.755   6.200
10370TIP3   OH231062   6.214   5.795   5.744
10370TIP3    H131063   6.160   5.865   5.708
10370TIP3    H231064   6.301   5.810   5.705
10371TIP3   OH231065   6.640   6.087   5.817
10371TIP3    H131066   6.688   6.063   5.897
10371TIP3    H231067   6.673   6.026   5.751
10372TIP3   OH231068   7.578   4.532   5.860
10372TIP3    H131069   7.492   4.525   5.818
10372TIP3    H231070   7.615   4.444   5.853
10373TIP3   OH231071   5.848   6.035   5.789
10373TIP3    H131072   5.757   6.048   5.765
10373TIP3    H231073   5.868   6.108   5.848
10374TIP3   OH231074   6.076   6.009   5.638
10374TIP3    H131075   5.995   6.017   5.689
10374TIP3    H231076   6.052   6.043   5.552
10375TIP3   OH231077   6.515   6.056   5.406
10375TIP3    H131078   6.426   6.057   5.370
10375TIP3    H231079   6.519   6.131   5.465
10376TIP3   OH231080   6.761   6.020   5.528
10376TIP3    H131081   6.679   6.027   5.479
10376TIP3    H231082   6.821   6.079   5.482
10377TIP3   OH231083   6.958   6.163   5.391
10377TIP3    H131084   6.968   6.254   5.362
10377TIP3    H231085   6.991   6.111   5.318
10378TIP3   OH231086   5.776   5.828   5.506
10378TIP3    H131087   5.783   5.807   5.599
10378TIP3    H231088   5.857   5.795   5.468
10379TIP3   OH231089   5.994   5.711   5.388
10379TIP3    H131090   6.002   5.626   5.432
10379TIP3    H231091   6.080   5.752   5.400
10380TIP3   OH231092   6.256   5.808   5.408
10380TIP3    H131093   6.277   5.717   5.389
10380TIP3    H231094   6.309   5.829   5.486
10381TIP3   OH231095   6.784   4.451   5.494
10381TIP3    H131096   6.747   4.382   5.550
10381TIP3    H231097   6.850   4.407   5.441
10382TIP3   OH231098   7.285   4.364   5.371
10382TIP3    H131099   7.333   4.411   5.302
10382TIP3    H231100   7.207   4.418   5.385
10383TIP3   OH231101   7.410   4.446   5.144
10383TIP3    H131102   7.477   4.381   5.122
10383TIP3    H231103   7.452   4.531   5.126
10384TIP3   OH231104   6.036   4.151   5.491
10384TIP3    H131105   5.947   4.118   5.503
10384TIP3    H231106   6.090   4.072   5.486
10385TIP3   OH231107   5.847   4.057   5.144
10385TIP3    H131108   5.875   4.112   5.070
10385TIP3    H231109   5.812   4.119   5.208
10386TIP3   OH231110   6.521   4.184   5.391
10386TIP3    H131111   6.563   4.237   5.324
10386TIP3    H231112   6.557   4.216   5.474
10387TIP3   OH231113   6.987   4.328   5.359
10387TIP3    H131114   7.033   4.301   5.280
10387TIP3    H231115   7.000   4.257   5.420
10388TIP3   OH231116   7.063   4.290   4.933
10388TIP3    H131117   6.985   4.337   4.961
10388TIP3    H231118   7.052   4.202   4.971
10389TIP3   OH231119   5.561   5.617   4.890
10389TIP3    H131120   5.476   5.574   4.892
10389TIP3    H231121   5.541   5.711   4.888
10390TIP3   OH231122   5.966   4.195   4.911
10390TIP3    H131123   6.019   4.133   4.862
10390TIP3    H231124   6.030   4.251   4.956
10391TIP3   OH231125   6.449   4.381   4.991
10391TIP3    H131126   6.503   4.330   5.052
10391TIP3    H231127   6.460   4.471   5.019
10392TIP3   OH231128   6.316   5.806   4.482
10392TIP3    H131129   6.405   5.825   4.453
10392TIP3    H231130   6.289   5.729   4.431
10393TIP3   OH231131   6.271   4.377   6.368
10393TIP3    H131132   6.235   4.320   6.436
10393TIP3    H231133   6.365   4.379   6.387
10394TIP3   OH231134   3.893   0.649   0.017
10394TIP3    H131135   3.966   0.651  -0.044
10394TIP3    H231136   3.918   0.584   0.083
10395TIP3   OH231137   5.624   5.660   4.611
10395TIP3    H131138   5.622   5.643   4.705
10395TIP3    H231139   5.715   5.645   4.585
10396TIP3   OH231140   7.322   4.529   6.282
10396TIP3    H131141   7.339   4.505   6.373
10396TIP3    H231142   7.406   4.518   6.238
10397TIP3   OH231143   7.811   5.277   5.288
10397TIP3    H131144   7.848   5.231   5.363
10397TIP3    H231145   7.885   5.323   5.248
10398TIP3   OH231146   7.734   5.716   5.051
10398TIP3    H131147   7.740   5.628   5.014
10398TIP3    H231148   7.779   5.710   5.135
10399TIP3   OH231149   7.477   4.950   4.764
10399TIP3    H131150   7.434   5.031   4.791
10399TIP3    H231151   7.406   4.896   4.728
10400TIP3   OH231152   7.569   5.271   4.977
10400TIP3    H131153   7.613   5.193   5.010
10400TIP3    H231154   7.639   5.334   4.961
10401TIP3   OH231155   0.149   4.859   5.015
10401TIP3    H131156   0.133   4.905   4.932
10401TIP3    H231157   0.113   4.772   5.001
10402TIP3   OH231158   7.680   5.050   5.091
10402TIP3    H131159   7.757   5.032   5.145
10402TIP3    H231160   7.697   5.004   5.009
10403TIP3   OH231161   0.203   5.216   4.947
10403TIP3    H131162   0.288   5.196   4.984
10403TIP3    H231163   0.169   5.132   4.917
10404TIP3   OH231164   0.131   4.836   5.421
10404TIP3    H131165   0.070   4.888   5.368
10404TIP3    H231166   0.095   4.840   5.510
10405TIP3   OH231167   0.006   4.962   5.216
10405TIP3    H131168   0.064   5.033   5.242
10405TIP3    H231169   0.054   4.916   5.147
10406TIP3   OH231170   7.394   5.495   4.534
10406TIP3    H131171   7.359   5.507   4.446
10406TIP3    H231172   7.418   5.583   4.563
10407TIP3   OH231173   0.624   4.462   5.025
10407TIP3    H131174   0.681   4.439   5.098
10407TIP3    H231175   0.563   4.525   5.061
10408TIP3   OH231176   0.375   5.232   4.244
10408TIP3    H131177   0.329   5.309   4.277
10408TIP3    H231178   0.420   5.196   4.321
10409TIP3   OH231179   0.036   5.358   4.758
10409TIP3    H131180  -0.002   5.299   4.693
10409TIP3    H231181   0.100   5.303   4.806
10410TIP3   OH231182   0.127   5.384   5.144
10410TIP3    H131183   0.147   5.330   5.068
10410TIP3    H231184   0.208   5.430   5.163
10411TIP3   OH231185   7.804   5.199   4.566
10411TIP3    H131186   7.725   5.244   4.535
10411TIP3    H231187   7.774   5.110   4.587
10412TIP3   OH231188   7.635   5.594   5.428
10412TIP3    H131189   7.542   5.590   5.405
10412TIP3    H231190   7.647   5.527   5.495
10413TIP3   OH231191   7.449   5.761   5.093
10413TIP3    H131192   7.545   5.757   5.090
10413TIP3    H231193   7.430   5.848   5.128
10414TIP3   OH231194   0.210   6.272   4.222
10414TIP3    H131195   0.227   6.197   4.166
10414TIP3    H231196   0.292   6.284   4.270
10415TIP3   OH231197   7.604   5.990   4.631
10415TIP3    H131198   7.646   5.969   4.714
10415TIP3    H231199   7.555   5.910   4.609
10416TIP3   OH231200   0.197   4.626   5.257
10416TIP3    H131201   0.114   4.582   5.243
10416TIP3    H231202   0.179   4.690   5.326
10417TIP3   OH231203   0.206   5.139   5.285
10417TIP3    H131204   0.168   5.147   5.372
10417TIP3    H231205   0.204   5.229   5.250
10418TIP3   OH231206   0.088   5.018   4.798
10418TIP3    H131207  -0.005   5.011   4.820
10418TIP3    H231208   0.094   4.982   4.709
10419TIP3   OH231209   0.041   5.145   5.507
10419TIP3    H131210   0.011   5.208   5.573
10419TIP3    H231211   0.032   5.060   5.550
10420TIP3   OH231212   7.934   4.631   4.239
10420TIP3    H131213   7.923   4.623   4.333
10420TIP3    H231214   7.845   4.642   4.205
10421TIP3   OH231215   7.537   4.671   5.063
10421TIP3    H131216   7.592   4.711   5.130
10421TIP3    H231217   7.589   4.676   4.983
10422TIP3   OH231218   7.458   4.648   4.584
10422TIP3    H131219   7.504   4.681   4.507
10422TIP3    H231220   7.394   4.716   4.605
10423TIP3   OH231221   0.523   4.775   4.843
10423TIP3    H131222   0.490   4.686   4.836
10423TIP3    H231223   0.615   4.764   4.867
10424TIP3   OH231224   7.732   4.942   4.847
10424TIP3    H131225   7.644   4.945   4.811
10424TIP3    H231226   7.753   4.849   4.853
10425TIP3   OH231227   0.054   4.906   4.548
10425TIP3    H131228   0.133   4.938   4.505
10425TIP3    H231229  -0.014   4.913   4.481
10426TIP3   OH231230   7.823   4.917   4.311
10426TIP3    H131231   7.743   4.880   4.273
10426TIP3    H231232   7.892   4.889   4.251
10427TIP3   OH231233   0.464   5.178   5.072
10427TIP3    H131234   0.541   5.170   5.017
10427TIP3    H231235   0.446   5.088   5.102
10428TIP3   OH231236   7.810   4.686   4.871
10428TIP3    H131237   7.793   4.595   4.895
10428TIP3    H231238   7.881   4.681   4.807
10429TIP3   OH231239   0.201   5.426   4.323
10429TIP3    H131240   0.116   5.382   4.314
10429TIP3    H231241   0.197   5.468   4.409
10430TIP3   OH231242   7.795   5.449   4.978
10430TIP3    H131243   7.837   5.430   4.894
10430TIP3    H231244   7.861   5.430   5.044
10431TIP3   OH231245   0.258   5.578   4.100
10431TIP3    H131246   0.257   5.671   4.123
10431TIP3    H231247   0.240   5.533   4.182
10432TIP3   OH231248   7.637   5.379   5.618
10432TIP3    H131249   7.621   5.361   5.711
10432TIP3    H231250   7.569   5.330   5.572
10433TIP3   OH231251   7.895   5.770   4.603
10433TIP3    H131252   7.891   5.851   4.552
10433TIP3    H231253   7.833   5.784   4.675
10434TIP3   OH231254   7.495   5.066   4.362
10434TIP3    H131255   7.539   5.149   4.383
10434TIP3    H231256   7.413   5.069   4.412
10435TIP3   OH231257   0.130   5.535   4.560
10435TIP3    H131258   0.094   5.622   4.578
10435TIP3    H231259   0.105   5.482   4.635
10436TIP3   OH231260   7.833   6.014   4.479
10436TIP3    H131261   7.747   6.019   4.521
10436TIP3    H231262   7.865   6.105   4.480
10437TIP3   OH231263   7.893   4.905   5.652
10437TIP3    H131264   7.798   4.909   5.662
10437TIP3    H231265   7.923   4.851   5.725
10438TIP3   OH231266   7.855   5.636   3.981
10438TIP3    H131267   7.906   5.571   3.933
10438TIP3    H231268   7.860   5.608   4.072
10439TIP3   OH231269   7.849   5.622   4.262
10439TIP3    H131270   7.898   5.602   4.342
10439TIP3    H231271   7.856   5.716   4.252
10440TIP3   OH231272   7.586   5.316   4.445
10440TIP3    H131273   7.522   5.367   4.496
10440TIP3    H231274   7.607   5.373   4.370
10441TIP3   OH231275   0.253   5.840   4.199
10441TIP3    H131276   0.162   5.851   4.225
10441TIP3    H231277   0.268   5.909   4.135
10442TIP3   OH231278   0.374   4.840   4.621
10442TIP3    H131279   0.423   4.910   4.577
10442TIP3    H231280   0.425   4.821   4.700
10443TIP3   OH231281   7.884   5.892   4.238
10443TIP3    H131282   7.863   5.957   4.170
10443TIP3    H231283   7.862   5.935   4.320
10444TIP3   OH231284   0.037   4.631   4.514
10444TIP3    H131285   0.035   4.724   4.540
10444TIP3    H231286   0.127   4.604   4.528
10445TIP3   OH231287   7.597   5.505   4.235
10445TIP3    H131288   7.672   5.562   4.250
10445TIP3    H231289   7.626   5.446   4.166
10446TIP3   OH231290   7.515   4.792   4.354
10446TIP3    H131291   7.523   4.887   4.365
10446TIP3    H231292   7.435   4.780   4.302
10447TIP3   OH231293   7.852   4.505   5.222
10447TIP3    H131294   7.825   4.472   5.137
10447TIP3    H231295   7.850   4.428   5.280
10448TIP3   OH231296   7.434   5.763   4.602
10448TIP3    H131297   7.403   5.789   4.689
10448TIP3    H231298   7.380   5.812   4.541
10449TIP3   OH231299   0.123   5.834   3.877
10449TIP3    H131300   0.056   5.793   3.932
10449TIP3    H231301   0.131   5.775   3.802
10450TIP3   OH231302   7.710   5.315   4.078
10450TIP3    H131303   7.766   5.297   4.154
10450TIP3    H231304   7.770   5.318   4.004
10451TIP3   OH231305   0.187   5.510   3.846
10451TIP3    H131306   0.215   5.537   3.933
10451TIP3    H231307   0.237   5.430   3.829
10452TIP3   OH231308   7.877   5.265   4.298
10452TIP3    H131309   7.858   5.236   4.388
10452TIP3    H231310   7.921   5.191   4.257
10453TIP3   OH231311   0.142   5.093   4.156
10453TIP3    H131312   0.109   5.016   4.110
10453TIP3    H231313   0.174   5.059   4.240
10454TIP3   OH231314   0.405   4.845   5.374
10454TIP3    H131315   0.399   4.859   5.279
10454TIP3    H231316   0.314   4.831   5.401
10455TIP3   OH231317   0.539   4.729   5.600
10455TIP3    H131318   0.533   4.744   5.506
10455TIP3    H231319   0.568   4.638   5.608
10456TIP3   OH231320   7.854   6.108   4.067
10456TIP3    H131321   7.893   6.189   4.101
10456TIP3    H231322   7.819   6.133   3.982
10457TIP3   OH231323   7.324   5.489   4.258
10457TIP3    H131324   7.418   5.506   4.247
10457TIP3    H231325   7.309   5.406   4.212
10458TIP3   OH231326   7.245   6.064   4.681
10458TIP3    H131327   7.242   6.024   4.594
10458TIP3    H231328   7.273   5.994   4.739
10459TIP3   OH231329   7.368   5.876   4.848
10459TIP3    H131330   7.367   5.809   4.917
10459TIP3    H231331   7.420   5.947   4.884
10460TIP3   OH231332   7.548   5.339   5.240
10460TIP3    H131333   7.541   5.316   5.148
10460TIP3    H231334   7.641   5.329   5.260
10461TIP3   OH231335   7.717   4.746   5.257
10461TIP3    H131336   7.769   4.666   5.257
10461TIP3    H231337   7.781   4.817   5.254
10462TIP3   OH231338   7.513   5.004   5.308
10462TIP3    H131339   7.565   5.013   5.228
10462TIP3    H231340   7.532   5.083   5.358
10463TIP3   OH231341   7.520   4.498   4.807
10463TIP3    H131342   7.434   4.498   4.850
10463TIP3    H231343   7.510   4.558   4.733
10464TIP3   OH231344   7.740   4.572   5.631
10464TIP3    H131345   7.692   4.570   5.713
10464TIP3    H231346   7.682   4.617   5.570
10465TIP3   OH231347   7.742   5.915   4.856
10465TIP3    H131348   7.735   5.845   4.921
10465TIP3    H231349   7.811   5.972   4.890
10466TIP3   OH231350   7.789   4.425   4.952
10466TIP3    H131351   7.697   4.401   4.952
10466TIP3    H231352   7.836   4.343   4.967
10467TIP3   OH231353   7.633   4.300   4.652
10467TIP3    H131354   7.666   4.352   4.579
10467TIP3    H231355   7.598   4.364   4.714
10468TIP3   OH231356   0.437   4.520   4.798
10468TIP3    H131357   0.522   4.483   4.774
10468TIP3    H231358   0.411   4.473   4.877
10469TIP3   OH231359   7.280   5.922   4.442
10469TIP3    H131360   7.208   5.882   4.392
10469TIP3    H231361   7.308   5.996   4.388
10470TIP3   OH231362   7.739   4.453   4.433
10470TIP3    H131363   7.795   4.388   4.391
10470TIP3    H231364   7.800   4.513   4.476
10471TIP3   OH231365   0.306   4.575   4.556
10471TIP3    H131366   0.352   4.540   4.632
10471TIP3    H231367   0.337   4.666   4.550
10472TIP3   OH231368   0.245   6.063   4.033
10472TIP3    H131369   0.293   6.096   3.958
10472TIP3    H231370   0.163   6.030   3.997
10473TIP3   OH231371   0.185   4.689   5.839
10473TIP3    H131372   0.147   4.641   5.912
10473TIP3    H231373   0.273   4.711   5.869
10474TIP3   OH231374   7.405   5.881   4.074
10474TIP3    H131375   7.424   5.939   4.147
10474TIP3    H231376   7.491   5.845   4.049
10475TIP3   OH231377   0.965   6.205   6.202
10475TIP3    H131378   0.943   6.292   6.169
10475TIP3    H231379   0.950   6.211   6.296
10476TIP3   OH231380   6.201   2.526   0.020
10476TIP3    H131381   6.221   2.592   0.087
10476TIP3    H231382   6.140   2.466   0.063
10477TIP3   OH231383   1.225   6.541   6.263
10477TIP3    H131384   1.223   6.461   6.316
10477TIP3    H231385   1.240   6.611   6.327
10478TIP3   OH231386   7.091   2.027   0.194
10478TIP3    H131387   7.117   2.106   0.240
10478TIP3    H231388   7.126   2.038   0.106
10479TIP3   OH231389   6.493   2.131   0.212
10479TIP3    H131390   6.583   2.099   0.219
10479TIP3    H231391   6.464   2.103   0.126
10480TIP3   OH231392   1.239   5.681   6.251
10480TIP3    H131393   1.306   5.671   6.319
10480TIP3    H231394   1.286   5.716   6.176
10481TIP3   OH231395   7.180   2.238   0.355
10481TIP3    H131396   7.096   2.281   0.340
10481TIP3    H231397   7.213   2.276   0.436
10482TIP3   OH231398   0.924   6.471   6.135
10482TIP3    H131399   0.991   6.506   6.076
10482TIP3    H231400   0.913   6.539   6.202
10483TIP3   OH231401   6.687   1.975  -0.004
10483TIP3    H131402   6.699   1.947   0.087
10483TIP3    H231403   6.751   2.045  -0.016
10484TIP3   OH231404   6.536   3.018  -0.003
10484TIP3    H131405   6.602   3.032   0.065
10484TIP3    H231406   6.533   3.100  -0.052
10485TIP3   OH231407   6.905   1.881   0.355
10485TIP3    H131408   6.821   1.879   0.311
10485TIP3    H231409   6.965   1.919   0.291
10486TIP3   OH231410   6.159   1.548   0.359
10486TIP3    H131411   6.142   1.456   0.376
10486TIP3    H231412   6.131   1.594   0.438
10487TIP3   OH231413   1.017   6.802   6.082
10487TIP3    H131414   1.074   6.728   6.062
10487TIP3    H231415   1.077   6.874   6.101
10488TIP3   OH231416   1.155   6.573   6.004
10488TIP3    H131417   1.176   6.491   5.958
10488TIP3    H231418   1.194   6.561   6.091
10489TIP3   OH231419   6.790   2.928   0.488
10489TIP3    H131420   6.847   2.910   0.413
10489TIP3    H231421   6.745   3.009   0.465
10490TIP3   OH231422   7.028   2.561   0.121
10490TIP3    H131423   6.935   2.583   0.114
10490TIP3    H231424   7.070   2.612   0.052
10491TIP3   OH231425   1.163   6.142   6.017
10491TIP3    H131426   1.101   6.163   6.087
10491TIP3    H231427   1.243   6.115   6.063
10492TIP3   OH231428   6.687   2.443   0.405
10492TIP3    H131429   6.686   2.514   0.470
10492TIP3    H231430   6.641   2.479   0.330
10493TIP3   OH231431   1.508   5.250   5.924
10493TIP3    H131432   1.431   5.269   5.979
10493TIP3    H231433   1.517   5.327   5.868
10494TIP3   OH231434   1.330   6.614   5.482
10494TIP3    H131435   1.329   6.708   5.461
10494TIP3    H231436   1.418   6.586   5.460
10495TIP3   OH231437   0.856   6.845   5.584
10495TIP3    H131438   0.914   6.773   5.558
10495TIP3    H231439   0.877   6.861   5.676
10496TIP3   OH231440   0.903   6.909   5.853
10496TIP3    H131441   0.825   6.896   5.907
10496TIP3    H231442   0.976   6.880   5.907
10497TIP3   OH231443   6.802   2.456   0.692
10497TIP3    H131444   6.878   2.429   0.640
10497TIP3    H231445   6.832   2.451   0.782
10498TIP3   OH231446   6.444   1.686   0.678
10498TIP3    H131447   6.532   1.720   0.658
10498TIP3    H231448   6.387   1.763   0.675
10499TIP3   OH231449   6.694   2.191   0.512
10499TIP3    H131450   6.602   2.173   0.532
10499TIP3    H231451   6.693   2.277   0.470
10500TIP3   OH231452   1.045   6.089   5.600
10500TIP3    H131453   1.044   6.034   5.522
10500TIP3    H231454   1.137   6.114   5.610
10501TIP3   OH231455   0.755   5.435   5.896
10501TIP3    H131456   0.746   5.445   5.991
10501TIP3    H231457   0.712   5.352   5.876
10502TIP3   OH231458   0.965   5.926   6.188
10502TIP3    H131459   0.955   6.020   6.178
10502TIP3    H231460   1.012   5.898   6.110
10503TIP3   OH231461   1.103   5.853   6.414
10503TIP3    H131462   1.043   5.893   6.351
10503TIP3    H231463   1.144   5.781   6.365
10504TIP3   OH231464   6.388   2.514   0.485
10504TIP3    H131465   6.377   2.468   0.402
10504TIP3    H231466   6.343   2.598   0.472
10505TIP3   OH231467   6.064   1.906   0.031
10505TIP3    H131468   5.972   1.927   0.051
10505TIP3    H231469   6.114   1.953   0.098
10506TIP3   OH231470   6.642   1.859   0.246
10506TIP3    H131471   6.589   1.879   0.323
10506TIP3    H231472   6.589   1.798   0.195
10507TIP3   OH231473   6.197   2.097   0.185
10507TIP3    H131474   6.249   2.123   0.109
10507TIP3    H231475   6.263   2.069   0.249
10508TIP3   OH231476   6.131   2.054   0.507
10508TIP3    H131477   6.055   2.095   0.465
10508TIP3    H231478   6.165   2.122   0.566
10509TIP3   OH231479   6.781   2.658   0.060
10509TIP3    H131480   6.804   2.746   0.032
10509TIP3    H231481   6.688   2.649   0.039
10510TIP3   OH231482   1.013   5.549   5.928
10510TIP3    H131483   0.919   5.533   5.918
10510TIP3    H231484   1.020   5.644   5.938
10511TIP3   OH231485   1.115   5.825   5.970
10511TIP3    H131486   1.204   5.799   5.993
10511TIP3    H231487   1.126   5.896   5.907
10512TIP3   OH231488   1.511   5.882   5.808
10512TIP3    H131489   1.448   5.841   5.749
10512TIP3    H231490   1.522   5.971   5.775
10513TIP3   OH231491   7.045   3.099   0.365
10513TIP3    H131492   7.044   3.095   0.460
10513TIP3    H231493   7.133   3.130   0.343
10514TIP3   OH231494   1.212   6.688   5.724
10514TIP3    H131495   1.218   6.634   5.803
10514TIP3    H231496   1.269   6.645   5.661
10515TIP3   OH231497   1.208   6.310   6.416
10515TIP3    H131498   1.114   6.293   6.422
10515TIP3    H231499   1.248   6.224   6.405
10516TIP3   OH231500   6.266   2.716   0.205
10516TIP3    H131501   6.250   2.709   0.299
10516TIP3    H231502   6.302   2.805   0.193
10517TIP3   OH231503   1.007   6.382   5.658
10517TIP3    H131504   1.076   6.371   5.723
10517TIP3    H231505   0.976   6.472   5.671
10518TIP3   OH231506   1.327   6.884   5.446
10518TIP3    H131507   1.336   6.933   5.365
10518TIP3    H231508   1.267   6.936   5.499
10519TIP3   OH231509   1.201   6.352   5.848
10519TIP3    H131510   1.184   6.274   5.901
10519TIP3    H231511   1.295   6.350   5.833
10520TIP3   OH231512   6.487   1.916   0.463
10520TIP3    H131513   6.480   1.982   0.532
10520TIP3    H231514   6.400   1.876   0.459
10521TIP3   OH231515   1.086   5.464   6.185
10521TIP3    H131516   1.053   5.485   6.098
10521TIP3    H231517   1.132   5.543   6.213
10522TIP3   OH231518   0.828   5.686   6.217
10522TIP3    H131519   0.868   5.773   6.206
10522TIP3    H231520   0.818   5.676   6.311
10523TIP3   OH231521   6.251   2.213   0.699
10523TIP3    H131522   6.253   2.307   0.719
10523TIP3    H231523   6.337   2.194   0.663
10524TIP3   OH231524   0.905   5.383   6.381
10524TIP3    H131525   0.879   5.466   6.422
10524TIP3    H231526   0.972   5.409   6.318
10525TIP3   OH231527   6.951   2.074   0.551
10525TIP3    H131528   6.859   2.098   0.563
10525TIP3    H231529   6.948   2.003   0.486
10526TIP3   OH231530   1.304   6.055   6.411
10526TIP3    H131531   1.242   5.983   6.425
10526TIP3    H231532   1.389   6.020   6.437
10527TIP3   OH231533   1.287   6.976   6.306
10527TIP3    H131534   1.252   6.996   6.220
10527TIP3    H231535   1.372   7.022   6.309
10528TIP3   OH231536   1.012   6.631   5.473
10528TIP3    H131537   1.098   6.647   5.512
10528TIP3    H231538   1.025   6.642   5.379
10529TIP3   OH231539   0.732   6.295   5.611
10529TIP3    H131540   0.665   6.332   5.668
10529TIP3    H231541   0.740   6.358   5.540
10530TIP3   OH231542   1.302   6.138   5.506
10530TIP3    H131543   1.292   6.091   5.424
10530TIP3    H231544   1.275   6.228   5.486
10531TIP3   OH231545   6.128   1.637   0.618
10531TIP3    H131546   6.180   1.713   0.642
10531TIP3    H231547   6.094   1.603   0.701
10532TIP3   OH231548   6.520   2.058   0.698
10532TIP3    H131549   6.468   2.027   0.772
10532TIP3    H231550   6.600   2.092   0.737
10533TIP3   OH231551   6.858   2.091   1.084
10533TIP3    H131552   6.869   1.996   1.075
10533TIP3    H231553   6.779   2.100   1.138
10534TIP3   OH231554   6.249   1.542   1.036
10534TIP3    H131555   6.314   1.472   1.042
10534TIP3    H231556   6.209   1.545   1.122
10535TIP3   OH231557   6.320   2.026   1.206
10535TIP3    H131558   6.364   1.942   1.219
10535TIP3    H231559   6.265   2.013   1.129
10536TIP3   OH231560   1.542   7.098   6.330
10536TIP3    H131561   1.529   7.159   6.403
10536TIP3    H231562   1.602   7.143   6.271
10537TIP3   OH231563   1.472   6.350   5.827
10537TIP3    H131564   1.532   6.418   5.795
10537TIP3    H231565   1.519   6.310   5.900
10538TIP3   OH231566   1.595   6.204   6.024
10538TIP3    H131567   1.531   6.161   6.080
10538TIP3    H231568   1.662   6.236   6.084
10539TIP3   OH231569   1.639   6.615   6.438
10539TIP3    H131570   1.710   6.561   6.403
10539TIP3    H231571   1.642   6.696   6.387
10540TIP3   OH231572   1.513   6.122   5.677
10540TIP3    H131573   1.440   6.120   5.615
10540TIP3    H231574   1.497   6.201   5.729
10541TIP3   OH231575   1.337   5.784   5.622
10541TIP3    H131576   1.313   5.811   5.534
10541TIP3    H231577   1.333   5.689   5.620
10542TIP3   OH231578   1.391   6.053   6.148
10542TIP3    H131579   1.405   5.960   6.132
10542TIP3    H231580   1.372   6.058   6.242
10543TIP3   OH231581   7.012   2.770   0.623
10543TIP3    H131582   7.025   2.710   0.549
10543TIP3    H231583   6.922   2.801   0.613
10544TIP3   OH231584   7.202   2.548   0.518
10544TIP3    H131585   7.111   2.518   0.514
10544TIP3    H231586   7.250   2.473   0.553
10545TIP3   OH231587   1.314   5.514   5.599
10545TIP3    H131588   1.386   5.481   5.652
10545TIP3    H231589   1.237   5.466   5.628
10546TIP3   OH231590   1.392   5.780   6.040
10546TIP3    H131591   1.439   5.699   6.057
10546TIP3    H231592   1.436   5.818   5.964
10547TIP3   OH231593   6.815   2.219  -0.001
10547TIP3    H131594   6.906   2.247  -0.017
10547TIP3    H231595   6.814   2.193   0.091
10548TIP3   OH231596   6.940   2.357   0.295
10548TIP3    H131597   6.876   2.402   0.349
10548TIP3    H231598   6.976   2.425   0.238
10549TIP3   OH231599   7.379   1.988   0.871
10549TIP3    H131600   7.439   1.923   0.834
10549TIP3    H231601   7.341   2.032   0.794
10550TIP3   OH231602   1.503   5.535   6.101
10550TIP3    H131603   1.551   5.522   6.183
10550TIP3    H231604   1.441   5.462   6.097
10551TIP3   OH231605   7.202   2.088   0.684
10551TIP3    H131606   7.145   2.111   0.758
10551TIP3    H231607   7.143   2.045   0.622
10552TIP3   OH231608   1.546   5.452   5.740
10552TIP3    H131609   1.593   5.391   5.684
10552TIP3    H231610   1.603   5.529   5.746
10553TIP3   OH231611   1.193   7.019   6.044
10553TIP3    H131612   1.224   6.983   5.961
10553TIP3    H231613   1.200   7.114   6.033
10554TIP3   OH231614   7.121   1.810   0.564
10554TIP3    H131615   7.035   1.796   0.526
10554TIP3    H231616   7.166   1.726   0.555
10555TIP3   OH231617   6.300   1.755   0.231
10555TIP3    H131618   6.263   1.672   0.261
10555TIP3    H231619   6.369   1.729   0.169
10556TIP3   OH231620   6.829   1.668   0.096
10556TIP3    H131621   6.867   1.719   0.024
10556TIP3    H231622   6.746   1.711   0.114
10557TIP3   OH231623   1.668   5.491   6.317
10557TIP3    H131624   1.737   5.429   6.295
10557TIP3    H231625   1.707   5.577   6.303
10558TIP3   OH231626   6.033   1.498   0.112
10558TIP3    H131627   6.075   1.555   0.048
10558TIP3    H231628   6.067   1.528   0.197
10559TIP3   OH231629   6.525   1.671   0.082
10559TIP3    H131630   6.538   1.643  -0.009
10559TIP3    H231631   6.529   1.589   0.132
10560TIP3   OH231632   1.317   5.325   6.109
10560TIP3    H131633   1.233   5.368   6.130
10560TIP3    H231634   1.310   5.239   6.150
10561TIP3   OH231635   0.730   5.439   6.162
10561TIP3    H131636   0.763   5.389   6.237
10561TIP3    H231637   0.756   5.529   6.180
10562TIP3   OH231638   1.275   6.948   5.787
10562TIP3    H131639   1.256   6.857   5.766
10562TIP3    H231640   1.243   6.998   5.712
10563TIP3   OH231641   6.951   1.845   1.018
10563TIP3    H131642   6.985   1.809   1.100
10563TIP3    H231643   7.023   1.834   0.956
10564TIP3   OH231644   2.779   6.496   5.705
10564TIP3    H131645   2.748   6.583   5.680
10564TIP3    H231646   2.707   6.437   5.681
10565TIP3   OH231647   2.773   6.482   6.132
10565TIP3    H131648   2.825   6.468   6.210
10565TIP3    H231649   2.730   6.398   6.117
10566TIP3   OH231650   7.345   2.618   0.013
10566TIP3    H131651   7.375   2.564   0.087
10566TIP3    H231652   7.424   2.638  -0.036
10567TIP3   OH231653   3.042   6.796   5.803
10567TIP3    H131654   3.030   6.732   5.874
10567TIP3    H231655   3.060   6.878   5.848
10568TIP3   OH231656   2.073   6.783   6.190
10568TIP3    H131657   2.053   6.690   6.187
10568TIP3    H231658   2.166   6.788   6.170
10569TIP3   OH231659   1.750   5.978   5.943
10569TIP3    H131660   1.710   6.062   5.968
10569TIP3    H231661   1.677   5.928   5.906
10570TIP3   OH231662   1.833   6.284   6.151
10570TIP3    H131663   1.881   6.210   6.186
10570TIP3    H231664   1.898   6.334   6.101
10571TIP3   OH231665   2.696   7.231   5.825
10571TIP3    H131666   2.729   7.166   5.763
10571TIP3    H231667   2.698   7.187   5.910
10572TIP3   OH231668   2.584   6.704   6.137
10572TIP3    H131669   2.628   6.624   6.110
10572TIP3    H231670   2.654   6.762   6.167
10573TIP3   OH231671   3.614   6.029   6.156
10573TIP3    H131672   3.632   6.112   6.200
10573TIP3    H231673   3.632   6.046   6.063
10574TIP3   OH231674   2.988   6.193   6.172
10574TIP3    H131675   3.021   6.108   6.201
10574TIP3    H231676   2.950   6.176   6.086
10575TIP3   OH231677   2.345   5.852   6.128
10575TIP3    H131678   2.323   5.925   6.070
10575TIP3    H231679   2.289   5.780   6.100
10576TIP3   OH231680   3.041   5.955   5.768
10576TIP3    H131681   3.103   5.949   5.841
10576TIP3    H231682   3.092   5.989   5.695
10577TIP3   OH231683   1.986   6.076   6.247
10577TIP3    H131684   2.066   6.053   6.293
10577TIP3    H231685   1.986   6.020   6.169
10578TIP3   OH231686   2.389   6.268   6.074
10578TIP3    H131687   2.484   6.252   6.082
10578TIP3    H231688   2.354   6.185   6.041
10579TIP3   OH231689   3.671   6.249   6.317
10579TIP3    H131690   3.582   6.284   6.313
10579TIP3    H231691   3.707   6.284   6.398
10580TIP3   OH231692   7.608   2.130   0.121
10580TIP3    H131693   7.551   2.166   0.054
10580TIP3    H231694   7.559   2.141   0.203
10581TIP3   OH231695   2.677   6.714   5.568
10581TIP3    H131696   2.636   6.683   5.487
10581TIP3    H231697   2.624   6.790   5.594
10582TIP3   OH231698   2.422   6.633   6.349
10582TIP3    H131699   2.371   6.706   6.384
10582TIP3    H231700   2.472   6.670   6.277
10583TIP3   OH231701   3.198   5.978   5.991
10583TIP3    H131702   3.156   5.955   6.073
10583TIP3    H231703   3.253   6.053   6.012
10584TIP3   OH231704   2.218   5.962   6.350
10584TIP3    H131705   2.274   6.035   6.374
10584TIP3    H231706   2.266   5.918   6.279
10585TIP3   OH231707   7.539   3.115   0.008
10585TIP3    H131708   7.524   3.202  -0.029
10585TIP3    H231709   7.467   3.102   0.069
10586TIP3   OH231710   1.639   6.537   5.708
10586TIP3    H131711   1.612   6.555   5.618
10586TIP3    H231712   1.665   6.622   5.743
10587TIP3   OH231713   3.070   7.053   5.931
10587TIP3    H131714   2.984   7.040   5.970
10587TIP3    H231715   3.063   7.135   5.882
10588TIP3   OH231716   3.415   5.918   6.324
10588TIP3    H131717   3.330   5.939   6.287
10588TIP3    H231718   3.478   5.945   6.258
10589TIP3   OH231719   2.672   5.555   6.309
10589TIP3    H131720   2.663   5.464   6.339
10589TIP3    H231721   2.594   5.599   6.342
10590TIP3   OH231722   2.798   7.059   5.635
10590TIP3    H131723   2.845   6.977   5.617
10590TIP3    H231724   2.848   7.126   5.588
10591TIP3   OH231725   2.931   6.830   5.552
10591TIP3    H131726   2.853   6.775   5.555
10591TIP3    H231727   2.979   6.810   5.633
10592TIP3   OH231728   3.311   6.928   6.286
10592TIP3    H131729   3.294   6.853   6.229
10592TIP3    H231730   3.291   7.005   6.232
10593TIP3   OH231731   2.603   6.332   5.561
10593TIP3    H131732   2.520   6.375   5.541
10593TIP3    H231733   2.650   6.331   5.478
10594TIP3   OH231734   2.570   6.142   5.251
10594TIP3    H131735   2.636   6.190   5.301
10594TIP3    H231736   2.619   6.074   5.205
10595TIP3   OH231737   3.495   6.589   6.159
10595TIP3    H131738   3.410   6.633   6.158
10595TIP3    H231739   3.531   6.603   6.072
10596TIP3   OH231740   2.965   6.420   5.520
10596TIP3    H131741   2.910   6.451   5.592
10596TIP3    H231742   3.048   6.395   5.562
10597TIP3   OH231743   0.558   2.724   0.015
10597TIP3    H131744   0.554   2.808   0.061
10597TIP3    H231745   0.476   2.720  -0.034
10598TIP3   OH231746   2.190   6.398   5.925
10598TIP3    H131747   2.155   6.337   5.860
10598TIP3    H231748   2.263   6.352   5.965
10599TIP3   OH231749   2.327   6.816   6.072
10599TIP3    H131750   2.305   6.803   5.979
10599TIP3    H231751   2.415   6.781   6.081
10600TIP3   OH231752   2.295   6.396   6.300
10600TIP3    H131753   2.333   6.360   6.220
10600TIP3    H231754   2.343   6.477   6.316
10601TIP3   OH231755   2.839   7.023   6.070
10601TIP3    H131756   2.830   7.106   6.117
10601TIP3    H231757   2.828   6.955   6.138
10602TIP3   OH231758   7.743   3.200   0.179
10602TIP3    H131759   7.683   3.262   0.220
10602TIP3    H231760   7.687   3.147   0.122
10603TIP3   OH231761   2.793   6.282   5.354
10603TIP3    H131762   2.853   6.339   5.402
10603TIP3    H231763   2.823   6.286   5.264
10604TIP3   OH231764   7.496   2.751   0.308
10604TIP3    H131765   7.507   2.844   0.323
10604TIP3    H231766   7.403   2.740   0.288
10605TIP3   OH231767   2.544   6.952   5.612
10605TIP3    H131768   2.625   6.998   5.631
10605TIP3    H231769   2.492   7.016   5.562
10606TIP3   OH231770   7.517   3.356   0.222
10606TIP3    H131771   7.511   3.389   0.132
10606TIP3    H231772   7.440   3.301   0.234
10607TIP3   OH231773   3.304   5.508   5.414
10607TIP3    H131774   3.227   5.528   5.467
10607TIP3    H231775   3.313   5.584   5.356
10608TIP3   OH231776   2.065   6.239   5.726
10608TIP3    H131777   1.986   6.285   5.696
10608TIP3    H231778   2.036   6.149   5.740
10609TIP3   OH231779   3.130   6.887   4.951
10609TIP3    H131780   3.126   6.983   4.943
10609TIP3    H231781   3.215   6.863   4.915
10610TIP3   OH231782   7.203   2.919   0.130
10610TIP3    H131783   7.169   2.879   0.050
10610TIP3    H231784   7.211   2.847   0.192
10611TIP3   OH231785   1.680   6.852   6.303
10611TIP3    H131786   1.768   6.878   6.332
10611TIP3    H231787   1.624   6.926   6.325
10612TIP3   OH231788   3.534   7.288   6.353
10612TIP3    H131789   3.551   7.197   6.376
10612TIP3    H231790   3.452   7.309   6.397
10613TIP3   OH231791   0.022   3.326   0.014
10613TIP3    H131792   0.026   3.418   0.039
10613TIP3    H231793  -0.041   3.287   0.075
10614TIP3   OH231794   2.440   7.159   5.447
10614TIP3    H131795   2.401   7.148   5.360
10614TIP3    H231796   2.406   7.243   5.478
10615TIP3   OH231797   1.866   7.023   5.821
10615TIP3    H131798   1.911   7.017   5.905
10615TIP3    H231799   1.820   6.940   5.812
10616TIP3   OH231800   2.635   7.100   5.071
10616TIP3    H131801   2.687   7.027   5.037
10616TIP3    H231802   2.668   7.114   5.160
10617TIP3   OH231803   2.696   7.143   5.334
10617TIP3    H131804   2.618   7.139   5.390
10617TIP3    H231805   2.769   7.150   5.396
10618TIP3   OH231806   0.801   2.681   0.177
10618TIP3    H131807   0.718   2.690   0.129
10618TIP3    H231808   0.820   2.587   0.174
10619TIP3   OH231809   7.329   3.145   0.206
10619TIP3    H131810   7.390   3.109   0.270
10619TIP3    H231811   7.277   3.070   0.178
10620TIP3   OH231812   2.432   5.645   6.417
10620TIP3    H131813   2.346   5.607   6.396
10620TIP3    H231814   2.412   5.724   6.467
10621TIP3   OH231815   0.346   2.036   0.188
10621TIP3    H131816   0.413   2.010   0.252
10621TIP3    H231817   0.263   2.024   0.235
10622TIP3   OH231818   0.560   2.460   0.106
10622TIP3    H131819   0.518   2.454   0.192
10622TIP3    H231820   0.543   2.550   0.077
10623TIP3   OH231821   2.874   6.259   5.093
10623TIP3    H131822   2.826   6.263   5.010
10623TIP3    H231823   2.956   6.306   5.075
10624TIP3   OH231824   2.580   5.684   5.410
10624TIP3    H131825   2.544   5.690   5.499
10624TIP3    H231826   2.544   5.601   5.376
10625TIP3   OH231827   7.637   2.447  -0.006
10625TIP3    H131828   7.592   2.454   0.079
10625TIP3    H231829   7.617   2.530  -0.050
10626TIP3   OH231830   2.248   6.053   5.967
10626TIP3    H131831   2.160   6.027   5.992
10626TIP3    H231832   2.259   6.020   5.878
10627TIP3   OH231833   2.725   6.127   5.698
10627TIP3    H131834   2.679   6.200   5.658
10627TIP3    H231835   2.784   6.095   5.629
10628TIP3   OH231836   0.292   2.664   0.313
10628TIP3    H131837   0.264   2.599   0.376
10628TIP3    H231838   0.384   2.679   0.334
10629TIP3   OH231839   2.893   6.139   5.921
10629TIP3    H131840   2.825   6.160   5.858
10629TIP3    H231841   2.941   6.067   5.882
10630TIP3   OH231842   7.472   2.459   0.214
10630TIP3    H131843   7.495   2.522   0.283
10630TIP3    H231844   7.463   2.375   0.261
10631TIP3   OH231845   2.246   5.663   5.385
10631TIP3    H131846   2.238   5.666   5.481
10631TIP3    H231847   2.168   5.707   5.353
10632TIP3   OH231848   1.798   5.714   6.241
10632TIP3    H131849   1.868   5.746   6.297
10632TIP3    H231850   1.841   5.689   6.159
10633TIP3   OH231851   1.699   5.685   5.754
10633TIP3    H131852   1.745   5.720   5.678
10633TIP3    H231853   1.635   5.753   5.777
10634TIP3   OH231854   2.940   6.395   6.346
10634TIP3    H131855   2.963   6.328   6.282
10634TIP3    H231856   2.894   6.348   6.415
10635TIP3   OH231857   2.613   5.842   6.021
10635TIP3    H131858   2.535   5.841   6.077
10635TIP3    H231859   2.686   5.833   6.083
10636TIP3   OH231860   2.011   5.925   6.021
10636TIP3    H131861   1.922   5.928   5.986
10636TIP3    H231862   2.038   5.834   6.010
10637TIP3   OH231863   2.261   5.930   5.722
10637TIP3    H131864   2.356   5.939   5.713
10637TIP3    H231865   2.226   5.947   5.635
10638TIP3   OH231866   3.057   5.930   6.229
10638TIP3    H131867   3.039   5.947   6.322
10638TIP3    H231868   2.989   5.869   6.202
10639TIP3   OH231869   2.147   5.954   5.474
10639TIP3    H131870   2.085   5.904   5.421
10639TIP3    H231871   2.202   6.000   5.410
10640TIP3   OH231872   5.869   0.177   6.437
10640TIP3    H131873   5.864   0.185   6.342
10640TIP3    H231874   5.945   0.231   6.462
10641TIP3   OH231875   7.506   3.024   0.380
10641TIP3    H131876   7.579   3.054   0.433
10641TIP3    H231877   7.433   3.016   0.442
10642TIP3   OH231878   2.660   6.214   6.126
10642TIP3    H131879   2.727   6.164   6.079
10642TIP3    H231880   2.659   6.174   6.213
10643TIP3   OH231881   2.151   5.675   6.019
10643TIP3    H131882   2.124   5.601   6.073
10643TIP3    H231883   2.178   5.636   5.936
10644TIP3   OH231884   2.637   6.119   6.389
10644TIP3    H131885   2.549   6.147   6.415
10644TIP3    H231886   2.696   6.170   6.444
10645TIP3   OH231887   2.364   6.465   5.504
10645TIP3    H131888   2.290   6.411   5.480
10645TIP3    H231889   2.339   6.507   5.586
10646TIP3   OH231890   3.259   6.724   6.109
10646TIP3    H131891   3.295   6.774   6.036
10646TIP3    H231892   3.179   6.684   6.075
10647TIP3   OH231893   2.833   5.786   5.412
10647TIP3    H131894   2.740   5.765   5.409
10647TIP3    H231895   2.835   5.881   5.426
10648TIP3   OH231896   0.143   3.069   0.073
10648TIP3    H131897   0.198   3.068   0.152
10648TIP3    H231898   0.107   3.158   0.070
10649TIP3   OH231899   2.891   6.051   5.483
10649TIP3    H131900   2.985   6.055   5.494
10649TIP3    H231901   2.870   6.129   5.432
10650TIP3   OH231902   2.073   6.500   6.153
10650TIP3    H131903   2.107   6.477   6.067
10650TIP3    H231904   2.137   6.465   6.215
10651TIP3   OH231905   2.521   6.626   5.350
10651TIP3    H131906   2.472   6.709   5.347
10651TIP3    H231907   2.465   6.568   5.402
10652TIP3   OH231908   7.221   2.692   0.287
10652TIP3    H131909   7.217   2.652   0.374
10652TIP3    H231910   7.161   2.641   0.233
10653TIP3   OH231911   0.059   2.813   0.344
10653TIP3    H131912  -0.008   2.755   0.309
10653TIP3    H231913   0.142   2.773   0.317
10654TIP3   OH231914   2.921   7.080   6.374
10654TIP3    H131915   2.827   7.065   6.388
10654TIP3    H231916   2.949   7.127   6.453
10655TIP3   OH231917   3.307   6.136   5.297
10655TIP3    H131918   3.252   6.090   5.234
10655TIP3    H231919   3.313   6.225   5.263
10656TIP3   OH231920   3.555   7.005   6.381
10656TIP3    H131921   3.460   6.994   6.372
10656TIP3    H231922   3.590   6.980   6.296
10657TIP3   OH231923   3.069   6.938   5.240
10657TIP3    H131924   3.025   6.890   5.311
10657TIP3    H231925   3.049   6.887   5.161
10658TIP3   OH231926   3.029   6.593   6.007
10658TIP3    H131927   2.939   6.572   6.033
10658TIP3    H231928   3.062   6.511   5.970
10659TIP3   OH231929   2.188   6.825   5.826
10659TIP3    H131930   2.189   6.902   5.768
10659TIP3    H231931   2.096   6.814   5.848
10660TIP3   OH231932   1.747   6.111   5.533
10660TIP3    H131933   1.791   6.193   5.556
10660TIP3    H231934   1.667   6.111   5.585
10661TIP3   OH231935   2.266   6.580   5.727
10661TIP3    H131936   2.254   6.669   5.759
10661TIP3    H231937   2.242   6.524   5.801
10662TIP3   OH231938   2.466   7.144   6.271
10662TIP3    H131939   2.504   7.220   6.227
10662TIP3    H231940   2.538   7.108   6.323
10663TIP3   OH231941   2.098   7.046   5.676
10663TIP3    H131942   2.011   7.051   5.716
10663TIP3    H231943   2.131   7.136   5.682
10664TIP3   OH231944   2.820   6.803   6.250
10664TIP3    H131945   2.804   6.797   6.344
10664TIP3    H231946   2.905   6.763   6.237
10665TIP3   OH231947   2.817   6.690   5.116
10665TIP3    H131948   2.867   6.657   5.191
10665TIP3    H231949   2.732   6.646   5.122
10666TIP3   OH231950   3.063   7.314   6.282
10666TIP3    H131951   2.991   7.251   6.287
10666TIP3    H231952   3.041   7.369   6.206
10667TIP3   OH231953   3.142   7.164   4.932
10667TIP3    H131954   3.182   7.239   4.888
10667TIP3    H231955   3.059   7.198   4.966
10668TIP3   OH231956   7.454   2.195   0.337
10668TIP3    H131957   7.359   2.193   0.335
10668TIP3    H231958   7.478   2.140   0.411
10669TIP3   OH231959   2.992   6.592   5.303
10669TIP3    H131960   2.973   6.544   5.383
10669TIP3    H231961   3.087   6.602   5.303
10670TIP3   OH231962   1.905   6.989   6.412
10670TIP3    H131963   1.989   6.954   6.382
10670TIP3    H231964   1.912   6.989   6.507
10671TIP3   OH231965   2.164   6.655   5.136
10671TIP3    H131966   2.174   6.564   5.108
10671TIP3    H231967   2.150   6.650   5.231
10672TIP3   OH231968   2.105   6.666   5.409
10672TIP3    H131969   2.173   6.639   5.471
10672TIP3    H231970   2.105   6.762   5.415
10673TIP3   OH231971   1.838   6.361   5.618
10673TIP3    H131972   1.774   6.410   5.669
10673TIP3    H231973   1.860   6.419   5.545
10674TIP3   OH231974   0.370   2.267   0.040
10674TIP3    H131975   0.447   2.314   0.074
10674TIP3    H231976   0.362   2.190   0.097
10675TIP3   OH231977   2.893   5.736   5.681
10675TIP3    H131978   2.872   5.755   5.589
10675TIP3    H231979   2.936   5.816   5.712
10676TIP3   OH231980   2.371   6.851   5.344
10676TIP3    H131981   2.288   6.877   5.384
10676TIP3    H231982   2.400   6.929   5.296
10677TIP3   OH231983   2.540   5.936   5.770
10677TIP3    H131984   2.602   6.004   5.745
10677TIP3    H231985   2.564   5.915   5.861
10678TIP3   OH231986   0.209   2.503   0.092
10678TIP3    H131987   0.237   2.547   0.173
10678TIP3    H231988   0.258   2.421   0.091
10679TIP3   OH231989   2.705   5.632   5.857
10679TIP3    H131990   2.683   5.708   5.909
10679TIP3    H231991   2.775   5.662   5.799
10680TIP3   OH231992   2.123   6.938   5.427
10680TIP3    H131993   2.104   7.009   5.365
10680TIP3    H231994   2.114   6.978   5.513
10681TIP3   OH231995   2.218   5.656   5.664
10681TIP3    H131996   2.206   5.746   5.694
10681TIP3    H231997   2.312   5.640   5.671
10682TIP3   OH231998   0.823   2.404   0.085
10682TIP3    H131999   0.729   2.415   0.097
10682TIP3    H232000   0.831   2.345   0.010
10683TIP3   OH232001   3.119   6.332   5.921
10683TIP3    H132002   3.042   6.277   5.935
10683TIP3    H232003   3.186   6.293   5.978
10684TIP3   OH232004   1.860   6.538   5.401
10684TIP3    H132005   1.932   6.600   5.411
10684TIP3    H232006   1.891   6.475   5.336
10685TIP3   OH232007   1.771   5.833   5.536
10685TIP3    H132008   1.781   5.928   5.543
10685TIP3    H232009   1.737   5.819   5.447
10686TIP3   OH232010   3.088   7.320   5.831
10686TIP3    H132011   3.056   7.368   5.754
10686TIP3    H232012   3.183   7.327   5.826
10687TIP3   OH232013   2.171   5.548   6.405
10687TIP3    H132014   2.140   5.512   6.323
10687TIP3    H232015   2.167   5.475   6.467
10688TIP3   OH232016   1.691   6.799   5.795
10688TIP3    H132017   1.655   6.840   5.873
10688TIP3    H232018   1.648   6.844   5.722
10689TIP3   OH232019   2.320   6.859   5.031
10689TIP3    H132020   2.273   6.788   5.075
10689TIP3    H232021   2.394   6.816   4.988
10690TIP3   OH232022   0.358   3.477   0.153
10690TIP3    H132023   0.343   3.408   0.218
10690TIP3    H232024   0.422   3.535   0.194
10691TIP3   OH232025   2.763   6.895   4.944
10691TIP3    H132026   2.796   6.828   5.004
10691TIP3    H232027   2.820   6.888   4.867
10692TIP3   OH232028   7.292   2.987   0.538
10692TIP3    H132029   7.318   2.903   0.577
10692TIP3    H232030   7.211   3.011   0.582
10693TIP3   OH232031   1.982   6.349   5.247
10693TIP3    H132032   2.034   6.324   5.324
10693TIP3    H232033   2.048   6.363   5.178
10694TIP3   OH232034   0.009   3.087   0.372
10694TIP3    H132035  -0.040   3.113   0.293
10694TIP3    H232036   0.036   2.997   0.355
10695TIP3   OH232037   2.565   6.571   5.085
10695TIP3    H132038   2.540   6.582   5.177
10695TIP3    H232039   2.543   6.480   5.066
10696TIP3   OH232040   3.086   6.860   6.431
10696TIP3    H132041   3.166   6.891   6.388
10696TIP3    H232042   3.022   6.929   6.413
10697TIP3   OH232043   7.385   2.735   0.611
10697TIP3    H132044   7.455   2.718   0.548
10697TIP3    H232045   7.316   2.672   0.588
10698TIP3   OH232046   2.155   6.290   5.459
10698TIP3    H132047   2.137   6.259   5.547
10698TIP3    H232048   2.204   6.218   5.418
10699TIP3   OH232049   7.742   2.634   0.250
10699TIP3    H132050   7.660   2.681   0.265
10699TIP3    H232051   7.777   2.670   0.168
10700TIP3   OH232052   2.299   6.108   5.304
10700TIP3    H132053   2.269   6.112   5.213
10700TIP3    H232054   2.394   6.117   5.299
10701TIP3   OH232055   0.346   3.010   0.342
10701TIP3    H132056   0.416   2.973   0.288
10701TIP3    H232057   0.346   2.957   0.422
10702TIP3   OH232058   3.092   6.392   4.979
10702TIP3    H132059   3.077   6.353   4.893
10702TIP3    H232060   3.069   6.485   4.968
10703TIP3   OH232061   7.843   2.416   0.378
10703TIP3    H132062   7.850   2.343   0.315
10703TIP3    H232063   7.810   2.489   0.326
10704TIP3   OH232064   7.860   2.225   0.170
10704TIP3    H132065   7.888   2.262   0.086
10704TIP3    H232066   7.771   2.192   0.153
10705TIP3   OH232067   7.866   2.758   0.044
10705TIP3    H132068   7.951   2.803   0.040
10705TIP3    H232069   7.807   2.814  -0.007
10706TIP3   OH232070   0.559   2.701   0.412
10706TIP3    H132071   0.606   2.618   0.421
10706TIP3    H232072   0.627   2.767   0.401
10707TIP3   OH232073   0.576   2.968   0.154
10707TIP3    H132074   0.521   3.027   0.104
10707TIP3    H232075   0.664   2.982   0.121
10708TIP3   OH232076   7.721   2.503   0.615
10708TIP3    H132077   7.660   2.433   0.638
10708TIP3    H232078   7.754   2.479   0.529
10709TIP3   OH232079   0.084   1.998   0.270
10709TIP3    H132080   0.044   2.080   0.240
10709TIP3    H232081   0.017   1.931   0.252
10710TIP3   OH232082   0.202   2.461   0.473
10710TIP3    H132083   0.196   2.449   0.568
10710TIP3    H232084   0.114   2.439   0.441
10711TIP3   OH232085   0.442   2.406   0.341
10711TIP3    H132086   0.365   2.409   0.398
10711TIP3    H232087   0.514   2.383   0.400
10712TIP3   OH232088   0.679   2.370   0.484
10712TIP3    H132089   0.693   2.276   0.495
10712TIP3    H232090   0.671   2.404   0.573
10713TIP3   OH232091   7.577   2.273   0.678
10713TIP3    H132092   7.582   2.186   0.640
10713TIP3    H232093   7.612   2.263   0.766
10714TIP3   OH232094   0.144   1.958   0.533
10714TIP3    H132095   0.209   1.887   0.527
10714TIP3    H232096   0.117   1.973   0.443
10715TIP3   OH232097   0.233   2.178   0.673
10715TIP3    H132098   0.203   2.104   0.620
10715TIP3    H232099   0.159   2.239   0.673
10716TIP3   OH232100   2.121   7.142   5.241
10716TIP3    H132101   2.213   7.127   5.220
10716TIP3    H232102   2.086   7.187   5.164
10717TIP3   OH232103   1.587   6.530   5.421
10717TIP3    H132104   1.681   6.544   5.415
10717TIP3    H232105   1.572   6.445   5.379
10718TIP3   OH232106   1.494   7.101   5.865
10718TIP3    H132107   1.432   7.044   5.820
10718TIP3    H232108   1.540   7.042   5.926
10719TIP3   OH232109   1.641   6.941   6.036
10719TIP3    H132110   1.634   6.878   6.107
10719TIP3    H232111   1.693   7.013   6.072
10720TIP3   OH232112   3.361   7.363   5.851
10720TIP3    H132113   3.380   7.373   5.945
10720TIP3    H232114   3.388   7.447   5.813
10721TIP3   OH232115   3.386   7.372   6.126
10721TIP3    H132116   3.335   7.291   6.126
10721TIP3    H232117   3.456   7.356   6.190
10722TIP3   OH232118   0.782   3.346   0.272
10722TIP3    H132119   0.702   3.367   0.319
10722TIP3    H232120   0.826   3.430   0.258
10723TIP3   OH232121   3.272   6.596   5.318
10723TIP3    H132122   3.331   6.668   5.297
10723TIP3    H232123   3.311   6.554   5.395
10724TIP3   OH232124   3.398   6.459   5.521
10724TIP3    H132125   3.332   6.422   5.579
10724TIP3    H232126   3.464   6.496   5.580
10725TIP3   OH232127   3.436   6.868   5.948
10725TIP3    H132128   3.489   6.802   5.904
10725TIP3    H232129   3.439   6.945   5.891
10726TIP3   OH232130   3.233   7.144   6.137
10726TIP3    H132131   3.166   7.189   6.188
10726TIP3    H232132   3.186   7.107   6.062
10727TIP3   OH232133   3.301   6.375   5.158
10727TIP3    H132134   3.228   6.374   5.096
10727TIP3    H232135   3.284   6.452   5.213
10728TIP3   OH232136   3.159   6.025   5.095
10728TIP3    H132137   3.110   6.062   5.021
10728TIP3    H232138   3.150   5.931   5.086
10729TIP3   OH232139   3.192   6.322   5.654
10729TIP3    H132140   3.195   6.228   5.640
10729TIP3    H232141   3.171   6.332   5.747
10730TIP3   OH232142   1.850   6.453   6.371
10730TIP3    H132143   1.831   6.410   6.288
10730TIP3    H232144   1.938   6.424   6.394
10731TIP3   OH232145   0.829   3.011   0.050
10731TIP3    H132146   0.896   2.945   0.034
10731TIP3    H232147   0.842   3.076  -0.019
10732TIP3   OH232148   1.010   2.805   0.051
10732TIP3    H132149   0.938   2.762   0.098
10732TIP3    H232150   1.087   2.753   0.073
10733TIP3   OH232151   3.116   5.754   5.069
10733TIP3    H132152   3.181   5.728   5.135
10733TIP3    H232153   3.034   5.717   5.100
10734TIP3   OH232154   3.182   6.045   5.538
10734TIP3    H132155   3.228   5.962   5.551
10734TIP3    H232156   3.224   6.083   5.461
10735TIP3   OH232157   3.335   6.210   6.063
10735TIP3    H132158   3.416   6.227   6.015
10735TIP3    H232159   3.349   6.251   6.148
10736TIP3   OH232160   3.410   6.360   6.290
10736TIP3    H132161   3.337   6.387   6.346
10736TIP3    H232162   3.441   6.441   6.249
10737TIP3   OH232163   7.322   2.313   0.589
10737TIP3    H132164   7.412   2.321   0.620
10737TIP3    H232165   7.291   2.231   0.627
10738TIP3   OH232166   1.235   2.229   0.375
10738TIP3    H132167   1.300   2.171   0.335
10738TIP3    H232168   1.200   2.280   0.302
10739TIP3   OH232169   3.299   5.796   5.589
10739TIP3    H132170   3.344   5.782   5.673
10739TIP3    H232171   3.236   5.724   5.583
10740TIP3   OH232172   2.007   5.772   6.414
10740TIP3    H132173   2.063   5.695   6.422
10740TIP3    H232174   2.069   5.844   6.400
10741TIP3   OH232175   1.804   6.035   6.452
10741TIP3    H132176   1.868   6.043   6.381
10741TIP3    H232177   1.809   6.119   6.498
10742TIP3   OH232178   1.086   2.349   0.181
10742TIP3    H132179   1.004   2.390   0.209
10742TIP3    H232180   1.059   2.275   0.127
10743TIP3   OH232181   3.342   5.708   5.228
10743TIP3    H132182   3.390   5.647   5.171
10743TIP3    H232183   3.398   5.785   5.233
10744TIP3   OH232184   1.774   5.548   5.979
10744TIP3    H132185   1.689   5.536   6.021
10744TIP3    H232186   1.755   5.604   5.903
10745TIP3   OH232187   2.922   7.230   5.468
10745TIP3    H132188   2.990   7.221   5.401
10745TIP3    H232189   2.942   7.314   5.511
10746TIP3   OH232190   7.282   1.910   0.359
10746TIP3    H132191   7.229   1.883   0.434
10746TIP3    H232192   7.217   1.937   0.294
10747TIP3   OH232193   2.225   7.108   6.394
10747TIP3    H132194   2.174   7.180   6.356
10747TIP3    H232195   2.313   7.120   6.359
10748TIP3   OH232196   0.027   3.588   0.077
10748TIP3    H132197   0.036   3.590   0.172
10748TIP3    H232198   0.094   3.648   0.045
10749TIP3   OH232199   5.487   0.032   6.427
10749TIP3    H132200   5.554  -0.021   6.385
10749TIP3    H232201   5.532   0.075   6.500
10750TIP3   OH232202   1.001   2.102   0.073
10750TIP3    H132203   0.914   2.096   0.033
10750TIP3    H232204   1.036   2.014   0.069
10751TIP3   OH232205   2.104   7.332   6.275
10751TIP3    H132206   2.012   7.335   6.300
10751TIP3    H232207   2.108   7.379   6.192
10752TIP3   OH232208   2.549   7.352   6.107
10752TIP3    H132209   2.476   7.365   6.047
10752TIP3    H232210   2.555   7.434   6.156
10753TIP3   OH232211   2.813   7.288   6.141
10753TIP3    H132212   2.721   7.310   6.132
10753TIP3    H232213   2.860   7.362   6.102
10754TIP3   OH232214   5.651   0.021   6.052
10754TIP3    H132215   5.642   0.110   6.018
10754TIP3    H232216   5.671  -0.033   5.976
10755TIP3   OH232217   1.803   7.124   6.191
10755TIP3    H132218   1.826   7.092   6.278
10755TIP3    H232219   1.876   7.097   6.136
10756TIP3   OH232220   2.012   7.013   6.055
10756TIP3    H132221   2.026   6.931   6.102
10756TIP3    H232222   2.098   7.055   6.054
10757TIP3   OH232223   2.282   7.093   6.070
10757TIP3    H132224   2.300   7.000   6.056
10757TIP3    H232225   2.341   7.119   6.141
10758TIP3   OH232226   2.840   5.750   6.161
10758TIP3    H132227   2.799   5.679   6.211
10758TIP3    H232228   2.908   5.707   6.109
10759TIP3   OH232229   3.343   5.664   6.048
10759TIP3    H132230   3.379   5.715   5.974
10759TIP3    H232231   3.250   5.687   6.049
10760TIP3   OH232232   3.457   5.745   5.811
10760TIP3    H132233   3.526   5.684   5.786
10760TIP3    H232234   3.495   5.832   5.798
10761TIP3   OH232235   2.081   5.447   6.163
10761TIP3    H132236   1.992   5.412   6.175
10761TIP3    H232237   2.137   5.370   6.156
10762TIP3   OH232238   1.888   5.353   5.806
10762TIP3    H132239   1.920   5.403   5.731
10762TIP3    H232240   1.857   5.419   5.868
10763TIP3   OH232241   2.560   5.486   6.053
10763TIP3    H132242   2.608   5.534   5.985
10763TIP3    H232243   2.599   5.515   6.135
10764TIP3   OH232244   3.056   5.637   6.027
10764TIP3    H132245   3.068   5.602   5.939
10764TIP3    H232246   3.059   5.561   6.084
10765TIP3   OH232247   3.113   5.585   5.598
10765TIP3    H132248   3.033   5.632   5.623
10765TIP3    H232249   3.103   5.498   5.636
10766TIP3   OH232250   1.567   6.919   5.584
10766TIP3    H132251   1.488   6.889   5.540
10766TIP3    H232252   1.576   7.011   5.557
10767TIP3   OH232253   2.007   5.488   5.575
10767TIP3    H132254   2.053   5.426   5.519
10767TIP3    H232255   2.076   5.543   5.611
10768TIP3   OH232256   2.493   5.684   5.674
10768TIP3    H132257   2.552   5.631   5.727
10768TIP3    H232258   2.508   5.774   5.703
10769TIP3   OH232259   2.381   7.082   5.176
10769TIP3    H132260   2.465   7.108   5.139
10769TIP3    H232261   2.350   7.010   5.120
10770TIP3   OH232262   3.091   7.211   5.251
10770TIP3    H132263   3.086   7.116   5.244
10770TIP3    H232264   3.040   7.243   5.176
10771TIP3   OH232265   7.582   2.008   0.587
10771TIP3    H132266   7.548   1.935   0.639
10771TIP3    H232267   7.674   2.013   0.611
10772TIP3   OH232268   7.830   2.010   0.703
10772TIP3    H132269   7.907   1.988   0.651
10772TIP3    H232270   7.823   1.939   0.767
10773TIP3   OH232271   1.684   6.898   5.240
10773TIP3    H132272   1.692   6.928   5.330
10773TIP3    H232273   1.770   6.860   5.219
10774TIP3   OH232274   0.744   2.102   0.502
10774TIP3    H132275   0.762   2.074   0.592
10774TIP3    H232276   0.829   2.097   0.458
10775TIP3   OH232277   3.286   7.355   6.447
10775TIP3    H132278   3.209   7.323   6.401
10775TIP3    H232279   3.272   7.449   6.455
10776TIP3   OH232280   4.579   6.752   5.197
10776TIP3    H132281   4.548   6.839   5.172
10776TIP3    H232282   4.507   6.693   5.175
10777TIP3   OH232283   4.565   6.738   5.616
10777TIP3    H132284   4.615   6.726   5.697
10777TIP3    H232285   4.522   6.654   5.602
10778TIP3   OH232286   3.865   6.606   5.970
10778TIP3    H132287   3.900   6.550   6.039
10778TIP3    H232288   3.942   6.648   5.932
10779TIP3   OH232289   4.840   7.044   5.285
10779TIP3    H132290   4.826   6.978   5.353
10779TIP3    H232291   4.857   7.125   5.333
10780TIP3   OH232292   3.872   7.016   5.636
10780TIP3    H132293   3.849   6.925   5.653
10780TIP3    H232294   3.967   7.019   5.644
10781TIP3   OH232295   3.546   6.235   5.432
10781TIP3    H132296   3.507   6.317   5.461
10781TIP3    H232297   3.473   6.185   5.395
10782TIP3   OH232298   3.629   6.548   5.658
10782TIP3    H132299   3.677   6.470   5.685
10782TIP3    H232300   3.697   6.613   5.640
10783TIP3   OH232301   4.493   7.473   5.306
10783TIP3    H132302   4.521   7.397   5.255
10783TIP3    H232303   4.491   7.443   5.396
10784TIP3   OH232304   4.387   6.961   5.620
10784TIP3    H132305   4.430   6.878   5.600
10784TIP3    H232306   4.458   7.019   5.649
10785TIP3   OH232307   5.412   6.278   5.640
10785TIP3    H132308   5.424   6.362   5.685
10785TIP3    H232309   5.448   6.292   5.552
10786TIP3   OH232310   4.784   6.452   5.660
10786TIP3    H132311   4.818   6.368   5.690
10786TIP3    H232312   4.748   6.434   5.573
10787TIP3   OH232313   4.142   6.109   5.618
10787TIP3    H132314   4.119   6.182   5.561
10787TIP3    H232315   4.085   6.037   5.590
10788TIP3   OH232316   4.836   6.209   5.257
10788TIP3    H132317   4.899   6.197   5.328
10788TIP3    H232318   4.886   6.247   5.185
10789TIP3   OH232319   3.763   6.325   5.749
10789TIP3    H132320   3.846   6.308   5.793
10789TIP3    H232321   3.767   6.273   5.669
10790TIP3   OH232322   4.189   6.525   5.556
10790TIP3    H132323   4.283   6.508   5.566
10790TIP3    H232324   4.153   6.441   5.525
10791TIP3   OH232325   5.455   6.502   5.798
10791TIP3    H132326   5.366   6.536   5.789
10791TIP3    H232327   5.491   6.547   5.874
10792TIP3   OH232328   4.118   6.113   6.070
10792TIP3    H132329   4.067   6.150   5.997
10792TIP3    H232330   4.064   6.129   6.147
10793TIP3   OH232331   4.479   6.967   5.051
10793TIP3    H132332   4.444   6.934   4.968
10793TIP3    H232333   4.423   7.042   5.073
10794TIP3   OH232334   4.215   6.890   5.827
10794TIP3    H132335   4.159   6.960   5.860
10794TIP3    H232336   4.268   6.932   5.759
10795TIP3   OH232337   5.000   6.212   5.475
10795TIP3    H132338   4.953   6.199   5.557
10795TIP3    H232339   5.052   6.291   5.489
10796TIP3   OH232340   4.011   6.222   5.838
10796TIP3    H132341   4.065   6.297   5.862
10796TIP3    H232342   4.061   6.179   5.768
10797TIP3   OH232343   4.048   7.084   5.926
10797TIP3    H132344   4.040   7.176   5.900
10797TIP3    H232345   3.967   7.065   5.974
10798TIP3   OH232346   3.417   6.805   5.172
10798TIP3    H132347   3.326   6.834   5.165
10798TIP3    H232348   3.461   6.877   5.218
10799TIP3   OH232349   4.863   7.291   5.419
10799TIP3    H132350   4.776   7.284   5.457
10799TIP3    H232351   4.863   7.376   5.375
10800TIP3   OH232352   5.214   6.169   5.809
10800TIP3    H132353   5.128   6.194   5.773
10800TIP3    H232354   5.277   6.198   5.742
10801TIP3   OH232355   4.461   5.804   5.803
10801TIP3    H132356   4.453   5.712   5.828
10801TIP3    H232357   4.385   5.847   5.842
10802TIP3   OH232358   4.583   7.305   5.102
10802TIP3    H132359   4.640   7.229   5.086
10802TIP3    H232360   4.637   7.381   5.078
10803TIP3   OH232361   4.734   7.088   5.035
10803TIP3    H132362   4.660   7.027   5.036
10803TIP3    H232363   4.783   7.066   5.115
10804TIP3   OH232364   5.091   7.192   5.761
10804TIP3    H132365   5.080   7.116   5.703
10804TIP3    H232366   5.074   7.267   5.705
10805TIP3   OH232367   4.405   6.588   5.053
10805TIP3    H132368   4.322   6.633   5.034
10805TIP3    H232369   4.450   6.583   4.969
10806TIP3   OH232370   4.361   6.402   4.740
10806TIP3    H132371   4.430   6.448   4.790
10806TIP3    H232372   4.407   6.333   4.693
10807TIP3   OH232373   5.285   6.839   5.618
10807TIP3    H132374   5.203   6.886   5.625
10807TIP3    H232375   5.318   6.858   5.530
10808TIP3   OH232376   4.759   6.673   5.009
10808TIP3    H132377   4.707   6.704   5.083
10808TIP3    H232378   4.844   6.650   5.047
10809TIP3   OH232379   4.976   6.703   5.955
10809TIP3    H132380   4.973   6.786   6.003
10809TIP3    H232381   4.895   6.702   5.904
10810TIP3   OH232382   3.989   6.654   5.410
10810TIP3    H132383   3.953   6.589   5.350
10810TIP3    H232384   4.062   6.610   5.452
10811TIP3   OH232385   4.141   7.075   5.550
10811TIP3    H132386   4.120   7.053   5.459
10811TIP3    H232387   4.227   7.037   5.565
10812TIP3   OH232388   4.088   6.653   5.782
10812TIP3    H132389   4.129   6.616   5.703
10812TIP3    H232390   4.137   6.734   5.798
10813TIP3   OH232391   4.628   7.284   5.552
10813TIP3    H132392   4.617   7.365   5.602
10813TIP3    H232393   4.619   7.214   5.617
10814TIP3   OH232394   4.249   7.167   6.101
10814TIP3    H132395   4.192   7.229   6.147
10814TIP3    H232396   4.190   7.121   6.041
10815TIP3   OH232397   4.586   6.539   4.842
10815TIP3    H132398   4.648   6.594   4.890
10815TIP3    H232399   4.617   6.542   4.752
10816TIP3   OH232400   4.014   6.736   6.225
10816TIP3    H132401   4.017   6.829   6.243
10816TIP3    H232402   3.920   6.714   6.228
10817TIP3   OH232403   4.328   7.204   5.061
10817TIP3    H132404   4.413   7.238   5.091
10817TIP3    H232405   4.279   7.281   5.035
10818TIP3   OH232406   4.043   7.328   6.183
10818TIP3    H132407   4.012   7.337   6.093
10818TIP3    H232408   3.963   7.324   6.235
10819TIP3   OH232409   5.099   5.767   4.896
10819TIP3    H132410   5.024   5.787   4.952
10819TIP3    H232411   5.111   5.845   4.843
10820TIP3   OH232412   3.860   6.487   5.215
10820TIP3    H132413   3.771   6.520   5.201
10820TIP3    H232414   3.849   6.394   5.233
10821TIP3   OH232415   4.921   7.128   4.446
10821TIP3    H132416   4.897   7.178   4.367
10821TIP3    H232417   5.013   7.104   4.432
10822TIP3   OH232418   3.637   6.902   6.143
10822TIP3    H132419   3.566   6.882   6.081
10822TIP3    H232420   3.674   6.817   6.166
10823TIP3   OH232421   3.477   7.111   5.806
10823TIP3    H132422   3.561   7.144   5.837
10823TIP3    H232423   3.416   7.184   5.821
10824TIP3   OH232424   0.055   0.074   5.830
10824TIP3    H132425   0.071  -0.013   5.865
10824TIP3    H232426  -0.022   0.106   5.879
10825TIP3   OH232427   4.449   7.308   5.967
10825TIP3    H132428   4.444   7.402   5.986
10825TIP3    H232429   4.378   7.269   6.019
10826TIP3   OH232430   6.858  -0.026   4.929
10826TIP3    H132431   6.821  -0.029   4.841
10826TIP3    H232432   6.831   0.059   4.964
10827TIP3   OH232433   3.677   7.270   5.304
10827TIP3    H132434   3.722   7.272   5.389
10827TIP3    H232435   3.622   7.192   5.308
10828TIP3   OH232436   4.410   7.366   4.572
10828TIP3    H132437   4.460   7.305   4.518
10828TIP3    H232438   4.459   7.371   4.654
10829TIP3   OH232439   4.487   7.402   4.835
10829TIP3    H132440   4.400   7.406   4.876
10829TIP3    H232441   4.546   7.376   4.905
10830TIP3   OH232442   5.251   6.641   6.018
10830TIP3    H132443   5.157   6.661   6.029
10830TIP3    H232444   5.258   6.547   6.037
10831TIP3   OH232445   3.822   7.096   6.086
10831TIP3    H132446   3.877   7.088   6.164
10831TIP3    H232447   3.753   7.032   6.099
10832TIP3   OH232448   4.225   5.898   5.927
10832TIP3    H132449   4.141   5.863   5.895
10832TIP3    H232450   4.202   5.978   5.974
10833TIP3   OH232451   4.749   6.023   6.116
10833TIP3    H132452   4.817   5.991   6.175
10833TIP3    H232453   4.667   6.008   6.163
10834TIP3   OH232454   4.998   6.441   6.041
10834TIP3    H132455   4.956   6.436   6.127
10834TIP3    H232456   4.981   6.531   6.011
10835TIP3   OH232457   4.671   6.518   4.583
10835TIP3    H132458   4.625   6.519   4.498
10835TIP3    H232459   4.753   6.565   4.566
10836TIP3   OH232460   4.381   5.935   4.898
10836TIP3    H132461   4.344   5.943   4.985
10836TIP3    H232462   4.342   5.855   4.862
10837TIP3   OH232463   4.160   6.433   5.934
10837TIP3    H132464   4.115   6.440   6.018
10837TIP3    H232465   4.138   6.514   5.888
10838TIP3   OH232466   4.044   6.308   5.457
10838TIP3    H132467   3.956   6.284   5.483
10838TIP3    H232468   4.053   6.273   5.368
10839TIP3   OH232469   4.524   6.380   5.187
10839TIP3    H132470   4.478   6.455   5.148
10839TIP3    H232471   4.582   6.349   5.117
10840TIP3   OH232472   4.722   6.629   6.250
10840TIP3    H132473   4.696   6.565   6.316
10840TIP3    H232474   4.816   6.638   6.260
10841TIP3   OH232475   4.692   6.395   5.409
10841TIP3    H132476   4.622   6.416   5.347
10841TIP3    H232477   4.738   6.322   5.370
10842TIP3   OH232478   3.999   6.443   6.157
10842TIP3    H132479   4.018   6.508   6.224
10842TIP3    H232480   3.983   6.362   6.205
10843TIP3   OH232481   4.046   5.922   4.872
10843TIP3    H132482   4.036   5.924   4.967
10843TIP3    H232483   3.967   5.964   4.838
10844TIP3   OH232484   3.590   5.966   5.733
10844TIP3    H132485   3.664   6.000   5.784
10844TIP3    H232486   3.629   5.942   5.649
10845TIP3   OH232487   3.497   5.940   5.241
10845TIP3    H132488   3.542   5.975   5.164
10845TIP3    H232489   3.434   6.007   5.265
10846TIP3   OH232490   4.725   6.654   5.832
10846TIP3    H132491   4.753   6.587   5.770
10846TIP3    H232492   4.682   6.605   5.902
10847TIP3   OH232493   4.407   6.099   5.508
10847TIP3    H132494   4.329   6.099   5.564
10847TIP3    H232495   4.480   6.090   5.570
10848TIP3   OH232496   3.805   6.185   5.515
10848TIP3    H132497   3.717   6.190   5.479
10848TIP3    H232498   3.832   6.094   5.503
10849TIP3   OH232499   4.055   6.188   5.210
10849TIP3    H132500   4.150   6.197   5.201
10849TIP3    H232501   4.021   6.204   5.122
10850TIP3   OH232502   4.853   6.187   5.710
10850TIP3    H132503   4.839   6.205   5.803
10850TIP3    H232504   4.781   6.127   5.687
10851TIP3   OH232505   3.943   6.215   4.962
10851TIP3    H132506   3.884   6.163   4.909
10851TIP3    H232507   3.993   6.266   4.899
10852TIP3   OH232508   3.972   7.003   6.306
10852TIP3    H132509   4.045   7.035   6.359
10852TIP3    H232510   3.901   6.989   6.369
10853TIP3   OH232511   4.457   6.468   5.613
10853TIP3    H132512   4.528   6.420   5.571
10853TIP3    H232513   4.452   6.432   5.702
10854TIP3   OH232514   3.948   5.936   5.505
10854TIP3    H132515   3.919   5.861   5.558
10854TIP3    H232516   3.969   5.898   5.420
10855TIP3   OH232517   4.427   6.377   5.876
10855TIP3    H132518   4.341   6.411   5.902
10855TIP3    H232519   4.489   6.426   5.930
10856TIP3   OH232520   4.172   6.732   4.999
10856TIP3    H132521   4.101   6.670   4.979
10856TIP3    H232522   4.145   6.774   5.080
10857TIP3   OH232523   5.051   6.983   5.586
10857TIP3    H132524   5.085   7.032   5.512
10857TIP3    H232525   4.971   6.941   5.553
10858TIP3   OH232526   4.632   6.042   4.900
10858TIP3    H132527   4.539   6.019   4.897
10858TIP3    H232528   4.633   6.137   4.912
10859TIP3   OH232529   4.560   7.047   5.992
10859TIP3    H132530   4.622   7.038   6.064
10859TIP3    H232531   4.525   7.135   6.001
10860TIP3   OH232532   4.687   6.307   4.969
10860TIP3    H132533   4.782   6.313   4.982
10860TIP3    H232534   4.665   6.385   4.918
10861TIP3   OH232535   3.853   6.724   5.643
10861TIP3    H132536   3.892   6.711   5.557
10861TIP3    H232537   3.919   6.696   5.705
10862TIP3   OH232538   4.318   6.888   4.833
10862TIP3    H132539   4.265   6.968   4.832
10862TIP3    H232540   4.271   6.828   4.891
10863TIP3   OH232541   3.742   6.673   6.272
10863TIP3    H132542   3.758   6.649   6.364
10863TIP3    H232543   3.665   6.622   6.248
10864TIP3   OH232544   4.510   6.799   6.233
10864TIP3    H132545   4.430   6.747   6.240
10864TIP3    H232546   4.581   6.734   6.239
10865TIP3   OH232547   4.715   7.355   5.883
10865TIP3    H132548   4.622   7.336   5.896
10865TIP3    H232549   4.744   7.392   5.966
10866TIP3   OH232550   5.100   6.390   4.788
10866TIP3    H132551   5.045   6.343   4.726
10866TIP3    H232552   5.103   6.479   4.755
10867TIP3   OH232553   5.330   7.241   5.874
10867TIP3    H132554   5.239   7.236   5.847
10867TIP3    H232555   5.380   7.222   5.795
10868TIP3   OH232556   4.849   7.207   4.728
10868TIP3    H132557   4.822   7.142   4.793
10868TIP3    H232558   4.865   7.156   4.649
10869TIP3   OH232559   4.820   6.848   5.490
10869TIP3    H132560   4.732   6.827   5.519
10869TIP3    H232561   4.855   6.765   5.456
10870TIP3   OH232562   3.970   7.082   5.311
10870TIP3    H132563   3.952   7.149   5.245
10870TIP3    H232564   3.906   7.098   5.380
10871TIP3   OH232565   3.541   6.366   5.024
10871TIP3    H132566   3.581   6.449   5.049
10871TIP3    H232567   3.459   6.363   5.073
10872TIP3   OH232568   4.061   6.841   5.219
10872TIP3    H132569   4.034   6.928   5.250
10872TIP3    H232570   4.038   6.782   5.290
10873TIP3   OH232571   4.265   7.405   5.765
10873TIP3    H132572   4.299   7.483   5.721
10873TIP3    H232573   4.339   7.373   5.815
10874TIP3   OH232574   3.878   7.271   5.119
10874TIP3    H132575   3.799   7.278   5.173
10874TIP3    H232576   3.921   7.356   5.127
10875TIP3   OH232577   4.622   7.066   5.727
10875TIP3    H132578   4.598   7.057   5.819
10875TIP3    H232579   4.706   7.022   5.719
10876TIP3   OH232580   4.602   6.950   4.613
10876TIP3    H132581   4.657   6.919   4.685
10876TIP3    H232582   4.517   6.908   4.629
10877TIP3   OH232583   7.478   0.143   5.787
10877TIP3    H132584   7.414   0.072   5.795
10877TIP3    H232585   7.457   0.185   5.704
10878TIP3   OH232586   3.948   6.190   6.278
10878TIP3    H132587   3.852   6.201   6.282
10878TIP3    H232588   3.969   6.138   6.355
10879TIP3   OH232589   4.778   6.852   4.797
10879TIP3    H132590   4.764   6.799   4.876
10879TIP3    H232591   4.873   6.863   4.793
10880TIP3   OH232592   3.683   7.278   5.914
10880TIP3    H132593   3.737   7.225   5.972
10880TIP3    H232594   3.693   7.367   5.948
10881TIP3   OH232595   3.627   6.618   5.116
10881TIP3    H132596   3.552   6.669   5.147
10881TIP3    H232597   3.687   6.682   5.079
10882TIP3   OH232598   4.804   6.249   5.970
10882TIP3    H132599   4.876   6.295   6.013
10882TIP3    H232600   4.785   6.175   6.028
10883TIP3   OH232601   4.691   5.990   5.168
10883TIP3    H132602   4.669   6.010   5.077
10883TIP3    H232603   4.732   6.070   5.200
10884TIP3   OH232604   4.134   7.101   4.824
10884TIP3    H132605   4.146   7.122   4.917
10884TIP3    H232606   4.158   7.182   4.779
10885TIP3   OH232607   4.335   6.193   5.257
10885TIP3    H132608   4.398   6.261   5.232
10885TIP3    H232609   4.357   6.172   5.348
10886TIP3   OH232610   4.638   6.478   6.027
10886TIP3    H132611   4.667   6.521   6.107
10886TIP3    H232612   4.690   6.398   6.021
10887TIP3   OH232613   4.502   5.890   5.345
10887TIP3    H132614   4.479   5.967   5.396
10887TIP3    H232615   4.572   5.920   5.287
10888TIP3   OH232616   3.848   7.132   4.883
10888TIP3    H132617   3.846   7.208   4.825
10888TIP3    H232618   3.848   7.169   4.971
10889TIP3   OH232619   4.015   5.913   5.150
10889TIP3    H132620   4.002   6.003   5.180
10889TIP3    H232621   4.109   5.898   5.157
10890TIP3   OH232622   5.257   6.358   6.021
10890TIP3    H132623   5.166   6.375   6.047
10890TIP3    H232624   5.250   6.298   5.947
10891TIP3   OH232625   4.911   6.590   5.405
10891TIP3    H132626   4.834   6.535   5.420
10891TIP3    H232627   4.980   6.547   5.456
10892TIP3   OH232628   3.561   6.087   5.018
10892TIP3    H132629   3.575   6.181   5.027
10892TIP3    H232630   3.493   6.079   4.951
10893TIP3   OH232631   7.524   0.107   5.337
10893TIP3    H132632   7.485   0.161   5.268
10893TIP3    H232633   7.618   0.124   5.330
10894TIP3   OH232634   3.965   5.809   5.887
10894TIP3    H132635   3.935   5.776   5.803
10894TIP3    H232636   3.956   5.735   5.947
10895TIP3   OH232637   3.497   7.044   5.293
10895TIP3    H132638   3.461   7.084   5.372
10895TIP3    H232639   3.454   7.089   5.221
10896TIP3   OH232640   6.240   0.115   6.321
10896TIP3    H132641   6.328   0.127   6.357
10896TIP3    H232642   6.222   0.021   6.334
10897TIP3   OH232643   6.811   0.118   6.199
10897TIP3    H132644   6.861   0.117   6.280
10897TIP3    H232645   6.770   0.032   6.195
10898TIP3   OH232646   4.116   7.110   4.527
10898TIP3    H132647   4.132   7.070   4.612
10898TIP3    H232648   4.187   7.078   4.472
10899TIP3   OH232649   4.800   7.445   6.128
10899TIP3    H132650   4.776   7.372   6.185
10899TIP3    H232651   4.891   7.465   6.151
10900TIP3   OH232652   4.543   7.160   4.445
10900TIP3    H132653   4.583   7.095   4.503
10900TIP3    H232654   4.606   7.169   4.373
10901TIP3   OH232655   1.160   3.232   0.061
10901TIP3    H132656   1.176   3.138   0.071
10901TIP3    H232657   1.069   3.239   0.033
10902TIP3   OH232658   3.903   6.781   4.786
10902TIP3    H132659   3.913   6.713   4.853
10902TIP3    H232660   3.897   6.733   4.704
10903TIP3   OH232661   4.410   7.048   6.288
10903TIP3    H132662   4.353   7.084   6.220
10903TIP3    H232663   4.452   6.972   6.247
10904TIP3   OH232664   4.332   6.835   4.565
10904TIP3    H132665   4.323   6.837   4.661
10904TIP3    H232666   4.326   6.742   4.543
10905TIP3   OH232667   4.873   7.126   5.914
10905TIP3    H132668   4.952   7.151   5.866
10905TIP3    H232669   4.812   7.197   5.899
10906TIP3   OH232670   1.286   2.973   0.068
10906TIP3    H132671   1.371   2.966   0.023
10906TIP3    H232672   1.308   2.998   0.157
10907TIP3   OH232673   3.954   6.570   4.959
10907TIP3    H132674   3.928   6.531   5.042
10907TIP3    H232675   3.988   6.497   4.908
10908TIP3   OH232676   4.274   6.626   6.184
10908TIP3    H132677   4.192   6.673   6.200
10908TIP3    H232678   4.304   6.658   6.099
10909TIP3   OH232679   4.087   6.383   4.797
10909TIP3    H132680   4.057   6.377   4.706
10909TIP3    H232681   4.182   6.386   4.791
10910TIP3   OH232682   4.730   6.988   6.209
10910TIP3    H132683   4.818   6.959   6.183
10910TIP3    H232684   4.683   6.907   6.229
10911TIP3   OH232685   4.890   6.648   4.473
10911TIP3    H132686   4.877   6.607   4.388
10911TIP3    H232687   4.860   6.739   4.461
10912TIP3   OH232688   4.365   6.393   6.290
10912TIP3    H132689   4.369   6.324   6.223
10912TIP3    H232690   4.335   6.471   6.243
10913TIP3   OH232691   4.379   6.193   6.093
10913TIP3    H132692   4.404   6.234   6.010
10913TIP3    H232693   4.287   6.169   6.081
10914TIP3   OH232694   4.390   6.725   5.959
10914TIP3    H132695   4.471   6.774   5.973
10914TIP3    H232696   4.333   6.786   5.911
10915TIP3   OH232697   4.992   6.647   6.302
10915TIP3    H132698   5.012   6.594   6.378
10915TIP3    H232699   5.074   6.692   6.282
10916TIP3   OH232700   4.994   6.954   6.085
10916TIP3    H132701   4.945   7.013   6.028
10916TIP3    H232702   5.084   6.959   6.053
10917TIP3   OH232703   1.599   2.745   0.073
10917TIP3    H132704   1.539   2.673   0.091
10917TIP3    H232705   1.638   2.722  -0.012
10918TIP3   OH232706   4.493   5.965   6.205
10918TIP3    H132707   4.454   6.045   6.169
10918TIP3    H232708   4.427   5.897   6.192
10919TIP3   OH232709   4.618   6.416   6.397
10919TIP3    H132710   4.591   6.402   6.488
10919TIP3    H232711   4.537   6.407   6.347
10920TIP3   OH232712   4.855   6.359   6.258
10920TIP3    H132713   4.778   6.362   6.315
10920TIP3    H232714   4.928   6.341   6.317
10921TIP3   OH232715   5.152   6.357   6.340
10921TIP3    H132716   5.137   6.262   6.347
10921TIP3    H232717   5.123   6.391   6.425
10922TIP3   OH232718   1.444   2.528   0.153
10922TIP3    H132719   1.451   2.440   0.118
10922TIP3    H232720   1.481   2.522   0.241
10923TIP3   OH232721   4.561   5.935   6.469
10923TIP3    H132722   4.630   5.869   6.464
10923TIP3    H232723   4.533   5.947   6.378
10924TIP3   OH232724   2.013   2.439   0.150
10924TIP3    H132725   1.988   2.364   0.096
10924TIP3    H232726   1.938   2.497   0.148
10925TIP3   OH232727   3.890   7.344   4.719
10925TIP3    H132728   3.985   7.356   4.721
10925TIP3    H232729   3.860   7.400   4.647
10926TIP3   OH232730   3.380   6.788   4.878
10926TIP3    H132731   3.410   6.777   4.968
10926TIP3    H232732   3.373   6.699   4.843
10927TIP3   OH232733   3.332   7.327   5.307
10927TIP3    H132734   3.240   7.306   5.294
10927TIP3    H232735   3.353   7.290   5.393
10928TIP3   OH232736   3.444   7.196   5.528
10928TIP3    H132737   3.430   7.136   5.601
10928TIP3    H232738   3.491   7.270   5.567
10929TIP3   OH232739   7.792   0.168   5.344
10929TIP3    H132740   7.804   0.166   5.439
10929TIP3    H232741   7.808   0.260   5.320
10930TIP3   OH232742   7.816   0.177   5.617
10930TIP3    H132743   7.756   0.103   5.622
10930TIP3    H232744   7.879   0.162   5.688
10931TIP3   OH232745   5.055   6.857   4.804
10931TIP3    H132746   5.113   6.925   4.769
10931TIP3    H232747   5.103   6.819   4.878
10932TIP3   OH232748   5.189   6.714   5.000
10932TIP3    H132749   5.123   6.677   5.059
10932TIP3    H232750   5.256   6.749   5.059
10933TIP3   OH232751   5.232   7.130   5.431
10933TIP3    H132752   5.288   7.063   5.390
10933TIP3    H232753   5.232   7.203   5.370
10934TIP3   OH232754   5.011   7.412   5.621
10934TIP3    H132755   4.942   7.447   5.678
10934TIP3    H232756   4.963   7.369   5.550
10935TIP3   OH232757   5.091   6.629   4.656
10935TIP3    H132758   5.021   6.632   4.591
10935TIP3    H232759   5.078   6.708   4.709
10936TIP3   OH232760   4.955   6.269   4.589
10936TIP3    H132761   4.917   6.318   4.516
10936TIP3    H232762   4.940   6.177   4.566
10937TIP3   OH232763   4.987   6.579   5.140
10937TIP3    H132764   4.990   6.484   5.128
10937TIP3    H232765   4.966   6.592   5.232
10938TIP3   OH232766   3.603   6.644   5.913
10938TIP3    H132767   3.594   6.612   5.824
10938TIP3    H232768   3.696   6.639   5.932
10939TIP3   OH232769   5.250   6.992   5.976
10939TIP3    H132770   5.322   6.933   5.955
10939TIP3    H232771   5.278   7.077   5.942
10940TIP3   OH232772   5.462   6.803   5.979
10940TIP3    H132773   5.382   6.753   5.999
10940TIP3    H232774   5.533   6.743   6.000
10941TIP3   OH232775   4.919   5.987   4.562
10941TIP3    H132776   4.975   5.981   4.638
10941TIP3    H232777   4.831   5.968   4.595
10942TIP3   OH232778   4.975   6.304   5.029
10942TIP3    H132779   5.020   6.220   5.042
10942TIP3    H232780   5.018   6.342   4.952
10943TIP3   OH232781   5.127   6.453   5.523
10943TIP3    H132782   5.209   6.471   5.478
10943TIP3    H232783   5.137   6.496   5.608
10944TIP3   OH232784   5.198   6.606   5.738
10944TIP3    H132785   5.151   6.634   5.817
10944TIP3    H232786   5.227   6.688   5.698
10945TIP3   OH232787   1.184   2.595   0.100
10945TIP3    H132788   1.278   2.589   0.113
10945TIP3    H232789   1.149   2.515   0.140
10946TIP3   OH232790   5.682   6.219   6.291
10946TIP3    H132791   5.737   6.159   6.240
10946TIP3    H232792   5.639   6.274   6.226
10947TIP3   OH232793   5.088   6.055   5.081
10947TIP3    H132794   5.139   6.041   5.161
10947TIP3    H232795   5.026   5.982   5.079
10948TIP3   OH232796   3.804   6.035   5.896
10948TIP3    H132797   3.857   5.956   5.906
10948TIP3    H232798   3.867   6.105   5.881
10949TIP3   OH232799   3.581   6.294   5.965
10949TIP3    H132800   3.632   6.289   5.885
10949TIP3    H232801   3.608   6.377   6.005
10950TIP3   OH232802   5.524   6.335   6.099
10950TIP3    H132803   5.437   6.373   6.105
10950TIP3    H232804   5.512   6.255   6.047
10951TIP3   OH232805   5.158   5.961   4.703
10951TIP3    H132806   5.224   5.921   4.645
10951TIP3    H232807   5.192   6.048   4.721
10952TIP3   OH232808   3.570   5.811   5.470
10952TIP3    H132809   3.485   5.797   5.511
10952TIP3    H232810   3.552   5.863   5.393
10953TIP3   OH232811   7.345   0.066   4.993
10953TIP3    H132812   7.402   0.060   4.917
10953TIP3    H232813   7.383   0.137   5.046
10954TIP3   OH232814   3.792   5.860   6.288
10954TIP3    H132815   3.742   5.857   6.370
10954TIP3    H232816   3.736   5.912   6.229
10955TIP3   OH232817   3.813   7.313   6.333
10955TIP3    H132818   3.720   7.300   6.313
10955TIP3    H232819   3.820   7.293   6.426
10956TIP3   OH232820   4.032   7.356   5.903
10956TIP3    H132821   3.978   7.428   5.869
10956TIP3    H232822   4.119   7.373   5.866
10957TIP3   OH232823   7.090   0.129   5.992
10957TIP3    H132824   7.099   0.140   6.086
10957TIP3    H232825   7.153   0.191   5.954
10958TIP3   OH232826   7.280   0.309   5.905
10958TIP3    H132827   7.353   0.256   5.873
10958TIP3    H232828   7.321   0.376   5.959
10959TIP3   OH232829   5.441   6.085   5.996
10959TIP3    H132830   5.351   6.087   5.962
10959TIP3    H232831   5.465   5.992   5.991
10960TIP3   OH232832   6.313   0.118   5.944
10960TIP3    H132833   6.223   0.146   5.924
10960TIP3    H232834   6.339   0.173   6.017
10961TIP3   OH232835   6.546   0.127   5.793
10961TIP3    H132836   6.461   0.130   5.839
10961TIP3    H232837   6.525   0.151   5.703
10962TIP3   OH232838   6.973   0.161   5.587
10962TIP3    H132839   6.903   0.171   5.523
10962TIP3    H232840   6.978   0.246   5.631
10963TIP3   OH232841   7.235   0.097   5.631
10963TIP3    H132842   7.143   0.119   5.619
10963TIP3    H232843   7.282   0.171   5.591
10964TIP3   OH232844   7.439   0.274   5.539
10964TIP3    H132845   7.423   0.354   5.490
10964TIP3    H232846   7.466   0.210   5.474
10965TIP3   OH232847   3.613   7.378   5.660
10965TIP3    H132848   3.621   7.354   5.752
10965TIP3    H232849   3.692   7.341   5.619
10966TIP3   OH232850   3.826   7.262   5.534
10966TIP3    H132851   3.834   7.179   5.581
10966TIP3    H232852   3.911   7.304   5.545
10967TIP3   OH232853   4.089   7.348   5.560
10967TIP3    H132854   4.111   7.255   5.549
10967TIP3    H232855   4.141   7.376   5.635
10968TIP3   OH232856   4.632   6.008   5.650
10968TIP3    H132857   4.593   5.938   5.702
10968TIP3    H232858   4.701   5.965   5.599
10969TIP3   OH232859   5.141   5.918   5.517
10969TIP3    H132860   5.180   5.973   5.449
10969TIP3    H232861   5.052   5.953   5.527
10970TIP3   OH232862   5.267   6.002   5.284
10970TIP3    H132863   5.337   5.941   5.259
10970TIP3    H232864   5.307   6.088   5.271
10971TIP3   OH232865   3.876   5.707   5.646
10971TIP3    H132866   3.787   5.674   5.657
10971TIP3    H232867   3.930   5.629   5.638
10972TIP3   OH232868   3.696   5.617   5.301
10972TIP3    H132869   3.721   5.667   5.223
10972TIP3    H232870   3.660   5.683   5.361
10973TIP3   OH232871   4.358   5.746   5.542
10973TIP3    H132872   4.405   5.795   5.475
10973TIP3    H232873   4.396   5.774   5.625
10974TIP3   OH232874   4.844   5.890   5.519
10974TIP3    H132875   4.854   5.853   5.432
10974TIP3    H232876   4.855   5.815   5.578
10975TIP3   OH232877   4.910   5.839   5.085
10975TIP3    H132878   4.830   5.886   5.108
10975TIP3    H232879   4.899   5.752   5.124
10976TIP3   OH232880   3.381   7.169   5.078
10976TIP3    H132881   3.298   7.158   5.032
10976TIP3    H232882   3.368   7.246   5.133
10977TIP3   OH232883   3.803   5.746   5.062
10977TIP3    H132884   3.848   5.683   5.006
10977TIP3    H232885   3.873   5.801   5.097
10978TIP3   OH232886   4.290   5.942   5.159
10978TIP3    H132887   4.348   5.889   5.215
10978TIP3    H232888   4.305   6.031   5.189
10979TIP3   OH232889   4.159   7.346   4.667
10979TIP3    H132890   4.246   7.373   4.636
10979TIP3    H232891   4.125   7.291   4.597
10980TIP3   OH232892   7.496   0.027   4.766
10980TIP3    H132893   7.493  -0.069   4.759
10980TIP3    H232894   7.459   0.058   4.683
10981TIP3   OH232895   1.469   2.260   0.074
10981TIP3    H132896   1.433   2.195   0.134
10981TIP3    H232897   1.561   2.267   0.099
10982TIP3   OH232898   1.717   2.260   0.197
10982TIP3    H132899   1.792   2.239   0.141
10982TIP3    H232900   1.714   2.190   0.262
10983TIP3   OH232901   3.448   7.213   4.753
10983TIP3    H132902   3.395   7.280   4.797
10983TIP3    H232903   3.479   7.157   4.824
10984TIP3   OH232904   5.163   6.071   6.323
10984TIP3    H132905   5.153   6.044   6.414
10984TIP3    H232906   5.258   6.079   6.310
10985TIP3   OH232907   7.719   0.167   5.936
10985TIP3    H132908   7.633   0.163   5.893
10985TIP3    H232909   7.705   0.224   6.012
10986TIP3   OH232910   6.343   7.005   4.722
10986TIP3    H132911   6.317   7.089   4.684
10986TIP3    H232912   6.287   6.940   4.680
10987TIP3   OH232913   6.328   7.098   4.990
10987TIP3    H132914   6.402   7.053   5.031
10987TIP3    H232915   6.324   7.061   4.901
10988TIP3   OH232916   5.653   6.842   5.448
10988TIP3    H132917   5.687   6.788   5.519
10988TIP3    H232918   5.730   6.866   5.397
10989TIP3   OH232919   5.666   7.290   5.160
10989TIP3    H132920   5.644   7.197   5.155
10989TIP3    H232921   5.752   7.296   5.119
10990TIP3   OH232922   5.330   6.472   4.939
10990TIP3    H132923   5.303   6.563   4.956
10990TIP3    H232924   5.257   6.434   4.891
10991TIP3   OH232925   5.418   6.795   5.136
10991TIP3    H132926   5.468   6.719   5.168
10991TIP3    H232927   5.485   6.854   5.102
10992TIP3   OH232928   6.138   7.241   5.125
10992TIP3    H132929   6.192   7.180   5.075
10992TIP3    H232930   6.199   7.310   5.152
10993TIP3   OH232931   6.616   6.709   5.123
10993TIP3    H132932   6.636   6.622   5.156
10993TIP3    H232933   6.544   6.695   5.061
10994TIP3   OH232934   5.933   6.367   5.096
10994TIP3    H132935   5.912   6.444   5.043
10994TIP3    H232936   5.879   6.297   5.060
10995TIP3   OH232937   6.620   6.463   4.742
10995TIP3    H132938   6.687   6.445   4.807
10995TIP3    H232939   6.668   6.494   4.665
10996TIP3   OH232940   5.559   6.578   5.234
10996TIP3    H132941   5.641   6.560   5.280
10996TIP3    H232942   5.567   6.530   5.151
10997TIP3   OH232943   5.966   6.795   5.033
10997TIP3    H132944   6.060   6.794   5.018
10997TIP3    H232945   5.936   6.709   5.000
10998TIP3   OH232946   5.893   6.340   5.555
10998TIP3    H132947   5.844   6.379   5.482
10998TIP3    H232948   5.839   6.358   5.632
10999TIP3   OH232949   6.256   7.218   4.573
10999TIP3    H132950   6.220   7.187   4.490
10999TIP3    H232951   6.198   7.289   4.600
11000TIP3   OH232952   6.008   7.112   5.339
11000TIP3    H132953   5.947   7.175   5.375
11000TIP3    H232954   6.056   7.160   5.272
11001TIP3   OH232955   6.802   6.442   4.943
11001TIP3    H132956   6.759   6.444   5.028
11001TIP3    H232957   6.876   6.502   4.951
11002TIP3   OH232958   5.797   6.458   5.323
11002TIP3    H132959   5.854   6.530   5.349
11002TIP3    H232960   5.842   6.418   5.248
11003TIP3   OH232961   5.803   7.284   5.405
11003TIP3    H132962   5.748   7.292   5.327
11003TIP3    H232963   5.746   7.313   5.477
11004TIP3   OH232964   5.215   7.040   4.672
11004TIP3    H132965   5.192   7.048   4.580
11004TIP3    H232966   5.232   7.130   4.700
11005TIP3   OH232967   6.980   6.413   5.278
11005TIP3    H132968   6.921   6.484   5.301
11005TIP3    H232969   6.968   6.400   5.184
11006TIP3   OH232970   6.259   6.059   5.285
11006TIP3    H132971   6.254   5.968   5.314
11006TIP3    H232972   6.182   6.101   5.322
11007TIP3   OH232973   1.089   0.087   4.537
11007TIP3    H132974   1.151   0.015   4.533
11007TIP3    H232975   1.138   0.160   4.575
11008TIP3   OH232976   6.516   7.312   4.539
11008TIP3    H132977   6.536   7.267   4.457
11008TIP3    H232978   6.436   7.270   4.571
11009TIP3   OH232979   6.201   6.855   4.535
11009TIP3    H132980   6.114   6.889   4.513
11009TIP3    H232981   6.245   6.845   4.451
11010TIP3   OH232982   6.180   6.654   4.210
11010TIP3    H132983   6.246   6.696   4.266
11010TIP3    H232984   6.227   6.582   4.168
11011TIP3   OH232985   6.532   6.946   4.517
11011TIP3    H132986   6.483   6.967   4.597
11011TIP3    H232987   6.611   6.903   4.548
11012TIP3   OH232988   5.761   6.923   4.897
11012TIP3    H132989   5.724   6.860   4.835
11012TIP3    H232990   5.835   6.876   4.936
11013TIP3   OH232991   5.901   7.349   5.030
11013TIP3    H132992   5.888   7.329   4.937
11013TIP3    H232993   5.982   7.303   5.053
11014TIP3   OH232994   5.871   6.889   5.275
11014TIP3    H132995   5.908   6.862   5.191
11014TIP3    H232996   5.924   6.964   5.302
11015TIP3   OH232997   6.392   6.788   4.339
11015TIP3    H132998   6.448   6.852   4.384
11015TIP3    H232999   6.416   6.796   4.247
11016TIP3   OH233000   5.792   6.994   5.723
11016TIP3    H133001   5.784   7.089   5.727
11016TIP3    H233002   5.701   6.963   5.719
11017TIP3   OH233003   0.837   0.002   4.605
11017TIP3    H133004   0.923   0.041   4.588
11017TIP3    H233005   0.776   0.057   4.554
11018TIP3   OH233006   6.880   6.013   4.388
11018TIP3    H133007   6.818   6.034   4.458
11018TIP3    H233008   6.888   6.094   4.338
11019TIP3   OH233009   5.652   6.756   4.702
11019TIP3    H133010   5.569   6.794   4.674
11019TIP3    H233011   5.666   6.682   4.642
11020TIP3   OH233012   6.688   7.424   3.908
11020TIP3    H133013   6.730   7.507   3.929
11020TIP3    H233014   6.760   7.366   3.881
11021TIP3   OH233015   5.432   7.163   5.630
11021TIP3    H133016   5.361   7.146   5.569
11021TIP3    H233017   5.464   7.076   5.655
11022TIP3   OH233018   5.264   7.367   5.277
11022TIP3    H133019   5.351   7.393   5.308
11022TIP3    H233020   5.208   7.440   5.301
11023TIP3   OH233021   0.707   0.234   4.434
11023TIP3    H133022   0.628   0.216   4.384
11023TIP3    H233023   0.695   0.323   4.467
11024TIP3   OH233024   0.165   0.083   4.821
11024TIP3    H133025   0.240   0.087   4.881
11024TIP3    H233026   0.090   0.065   4.877
11025TIP3   OH233027   0.942   0.125   4.045
11025TIP3    H133028   1.003   0.063   4.005
11025TIP3    H233029   0.971   0.134   4.135
11026TIP3   OH233030   0.952   0.183   4.315
11026TIP3    H133031   0.868   0.199   4.359
11026TIP3    H233032   1.004   0.136   4.379
11027TIP3   OH233033   5.607   7.367   5.586
11027TIP3    H133034   5.614   7.405   5.673
11027TIP3    H233035   5.546   7.294   5.597
11028TIP3   OH233036   6.020   6.145   5.401
11028TIP3    H133037   5.935   6.115   5.369
11028TIP3    H233038   6.000   6.223   5.453
11029TIP3   OH233039   6.542   6.250   5.607
11029TIP3    H133040   6.592   6.213   5.680
11029TIP3    H233041   6.451   6.239   5.633
11030TIP3   OH233042   6.439   6.769   4.072
11030TIP3    H133043   6.381   6.769   3.996
11030TIP3    H233044   6.519   6.811   4.041
11031TIP3   OH233045   6.166   6.184   4.383
11031TIP3    H133046   6.134   6.193   4.473
11031TIP3    H233047   6.115   6.111   4.347
11032TIP3   OH233048   5.957   6.660   5.409
11032TIP3    H133049   5.911   6.665   5.493
11032TIP3    H233050   5.939   6.743   5.366
11033TIP3   OH233051   5.840   6.568   4.935
11033TIP3    H133052   5.749   6.551   4.956
11033TIP3    H233053   5.851   6.536   4.846
11034TIP3   OH233054   6.321   6.640   4.653
11034TIP3    H133055   6.274   6.713   4.614
11034TIP3    H233056   6.375   6.605   4.582
11035TIP3   OH233057   6.468   6.654   4.881
11035TIP3    H133058   6.406   6.665   4.809
11035TIP3    H233059   6.521   6.578   4.856
11036TIP3   OH233060   5.783   6.666   5.627
11036TIP3    H133061   5.844   6.715   5.683
11036TIP3    H233062   5.762   6.588   5.678
11037TIP3   OH233063   5.810   6.229   4.382
11037TIP3    H133064   5.799   6.200   4.473
11037TIP3    H233065   5.772   6.317   4.381
11038TIP3   OH233066   5.394   6.233   5.223
11038TIP3    H133067   5.455   6.260   5.291
11038TIP3    H233068   5.411   6.294   5.151
11039TIP3   OH233069   5.293   6.204   4.717
11039TIP3    H133070   5.343   6.241   4.644
11039TIP3    H233071   5.233   6.274   4.743
11040TIP3   OH233072   6.198   6.365   4.993
11040TIP3    H133073   6.117   6.364   5.043
11040TIP3    H233074   6.268   6.362   5.059
11041TIP3   OH233075   5.599   6.440   5.003
11041TIP3    H133076   5.514   6.443   4.961
11041TIP3    H233077   5.636   6.355   4.979
11042TIP3   OH233078   5.858   6.449   4.688
11042TIP3    H133079   5.948   6.469   4.664
11042TIP3    H233080   5.805   6.480   4.614
11043TIP3   OH233081   6.661   6.444   5.186
11043TIP3    H133082   6.652   6.452   5.281
11043TIP3    H233083   6.591   6.385   5.160
11044TIP3   OH233084   6.239   6.766   5.017
11044TIP3    H133085   6.318   6.740   4.968
11044TIP3    H233086   6.255   6.736   5.106
11045TIP3   OH233087   5.746   6.201   4.966
11045TIP3    H133088   5.719   6.122   5.013
11045TIP3    H233089   5.766   6.170   4.878
11046TIP3   OH233090   6.211   6.779   5.539
11046TIP3    H133091   6.178   6.688   5.537
11046TIP3    H233092   6.238   6.796   5.449
11047TIP3   OH233093   5.950   6.962   4.477
11047TIP3    H133094   5.886   6.892   4.465
11047TIP3    H233095   5.925   7.004   4.559
11048TIP3   OH233096   6.419   6.285   4.390
11048TIP3    H133097   6.326   6.265   4.384
11048TIP3    H233098   6.423   6.380   4.398
11049TIP3   OH233099   6.485   6.550   4.446
11049TIP3    H133100   6.581   6.550   4.455
11049TIP3    H233101   6.466   6.630   4.397
11050TIP3   OH233102   5.651   7.011   5.133
11050TIP3    H133103   5.685   6.988   5.047
11050TIP3    H233104   5.713   6.971   5.195
11051TIP3   OH233105   6.114   7.139   4.343
11051TIP3    H133106   6.066   7.221   4.334
11051TIP3    H233107   6.052   7.079   4.385
11052TIP3   OH233108   5.519   6.924   5.741
11052TIP3    H133109   5.516   6.889   5.830
11052TIP3    H233110   5.449   6.878   5.696
11053TIP3   OH233111   6.893   6.632   4.285
11053TIP3    H133112   6.853   6.584   4.213
11053TIP3    H233113   6.866   6.723   4.272
11054TIP3   OH233114   6.456   7.454   4.241
11054TIP3    H133115   6.416   7.368   4.231
11054TIP3    H233116   6.549   7.440   4.225
11055TIP3   OH233117   5.771   7.332   4.782
11055TIP3    H133118   5.764   7.411   4.727
11055TIP3    H233119   5.681   7.313   4.808
11056TIP3   OH233120   5.301   6.610   4.475
11056TIP3    H133121   5.377   6.661   4.501
11056TIP3    H233122   5.237   6.624   4.545
11057TIP3   OH233123   5.865   7.088   4.698
11057TIP3    H133124   5.849   7.178   4.725
11057TIP3    H233125   5.832   7.035   4.771
11058TIP3   OH233126   0.386   0.099   4.643
11058TIP3    H133127   0.301   0.103   4.687
11058TIP3    H233128   0.413   0.191   4.636
11059TIP3   OH233129   6.406   7.183   4.096
11059TIP3    H133130   6.443   7.158   4.180
11059TIP3    H233131   6.316   7.149   4.098
11060TIP3   OH233132   1.482   0.238   3.943
11060TIP3    H133133   1.520   0.324   3.926
11060TIP3    H233134   1.388   0.255   3.952
11061TIP3   OH233135   5.731   6.422   5.764
11061TIP3    H133136   5.638   6.437   5.782
11061TIP3    H233137   5.763   6.376   5.842
11062TIP3   OH233138   6.549   7.135   4.322
11062TIP3    H133139   6.537   7.067   4.388
11062TIP3    H233140   6.644   7.142   4.312
11063TIP3   OH233141   0.197   0.075   5.401
11063TIP3    H133142   0.262   0.021   5.447
11063TIP3    H233143   0.157   0.128   5.469
11064TIP3   OH233144   5.756   7.165   4.110
11064TIP3    H133145   5.759   7.073   4.084
11064TIP3    H233146   5.733   7.163   4.204
11065TIP3   OH233147   5.694   7.181   4.382
11065TIP3    H133148   5.762   7.152   4.443
11065TIP3    H233149   5.698   7.277   4.386
11066TIP3   OH233150   5.420   6.865   4.594
11066TIP3    H133151   5.352   6.913   4.640
11066TIP3    H233152   5.440   6.919   4.518
11067TIP3   OH233153   6.601   6.471   5.450
11067TIP3    H133154   6.581   6.544   5.509
11067TIP3    H233155   6.585   6.392   5.503
11068TIP3   OH233156   6.485   6.238   4.656
11068TIP3    H133157   6.462   6.251   4.564
11068TIP3    H233158   6.524   6.321   4.683
11069TIP3   OH233159   5.974   7.372   4.314
11069TIP3    H133160   5.888   7.397   4.347
11069TIP3    H233161   5.998   7.440   4.251
11070TIP3   OH233162   6.141   6.450   4.732
11070TIP3    H133163   6.202   6.519   4.706
11070TIP3    H233164   6.157   6.438   4.826
11071TIP3   OH233165   6.293   6.157   4.837
11071TIP3    H133166   6.266   6.234   4.887
11071TIP3    H233167   6.363   6.189   4.780
11072TIP3   OH233168   0.456   0.007   4.394
11072TIP3    H133169   0.431   0.079   4.336
11072TIP3    H233170   0.430   0.037   4.481
11073TIP3   OH233171   5.817   6.175   4.674
11073TIP3    H133172   5.812   6.271   4.683
11073TIP3    H233173   5.910   6.158   4.660
11074TIP3   OH233174   6.704   6.805   4.875
11074TIP3    H133175   6.615   6.771   4.868
11074TIP3    H233176   6.721   6.808   4.969
11075TIP3   OH233177   5.456   7.034   4.372
11075TIP3    H133178   5.528   7.097   4.376
11075TIP3    H233179   5.489   6.962   4.318
11076TIP3   OH233180   5.399   6.347   4.501
11076TIP3    H133181   5.489   6.380   4.495
11076TIP3    H233182   5.344   6.424   4.488
11077TIP3   OH233183   5.755   6.068   5.364
11077TIP3    H133184   5.724   6.040   5.278
11077TIP3    H233185   5.752   5.989   5.418
11078TIP3   OH233186   5.262   7.304   4.751
11078TIP3    H133187   5.234   7.312   4.842
11078TIP3    H233188   5.342   7.356   4.746
11079TIP3   OH233189   5.902   7.369   3.999
11079TIP3    H133190   5.856   7.296   4.041
11079TIP3    H233191   5.978   7.328   3.958
11080TIP3   OH233192   6.357   7.391   3.916
11080TIP3    H133193   6.410   7.341   3.978
11080TIP3    H233194   6.408   7.391   3.836
11081TIP3   OH233195   5.566   6.820   4.237
11081TIP3    H133196   5.596   6.744   4.286
11081TIP3    H233197   5.638   6.840   4.177
11082TIP3   OH233198   6.148   7.086   4.071
11082TIP3    H133199   6.122   7.093   4.163
11082TIP3    H233200   6.127   6.996   4.047
11083TIP3   OH233201   5.999   6.813   5.721
11083TIP3    H133202   5.943   6.890   5.722
11083TIP3    H233203   6.072   6.836   5.664
11084TIP3   OH233204   6.643   6.885   3.939
11084TIP3    H133205   6.641   6.828   3.863
11084TIP3    H233206   6.603   6.967   3.909
11085TIP3   OH233207   6.083   6.568   5.811
11085TIP3    H133208   6.039   6.553   5.895
11085TIP3    H233209   6.061   6.658   5.787
11086TIP3   OH233210   6.152   6.415   5.596
11086TIP3    H133211   6.146   6.469   5.675
11086TIP3    H233212   6.062   6.393   5.575
11087TIP3   OH233213   6.271   6.646   5.265
11087TIP3    H133214   6.189   6.605   5.295
11087TIP3    H233215   6.340   6.587   5.295
11088TIP3   OH233216   6.285   6.188   5.671
11088TIP3    H133217   6.239   6.268   5.644
11088TIP3    H233218   6.218   6.119   5.666
11089TIP3   OH233219   5.891   6.530   6.043
11089TIP3    H133220   5.895   6.435   6.033
11089TIP3    H233221   5.875   6.545   6.136
11090TIP3   OH233222   6.382   6.166   5.929
11090TIP3    H133223   6.471   6.138   5.910
11090TIP3    H233224   6.341   6.175   5.843
11091TIP3   OH233225   0.451   0.229   4.232
11091TIP3    H133226   0.532   0.202   4.188
11091TIP3    H233227   0.401   0.275   4.164
11092TIP3   OH233228   5.180   7.042   4.392
11092TIP3    H133229   5.275   7.054   4.383
11092TIP3    H233230   5.163   6.957   4.350
11093TIP3   OH233231   7.726   0.154   4.827
11093TIP3    H133232   7.643   0.110   4.815
11093TIP3    H233233   7.768   0.108   4.900
11094TIP3   OH233234   7.876   0.022   5.016
11094TIP3    H133235   7.864  -0.046   5.082
11094TIP3    H233236   7.916   0.095   5.063
11095TIP3   OH233237   6.822   7.149   4.309
11095TIP3    H133238   6.899   7.181   4.261
11095TIP3    H233239   6.854   7.073   4.357
11096TIP3   OH233240   6.931   6.948   4.465
11096TIP3    H133241   6.864   6.902   4.516
11096TIP3    H233242   6.987   6.989   4.531
11097TIP3   OH233243   6.786   6.860   4.177
11097TIP3    H133244   6.734   6.857   4.097
11097TIP3    H233245   6.866   6.905   4.153
11098TIP3   OH233246   6.764   6.521   4.071
11098TIP3    H133247   6.714   6.560   3.999
11098TIP3    H233248   6.753   6.426   4.059
11099TIP3   OH233249   6.750   6.802   4.609
11099TIP3    H133250   6.761   6.709   4.590
11099TIP3    H233251   6.746   6.808   4.704
11100TIP3   OH233252   5.399   6.915   5.381
11100TIP3    H133253   5.390   6.877   5.294
11100TIP3    H233254   5.490   6.901   5.405
11101TIP3   OH233255   6.710   6.252   4.044
11101TIP3    H133256   6.771   6.229   4.114
11101TIP3    H233257   6.625   6.222   4.076
11102TIP3   OH233258   6.770   6.534   4.514
11102TIP3    H133259   6.814   6.452   4.532
11102TIP3    H233260   6.813   6.569   4.436
11103TIP3   OH233261   5.620   6.583   6.013
11103TIP3    H133262   5.715   6.580   6.012
11103TIP3    H233263   5.594   6.503   6.059
11104TIP3   OH233264   6.886   6.291   4.579
11104TIP3    H133265   6.940   6.281   4.657
11104TIP3    H233266   6.826   6.216   4.581
11105TIP3   OH233267   5.589   6.288   5.411
11105TIP3    H133268   5.644   6.209   5.409
11105TIP3    H233269   5.648   6.358   5.384
11106TIP3   OH233270   5.374   6.550   5.442
11106TIP3    H133271   5.431   6.555   5.366
11106TIP3    H233272   5.406   6.619   5.501
11107TIP3   OH233273   6.933   6.215   4.208
11107TIP3    H133274   6.983   6.152   4.156
11107TIP3    H233275   6.989   6.293   4.210
11108TIP3   OH233276   5.336   6.040   4.940
11108TIP3    H133277   5.260   6.052   4.997
11108TIP3    H233278   5.333   6.114   4.879
11109TIP3   OH233279   5.583   6.091   5.751
11109TIP3    H133280   5.544   6.093   5.838
11109TIP3    H233281   5.531   6.154   5.700
11110TIP3   OH233282   0.137   0.205   5.146
11110TIP3    H133283   0.141   0.181   5.239
11110TIP3    H233284   0.218   0.171   5.108
11111TIP3   OH233285   0.346   0.078   5.024
11111TIP3    H133286   0.359  -0.001   5.077
11111TIP3    H233287   0.432   0.120   5.022
11112TIP3   OH233288   0.605   0.178   5.030
11112TIP3    H133289   0.629   0.085   5.025
11112TIP3    H233290   0.648   0.209   5.110
11113TIP3   OH233291   6.427   6.275   5.140
11113TIP3    H133292   6.385   6.204   5.189
11113TIP3    H233293   6.491   6.230   5.084
11114TIP3   OH233294   6.929   6.165   5.011
11114TIP3    H133295   6.974   6.198   4.933
11114TIP3    H233296   6.839   6.195   5.002
11115TIP3   OH233297   7.068   6.250   4.786
11115TIP3    H133298   7.127   6.182   4.751
11115TIP3    H233299   7.112   6.332   4.765
11116TIP3   OH233300   5.672   5.973   5.113
11116TIP3    H133301   5.583   5.940   5.130
11116TIP3    H233302   5.728   5.896   5.123
11117TIP3   OH233303   5.463   5.857   4.789
11117TIP3    H133304   5.533   5.913   4.756
11117TIP3    H233305   5.415   5.913   4.851
11118TIP3   OH233306   6.151   5.999   5.027
11118TIP3    H133307   6.197   6.050   4.960
11118TIP3    H233308   6.190   6.028   5.110
11119TIP3   OH233309   6.628   6.152   4.995
11119TIP3    H133310   6.615   6.122   4.905
11119TIP3    H233311   6.639   6.071   5.046
11120TIP3   OH233312   6.707   6.075   4.599
11120TIP3    H133313   6.624   6.121   4.614
11120TIP3    H233314   6.689   5.984   4.624
11121TIP3   OH233315   7.733   0.018   4.581
11121TIP3    H133316   7.777  -0.065   4.601
11121TIP3    H233317   7.749   0.073   4.658
11122TIP3   OH233318   6.092   6.196   4.647
11122TIP3    H133319   6.153   6.154   4.709
11122TIP3    H233320   6.100   6.289   4.666
11123TIP3   OH233321   0.686   0.158   4.120
11123TIP3    H133322   0.778   0.162   4.096
11123TIP3    H233323   0.651   0.084   4.071
11124TIP3   OH233324   1.526   0.263   4.248
11124TIP3    H133325   1.440   0.239   4.282
11124TIP3    H233326   1.507   0.324   4.177
11125TIP3   OH233327   5.865   6.255   5.975
11125TIP3    H133328   5.838   6.185   6.034
11125TIP3    H233329   5.961   6.255   5.980
11126TIP3   OH233330   6.129   6.235   6.028
11126TIP3    H133331   6.220   6.218   6.005
11126TIP3    H233332   6.122   6.211   6.120
11127TIP3   OH233333   7.113   6.726   4.449
11127TIP3    H133334   7.073   6.813   4.458
11127TIP3    H233335   7.051   6.677   4.395
11128TIP3   OH233336   6.991   7.278   4.131
11128TIP3    H133337   6.975   7.314   4.044
11128TIP3    H233338   6.994   7.355   4.188
11129TIP3   OH233339   7.436   6.949   4.219
11129TIP3    H133340   7.348   6.983   4.203
11129TIP3    H233341   7.422   6.869   4.270
11130TIP3   OH233342   7.900   6.472   3.813
11130TIP3    H133343   7.915   6.488   3.906
11130TIP3    H233344   7.882   6.378   3.807
11131TIP3   OH233345   7.584   6.409   3.805
11131TIP3    H133346   7.596   6.418   3.900
11131TIP3    H233347   7.519   6.475   3.783
11132TIP3   OH233348   7.192   6.468   4.675
11132TIP3    H133349   7.216   6.558   4.651
11132TIP3    H233350   7.204   6.418   4.595
11133TIP3   OH233351   7.090   6.442   4.223
11133TIP3    H133352   7.138   6.473   4.146
11133TIP3    H233353   7.031   6.515   4.245
11134TIP3   OH233354   7.384   6.734   4.381
11134TIP3    H133355   7.293   6.725   4.410
11134TIP3    H233356   7.427   6.654   4.411
11135TIP3   OH233357   7.712   6.653   4.165
11135TIP3    H133358   7.726   6.739   4.205
11135TIP3    H233359   7.643   6.669   4.100
11136TIP3   OH233360   7.510   6.656   3.976
11136TIP3    H133361   7.421   6.637   3.945
11136TIP3    H233362   7.547   6.712   3.908
11137TIP3   OH233363   7.489   6.486   4.463
11137TIP3    H133364   7.478   6.406   4.515
11137TIP3    H233365   7.560   6.464   4.401
11138TIP3   OH233366   7.201   6.843   3.988
11138TIP3    H133367   7.279   6.897   3.977
11138TIP3    H233368   7.138   6.901   4.033
11139TIP3   OH233369   7.244   7.139   4.133
11139TIP3    H133370   7.181   7.189   4.185
11139TIP3    H233371   7.238   7.177   4.045
11140TIP3   OH233372   7.617   6.392   4.085
11140TIP3    H133373   7.606   6.484   4.112
11140TIP3    H233374   7.712   6.377   4.089
11141TIP3   OH233375   7.224   7.269   3.890
11141TIP3    H133376   7.268   7.354   3.882
11141TIP3    H233377   7.261   7.216   3.819
11142TIP3   OH233378   7.174   6.571   4.000
11142TIP3    H133379   7.190   6.665   4.015
11142TIP3    H233380   7.130   6.568   3.915
11143TIP3   OH233381   7.310   7.074   3.718
11143TIP3    H133382   7.350   7.037   3.796
11143TIP3    H233383   7.381   7.076   3.653
11144TIP3   OH233384   7.437   6.977   3.945
11144TIP3    H133385   7.461   6.965   4.037
11144TIP3    H233386   7.508   6.934   3.896
11145TIP3   OH233387   7.616   6.834   3.797
11145TIP3    H133388   7.622   6.813   3.704
11145TIP3    H233389   7.685   6.899   3.812
11146TIP3   OH233390   6.962   7.331   3.857
11146TIP3    H133391   7.056   7.310   3.861
11146TIP3    H233392   6.922   7.256   3.814
11147TIP3   OH233393   7.154   6.307   4.450
11147TIP3    H133394   7.065   6.287   4.479
11147TIP3    H233395   7.142   6.362   4.372
11148TIP3   OH233396   7.467   6.236   4.591
11148TIP3    H133397   7.379   6.207   4.615
11148TIP3    H233398   7.521   6.157   4.600
11149TIP3   OH233399   7.312   6.134   4.275
11149TIP3    H133400   7.332   6.177   4.192
11149TIP3    H233401   7.275   6.203   4.329
11150TIP3   OH233402   1.723   0.140   4.037
11150TIP3    H133403   1.639   0.171   4.001
11150TIP3    H233404   1.786   0.207   4.011
11151TIP3   OH233405   7.397   6.238   4.027
11151TIP3    H133406   7.437   6.178   3.964
11151TIP3    H233407   7.470   6.295   4.055
11152TIP3   OH233408  -0.007   6.421   4.110
11152TIP3    H133409   0.071   6.396   4.159
11152TIP3    H233410  -0.031   6.507   4.146
11153TIP3   OH233411   1.166   7.070   5.566
11153TIP3    H133412   1.082   7.091   5.606
11153TIP3    H233413   1.187   7.146   5.512
11154TIP3   OH233414   3.862   0.170   5.478
11154TIP3    H133415   3.776   0.162   5.436
11154TIP3    H233416   3.894   0.256   5.452
11155TIP3   OH233417   3.633   0.148   5.323
11155TIP3    H133418   3.639   0.168   5.230
11155TIP3    H233419   3.595   0.060   5.326
11156TIP3   OH233420   0.941   7.324   5.353
11156TIP3    H133421   1.028   7.295   5.379
11156TIP3    H233422   0.907   7.252   5.299
11157TIP3   OH233423   3.662   0.158   5.738
11157TIP3    H133424   3.690   0.067   5.728
11157TIP3    H233425   3.743   0.206   5.756
11158TIP3   OH233426   1.128   7.343   5.735
11158TIP3    H133427   1.173   7.314   5.814
11158TIP3    H233428   1.057   7.280   5.724
11159TIP3   OH233429   1.211   7.261   5.367
11159TIP3    H133430   1.250   7.188   5.319
11159TIP3    H233431   1.283   7.324   5.378
11160TIP3   OH233432   1.287   7.264   5.950
11160TIP3    H133433   1.358   7.207   5.919
11160TIP3    H233434   1.327   7.351   5.953
11161TIP3   OH233435   0.939   7.139   5.702
11161TIP3    H133436   0.855   7.145   5.656
11161TIP3    H233437   0.928   7.065   5.762
11162TIP3   OH233438   5.882   0.387   5.784
11162TIP3    H133439   5.867   0.481   5.779
11162TIP3    H233440   5.922   0.365   5.700
11163TIP3   OH233441   5.302   0.544   5.862
11163TIP3    H133442   5.368   0.475   5.872
11163TIP3    H233443   5.221   0.504   5.893
11164TIP3   OH233444   4.619   0.207   5.819
11164TIP3    H133445   4.602   0.276   5.755
11164TIP3    H233446   4.568   0.132   5.788
11165TIP3   OH233447   5.299   0.311   5.380
11165TIP3    H133448   5.361   0.309   5.453
11165TIP3    H233449   5.354   0.327   5.303
11166TIP3   OH233450   6.069   0.617   5.995
11166TIP3    H133451   5.978   0.620   5.964
11166TIP3    H233452   6.063   0.640   6.088
11167TIP3   OH233453   5.463   0.300   5.597
11167TIP3    H133454   5.523   0.227   5.586
11167TIP3    H233455   5.454   0.311   5.691
11168TIP3   OH233456   5.681   0.284   5.957
11168TIP3    H133457   5.596   0.292   5.915
11168TIP3    H233458   5.744   0.312   5.891
11169TIP3   OH233459   2.312   7.350   5.949
11169TIP3    H133460   2.301   7.259   5.979
11169TIP3    H233461   2.236   7.395   5.985
11170TIP3   OH233462   4.877   0.452   4.984
11170TIP3    H133463   4.835   0.492   5.060
11170TIP3    H233464   4.813   0.389   4.951
11171TIP3   OH233465   2.938   7.316   5.040
11171TIP3    H133466   2.866   7.338   5.099
11171TIP3    H233467   2.953   7.396   4.989
11172TIP3   OH233468   4.712   0.028   6.034
11172TIP3    H133469   4.625  -0.013   6.032
11172TIP3    H233470   4.702   0.107   5.982
11173TIP3   OH233471   5.257   0.106   6.283
11173TIP3    H133472   5.331   0.082   6.340
11173TIP3    H233473   5.179   0.078   6.332
11174TIP3   OH233474   4.868   0.026   5.058
11174TIP3    H133475   4.831   0.033   5.146
11174TIP3    H233476   4.831  -0.055   5.023
11175TIP3   OH233477   4.540   0.386   5.622
11175TIP3    H133478   4.449   0.418   5.624
11175TIP3    H233479   4.542   0.325   5.548
11176TIP3   OH233480   5.014   0.409   5.374
11176TIP3    H133481   4.966   0.476   5.325
11176TIP3    H233482   5.104   0.417   5.343
11177TIP3   OH233483   5.149   0.407   5.617
11177TIP3    H133484   5.103   0.402   5.533
11177TIP3    H233485   5.222   0.345   5.608
11178TIP3   OH233486   4.521  -0.003   5.042
11178TIP3    H133487   4.501   0.003   5.135
11178TIP3    H233488   4.443   0.031   4.998
11179TIP3   OH233489   4.075   0.032   5.897
11179TIP3    H133490   4.111   0.121   5.896
11179TIP3    H233491   4.087  -0.000   5.808
11180TIP3   OH233492   4.045   0.000   5.381
11180TIP3    H133493   4.081   0.042   5.303
11180TIP3    H233494   3.987   0.067   5.419
11181TIP3   OH233495   4.858   0.228   5.673
11181TIP3    H133496   4.792   0.217   5.741
11181TIP3    H233497   4.937   0.188   5.711
11182TIP3   OH233498   4.239   0.182   5.658
11182TIP3    H133499   4.268   0.260   5.611
11182TIP3    H233500   4.315   0.124   5.657
11183TIP3   OH233501   4.508   0.233   5.392
11183TIP3    H133502   4.595   0.264   5.367
11183TIP3    H233503   4.453   0.251   5.316
11184TIP3   OH233504   5.417   0.278   5.870
11184TIP3    H133505   5.385   0.284   5.960
11184TIP3    H233506   5.383   0.193   5.839
11185TIP3   OH233507   4.336   0.224   5.169
11185TIP3    H133508   4.244   0.201   5.183
11185TIP3    H233509   4.348   0.215   5.074
11186TIP3   OH233510   5.045   0.436   5.872
11186TIP3    H133511   5.065   0.412   5.782
11186TIP3    H233512   4.979   0.504   5.864
11187TIP3   OH233513   1.834   7.472   5.675
11187TIP3    H133514   1.793   7.397   5.719
11187TIP3    H233515   1.877   7.434   5.598
11188TIP3   OH233516   5.133   0.082   5.076
11188TIP3    H133517   5.038   0.073   5.073
11188TIP3    H233518   5.149   0.174   5.059
11189TIP3   OH233519   5.205   0.339   5.051
11189TIP3    H133520   5.294   0.344   5.088
11189TIP3    H233521   5.164   0.422   5.078
11190TIP3   OH233522   5.651   0.468   4.921
11190TIP3    H133523   5.573   0.429   4.883
11190TIP3    H233524   5.621   0.506   5.004
11191TIP3   OH233525   5.333   0.317   6.124
11191TIP3    H133526   5.265   0.382   6.139
11191TIP3    H233527   5.312   0.245   6.184
11192TIP3   OH233528   5.171   0.074   5.342
11192TIP3    H133529   5.153   0.079   5.248
11192TIP3    H233530   5.209   0.160   5.363
11193TIP3   OH233531   4.788   0.268   5.415
11193TIP3    H133532   4.869   0.311   5.389
11193TIP3    H233533   4.800   0.250   5.509
11194TIP3   OH233534   4.984  -0.026   5.507
11194TIP3    H133535   5.006   0.020   5.589
11194TIP3    H233536   5.048   0.005   5.444
11195TIP3   OH233537   1.869   7.416   5.319
11195TIP3    H133538   1.854   7.504   5.355
11195TIP3    H233539   1.964   7.406   5.318
11196TIP3   OH233540   5.702   0.486   6.152
11196TIP3    H133541   5.619   0.502   6.196
11196TIP3    H233542   5.685   0.411   6.096
11197TIP3   OH233543   5.404   0.578   5.576
11197TIP3    H133544   5.333   0.541   5.629
11197TIP3    H233545   5.478   0.585   5.636
11198TIP3   OH233546   4.063   0.186   5.173
11198TIP3    H133547   4.022   0.258   5.222
11198TIP3    H233548   4.016   0.184   5.090
11199TIP3   OH233549   1.834   7.357   6.037
11199TIP3    H133550   1.788   7.341   5.955
11199TIP3    H233551   1.806   7.285   6.095
11200TIP3   OH233552   4.984   0.032   6.318
11200TIP3    H133553   4.939   0.116   6.316
11200TIP3    H233554   4.914  -0.033   6.323
11201TIP3   OH233555   5.422   0.380   4.807
11201TIP3    H133556   5.419   0.421   4.720
11201TIP3    H233557   5.374   0.298   4.797
11202TIP3   OH233558   5.485   0.750   5.348
11202TIP3    H133559   5.488   0.663   5.387
11202TIP3    H233560   5.446   0.806   5.416
11203TIP3   OH233561   5.373   0.111   4.732
11203TIP3    H133562   5.444   0.083   4.790
11203TIP3    H233563   5.299   0.055   4.756
11204TIP3   OH233564   5.461   0.332   5.159
11204TIP3    H133565   5.514   0.256   5.184
11204TIP3    H233566   5.522   0.406   5.166
11205TIP3   OH233567   5.590   0.581   5.776
11205TIP3    H133568   5.684   0.599   5.783
11205TIP3    H233569   5.549   0.634   5.844
11206TIP3   OH233570   5.528   0.761   5.994
11206TIP3    H133571   5.473   0.733   6.068
11206TIP3    H233572   5.601   0.808   6.035
11207TIP3   OH233573   6.107   0.312   6.458
11207TIP3    H133574   6.161   0.251   6.407
11207TIP3    H233575   6.075   0.375   6.394
11208TIP3   OH233576   5.604   0.120   5.278
11208TIP3    H133577   5.626   0.112   5.371
11208TIP3    H233578   5.536   0.054   5.264
11209TIP3   OH233579   5.960   0.429   6.249
11209TIP3    H133580   5.873   0.464   6.231
11209TIP3    H233581   5.960   0.342   6.209
11210TIP3   OH233582   5.625   0.074   4.857
11210TIP3    H133583   5.663   0.003   4.804
11210TIP3    H233584   5.699   0.127   4.884
11211TIP3   OH233585   1.401   7.357   5.644
11211TIP3    H133586   1.307   7.361   5.659
11211TIP3    H233587   1.416   7.412   5.567
11212TIP3   OH233588   5.901   0.171   6.155
11212TIP3    H133589   5.815   0.157   6.116
11212TIP3    H233590   5.943   0.085   6.153
11213TIP3   OH233591   5.070   0.068   5.754
11213TIP3    H133592   5.049   0.014   5.830
11213TIP3    H233593   5.165   0.067   5.748
11214TIP3   OH233594   1.721   7.258   5.803
11214TIP3    H133595   1.630   7.228   5.806
11214TIP3    H233596   1.772   7.177   5.796
11215TIP3   OH233597   1.542   7.167   5.473
11215TIP3    H133598   1.566   7.212   5.392
11215TIP3    H233599   1.502   7.235   5.528
11216TIP3   OH233600   2.184   7.303   5.698
11216TIP3    H133601   2.233   7.344   5.627
11216TIP3    H233602   2.233   7.326   5.777
11217TIP3   OH233603   5.347   0.041   5.739
11217TIP3    H133604   5.425   0.043   5.684
11217TIP3    H233605   5.341  -0.050   5.769
11218TIP3   OH233606   2.762   7.391   5.236
11218TIP3    H133607   2.687   7.441   5.269
11218TIP3    H233608   2.749   7.303   5.271
11219TIP3   OH233609   1.658   7.264   5.228
11219TIP3    H133610   1.701   7.202   5.169
11219TIP3    H233611   1.730   7.314   5.267
11220TIP3   OH233612   4.776   0.016   5.318
11220TIP3    H133613   4.837  -0.027   5.378
11220TIP3    H233614   4.773   0.107   5.346
11221TIP3   OH233615   0.400   3.842   0.164
11221TIP3    H133616   0.445   3.777   0.217
11221TIP3    H233617   0.469   3.877   0.106
11222TIP3   OH233618   5.891   0.564   5.049
11222TIP3    H133619   5.864   0.645   5.093
11222TIP3    H233620   5.809   0.516   5.036
11223TIP3   OH233621   7.670   0.645   5.277
11223TIP3    H133622   7.664   0.734   5.313
11223TIP3    H233623   7.720   0.655   5.196
11224TIP3   OH233624   7.191   0.783   5.370
11224TIP3    H133625   7.113   0.829   5.403
11224TIP3    H233626   7.160   0.695   5.350
11225TIP3   OH233627   6.414   0.444   5.270
11225TIP3    H133628   6.400   0.519   5.213
11225TIP3    H233629   6.368   0.372   5.227
11226TIP3   OH233630   7.131   0.561   4.888
11226TIP3    H133631   7.188   0.545   4.964
11226TIP3    H233632   7.188   0.602   4.823
11227TIP3   OH233633   6.118   0.730   5.408
11227TIP3    H133634   6.165   0.648   5.426
11227TIP3    H233635   6.030   0.702   5.382
11228TIP3   OH233636   6.406   0.426   5.709
11228TIP3    H133637   6.333   0.438   5.649
11228TIP3    H233638   6.366   0.434   5.796
11229TIP3   OH233639   7.278   0.533   5.123
11229TIP3    H133640   7.221   0.523   5.199
11229TIP3    H233641   7.358   0.573   5.157
11230TIP3   OH233642   6.263   0.511   5.490
11230TIP3    H133643   6.319   0.583   5.519
11230TIP3    H233644   6.309   0.473   5.415
11231TIP3   OH233645   7.439   0.510   5.395
11231TIP3    H133646   7.383   0.583   5.420
11231TIP3    H233647   7.519   0.552   5.362
11232TIP3   OH233648   6.736   0.144   5.419
11232TIP3    H133649   6.735   0.056   5.457
11232TIP3    H233650   6.661   0.189   5.458
11233TIP3   OH233651   6.679   0.717   4.481
11233TIP3    H133652   6.615   0.788   4.476
11233TIP3    H233653   6.629   0.638   4.461
11234TIP3   OH233654   7.428   0.135   4.504
11234TIP3    H133655   7.344   0.128   4.549
11234TIP3    H233656   7.413   0.199   4.434
11235TIP3   OH233657   6.504   0.234   5.540
11235TIP3    H133658   6.416   0.208   5.513
11235TIP3    H233659   6.491   0.314   5.591
11236TIP3   OH233660   7.049   0.371   5.758
11236TIP3    H133661   7.124   0.349   5.814
11236TIP3    H233662   6.973   0.339   5.806
11237TIP3   OH233663   7.305   0.730   5.712
11237TIP3    H133664   7.274   0.705   5.799
11237TIP3    H233665   7.287   0.824   5.707
11238TIP3   OH233666   6.671   0.278   4.532
11238TIP3    H133667   6.642   0.284   4.623
11238TIP3    H233668   6.637   0.194   4.502
11239TIP3   OH233669   6.384   0.741   5.579
11239TIP3    H133670   6.349   0.721   5.665
11239TIP3    H233671   6.392   0.837   5.577
11240TIP3   OH233672   6.356   0.618   5.066
11240TIP3    H133673   6.277   0.670   5.080
11240TIP3    H233674   6.332   0.556   4.997
11241TIP3   OH233675   6.796   0.680   4.869
11241TIP3    H133676   6.735   0.734   4.819
11241TIP3    H233677   6.878   0.730   4.868
11242TIP3   OH233678   7.005   0.693   5.105
11242TIP3    H133679   7.018   0.655   5.019
11242TIP3    H233680   6.979   0.620   5.161
11243TIP3   OH233681   6.279   0.721   5.826
11243TIP3    H133682   6.196   0.765   5.846
11243TIP3    H233683   6.275   0.639   5.875
11244TIP3   OH233684   6.325   0.250   4.525
11244TIP3    H133685   6.315   0.249   4.620
11244TIP3    H233686   6.243   0.288   4.493
11245TIP3   OH233687   5.893   0.301   5.321
11245TIP3    H133688   5.931   0.310   5.409
11245TIP3    H233689   5.853   0.214   5.322
11246TIP3   OH233690   5.836   0.263   4.894
11246TIP3    H133691   5.898   0.288   4.825
11246TIP3    H233692   5.777   0.338   4.902
11247TIP3   OH233693   6.670   0.428   5.163
11247TIP3    H133694   6.590   0.428   5.217
11247TIP3    H233695   6.737   0.466   5.220
11248TIP3   OH233696   6.112   0.497   5.188
11248TIP3    H133697   6.031   0.495   5.137
11248TIP3    H233698   6.154   0.413   5.170
11249TIP3   OH233699   6.341   0.485   4.827
11249TIP3    H133700   6.432   0.490   4.857
11249TIP3    H233701   6.334   0.554   4.761
11250TIP3   OH233702   7.106   0.525   5.349
11250TIP3    H133703   7.092   0.543   5.441
11250TIP3    H233704   7.039   0.460   5.327
11251TIP3   OH233705   6.052   0.561   4.630
11251TIP3    H133706   5.966   0.529   4.657
11251TIP3    H233707   6.083   0.497   4.566
11252TIP3   OH233708   6.786   0.635   5.319
11252TIP3    H133709   6.749   0.694   5.253
11252TIP3    H233710   6.732   0.649   5.397
11253TIP3   OH233711   6.259   0.267   5.122
11253TIP3    H133712   6.225   0.197   5.177
11253TIP3    H233713   6.274   0.226   5.037
11254TIP3   OH233714   6.664   0.706   5.553
11254TIP3    H133715   6.577   0.736   5.579
11254TIP3    H233716   6.724   0.754   5.611
11255TIP3   OH233717   6.946   0.345   4.570
11255TIP3    H133718   6.852   0.338   4.552
11255TIP3    H233719   6.968   0.434   4.542
11256TIP3   OH233720   7.029   0.606   4.537
11256TIP3    H133721   7.113   0.618   4.582
11256TIP3    H233722   6.977   0.682   4.563
11257TIP3   OH233723   7.477   0.695   4.432
11257TIP3    H133724   7.391   0.697   4.389
11257TIP3    H233725   7.501   0.787   4.441
11258TIP3   OH233726   6.286   0.466   5.947
11258TIP3    H133727   6.196   0.494   5.967
11258TIP3    H233728   6.304   0.398   6.012
11259TIP3   OH233729   7.077   0.600   5.615
11259TIP3    H133730   7.161   0.637   5.643
11259TIP3    H233731   7.068   0.521   5.667
11260TIP3   OH233732   6.974   0.337   4.839
11260TIP3    H133733   6.958   0.347   4.745
11260TIP3    H233734   7.024   0.415   4.863
11261TIP3   OH233735   6.600   0.498   4.908
11261TIP3    H133736   6.673   0.556   4.885
11261TIP3    H233737   6.611   0.481   5.001
11262TIP3   OH233738   6.884   0.788   5.697
11262TIP3    H133739   6.909   0.836   5.777
11262TIP3    H233740   6.949   0.719   5.690
11263TIP3   OH233741   6.779   0.233   4.999
11263TIP3    H133742   6.752   0.303   5.059
11263TIP3    H233743   6.854   0.268   4.952
11264TIP3   OH233744   6.307   0.219   4.804
11264TIP3    H133745   6.301   0.313   4.822
11264TIP3    H233746   6.401   0.200   4.808
11265TIP3   OH233747   7.560   0.715   5.591
11265TIP3    H133748   7.476   0.715   5.638
11265TIP3    H233749   7.600   0.631   5.612
11266TIP3   OH233750   7.236   0.844   5.062
11266TIP3    H133751   7.157   0.799   5.092
11266TIP3    H233752   7.290   0.853   5.140
11267TIP3   OH233753   5.804   0.476   4.680
11267TIP3    H133754   5.751   0.509   4.752
11267TIP3    H233755   5.756   0.399   4.649
11268TIP3   OH233756   6.236   0.163   5.517
11268TIP3    H133757   6.210   0.131   5.430
11268TIP3    H233758   6.232   0.086   5.573
11269TIP3   OH233759   6.691   0.706   5.937
11269TIP3    H133760   6.685   0.625   5.886
11269TIP3    H233761   6.627   0.764   5.897
11270TIP3   OH233762   6.661   0.509   5.745
11270TIP3    H133763   6.678   0.565   5.669
11270TIP3    H233764   6.569   0.484   5.736
11271TIP3   OH233765   6.519   0.836   6.183
11271TIP3    H133766   6.453   0.768   6.189
11271TIP3    H233767   6.479   0.905   6.130
11272TIP3   OH233768   6.785   0.277   5.806
11272TIP3    H133769   6.744   0.360   5.781
11272TIP3    H233770   6.713   0.214   5.806
11273TIP3   OH233771   6.932   0.792   6.011
11273TIP3    H133772   6.913   0.790   6.105
11273TIP3    H233773   6.852   0.759   5.970
11274TIP3   OH233774   7.181   0.693   5.953
11274TIP3    H133775   7.094   0.731   5.962
11274TIP3    H233776   7.208   0.674   6.043
11275TIP3   OH233777   6.336   0.629   6.182
11275TIP3    H133778   6.353   0.571   6.107
11275TIP3    H233779   6.388   0.591   6.253
11276TIP3   OH233780   6.860   0.341   6.059
11276TIP3    H133781   6.861   0.255   6.102
11276TIP3    H233782   6.837   0.322   5.968
11277TIP3   OH233783   6.944   0.540   6.224
11277TIP3    H133784   6.926   0.472   6.159
11277TIP3    H233785   6.869   0.599   6.219
11278TIP3   OH233786   7.237   0.661   4.298
11278TIP3    H133787   7.190   0.697   4.223
11278TIP3    H233788   7.198   0.574   4.310
11279TIP3   OH233789   7.254   0.930   4.807
11279TIP3    H133790   7.316   0.866   4.773
11279TIP3    H233791   7.257   0.918   4.902
11280TIP3   OH233792   7.174   0.388   4.277
11280TIP3    H133793   7.254   0.345   4.307
11280TIP3    H233794   7.111   0.316   4.266
11281TIP3   OH233795   7.289   0.650   4.659
11281TIP3    H133796   7.310   0.557   4.666
11281TIP3    H233797   7.374   0.693   4.648
11282TIP3   OH233798   7.426   0.823   5.257
11282TIP3    H133799   7.495   0.861   5.311
11282TIP3    H233800   7.351   0.815   5.316
11283TIP3   OH233801   6.083   0.677   6.265
11283TIP3    H133802   6.178   0.665   6.254
11283TIP3    H233803   6.050   0.588   6.279
11284TIP3   OH233804   7.376   0.395   4.711
11284TIP3    H133805   7.421   0.385   4.795
11284TIP3    H233806   7.316   0.321   4.707
11285TIP3   OH233807   6.039   0.351   5.557
11285TIP3    H133808   6.099   0.276   5.557
11285TIP3    H233809   6.094   0.426   5.532
11286TIP3   OH233810   5.850   0.641   5.647
11286TIP3    H133811   5.868   0.640   5.553
11286TIP3    H233812   5.907   0.711   5.680
11287TIP3   OH233813   7.443   0.313   4.296
11287TIP3    H133814   7.450   0.282   4.205
11287TIP3    H233815   7.512   0.378   4.304
11288TIP3   OH233816   5.820   0.082   5.103
11288TIP3    H133817   5.747   0.093   5.165
11288TIP3    H233818   5.833   0.169   5.065
11289TIP3   OH233819   6.053   0.211   5.918
11289TIP3    H133820   6.008   0.205   6.003
11289TIP3    H233821   6.000   0.273   5.868
11290TIP3   OH233822   7.672   0.430   5.616
11290TIP3    H133823   7.588   0.389   5.598
11290TIP3    H233824   7.729   0.358   5.642
11291TIP3   OH233825   6.920   0.334   5.287
11291TIP3    H133826   6.864   0.263   5.319
11291TIP3    H233827   6.981   0.291   5.226
11292TIP3   OH233828   7.421   0.277   5.147
11292TIP3    H133829   7.469   0.325   5.080
11292TIP3    H233830   7.343   0.330   5.164
11293TIP3   OH233831   7.553   0.358   4.919
11293TIP3    H133832   7.618   0.294   4.892
11293TIP3    H233833   7.593   0.443   4.900
11294TIP3   OH233834   6.171   0.056   5.271
11294TIP3    H133835   6.082   0.020   5.272
11294TIP3    H233836   6.228  -0.021   5.272
11295TIP3   OH233837   3.291   7.400   4.884
11295TIP3    H133838   3.328   7.473   4.835
11295TIP3    H233839   3.262   7.439   4.967
11296TIP3   OH233840   6.623   0.070   5.167
11296TIP3    H133841   6.670   0.128   5.107
11296TIP3    H233842   6.653   0.096   5.254
11297TIP3   OH233843   7.117   0.230   5.127
11297TIP3    H133844   7.159   0.196   5.048
11297TIP3    H233845   7.128   0.161   5.192
11298TIP3   OH233846   7.206   0.181   4.700
11298TIP3    H133847   7.123   0.229   4.699
11298TIP3    H233848   7.187   0.102   4.751
11299TIP3   OH233849   6.080   0.101   4.703
11299TIP3    H133850   6.119   0.035   4.645
11299TIP3    H233851   6.154   0.139   4.750
11300TIP3   OH233852   6.585   0.253   4.796
11300TIP3    H133853   6.646   0.210   4.856
11300TIP3    H233854   6.583   0.344   4.824
11301TIP3   OH233855   6.370   0.303   6.145
11301TIP3    H133856   6.333   0.252   6.217
11301TIP3    H233857   6.456   0.330   6.176
11302TIP3   OH233858   6.634   0.376   6.228
11302TIP3    H133859   6.709   0.363   6.170
11302TIP3    H233860   6.630   0.295   6.279
11303TIP3   OH233861   7.609   0.930   4.499
11303TIP3    H133862   7.608   1.025   4.515
11303TIP3    H233863   7.581   0.891   4.582
11304TIP3   OH233864   0.293   0.748   4.737
11304TIP3    H133865   0.263   0.829   4.697
11304TIP3    H233866   0.224   0.684   4.717
11305TIP3   OH233867   7.866   0.901   4.909
11305TIP3    H133868   7.935   0.967   4.900
11305TIP3    H233869   7.850   0.870   4.820
11306TIP3   OH233870   0.563   0.418   4.874
11306TIP3    H133871   0.592   0.336   4.913
11306TIP3    H233872   0.503   0.456   4.939
11307TIP3   OH233873   0.487   1.022   3.871
11307TIP3    H133874   0.485   0.997   3.963
11307TIP3    H233875   0.498   0.940   3.823
11308TIP3   OH233876   1.223   0.341   3.942
11308TIP3    H133877   1.159   0.340   4.014
11308TIP3    H233878   1.246   0.433   3.931
11309TIP3   OH233879   0.384   0.508   5.058
11309TIP3    H133880   0.291   0.495   5.040
11309TIP3    H233881   0.386   0.561   5.139
11310TIP3   OH233882   0.497   0.606   4.020
11310TIP3    H133883   0.477   0.585   4.111
11310TIP3    H233884   0.488   0.523   3.974
11311TIP3   OH233885   0.170   0.946   4.584
11311TIP3    H133886   0.081   0.924   4.610
11311TIP3    H233887   0.184   0.897   4.503
11312TIP3   OH233888   0.191   0.539   3.984
11312TIP3    H133889   0.177   0.550   4.078
11312TIP3    H233890   0.121   0.591   3.943
11313TIP3   OH233891   7.702   0.570   4.838
11313TIP3    H133892   7.731   0.606   4.922
11313TIP3    H233893   7.721   0.639   4.774
11314TIP3   OH233894   7.639   0.514   4.327
11314TIP3    H133895   7.692   0.564   4.264
11314TIP3    H233896   7.581   0.578   4.366
11315TIP3   OH233897   0.548   0.668   4.690
11315TIP3    H133898   0.459   0.695   4.712
11315TIP3    H233899   0.574   0.611   4.763
11316TIP3   OH233900   7.840   0.799   4.651
11316TIP3    H133901   7.782   0.811   4.576
11316TIP3    H233902   7.889   0.719   4.631
11317TIP3   OH233903   0.194   0.792   4.357
11317TIP3    H133904   0.288   0.807   4.356
11317TIP3    H233905   0.165   0.815   4.269
11318TIP3   OH233906   0.057   0.794   4.113
11318TIP3    H133907  -0.034   0.780   4.141
11318TIP3    H233908   0.054   0.786   4.017
11319TIP3   OH233909   0.098   0.571   4.629
11319TIP3    H133910   0.075   0.495   4.682
11319TIP3    H233911   0.147   0.536   4.555
11320TIP3   OH233912   0.847   0.585   3.996
11320TIP3    H133913   0.796   0.534   4.059
11320TIP3    H233914   0.804   0.671   3.994
11321TIP3   OH233915   0.846   1.051   4.093
11321TIP3    H133916   0.914   1.054   4.161
11321TIP3    H233917   0.812   1.140   4.089
11322TIP3   OH233918   0.698   0.730   4.284
11322TIP3    H133919   0.665   0.657   4.230
11322TIP3    H233920   0.788   0.743   4.254
11323TIP3   OH233921   0.470   0.789   4.427
11323TIP3    H133922   0.553   0.793   4.379
11323TIP3    H233923   0.495   0.787   4.519
11324TIP3   OH233924   0.653   0.507   4.490
11324TIP3    H133925   0.630   0.575   4.552
11324TIP3    H233926   0.727   0.542   4.441
11325TIP3   OH233927   0.165   0.526   4.265
11325TIP3    H133928   0.149   0.614   4.301
11325TIP3    H233929   0.259   0.514   4.273
11326TIP3   OH233930   7.683   0.750   4.164
11326TIP3    H133931   7.643   0.822   4.212
11326TIP3    H233932   7.625   0.734   4.090
11327TIP3   OH233933   0.114   0.455   5.017
11327TIP3    H133934   0.090   0.422   4.930
11327TIP3    H233935   0.110   0.377   5.073
11328TIP3   OH233936   0.982   0.656   3.717
11328TIP3    H133937   1.067   0.614   3.730
11328TIP3    H233938   0.921   0.584   3.703
11329TIP3   OH233939   7.837   0.668   5.060
11329TIP3    H133940   7.908   0.604   5.054
11329TIP3    H233941   7.871   0.746   5.016
11330TIP3   OH233942   7.650   0.954   5.091
11330TIP3    H133943   7.722   0.939   5.030
11330TIP3    H233944   7.691   0.951   5.177
11331TIP3   OH233945   7.619   0.366   4.573
11331TIP3    H133946   7.541   0.378   4.626
11331TIP3    H233947   7.631   0.449   4.527
11332TIP3   OH233948   7.820   0.439   5.375
11332TIP3    H133949   7.789   0.444   5.465
11332TIP3    H233950   7.774   0.511   5.330
11333TIP3   OH233951   0.045   0.337   4.770
11333TIP3    H133952  -0.046   0.308   4.771
11333TIP3    H233953   0.096   0.256   4.768
11334TIP3   OH233954   7.728   0.230   4.360
11334TIP3    H133955   7.779   0.261   4.285
11334TIP3    H233956   7.716   0.308   4.414
11335TIP3   OH233957   0.457   0.361   4.628
11335TIP3    H133958   0.513   0.412   4.569
11335TIP3    H233959   0.489   0.383   4.716
11336TIP3   OH233960   1.056   0.385   4.156
11336TIP3    H133961   1.007   0.453   4.202
11336TIP3    H233962   1.041   0.306   4.207
11337TIP3   OH233963  -0.019   0.347   4.159
11337TIP3    H133964   0.031   0.285   4.107
11337TIP3    H233965   0.047   0.403   4.199
11338TIP3   OH233966   0.436   0.554   4.288
11338TIP3    H133967   0.504   0.492   4.315
11338TIP3    H233968   0.446   0.628   4.348
11339TIP3   OH233969   7.345   5.917   1.258
11339TIP3    H133970   7.421   5.885   1.307
11339TIP3    H233971   7.277   5.929   1.324
11340TIP3   OH233972   0.714   5.934   1.377
11340TIP3    H133973   0.718   5.883   1.458
11340TIP3    H233974   0.623   5.928   1.350
11341TIP3   OH233975   1.204   5.868   0.771
11341TIP3    H133976   1.170   5.958   0.768
11341TIP3    H233977   1.204   5.840   0.680
11342TIP3   OH233978   0.490   6.214   1.312
11342TIP3    H133979   0.444   6.181   1.235
11342TIP3    H233980   0.436   6.287   1.342
11343TIP3   OH233981   0.697   6.102   0.960
11343TIP3    H133982   0.749   6.030   0.925
11343TIP3    H233983   0.738   6.122   1.044
11344TIP3   OH233984   0.746   6.166   1.231
11344TIP3    H133985   0.657   6.190   1.258
11344TIP3    H233986   0.766   6.089   1.283
11345TIP3   OH233987   0.366   5.519   1.389
11345TIP3    H133988   0.294   5.458   1.375
11345TIP3    H233989   0.445   5.468   1.372
11346TIP3   OH233990   0.519   5.649   1.189
11346TIP3    H133991   0.513   5.742   1.210
11346TIP3    H233992   0.457   5.607   1.248
11347TIP3   OH233993   0.847   5.661   1.005
11347TIP3    H133994   0.829   5.702   1.089
11347TIP3    H233995   0.765   5.615   0.982
11348TIP3   OH233996   1.141   6.128   0.792
11348TIP3    H133997   1.207   6.169   0.848
11348TIP3    H233998   1.068   6.189   0.792
11349TIP3   OH233999   0.230   5.649   1.023
11349TIP3    H134000   0.239   5.557   0.997
11349TIP3    H234001   0.200   5.645   1.114
11350TIP3   OH234002   0.160   5.685   1.287
11350TIP3    H134003   0.232   5.650   1.340
11350TIP3    H234004   0.161   5.779   1.304
11351TIP3   OH234005   0.456   5.901   1.280
11351TIP3    H134006   0.369   5.916   1.319
11351TIP3    H234007   0.460   5.962   1.206
11352TIP3   OH234008   0.187   5.955   1.336
11352TIP3    H134009   0.172   6.011   1.259
11352TIP3    H234010   0.148   6.004   1.408
11353TIP3   OH234011   7.807   5.567   1.275
11353TIP3    H134012   7.883   5.624   1.285
11353TIP3    H234013   7.839   5.491   1.228
11354TIP3   OH234014   0.389   5.846   0.924
11354TIP3    H134015   0.339   5.773   0.962
11354TIP3    H234016   0.460   5.803   0.875
11355TIP3   OH234017   0.824   5.891   0.838
11355TIP3    H134018   0.868   5.824   0.891
11355TIP3    H234019   0.870   5.887   0.754
11356TIP3   OH234020   0.050   5.370   1.141
11356TIP3    H134021   0.096   5.334   1.217
11356TIP3    H234022   0.117   5.376   1.073
11357TIP3   OH234023   0.608   5.540   0.954
11357TIP3    H134024   0.566   5.565   1.037
11357TIP3    H234025   0.611   5.445   0.957
11358TIP3   OH234026   0.233   5.277   1.337
11358TIP3    H134027   0.204   5.214   1.403
11358TIP3    H234028   0.293   5.228   1.281
11359TIP3   OH234029   0.425   5.141   1.173
11359TIP3    H134030   0.368   5.132   1.096
11359TIP3    H234031   0.511   5.110   1.143
11360TIP3   OH234032   0.184   6.131   1.127
11360TIP3    H134033   0.273   6.117   1.094
11360TIP3    H234034   0.141   6.179   1.056
11361TIP3   OH234035   7.547   5.546   1.191
11361TIP3    H134036   7.630   5.576   1.228
11361TIP3    H234037   7.544   5.453   1.212
11362TIP3   OH234038   0.444   6.071   1.062
11362TIP3    H134039   0.527   6.101   1.023
11362TIP3    H234040   0.417   5.998   1.008
11363TIP3   OH234041   1.043   6.133   1.084
11363TIP3    H134042   1.049   6.042   1.055
11363TIP3    H234043   1.009   6.180   1.008
11364TIP3   OH234044   7.646   5.916   1.127
11364TIP3    H134045   7.623   5.887   1.215
11364TIP3    H234046   7.728   5.871   1.107
11365TIP3   OH234047   1.491   6.158   0.607
11365TIP3    H134048   1.451   6.229   0.659
11365TIP3    H234049   1.487   6.081   0.664
11366TIP3   OH234050   6.440   6.707   1.337
11366TIP3    H134051   6.479   6.713   1.424
11366TIP3    H234052   6.491   6.638   1.293
11367TIP3   OH234053   6.653   6.959   1.398
11367TIP3    H134054   6.707   6.896   1.446
11367TIP3    H234055   6.648   6.924   1.309
11368TIP3   OH234056   6.929   7.422   1.012
11368TIP3    H134057   6.927   7.514   0.987
11368TIP3    H234058   7.019   7.394   0.993
11369TIP3   OH234059   0.964   0.297   1.465
11369TIP3    H134060   0.922   0.290   1.379
11369TIP3    H234061   0.938   0.384   1.497
11370TIP3   OH234062   1.181   0.212   1.117
11370TIP3    H134063   1.230   0.138   1.081
11370TIP3    H234064   1.214   0.222   1.206
11371TIP3   OH234065   1.227   0.255   1.392
11371TIP3    H134066   1.140   0.262   1.431
11371TIP3    H234067   1.287   0.246   1.466
11372TIP3   OH234068   6.711   6.801   1.153
11372TIP3    H134069   6.629   6.837   1.121
11372TIP3    H234070   6.779   6.856   1.114
11373TIP3   OH234071   6.377   7.235   1.346
11373TIP3    H134072   6.337   7.311   1.388
11373TIP3    H234073   6.373   7.166   1.412
11374TIP3   OH234074   7.162   6.688   1.353
11374TIP3    H134075   7.078   6.648   1.329
11374TIP3    H234076   7.162   6.773   1.308
11375TIP3   OH234077   6.847   7.468   1.274
11375TIP3    H134078   6.828   7.384   1.317
11375TIP3    H234079   6.873   7.444   1.185
11376TIP3   OH234080   6.603   7.250   1.183
11376TIP3    H134081   6.675   7.233   1.245
11376TIP3    H234082   6.524   7.246   1.237
11377TIP3   OH234083   1.664   0.245   0.966
11377TIP3    H134084   1.679   0.303   0.891
11377TIP3    H234085   1.597   0.289   1.017
11378TIP3   OH234086   6.804   7.195   1.358
11378TIP3    H134087   6.757   7.118   1.391
11378TIP3    H234088   6.897   7.173   1.369
11379TIP3   OH234089   5.971   7.214   1.090
11379TIP3    H134090   5.976   7.120   1.071
11379TIP3    H234091   5.996   7.221   1.182
11380TIP3   OH234092   0.967   0.012   1.424
11380TIP3    H134093   0.952   0.060   1.505
11380TIP3    H234094   0.969   0.081   1.356
11381TIP3   OH234095   6.146   7.421   1.054
11381TIP3    H134096   6.093   7.344   1.073
11381TIP3    H234097   6.220   7.388   1.003
11382TIP3   OH234098   6.568   7.447   0.995
11382TIP3    H134099   6.598   7.382   1.059
11382TIP3    H234100   6.628   7.438   0.922
11383TIP3   OH234101   5.768   6.735   1.201
11383TIP3    H134102   5.809   6.814   1.236
11383TIP3    H234103   5.741   6.760   1.112
11384TIP3   OH234104   6.308   7.135   1.105
11384TIP3    H134105   6.330   7.185   1.184
11384TIP3    H234106   6.371   7.063   1.104
11385TIP3   OH234107   6.905   6.948   1.032
11385TIP3    H134108   6.895   6.908   0.946
11385TIP3    H234109   6.873   7.037   1.022
11386TIP3   OH234110   0.646   0.186   1.220
11386TIP3    H134111   0.741   0.190   1.232
11386TIP3    H234112   0.626   0.262   1.165
11387TIP3   OH234113   7.078   7.144   1.380
11387TIP3    H134114   7.127   7.213   1.336
11387TIP3    H234115   7.125   7.129   1.462
11388TIP3   OH234116   7.109   6.922   1.214
11388TIP3    H134117   7.040   6.930   1.148
11388TIP3    H234118   7.094   6.997   1.273
11389TIP3   OH234119   6.925   6.599   1.209
11389TIP3    H134120   6.905   6.676   1.156
11389TIP3    H234121   6.977   6.542   1.151
11390TIP3   OH234122   7.060   6.398   1.087
11390TIP3    H134123   7.118   6.362   1.154
11390TIP3    H234124   7.013   6.322   1.052
11391TIP3   OH234125   7.163   6.284   1.323
11391TIP3    H134126   7.214   6.219   1.275
11391TIP3    H234127   7.224   6.355   1.340
11392TIP3   OH234128   1.483   0.354   1.550
11392TIP3    H134129   1.519   0.335   1.463
11392TIP3    H234130   1.560   0.370   1.605
11393TIP3   OH234131   0.922   0.192   1.207
11393TIP3    H134132   1.005   0.225   1.173
11393TIP3    H234133   0.901   0.118   1.150
11394TIP3   OH234134   1.615   0.290   1.314
11394TIP3    H134135   1.605   0.195   1.304
11394TIP3    H234136   1.574   0.326   1.235
11395TIP3   OH234137   0.344   0.112   1.317
11395TIP3    H134138   0.262   0.067   1.336
11395TIP3    H234139   0.395   0.050   1.265
11396TIP3   OH234140   0.472   7.298   1.249
11396TIP3    H134141   0.437   7.383   1.222
11396TIP3    H234142   0.404   7.236   1.223
11397TIP3   OH234143   0.480   7.254   1.682
11397TIP3    H134144   0.542   7.202   1.733
11397TIP3    H234145   0.419   7.190   1.645
11398TIP3   OH234146   3.315   0.143   1.356
11398TIP3    H134147   3.307   0.066   1.413
11398TIP3    H234148   3.407   0.168   1.362
11399TIP3   OH234149   2.415   0.125   1.714
11399TIP3    H134150   2.398   0.031   1.723
11399TIP3    H234151   2.508   0.131   1.695
11400TIP3   OH234152   7.273   6.718   1.607
11400TIP3    H134153   7.352   6.772   1.599
11400TIP3    H234154   7.237   6.715   1.519
11401TIP3   OH234155   3.035   0.589   1.357
11401TIP3    H134156   3.060   0.505   1.318
11401TIP3    H234157   3.069   0.584   1.447
11402TIP3   OH234158   2.912   0.048   1.657
11402TIP3    H134159   2.880  -0.042   1.663
11402TIP3    H234160   3.006   0.040   1.641
11403TIP3   OH234161   0.665   7.000   1.720
11403TIP3    H134162   0.683   6.912   1.753
11403TIP3    H234163   0.642   6.987   1.628
11404TIP3   OH234164   0.708   6.752   1.279
11404TIP3    H134165   0.782   6.760   1.340
11404TIP3    H234166   0.740   6.790   1.198
11405TIP3   OH234167   0.120   7.070   1.547
11405TIP3    H134168   0.210   7.051   1.571
11405TIP3    H234169   0.078   6.985   1.541
11406TIP3   OH234170   2.996   0.063   1.108
11406TIP3    H134171   2.956   0.028   1.029
11406TIP3    H234172   2.933   0.128   1.140
11407TIP3   OH234173   0.912   6.807   1.443
11407TIP3    H134174   0.967   6.735   1.476
11407TIP3    H234175   0.963   6.886   1.462
11408TIP3   OH234176   7.230   7.335   1.249
11408TIP3    H134177   7.203   7.348   1.158
11408TIP3    H234178   7.256   7.421   1.279
11409TIP3   OH234179   3.322   0.436   1.423
11409TIP3    H134180   3.339   0.389   1.504
11409TIP3    H234181   3.330   0.370   1.354
11410TIP3   OH234182   3.103   0.386   1.185
11410TIP3    H134183   3.141   0.299   1.172
11410TIP3    H234184   3.161   0.445   1.136
11411TIP3   OH234185   3.249   0.169   1.091
11411TIP3    H134186   3.170   0.117   1.079
11411TIP3    H234187   3.280   0.145   1.179
11412TIP3   OH234188   0.303   7.138   1.096
11412TIP3    H134189   0.216   7.174   1.082
11412TIP3    H234190   0.342   7.134   1.009
11413TIP3   OH234191   0.269   6.936   0.784
11413TIP3    H134192   0.334   6.986   0.834
11413TIP3    H234193   0.320   6.867   0.741
11414TIP3   OH234194   0.651   7.227   1.055
11414TIP3    H134195   0.597   7.253   1.130
11414TIP3    H234196   0.734   7.199   1.094
11415TIP3   OH234197   7.806   7.222   1.476
11415TIP3    H134198   7.740   7.153   1.478
11415TIP3    H234199   7.888   7.179   1.500
11416TIP3   OH234200   2.668   0.180   1.603
11416TIP3    H134201   2.642   0.156   1.514
11416TIP3    H234202   2.752   0.136   1.616
11417TIP3   OH234203   0.487   7.082   0.887
11417TIP3    H134204   0.544   7.142   0.935
11417TIP3    H234205   0.517   7.088   0.796
11418TIP3   OH234206   2.846   0.289   1.172
11418TIP3    H134207   2.928   0.336   1.183
11418TIP3    H234208   2.796   0.341   1.109
11419TIP3   OH234209   0.954   6.316   0.895
11419TIP3    H134210   0.899   6.349   0.966
11419TIP3    H234211   0.985   6.394   0.849
11420TIP3   OH234212   7.656   7.025   1.234
11420TIP3    H134213   7.572   7.069   1.222
11420TIP3    H234214   7.655   6.996   1.326
11421TIP3   OH234215   3.463   0.222   0.504
11421TIP3    H134216   3.457   0.315   0.485
11421TIP3    H234217   3.550   0.197   0.475
11422TIP3   OH234218   2.779   0.529   0.982
11422TIP3    H134219   2.735   0.498   0.903
11422TIP3    H234220   2.726   0.602   1.012
11423TIP3   OH234221   2.192   0.372   1.358
11423TIP3    H134222   2.231   0.363   1.445
11423TIP3    H234223   2.142   0.292   1.346
11424TIP3   OH234224   2.959   0.430   0.602
11424TIP3    H134225   3.011   0.361   0.560
11424TIP3    H234226   2.996   0.438   0.689
11425TIP3   OH234227   3.027   0.480   0.867
11425TIP3    H134228   2.946   0.480   0.919
11425TIP3    H234229   3.096   0.463   0.931
11426TIP3   OH234230   0.573   7.066   0.630
11426TIP3    H134231   0.525   7.064   0.547
11426TIP3    H234232   0.655   7.110   0.609
11427TIP3   OH234233   0.282   6.475   0.935
11427TIP3    H134234   0.241   6.486   1.021
11427TIP3    H234235   0.243   6.395   0.900
11428TIP3   OH234236   7.906   6.815   1.531
11428TIP3    H134237   7.826   6.861   1.556
11428TIP3    H234238   7.885   6.775   1.446
11429TIP3   OH234239   0.437   6.937   1.224
11429TIP3    H134240   0.385   7.007   1.185
11429TIP3    H234241   0.488   6.901   1.152
11430TIP3   OH234242   0.591   6.946   1.451
11430TIP3    H134243   0.532   6.964   1.378
11430TIP3    H234244   0.636   6.866   1.426
11431TIP3   OH234245   7.844   6.462   0.913
11431TIP3    H134246   7.836   6.466   1.008
11431TIP3    H234247   7.771   6.514   0.881
11432TIP3   OH234248   7.353   6.479   1.315
11432TIP3    H134249   7.388   6.510   1.232
11432TIP3    H234250   7.306   6.554   1.351
11433TIP3   OH234251   0.273   6.672   1.537
11433TIP3    H134252   0.185   6.699   1.565
11433TIP3    H234253   0.313   6.634   1.615
11434TIP3   OH234254   7.645   6.651   1.522
11434TIP3    H134255   7.622   6.734   1.481
11434TIP3    H234256   7.662   6.674   1.614
11435TIP3   OH234257   7.864   6.711   1.275
11435TIP3    H134258   7.953   6.738   1.255
11435TIP3    H234259   7.812   6.737   1.199
11436TIP3   OH234260   0.686   6.726   1.777
11436TIP3    H134261   0.760   6.665   1.775
11436TIP3    H234262   0.613   6.675   1.742
11437TIP3   OH234263   7.754   6.738   1.023
11437TIP3    H134264   7.682   6.702   0.970
11437TIP3    H234265   7.807   6.787   0.960
11438TIP3   OH234266   0.374   7.002   1.620
11438TIP3    H134267   0.440   6.975   1.555
11438TIP3    H234268   0.379   6.935   1.688
11439TIP3   OH234269   7.860   6.457   1.508
11439TIP3    H134270   7.779   6.411   1.531
11439TIP3    H234271   7.829   6.542   1.474
11440TIP3   OH234272   0.061   7.260   1.039
11440TIP3    H134273  -0.012   7.202   1.017
11440TIP3    H234274   0.035   7.301   1.122
11441TIP3   OH234275   0.531   6.582   0.947
11441TIP3    H134276   0.438   6.560   0.940
11441TIP3    H234277   0.533   6.677   0.957
11442TIP3   OH234278   0.591   6.852   1.003
11442TIP3    H134279   0.687   6.858   1.000
11442TIP3    H234280   0.561   6.928   0.953
11443TIP3   OH234281   7.667   7.296   1.703
11443TIP3    H134282   7.722   7.283   1.626
11443TIP3    H234283   7.625   7.211   1.717
11444TIP3   OH234284   0.215   7.424   0.888
11444TIP3    H134285   0.169   7.508   0.887
11444TIP3    H234286   0.158   7.366   0.937
11445TIP3   OH234287   1.022   6.931   0.840
11445TIP3    H134288   0.968   6.880   0.778
11445TIP3    H234289   1.020   7.020   0.805
11446TIP3   OH234290   3.386   0.258   0.777
11446TIP3    H134291   3.348   0.187   0.829
11446TIP3    H234292   3.403   0.217   0.691
11447TIP3   OH234293   0.675   7.393   1.545
11447TIP3    H134294   0.600   7.353   1.588
11447TIP3    H234295   0.722   7.319   1.505
11448TIP3   OH234296   2.517   0.173   1.366
11448TIP3    H134297   2.506   0.248   1.308
11448TIP3    H234298   2.427   0.148   1.390
11449TIP3   OH234299   7.347   6.892   1.079
11449TIP3    H134300   7.395   6.971   1.102
11449TIP3    H234301   7.265   6.898   1.129
11450TIP3   OH234302   7.873   7.382   1.262
11450TIP3    H134303   7.857   7.470   1.297
11450TIP3    H234304   7.849   7.323   1.333
11451TIP3   OH234305   2.424   0.388   1.213
11451TIP3    H134306   2.337   0.391   1.253
11451TIP3    H234307   2.454   0.479   1.213
11452TIP3   OH234308   3.140   0.034   0.647
11452TIP3    H134309   3.187   0.008   0.726
11452TIP3    H234310   3.055  -0.010   0.654
11453TIP3   OH234311   3.467   0.495   0.470
11453TIP3    H134312   3.507   0.569   0.424
11453TIP3    H234313   3.381   0.527   0.497
11454TIP3   OH234314   0.674   7.410   0.848
11454TIP3    H134315   0.654   7.357   0.925
11454TIP3    H234316   0.770   7.408   0.842
11455TIP3   OH234317   7.763   7.450   0.677
11455TIP3    H134318   7.773   7.359   0.649
11455TIP3    H234319   7.746   7.444   0.771
11456TIP3   OH234320   2.438   0.018   0.948
11456TIP3    H134321   2.495  -0.012   1.018
11456TIP3    H234322   2.440   0.114   0.954
11457TIP3   OH234323   7.423   7.153   1.151
11457TIP3    H134324   7.362   7.203   1.206
11457TIP3    H234325   7.446   7.213   1.080
11458TIP3   OH234326   0.580   6.522   1.213
11458TIP3    H134327   0.556   6.536   1.121
11458TIP3    H234328   0.617   6.606   1.241
11459TIP3   OH234329   2.717   0.213   0.890
11459TIP3    H134330   2.630   0.230   0.924
11459TIP3    H234331   2.730   0.280   0.822
11460TIP3   OH234332   0.243   6.744   1.273
11460TIP3    H134333   0.305   6.814   1.253
11460TIP3    H234334   0.252   6.730   1.367
11461TIP3   OH234335   0.375   6.455   1.389
11461TIP3    H134336   0.350   6.534   1.437
11461TIP3    H234337   0.449   6.482   1.335
11462TIP3   OH234338   2.464   0.291   0.960
11462TIP3    H134339   2.440   0.363   0.901
11462TIP3    H234340   2.446   0.326   1.048
11463TIP3   OH234341   7.807   6.445   1.185
11463TIP3    H134342   7.786   6.530   1.224
11463TIP3    H234343   7.901   6.434   1.199
11464TIP3   OH234344   0.786   7.153   1.444
11464TIP3    H134345   0.718   7.087   1.455
11464TIP3    H234346   0.865   7.111   1.480
11465TIP3   OH234347   7.458   7.336   0.939
11465TIP3    H134348   7.531   7.397   0.949
11465TIP3    H234349   7.489   7.272   0.875
11466TIP3   OH234350   7.392   6.614   1.079
11466TIP3    H134351   7.393   6.710   1.083
11466TIP3    H234352   7.332   6.594   1.008
11467TIP3   OH234353   3.542   0.654   1.324
11467TIP3    H134354   3.475   0.692   1.268
11467TIP3    H234355   3.502   0.653   1.411
11468TIP3   OH234356   2.013   0.158   1.322
11468TIP3    H134357   1.962   0.197   1.393
11468TIP3    H234358   1.978   0.198   1.242
11469TIP3   OH234359   2.647   0.204   0.567
11469TIP3    H134360   2.600   0.132   0.609
11469TIP3    H234361   2.721   0.161   0.524
11470TIP3   OH234362   3.097   0.238   0.474
11470TIP3    H134363   3.129   0.171   0.534
11470TIP3    H234364   3.154   0.230   0.397
11471TIP3   OH234365   7.584   7.150   0.783
11471TIP3    H134366   7.632   7.121   0.860
11471TIP3    H234367   7.651   7.162   0.716
11472TIP3   OH234368   0.256   7.366   0.623
11472TIP3    H134369   0.231   7.376   0.715
11472TIP3    H234370   0.236   7.274   0.603
11473TIP3   OH234371   7.757   7.083   0.989
11473TIP3    H134372   7.726   7.056   1.075
11473TIP3    H234373   7.803   7.007   0.954
11474TIP3   OH234374  -0.001   6.892   0.844
11474TIP3    H134375  -0.033   6.900   0.754
11474TIP3    H234376   0.093   6.904   0.837
11475TIP3   OH234377   0.797   7.187   0.519
11475TIP3    H134378   0.781   7.147   0.433
11475TIP3    H234379   0.772   7.279   0.506
11476TIP3   OH234380   2.454   0.504   0.782
11476TIP3    H134381   2.544   0.486   0.754
11476TIP3    H234382   2.414   0.547   0.707
11477TIP3   OH234383   7.186   7.331   0.964
11477TIP3    H134384   7.281   7.344   0.957
11477TIP3    H234385   7.170   7.247   0.920
11478TIP3   OH234386   1.819   0.463   1.384
11478TIP3    H134387   1.754   0.404   1.347
11478TIP3    H234388   1.864   0.410   1.450
11479TIP3   OH234389   1.953   0.318   1.574
11479TIP3    H134390   1.946   0.251   1.641
11479TIP3    H234391   2.004   0.388   1.614
11480TIP3   OH234392   3.801   0.709   1.361
11480TIP3    H134393   3.809   0.755   1.445
11480TIP3    H234394   3.706   0.700   1.348
11481TIP3   OH234395   0.947   7.399   0.852
11481TIP3    H134396   1.008   7.460   0.812
11481TIP3    H234397   0.992   7.368   0.931
11482TIP3   OH234398   1.069   7.285   1.067
11482TIP3    H134399   1.004   7.235   1.117
11482TIP3    H234400   1.139   7.301   1.130
11483TIP3   OH234401   3.740   0.100   1.514
11483TIP3    H134402   3.812   0.063   1.464
11483TIP3    H234403   3.775   0.182   1.549
11484TIP3   OH234404   0.996   7.171   0.707
11484TIP3    H134405   0.928   7.167   0.640
11484TIP3    H234406   0.975   7.249   0.758
11485TIP3   OH234407   0.858   6.840   0.642
11485TIP3    H134408   0.817   6.887   0.569
11485TIP3    H234409   0.836   6.748   0.627
11486TIP3   OH234410   0.877   7.123   1.184
11486TIP3    H134411   0.879   7.028   1.170
11486TIP3    H234412   0.847   7.134   1.274
11487TIP3   OH234413   0.771   6.584   0.582
11487TIP3    H134414   0.852   6.553   0.623
11487TIP3    H234415   0.703   6.527   0.617
11488TIP3   OH234416   0.882   6.849   1.075
11488TIP3    H134417   0.933   6.775   1.109
11488TIP3    H234418   0.930   6.877   0.997
11489TIP3   OH234419   1.040   7.043   1.492
11489TIP3    H134420   1.102   7.063   1.421
11489TIP3    H234421   1.089   7.062   1.572
11490TIP3   OH234422   1.006   6.608   1.190
11490TIP3    H134423   0.998   6.595   1.284
11490TIP3    H234424   0.951   6.540   1.151
11491TIP3   OH234425   1.009   6.526   0.706
11491TIP3    H134426   1.057   6.459   0.657
11491TIP3    H234427   1.069   6.553   0.776
11492TIP3   OH234428   3.270   0.526   1.024
11492TIP3    H134429   3.304   0.520   0.935
11492TIP3    H234430   3.343   0.500   1.080
11493TIP3   OH234431   2.124   0.497   1.706
11493TIP3    H134432   2.142   0.507   1.799
11493TIP3    H234433   2.199   0.448   1.672
11494TIP3   OH234434   2.328   0.355   1.600
11494TIP3    H134435   2.346   0.271   1.643
11494TIP3    H234436   2.413   0.396   1.591
11495TIP3   OH234437   2.591   0.444   1.591
11495TIP3    H134438   2.608   0.349   1.586
11495TIP3    H234439   2.670   0.480   1.631
11496TIP3   OH234440   0.492   6.546   1.693
11496TIP3    H134441   0.482   6.491   1.771
11496TIP3    H234442   0.533   6.488   1.629
11497TIP3   OH234443   7.508   6.225   1.381
11497TIP3    H134444   7.562   6.217   1.303
11497TIP3    H234445   7.473   6.314   1.378
11498TIP3   OH234446   0.203   6.354   1.597
11498TIP3    H134447   0.259   6.373   1.522
11498TIP3    H234448   0.116   6.386   1.571
11499TIP3   OH234449   0.639   6.361   1.533
11499TIP3    H134450   0.696   6.366   1.457
11499TIP3    H234451   0.583   6.285   1.517
11500TIP3   OH234452   0.825   6.408   1.127
11500TIP3    H134453   0.740   6.447   1.147
11500TIP3    H234454   0.819   6.319   1.164
11501TIP3   OH234455   1.910   0.275   1.097
11501TIP3    H134456   1.827   0.243   1.062
11501TIP3    H234457   1.913   0.367   1.072
11502TIP3   OH234458   7.605   6.269   1.108
11502TIP3    H134459   7.654   6.212   1.048
11502TIP3    H234460   7.670   6.333   1.138
11503TIP3   OH234461   0.184   6.487   1.190
11503TIP3    H134462   0.237   6.446   1.258
11503TIP3    H234463   0.191   6.581   1.209
11504TIP3   OH234464   2.708   0.427   0.710
11504TIP3    H134465   2.791   0.451   0.670
11504TIP3    H234466   2.673   0.358   0.654
11505TIP3   OH234467   3.377   0.526   0.777
11505TIP3    H134468   3.371   0.432   0.764
11505TIP3    H234469   3.333   0.564   0.701
11506TIP3   OH234470   2.020   0.271   0.768
11506TIP3    H134471   2.019   0.277   0.863
11506TIP3    H234472   2.101   0.224   0.747
11507TIP3   OH234473   4.184   0.401   1.098
11507TIP3    H134474   4.194   0.306   1.104
11507TIP3    H234475   4.243   0.435   1.165
11508TIP3   OH234476   1.235   7.079   0.970
11508TIP3    H134477   1.174   7.150   0.988
11508TIP3    H234478   1.180   7.008   0.938
11509TIP3   OH234479   1.338   7.268   1.165
11509TIP3    H134480   1.317   7.195   1.222
11509TIP3    H234481   1.359   7.228   1.081
11510TIP3   OH234482   4.823   0.280   0.610
11510TIP3    H134483   4.810   0.188   0.584
11510TIP3    H234484   4.766   0.330   0.551
11511TIP3   OH234485   3.751   0.111   0.714
11511TIP3    H134486   3.719   0.125   0.625
11511TIP3    H234487   3.789   0.194   0.740
11512TIP3   OH234488   4.744   0.019   0.529
11512TIP3    H134489   4.656   0.052   0.510
11512TIP3    H234490   4.731  -0.048   0.596
11513TIP3   OH234491   2.057   7.163   0.270
11513TIP3    H134492   2.123   7.203   0.327
11513TIP3    H234493   2.108   7.109   0.208
11514TIP3   OH234494   1.669   7.425   0.932
11514TIP3    H134495   1.622   7.398   0.853
11514TIP3    H234496   1.699   7.343   0.971
11515TIP3   OH234497   2.273   7.290   0.381
11515TIP3    H134498   2.237   7.370   0.419
11515TIP3    H234499   2.312   7.318   0.298
11516TIP3   OH234500   1.547   7.289   0.722
11516TIP3    H134501   1.465   7.328   0.693
11516TIP3    H234502   1.523   7.198   0.744
11517TIP3   OH234503   7.846   4.243   6.409
11517TIP3    H134504   7.849   4.338   6.397
11517TIP3    H234505   7.935   4.213   6.394
11518TIP3   OH234506   3.768   0.424   1.402
11518TIP3    H134507   3.848   0.380   1.372
11518TIP3    H234508   3.795   0.515   1.416
11519TIP3   OH234509   4.564   0.802   0.430
11519TIP3    H134510   4.537   0.766   0.346
11519TIP3    H234511   4.541   0.895   0.426
11520TIP3   OH234512   4.754   0.720   0.090
11520TIP3    H134513   4.793   0.644   0.047
11520TIP3    H234514   4.818   0.747   0.155
11521TIP3   OH234515   2.373   7.335   0.129
11521TIP3    H134516   2.324   7.340   0.047
11521TIP3    H234517   2.457   7.377   0.109
11522TIP3   OH234518   2.108   6.679   0.348
11522TIP3    H134519   2.135   6.758   0.393
11522TIP3    H234520   2.034   6.646   0.398
11523TIP3   OH234521   1.722   7.168   0.998
11523TIP3    H134522   1.651   7.104   1.001
11523TIP3    H234523   1.798   7.120   0.967
11524TIP3   OH234524   1.726   6.751   0.392
11524TIP3    H134525   1.713   6.753   0.487
11524TIP3    H234526   1.646   6.788   0.356
11525TIP3   OH234527   1.263   6.819   1.250
11525TIP3    H134528   1.354   6.795   1.265
11525TIP3    H234529   1.214   6.738   1.259
11526TIP3   OH234530   1.263   6.785   0.832
11526TIP3    H134531   1.298   6.801   0.744
11526TIP3    H234532   1.179   6.831   0.833
11527TIP3   OH234533   1.499   6.993   1.008
11527TIP3    H134534   1.408   7.011   0.985
11527TIP3    H234535   1.494   6.944   1.090
11528TIP3   OH234536   1.819   6.941   0.646
11528TIP3    H134537   1.838   7.007   0.712
11528TIP3    H234538   1.743   6.976   0.598
11529TIP3   OH234539   1.607   7.023   0.493
11529TIP3    H134540   1.541   6.975   0.442
11529TIP3    H234541   1.663   7.063   0.427
11530TIP3   OH234542   4.467   0.109   0.513
11530TIP3    H134543   4.404   0.039   0.496
11530TIP3    H234544   4.474   0.114   0.608
11531TIP3   OH234545   4.210   0.136   1.137
11531TIP3    H134546   4.237   0.084   1.061
11531TIP3    H234547   4.238   0.085   1.212
11532TIP3   OH234548   4.615   0.240   0.327
11532TIP3    H134549   4.590   0.331   0.345
11532TIP3    H234550   4.563   0.189   0.390
11533TIP3   OH234551   4.360   0.367   0.742
11533TIP3    H134552   4.367   0.404   0.654
11533TIP3    H234553   4.267   0.373   0.764
11534TIP3   OH234554   1.230   7.149   0.561
11534TIP3    H134555   1.272   7.234   0.575
11534TIP3    H234556   1.150   7.153   0.615
11535TIP3   OH234557   4.483   0.123   0.782
11535TIP3    H134558   4.452   0.213   0.787
11535TIP3    H234559   4.431   0.076   0.847
11536TIP3   OH234560   4.906   0.299   0.133
11536TIP3    H134561   4.955   0.265   0.208
11536TIP3    H234562   4.825   0.248   0.132
11537TIP3   OH234563   5.074   0.191   0.318
11537TIP3    H134564   5.073   0.123   0.386
11537TIP3    H234565   5.165   0.219   0.314
11538TIP3   OH234566   4.285   0.256   0.151
11538TIP3    H134567   4.298   0.166   0.122
11538TIP3    H234568   4.266   0.248   0.245
11539TIP3   OH234569   4.239   0.276   0.423
11539TIP3    H134570   4.321   0.243   0.461
11539TIP3    H234571   4.249   0.371   0.424
11540TIP3   OH234572   1.322   7.403   0.620
11540TIP3    H134573   1.253   7.445   0.671
11540TIP3    H234574   1.345   7.468   0.552
11541TIP3   OH234575   4.518   0.483   0.397
11541TIP3    H134576   4.426   0.511   0.399
11541TIP3    H234577   4.566   0.561   0.369
11542TIP3   OH234578   4.253   0.555   0.420
11542TIP3    H134579   4.228   0.621   0.356
11542TIP3    H234580   4.231   0.594   0.504
11543TIP3   OH234581   1.735   6.672   0.665
11543TIP3    H134582   1.755   6.763   0.690
11543TIP3    H234583   1.817   6.639   0.629
11544TIP3   OH234584   3.991   0.149   0.422
11544TIP3    H134585   4.065   0.209   0.434
11544TIP3    H234586   4.021   0.087   0.355
11545TIP3   OH234587   1.274   6.876   0.569
11545TIP3    H134588   1.273   6.972   0.567
11545TIP3    H234589   1.202   6.850   0.511
11546TIP3   OH234590   3.840   0.364   0.754
11546TIP3    H134591   3.771   0.392   0.814
11546TIP3    H234592   3.826   0.417   0.676
11547TIP3   OH234593   4.445   0.459   0.057
11547TIP3    H134594   4.396   0.385   0.094
11547TIP3    H234595   4.519   0.417   0.011
11548TIP3   OH234596   7.509   4.236   6.417
11548TIP3    H134597   7.537   4.167   6.476
11548TIP3    H234598   7.567   4.228   6.341
11549TIP3   OH234599   1.479   7.407   0.269
11549TIP3    H134600   1.531   7.382   0.345
11549TIP3    H234601   1.543   7.418   0.198
11550TIP3   OH234602   4.664   0.163   0.074
11550TIP3    H134603   4.637   0.181   0.164
11550TIP3    H234604   4.655   0.069   0.065
11551TIP3   OH234605   1.659   7.350   0.475
11551TIP3    H134606   1.629   7.317   0.560
11551TIP3    H234607   1.704   7.276   0.435
11552TIP3   OH234608   1.785   7.153   0.327
11552TIP3    H134609   1.756   7.159   0.236
11552TIP3    H234610   1.880   7.150   0.322
11553TIP3   OH234611   7.850   3.729   6.449
11553TIP3    H134612   7.839   3.696   6.360
11553TIP3    H234613   7.830   3.822   6.443
11554TIP3   OH234614   4.239   0.785   0.248
11554TIP3    H134615   4.329   0.758   0.233
11554TIP3    H234616   4.206   0.810   0.162
11555TIP3   OH234617   3.717   0.140   0.435
11555TIP3    H134618   3.812   0.154   0.430
11555TIP3    H234619   3.703   0.055   0.393
11556TIP3   OH234620   3.532   0.733   0.881
11556TIP3    H134621   3.470   0.667   0.850
11556TIP3    H234622   3.542   0.793   0.806
11557TIP3   OH234623   3.789   0.575   1.105
11557TIP3    H134624   3.759   0.485   1.116
11557TIP3    H234625   3.771   0.617   1.189
11558TIP3   OH234626   3.953  -0.009   1.374
11558TIP3    H134627   3.967  -0.063   1.296
11558TIP3    H234628   3.964   0.081   1.342
11559TIP3   OH234629   1.156   6.555   0.934
11559TIP3    H134630   1.135   6.570   1.026
11559TIP3    H234631   1.213   6.629   0.910
11560TIP3   OH234632   4.063   0.638   1.040
11560TIP3    H134633   4.102   0.552   1.056
11560TIP3    H234634   4.135   0.700   1.052
11561TIP3   OH234635   1.403   6.359   0.761
11561TIP3    H134636   1.403   6.450   0.728
11561TIP3    H234637   1.360   6.365   0.846
11562TIP3   OH234638   3.738   0.538   0.562
11562TIP3    H134639   3.660   0.483   0.558
11562TIP3    H234640   3.712   0.620   0.521
11563TIP3   OH234641   1.496   6.559   0.572
11563TIP3    H134642   1.533   6.486   0.523
11563TIP3    H234643   1.572   6.602   0.611
11564TIP3   OH234644   4.496   0.695   0.186
11564TIP3    H134645   4.578   0.719   0.143
11564TIP3    H234646   4.469   0.614   0.142
11565TIP3   OH234647   3.799   0.485   0.275
11565TIP3    H134648   3.809   0.504   0.368
11565TIP3    H234649   3.886   0.460   0.245
11566TIP3   OH234650   0.190   4.135   6.345
11566TIP3    H134651   0.265   4.113   6.400
11566TIP3    H234652   0.160   4.050   6.310
11567TIP3   OH234653   7.415   1.531   1.170
11567TIP3    H134654   7.413   1.619   1.133
11567TIP3    H234655   7.503   1.498   1.147
11568TIP3   OH234656   7.026   1.758   1.265
11568TIP3    H134657   7.050   1.670   1.236
11568TIP3    H234658   7.040   1.758   1.359
11569TIP3   OH234659   7.140   1.000   1.264
11569TIP3    H134660   7.101   0.943   1.198
11569TIP3    H234661   7.233   1.003   1.241
11570TIP3   OH234662   7.343   1.596   1.430
11570TIP3    H134663   7.392   1.528   1.476
11570TIP3    H234664   7.359   1.578   1.337
11571TIP3   OH234665   7.108   1.271   1.295
11571TIP3    H134666   7.110   1.175   1.297
11571TIP3    H234667   7.046   1.295   1.364
11572TIP3   OH234668   7.432   1.794   1.104
11572TIP3    H134669   7.478   1.853   1.044
11572TIP3    H234670   7.370   1.850   1.150
11573TIP3   OH234671   6.559   1.554   1.297
11573TIP3    H134672   6.514   1.484   1.343
11573TIP3    H234673   6.652   1.537   1.312
11574TIP3   OH234674   7.067   1.507   1.143
11574TIP3    H134675   7.117   1.438   1.186
11574TIP3    H234676   7.110   1.518   1.058
11575TIP3   OH234677   7.392   1.048   1.155
11575TIP3    H134678   7.382   1.003   1.071
11575TIP3    H234679   7.371   1.140   1.135
11576TIP3   OH234680   7.588   1.041   1.346
11576TIP3    H134681   7.520   1.043   1.279
11576TIP3    H234682   7.543   1.058   1.428
11577TIP3   OH234683   7.441   0.643   1.272
11577TIP3    H134684   7.468   0.734   1.264
11577TIP3    H234685   7.374   0.631   1.205
11578TIP3   OH234686   6.760   1.868   1.257
11578TIP3    H134687   6.853   1.853   1.273
11578TIP3    H234688   6.737   1.804   1.189
11579TIP3   OH234689   7.354   1.875   1.486
11579TIP3    H134690   7.349   1.780   1.478
11579TIP3    H234691   7.327   1.909   1.401
11580TIP3   OH234692   0.949   1.410   1.408
11580TIP3    H134693   0.919   1.495   1.376
11580TIP3    H234694   0.884   1.347   1.376
11581TIP3   OH234695   1.220   1.697   1.481
11581TIP3    H134696   1.212   1.626   1.544
11581TIP3    H234697   1.228   1.776   1.534
11582TIP3   OH234698   0.857   2.120   1.499
11582TIP3    H134699   0.895   2.057   1.437
11582TIP3    H234700   0.836   2.067   1.576
11583TIP3   OH234701   1.220   0.866   1.444
11583TIP3    H134702   1.283   0.857   1.516
11583TIP3    H234703   1.271   0.904   1.373
11584TIP3   OH234704   0.846   1.620   1.261
11584TIP3    H134705   0.809   1.591   1.177
11584TIP3    H234706   0.791   1.694   1.288
11585TIP3   OH234707   1.402   0.869   1.642
11585TIP3    H134708   1.438   0.792   1.685
11585TIP3    H234709   1.455   0.942   1.674
11586TIP3   OH234710   7.731   1.469   1.378
11586TIP3    H134711   7.684   1.449   1.298
11586TIP3    H234712   7.790   1.540   1.354
11587TIP3   OH234713   1.258   1.932   1.624
11587TIP3    H134714   1.281   1.946   1.716
11587TIP3    H234715   1.234   2.019   1.591
11588TIP3   OH234716   0.959   1.969   1.292
11588TIP3    H134717   1.012   1.891   1.278
11588TIP3    H234718   1.016   2.042   1.266
11589TIP3   OH234719   1.099   1.743   1.238
11589TIP3    H134720   1.025   1.682   1.241
11589TIP3    H234721   1.152   1.721   1.314
11590TIP3   OH234722   0.785   1.250   1.248
11590TIP3    H134723   0.701   1.293   1.231
11590TIP3    H234724   0.827   1.246   1.162
11591TIP3   OH234725   0.748   1.049   0.939
11591TIP3    H134726   0.815   1.097   0.987
11591TIP3    H234727   0.796   0.980   0.893
11592TIP3   OH234728   1.131   1.331   1.215
11592TIP3    H134729   1.080   1.361   1.290
11592TIP3    H234730   1.215   1.304   1.253
11593TIP3   OH234731   0.353   1.340   1.568
11593TIP3    H134732   0.314   1.274   1.509
11593TIP3    H234733   0.374   1.292   1.647
11594TIP3   OH234734   0.969   1.194   1.038
11594TIP3    H134735   1.027   1.253   1.086
11594TIP3    H234736   0.998   1.198   0.947
11595TIP3   OH234737   0.707   1.857   1.307
11595TIP3    H134738   0.790   1.905   1.306
11595TIP3    H234739   0.648   1.912   1.254
11596TIP3   OH234740   1.487   0.408   1.097
11596TIP3    H134741   1.411   0.430   1.152
11596TIP3    H234742   1.499   0.484   1.040
11597TIP3   OH234743   0.239   1.143   1.408
11597TIP3    H134744   0.155   1.177   1.376
11597TIP3    H234745   0.226   1.048   1.411
11598TIP3   OH234746   1.297   1.785   0.653
11598TIP3    H134747   1.294   1.879   0.636
11598TIP3    H234748   1.388   1.761   0.633
11599TIP3   OH234749   0.603   2.078   1.127
11599TIP3    H134750   0.558   2.057   1.045
11599TIP3    H234751   0.560   2.158   1.158
11600TIP3   OH234752   0.032   1.958   1.513
11600TIP3    H134753   0.061   1.960   1.604
11600TIP3    H234754  -0.021   1.878   1.506
11601TIP3   OH234755   0.807   2.011   0.756
11601TIP3    H134756   0.858   1.939   0.718
11601TIP3    H234757   0.840   2.019   0.846
11602TIP3   OH234758   0.856   2.044   1.027
11602TIP3    H134759   0.769   2.052   1.067
11602TIP3    H234760   0.910   2.004   1.095
11603TIP3   OH234761   1.045   1.165   0.775
11603TIP3    H134762   0.999   1.171   0.692
11603TIP3    H234763   1.127   1.212   0.760
11604TIP3   OH234764   0.780   0.590   1.100
11604TIP3    H134765   0.746   0.590   1.190
11604TIP3    H234766   0.737   0.516   1.058
11605TIP3   OH234767   0.907   1.040   1.373
11605TIP3    H134768   0.863   1.116   1.334
11605TIP3    H234769   0.969   1.011   1.305
11606TIP3   OH234770   1.088   1.064   1.587
11606TIP3    H134771   1.012   1.077   1.530
11606TIP3    H234772   1.130   0.985   1.553
11607TIP3   OH234773   0.433   0.580   1.067
11607TIP3    H134774   0.429   0.576   1.163
11607TIP3    H234775   0.360   0.635   1.042
11608TIP3   OH234776   0.437   0.836   1.424
11608TIP3    H134777   0.530   0.859   1.419
11608TIP3    H234778   0.401   0.865   1.341
11609TIP3   OH234779   0.329   0.892   1.181
11609TIP3    H134780   0.271   0.834   1.132
11609TIP3    H234781   0.386   0.930   1.114
11610TIP3   OH234782   0.549   1.385   1.197
11610TIP3    H134783   0.476   1.327   1.177
11610TIP3    H234784   0.519   1.438   1.271
11611TIP3   OH234785   1.015   0.716   1.060
11611TIP3    H134786   0.925   0.687   1.074
11611TIP3    H234787   1.015   0.808   1.087
11612TIP3   OH234788   1.077   0.966   1.163
11612TIP3    H134789   1.172   0.970   1.175
11612TIP3    H234790   1.056   1.045   1.113
11613TIP3   OH234791   0.698   1.541   1.034
11613TIP3    H134792   0.650   1.624   1.032
11613TIP3    H234793   0.643   1.483   1.087
11614TIP3   OH234794   1.479   1.043   0.982
11614TIP3    H134795   1.422   0.997   0.920
11614TIP3    H234796   1.483   1.132   0.948
11615TIP3   OH234797   1.206   1.837   0.920
11615TIP3    H134798   1.184   1.767   0.981
11615TIP3    H234799   1.229   1.793   0.839
11616TIP3   OH234800   1.195   1.483   1.654
11616TIP3    H134801   1.105   1.454   1.639
11616TIP3    H234802   1.248   1.404   1.644
11617TIP3   OH234803   0.353   1.780   1.519
11617TIP3    H134804   0.331   1.839   1.446
11617TIP3    H234805   0.283   1.715   1.519
11618TIP3   OH234806   7.818   1.015   1.203
11618TIP3    H134807   7.865   1.096   1.223
11618TIP3    H234808   7.738   1.020   1.257
11619TIP3   OH234809   0.442   1.535   1.395
11619TIP3    H134810   0.458   1.617   1.442
11619TIP3    H234811   0.415   1.473   1.463
11620TIP3   OH234812   0.247   1.959   1.341
11620TIP3    H134813   0.165   1.974   1.388
11620TIP3    H234814   0.291   2.045   1.342
11621TIP3   OH234815   0.985   1.597   0.807
11621TIP3    H134816   1.034   1.570   0.884
11621TIP3    H234817   0.901   1.553   0.814
11622TIP3   OH234818   1.298   2.059   0.616
11622TIP3    H134819   1.326   2.124   0.552
11622TIP3    H234820   1.220   2.097   0.656
11623TIP3   OH234821   1.156   1.512   1.003
11623TIP3    H134822   1.139   1.462   1.083
11623TIP3    H234823   1.251   1.517   0.997
11624TIP3   OH234824   0.341   1.558   0.823
11624TIP3    H134825   0.338   1.469   0.789
11624TIP3    H234826   0.325   1.548   0.917
11625TIP3   OH234827   0.284   1.579   1.100
11625TIP3    H134828   0.347   1.560   1.169
11625TIP3    H234829   0.283   1.675   1.096
11626TIP3   OH234830   7.912   1.260   1.301
11626TIP3    H134831   7.847   1.305   1.354
11626TIP3    H234832   7.934   1.322   1.231
11627TIP3   OH234833   1.085   0.660   1.325
11627TIP3    H134834   1.067   0.683   1.234
11627TIP3    H234835   1.126   0.738   1.362
11628TIP3   OH234836   0.553   1.770   1.035
11628TIP3    H134837   0.466   1.791   1.068
11628TIP3    H234838   0.574   1.841   0.975
11629TIP3   OH234839   0.718   0.855   1.436
11629TIP3    H134840   0.780   0.919   1.401
11629TIP3    H234841   0.734   0.854   1.531
11630TIP3   OH234842   0.923   0.564   1.521
11630TIP3    H134843   0.959   0.601   1.601
11630TIP3    H234844   0.980   0.597   1.451
11631TIP3   OH234845   0.298   1.851   1.098
11631TIP3    H134846   0.278   1.920   1.034
11631TIP3    H234847   0.278   1.891   1.182
11632TIP3   OH234848   0.423   0.574   1.345
11632TIP3    H134849   0.411   0.659   1.387
11632TIP3    H234850   0.516   0.554   1.357
11633TIP3   OH234851   1.306   1.230   1.611
11633TIP3    H134852   1.229   1.173   1.618
11633TIP3    H234853   1.375   1.184   1.659
11634TIP3   OH234854   0.037   1.453   1.099
11634TIP3    H134855   0.106   1.518   1.106
11634TIP3    H234856   0.070   1.389   1.036
11635TIP3   OH234857   7.888   0.755   1.161
11635TIP3    H134858   7.872   0.848   1.178
11635TIP3    H234859   7.833   0.710   1.225
11636TIP3   OH234860   1.235   2.202   1.571
11636TIP3    H134861   1.179   2.264   1.524
11636TIP3    H234862   1.319   2.207   1.525
11637TIP3   OH234863   7.768   1.738   1.507
11637TIP3    H134864   7.736   1.649   1.526
11637TIP3    H234865   7.727   1.761   1.424
11638TIP3   OH234866   0.492   1.761   0.714
11638TIP3    H134867   0.446   1.690   0.758
11638TIP3    H234868   0.567   1.718   0.672
11639TIP3   OH234869   0.936   1.804   0.634
11639TIP3    H134870   0.968   1.740   0.698
11639TIP3    H234871   0.995   1.796   0.560
11640TIP3   OH234872   0.176   1.272   0.952
11640TIP3    H134873   0.235   1.250   1.024
11640TIP3    H234874   0.232   1.280   0.875
11641TIP3   OH234875   0.733   1.479   0.770
11641TIP3    H134876   0.709   1.491   0.862
11641TIP3    H234877   0.713   1.387   0.753
11642TIP3   OH234878   0.349   1.206   1.155
11642TIP3    H134879   0.321   1.170   1.240
11642TIP3    H234880   0.392   1.133   1.111
11643TIP3   OH234881   0.478   1.022   0.993
11643TIP3    H134882   0.445   1.021   0.903
11643TIP3    H234883   0.573   1.028   0.984
11644TIP3   OH234884   1.266   1.300   0.674
11644TIP3    H134885   1.253   1.259   0.589
11644TIP3    H234886   1.241   1.392   0.661
11645TIP3   OH234887   0.294   2.059   0.918
11645TIP3    H134888   0.385   2.042   0.893
11645TIP3    H234889   0.256   2.106   0.843
11646TIP3   OH234890   7.665   1.432   1.109
11646TIP3    H134891   7.758   1.449   1.101
11646TIP3    H234892   7.650   1.350   1.061
11647TIP3   OH234893   7.582   2.024   1.539
11647TIP3    H134894   7.495   1.985   1.525
11647TIP3    H234895   7.637   1.950   1.566
11648TIP3   OH234896   1.497   2.269   1.489
11648TIP3    H134897   1.496   2.278   1.584
11648TIP3    H234898   1.553   2.193   1.472
11649TIP3   OH234899   1.432   1.506   1.004
11649TIP3    H134900   1.490   1.575   0.972
11649TIP3    H234901   1.478   1.470   1.080
11650TIP3   OH234902   1.563   1.366   1.204
11650TIP3    H134903   1.495   1.329   1.260
11650TIP3    H234904   1.627   1.404   1.265
11651TIP3   OH234905   1.544   1.745   1.618
11651TIP3    H134906   1.610   1.676   1.615
11651TIP3    H234907   1.461   1.699   1.612
11652TIP3   OH234908   1.474   1.283   0.851
11652TIP3    H134909   1.403   1.283   0.787
11652TIP3    H234910   1.458   1.361   0.905
11653TIP3   OH234911   1.328   0.929   0.785
11653TIP3    H134912   1.281   0.966   0.710
11653TIP3    H234913   1.322   0.835   0.772
11654TIP3   OH234914   1.360   1.229   1.339
11654TIP3    H134915   1.370   1.135   1.324
11654TIP3    H234916   1.346   1.237   1.433
11655TIP3   OH234917   1.298   0.656   0.751
11655TIP3    H134918   1.357   0.633   0.822
11655TIP3    H234919   1.213   0.621   0.777
11656TIP3   OH234920   1.364   0.954   1.222
11656TIP3    H134921   1.411   0.872   1.238
11656TIP3    H234922   1.405   0.991   1.144
11657TIP3   OH234923   1.526   1.105   1.733
11657TIP3    H134924   1.594   1.153   1.687
11657TIP3    H234925   1.551   1.111   1.825
11658TIP3   OH234926   1.481   0.705   1.274
11658TIP3    H134927   1.523   0.692   1.359
11658TIP3    H234928   1.420   0.631   1.267
11659TIP3   OH234929   1.521   0.612   0.915
11659TIP3    H134930   1.569   0.554   0.857
11659TIP3    H234931   1.574   0.692   0.920
11660TIP3   OH234932   1.098   2.171   1.182
11660TIP3    H134933   1.142   2.132   1.107
11660TIP3    H234934   1.126   2.262   1.183
11661TIP3   OH234935   0.447   1.994   1.674
11661TIP3    H134936   0.422   1.927   1.611
11661TIP3    H234937   0.481   1.944   1.749
11662TIP3   OH234938   1.492   0.612   1.713
11662TIP3    H134939   1.552   0.626   1.640
11662TIP3    H234940   1.441   0.535   1.688
11663TIP3   OH234941   1.645   0.646   1.492
11663TIP3    H134942   1.711   0.589   1.453
11663TIP3    H234943   1.678   0.735   1.477
11664TIP3   OH234944   1.297   0.493   1.274
11664TIP3    H134945   1.220   0.547   1.290
11664TIP3    H234946   1.279   0.410   1.318
11665TIP3   OH234947   7.654   1.806   1.273
11665TIP3    H134948   7.575   1.775   1.228
11665TIP3    H234949   7.671   1.892   1.235
11666TIP3   OH234950   0.191   0.455   1.258
11666TIP3    H134951   0.239   0.389   1.208
11666TIP3    H234952   0.259   0.503   1.306
11667TIP3   OH234953   0.698   0.591   1.364
11667TIP3    H134954   0.766   0.560   1.423
11667TIP3    H234955   0.695   0.685   1.377
11668TIP3   OH234956   0.552   1.986   0.856
11668TIP3    H134957   0.635   2.013   0.817
11668TIP3    H234958   0.521   1.915   0.799
11669TIP3   OH234959   1.226   2.106   0.948
11669TIP3    H134960   1.225   2.010   0.942
11669TIP3    H234961   1.182   2.135   0.868
11670TIP3   OH234962   7.757   1.833   0.908
11670TIP3    H134963   7.755   1.872   0.995
11670TIP3    H234964   7.841   1.789   0.903
11671TIP3   OH234965   2.660   1.737   0.960
11671TIP3    H134966   2.595   1.787   0.909
11671TIP3    H234967   2.652   1.771   1.049
11672TIP3   OH234968   2.753   1.632   1.255
11672TIP3    H134969   2.831   1.581   1.277
11672TIP3    H234970   2.691   1.568   1.221
11673TIP3   OH234971   2.045   1.960   1.418
11673TIP3    H134972   2.040   1.868   1.389
11673TIP3    H234973   2.135   1.986   1.397
11674TIP3   OH234974   1.710   1.143   1.115
11674TIP3    H134975   1.671   1.226   1.143
11674TIP3    H234976   1.637   1.094   1.077
11675TIP3   OH234977   1.801   1.453   1.329
11675TIP3    H134978   1.841   1.373   1.364
11675TIP3    H234979   1.865   1.486   1.266
11676TIP3   OH234980   2.575   1.842   1.225
11676TIP3    H134981   2.645   1.788   1.262
11676TIP3    H234982   2.580   1.924   1.274
11677TIP3   OH234983   2.896   1.373   1.270
11677TIP3    H134984   2.964   1.312   1.298
11677TIP3    H234985   2.858   1.333   1.191
11678TIP3   OH234986   2.284   1.001   1.312
11678TIP3    H134987   2.265   1.075   1.255
11678TIP3    H234988   2.228   0.931   1.279
11679TIP3   OH234989   2.996   1.032   0.866
11679TIP3    H134990   2.989   1.038   0.962
11679TIP3    H234991   2.999   1.123   0.837
11680TIP3   OH234992   1.917   1.226   1.428
11680TIP3    H134993   1.997   1.200   1.474
11680TIP3    H234994   1.914   1.170   1.351
11681TIP3   OH234995   2.330   1.404   1.204
11681TIP3    H134996   2.416   1.409   1.161
11681TIP3    H234997   2.291   1.323   1.171
11682TIP3   OH234998   2.507   1.896   0.804
11682TIP3    H134999   2.548   1.909   0.718
11682TIP3    H235000   2.532   1.974   0.853
11683TIP3   OH235001   3.238   1.002   1.168
11683TIP3    H135002   3.227   1.045   1.253
11683TIP3    H235003   3.234   1.074   1.105
11684TIP3   OH235004   2.151   1.125   1.531
11684TIP3    H135005   2.217   1.160   1.590
11684TIP3    H235006   2.200   1.079   1.463
11685TIP3   OH235007   1.603   1.685   0.881
11685TIP3    H135008   1.570   1.703   0.793
11685TIP3    H235009   1.624   1.772   0.917
11686TIP3   OH235010   2.610   0.702   1.471
11686TIP3    H135011   2.596   0.611   1.499
11686TIP3    H235012   2.542   0.752   1.517
11687TIP3   OH235013   2.780   2.174   0.758
11687TIP3    H135014   2.788   2.233   0.833
11687TIP3    H235015   2.686   2.173   0.739
11688TIP3   OH235016   2.919   1.882   0.787
11688TIP3    H135017   2.958   1.969   0.783
11688TIP3    H235018   2.919   1.860   0.880
11689TIP3   OH235019   2.537   1.447   0.747
11689TIP3    H135020   2.450   1.482   0.730
11689TIP3    H235021   2.597   1.516   0.718
11690TIP3   OH235022   2.525   1.287   0.432
11690TIP3    H135023   2.586   1.339   0.485
11690TIP3    H235024   2.580   1.223   0.387
11691TIP3   OH235025   2.967   1.589   0.703
11691TIP3    H135026   2.874   1.609   0.697
11691TIP3    H235027   3.002   1.654   0.763
11692TIP3   OH235028   2.091   1.537   1.100
11692TIP3    H135029   2.066   1.477   1.030
11692TIP3    H235030   2.177   1.506   1.129
11693TIP3   OH235031   2.275   1.991   1.260
11693TIP3    H135032   2.292   1.961   1.170
11693TIP3    H235033   2.357   1.974   1.307
11694TIP3   OH235034   2.256   1.586   1.389
11694TIP3    H135035   2.281   1.513   1.332
11694TIP3    H235036   2.215   1.545   1.465
11695TIP3   OH235037   2.748   1.425   0.521
11695TIP3    H135038   2.742   1.513   0.558
11695TIP3    H235039   2.780   1.440   0.432
11696TIP3   OH235040   2.572   2.104   0.966
11696TIP3    H135041   2.653   2.155   0.974
11696TIP3    H235042   2.503   2.170   0.959
11697TIP3   OH235043   3.244   0.631   0.563
11697TIP3    H135044   3.158   0.646   0.604
11697TIP3    H235045   3.259   0.710   0.511
11698TIP3   OH235046   2.013   1.377   0.889
11698TIP3    H135047   1.940   1.431   0.859
11698TIP3    H235048   1.977   1.288   0.891
11699TIP3   OH235049   3.070   2.012   0.028
11699TIP3    H135050   3.031   2.096   0.004
11699TIP3    H235051   3.123   2.031   0.105
11700TIP3   OH235052   1.497   1.963   1.419
11700TIP3    H135053   1.576   1.913   1.440
11700TIP3    H235054   1.430   1.928   1.477
11701TIP3   OH235055   2.274   2.304   0.616
11701TIP3    H135056   2.245   2.314   0.526
11701TIP3    H235057   2.334   2.377   0.631
11702TIP3   OH235058   1.828   2.153   0.972
11702TIP3    H135059   1.871   2.124   1.052
11702TIP3    H235060   1.774   2.079   0.945
11703TIP3   OH235061   2.550   2.202   0.111
11703TIP3    H135062   2.614   2.133   0.089
11703TIP3    H235063   2.603   2.271   0.151
11704TIP3   OH235064   2.662   2.362   0.537
11704TIP3    H135065   2.612   2.432   0.578
11704TIP3    H235066   2.625   2.281   0.573
11705TIP3   OH235067   2.394   0.799   1.620
11705TIP3    H135068   2.313   0.787   1.572
11705TIP3    H235069   2.374   0.772   1.710
11706TIP3   OH235070   2.815   1.399   0.252
11706TIP3    H135071   2.796   1.412   0.159
11706TIP3    H235072   2.900   1.442   0.265
11707TIP3   OH235073   2.541   0.841   0.584
11707TIP3    H135074   2.504   0.845   0.673
11707TIP3    H235075   2.506   0.760   0.547
11708TIP3   OH235076   2.198   1.183   1.128
11708TIP3    H135077   2.109   1.163   1.157
11708TIP3    H235078   2.204   1.146   1.040
11709TIP3   OH235079   2.684   1.233   0.814
11709TIP3    H135080   2.628   1.304   0.784
11709TIP3    H235081   2.739   1.213   0.738
11710TIP3   OH235082   2.776   1.224   1.068
11710TIP3    H135083   2.756   1.222   0.975
11710TIP3    H235084   2.826   1.143   1.084
11711TIP3   OH235085   2.212   0.823   0.564
11711TIP3    H135086   2.199   0.822   0.659
11711TIP3    H235087   2.135   0.867   0.529
11712TIP3   OH235088   1.745   0.880   1.406
11712TIP3    H135089   1.815   0.911   1.464
11712TIP3    H235090   1.789   0.862   1.323
11713TIP3   OH235091   1.669   0.848   0.926
11713TIP3    H135092   1.714   0.883   0.849
11713TIP3    H235093   1.606   0.915   0.950
11714TIP3   OH235094   2.543   0.991   1.187
11714TIP3    H135095   2.455   0.977   1.220
11714TIP3    H235096   2.593   1.021   1.264
11715TIP3   OH235097   1.960   1.074   1.202
11715TIP3    H135098   1.873   1.083   1.162
11715TIP3    H235099   1.986   0.984   1.181
11716TIP3   OH235100   2.215   1.070   0.883
11716TIP3    H135101   2.309   1.085   0.873
11716TIP3    H235102   2.177   1.095   0.799
11717TIP3   OH235103   2.943   1.107   1.384
11717TIP3    H135104   3.036   1.093   1.401
11717TIP3    H235105   2.904   1.020   1.397
11718TIP3   OH235106   2.098   1.113   0.644
11718TIP3    H135107   2.038   1.061   0.590
11718TIP3    H235108   2.155   1.156   0.581
11719TIP3   OH235109   2.611   1.388   1.204
11719TIP3    H135110   2.654   1.325   1.146
11719TIP3    H235111   2.657   1.380   1.287
11720TIP3   OH235112   2.111   0.833   1.169
11720TIP3    H135113   2.085   0.755   1.218
11720TIP3    H235114   2.133   0.800   1.081
11721TIP3   OH235115   2.315   1.592   0.681
11721TIP3    H135116   2.240   1.547   0.642
11721TIP3    H235117   2.278   1.638   0.757
11722TIP3   OH235118   2.793   0.935   0.557
11722TIP3    H135119   2.698   0.923   0.557
11722TIP3    H235120   2.805   1.029   0.571
11723TIP3   OH235121   2.867   1.198   0.611
11723TIP3    H135122   2.961   1.192   0.597
11723TIP3    H235123   2.841   1.276   0.563
11724TIP3   OH235124   2.020   1.699   1.322
11724TIP3    H135125   2.010   1.673   1.231
11724TIP3    H235126   2.106   1.665   1.348
11725TIP3   OH235127   2.473   1.742   0.519
11725TIP3    H135128   2.435   1.829   0.525
11725TIP3    H235129   2.417   1.687   0.575
11726TIP3   OH235130   3.261   1.275   0.414
11726TIP3    H135131   3.191   1.249   0.354
11726TIP3    H235132   3.264   1.371   0.407
11727TIP3   OH235133   3.022   2.033   0.344
11727TIP3    H135134   3.025   1.984   0.426
11727TIP3    H235135   2.933   2.069   0.341
11728TIP3   OH235136   2.022   1.932   0.889
11728TIP3    H135137   2.036   2.019   0.853
11728TIP3    H235138   1.987   1.947   0.977
11729TIP3   OH235139   1.714   1.270   0.714
11729TIP3    H135140   1.753   1.356   0.732
11729TIP3    H235141   1.632   1.271   0.765
11730TIP3   OH235142   2.159   1.699   0.873
11730TIP3    H135143   2.115   1.783   0.884
11730TIP3    H235144   2.145   1.654   0.957
11731TIP3   OH235145   2.025   2.210   0.788
11731TIP3    H135146   1.956   2.206   0.855
11731TIP3    H235147   2.093   2.265   0.827
11732TIP3   OH235148   2.751   1.861   0.332
11732TIP3    H135149   2.820   1.821   0.385
11732TIP3    H235150   2.687   1.791   0.319
11733TIP3   OH235151   3.088   2.315   0.051
11733TIP3    H135152   3.084   2.368  -0.028
11733TIP3    H235153   3.086   2.379   0.123
11734TIP3   OH235154   2.947   1.822   0.524
11734TIP3    H135155   2.929   1.835   0.617
11734TIP3    H235156   3.043   1.822   0.518
11735TIP3   OH235157   2.138   1.797   0.318
11735TIP3    H135158   2.145   1.706   0.289
11735TIP3    H235159   2.122   1.792   0.412
11736TIP3   OH235160   2.075   1.800   0.590
11736TIP3    H135161   2.113   1.776   0.674
11736TIP3    H235162   2.076   1.895   0.589
11737TIP3   OH235163   1.804   1.521   0.787
11737TIP3    H135164   1.739   1.569   0.839
11737TIP3    H235165   1.825   1.580   0.715
11738TIP3   OH235166   2.808   0.848   0.819
11738TIP3    H135167   2.783   0.866   0.728
11738TIP3    H235168   2.876   0.913   0.838
11739TIP3   OH235169   2.347   1.983   0.530
11739TIP3    H135170   2.258   2.017   0.541
11739TIP3    H235171   2.387   2.041   0.465
11740TIP3   OH235172   2.490   1.078   0.928
11740TIP3    H135173   2.558   1.135   0.891
11740TIP3    H235174   2.515   1.069   1.020
11741TIP3   OH235175   2.661   0.783   1.038
11741TIP3    H135176   2.639   0.863   1.085
11741TIP3    H235177   2.716   0.813   0.965
11742TIP3   OH235178   2.080   2.070   0.559
11742TIP3    H135179   2.055   2.131   0.490
11742TIP3    H235180   2.066   2.119   0.640
11743TIP3   OH235181   2.177   0.801   0.845
11743TIP3    H135182   2.170   0.894   0.867
11743TIP3    H235183   2.271   0.783   0.848
11744TIP3   OH235184   3.059   1.532   1.066
11744TIP3    H135185   2.967   1.508   1.051
11744TIP3    H235186   3.088   1.473   1.136
11745TIP3   OH235187   1.822   1.696   0.569
11745TIP3    H135188   1.897   1.752   0.585
11745TIP3    H235189   1.852   1.634   0.502
11746TIP3   OH235190   1.737   0.994   0.705
11746TIP3    H135191   1.749   1.088   0.715
11746TIP3    H235192   1.676   0.986   0.631
11747TIP3   OH235193   2.142   0.720   1.543
11747TIP3    H135194   2.113   0.691   1.456
11747TIP3    H235195   2.124   0.646   1.600
11748TIP3   OH235196   1.642   1.946   0.957
11748TIP3    H135197   1.610   1.984   1.039
11748TIP3    H235198   1.598   1.997   0.889
11749TIP3   OH235199   2.291   1.983   0.187
11749TIP3    H135200   2.244   1.917   0.239
11749TIP3    H235201   2.361   1.935   0.145
11750TIP3   OH235202   2.726   1.976   0.087
11750TIP3    H135203   2.740   1.945   0.177
11750TIP3    H235204   2.787   2.049   0.077
11751TIP3   OH235205   1.943   1.508   0.412
11751TIP3    H135206   1.989   1.480   0.491
11751TIP3    H235207   2.012   1.520   0.347
11752TIP3   OH235208   2.527   1.706   0.256
11752TIP3    H135209   2.496   1.717   0.346
11752TIP3    H235210   2.506   1.614   0.236
11753TIP3   OH235211   2.100   1.432   0.623
11753TIP3    H135212   2.084   1.405   0.714
11753TIP3    H235213   2.153   1.362   0.586
11754TIP3   OH235214   2.257   1.258   0.478
11754TIP3    H135215   2.231   1.264   0.386
11754TIP3    H235216   2.353   1.266   0.477
11755TIP3   OH235217   3.020   1.524   0.097
11755TIP3    H135218   3.013   1.481   0.012
11755TIP3    H235219   2.989   1.613   0.082
11756TIP3   OH235220   2.047   2.271   0.372
11756TIP3    H135221   2.127   2.251   0.322
11756TIP3    H235222   1.999   2.331   0.316
11757TIP3   OH235223   1.551   1.695   0.595
11757TIP3    H135224   1.646   1.708   0.590
11757TIP3    H235225   1.536   1.610   0.555
11758TIP3   OH235226   1.426   2.264   1.043
11758TIP3    H135227   1.366   2.209   0.993
11758TIP3    H235228   1.478   2.203   1.095
11759TIP3   OH235229   1.576   2.090   1.186
11759TIP3    H135230   1.542   2.043   1.262
11759TIP3    H235231   1.650   2.141   1.220
11760TIP3   OH235232   3.214   1.853   0.516
11760TIP3    H135233   3.273   1.909   0.465
11760TIP3    H235234   3.270   1.817   0.585
11761TIP3   OH235235   3.368   1.722   0.700
11761TIP3    H135236   3.317   1.651   0.661
11761TIP3    H235237   3.359   1.708   0.795
11762TIP3   OH235238   3.248   1.538   0.254
11762TIP3    H135239   3.173   1.504   0.206
11762TIP3    H235240   3.229   1.630   0.268
11763TIP3   OH235241   3.074   1.175   0.246
11763TIP3    H135242   3.028   1.193   0.164
11763TIP3    H235243   3.086   1.080   0.247
11764TIP3   OH235244   3.206   1.475   0.845
11764TIP3    H135245   3.147   1.410   0.807
11764TIP3    H235246   3.160   1.506   0.923
11765TIP3   OH235247   1.743   1.546   1.581
11765TIP3    H135248   1.757   1.522   1.490
11765TIP3    H235249   1.821   1.594   1.606
11766TIP3   OH235250   3.077   0.900   0.236
11766TIP3    H135251   3.137   0.869   0.304
11766TIP3    H235252   2.993   0.862   0.260
11767TIP3   OH235253   3.141   1.183   0.644
11767TIP3    H135254   3.167   1.091   0.657
11767TIP3    H235255   3.194   1.212   0.569
11768TIP3   OH235256   3.197   0.912   0.682
11768TIP3    H135257   3.200   0.890   0.775
11768TIP3    H235258   3.124   0.862   0.648
11769TIP3   OH235259   1.961   0.928   1.566
11769TIP3    H135260   2.022   0.854   1.569
11769TIP3    H235261   2.016   1.006   1.570
11770TIP3   OH235262   1.723   1.265   1.632
11770TIP3    H135263   1.788   1.242   1.565
11770TIP3    H235264   1.724   1.361   1.634
11771TIP3   OH235265   3.300   0.840   0.394
11771TIP3    H135266   3.345   0.776   0.339
11771TIP3    H235267   3.333   0.925   0.364
11772TIP3   OH235268   1.746   0.719   1.153
11772TIP3    H135269   1.662   0.707   1.196
11772TIP3    H235270   1.726   0.771   1.075
11773TIP3   OH235271   1.780   2.249   1.284
11773TIP3    H135272   1.778   2.207   1.370
11773TIP3    H235273   1.873   2.257   1.264
11774TIP3   OH235274   1.974   2.011   1.156
11774TIP3    H135275   1.958   1.993   1.248
11774TIP3    H235276   2.067   2.034   1.152
11775TIP3   OH235277   2.277   2.269   1.325
11775TIP3    H135278   2.272   2.176   1.303
11775TIP3    H235279   2.362   2.298   1.293
11776TIP3   OH235280   2.847   0.852   1.391
11776TIP3    H135281   2.763   0.818   1.423
11776TIP3    H235282   2.880   0.784   1.333
11777TIP3   OH235283   3.306   0.747   1.226
11777TIP3    H135284   3.277   0.832   1.193
11777TIP3    H235285   3.226   0.704   1.255
11778TIP3   OH235286   3.584   0.883   1.119
11778TIP3    H135287   3.547   0.827   1.050
11778TIP3    H235288   3.549   0.970   1.101
11779TIP3   OH235289   2.049   0.605   1.310
11779TIP3    H135290   1.958   0.574   1.316
11779TIP3    H235291   2.102   0.526   1.312
11780TIP3   OH235292   1.872   0.524   0.991
11780TIP3    H135293   1.893   0.571   0.911
11780TIP3    H235294   1.835   0.591   1.049
11781TIP3   OH235295   2.508   0.645   1.220
11781TIP3    H135296   2.555   0.694   1.153
11781TIP3    H235297   2.542   0.678   1.303
11782TIP3   OH235298   2.986   0.742   1.137
11782TIP3    H135299   2.934   0.688   1.077
11782TIP3    H235300   3.004   0.683   1.211
11783TIP3   OH235301   3.018   0.703   0.705
11783TIP3    H135302   2.940   0.749   0.737
11783TIP3    H235303   3.026   0.627   0.763
11784TIP3   OH235304   1.533   2.097   0.759
11784TIP3    H135305   1.452   2.060   0.726
11784TIP3    H235306   1.538   2.184   0.720
11785TIP3   OH235307   1.969   0.644   0.748
11785TIP3    H135308   2.016   0.582   0.692
11785TIP3    H235309   2.038   0.698   0.787
11786TIP3   OH235310   2.450   0.823   0.844
11786TIP3    H135311   2.507   0.771   0.901
11786TIP3    H235312   2.463   0.913   0.874
11787TIP3   OH235313   2.267   2.251   0.211
11787TIP3    H135314   2.323   2.288   0.143
11787TIP3    H235315   2.281   2.157   0.204
11788TIP3   OH235316   3.052   2.296   0.428
11788TIP3    H135317   3.073   2.221   0.373
11788TIP3    H235318   3.050   2.370   0.367
11789TIP3   OH235319   1.641   2.086   0.410
11789TIP3    H135320   1.644   2.103   0.504
11789TIP3    H235321   1.722   2.039   0.391
11790TIP3   OH235322   3.518   1.465   0.642
11790TIP3    H135323   3.479   1.552   0.633
11790TIP3    H235324   3.511   1.426   0.555
11791TIP3   OH235325   3.409   2.021   0.418
11791TIP3    H135326   3.497   1.984   0.428
11791TIP3    H235327   3.397   2.072   0.498
11792TIP3   OH235328   6.991   5.285   6.337
11792TIP3    H135329   6.965   5.222   6.404
11792TIP3    H235330   7.043   5.234   6.274
11793TIP3   OH235331   3.859   1.714   0.344
11793TIP3    H135332   3.778   1.719   0.294
11793TIP3    H235333   3.910   1.646   0.300
11794TIP3   OH235334   4.416   1.015   0.044
11794TIP3    H135335   4.408   1.011   0.139
11794TIP3    H235336   4.349   0.955   0.011
11795TIP3   OH235337   6.615   4.726   6.414
11795TIP3    H135338   6.632   4.755   6.503
11795TIP3    H235339   6.539   4.777   6.386
11796TIP3   OH235340   3.684   1.092   0.828
11796TIP3    H135341   3.628   1.169   0.823
11796TIP3    H235342   3.650   1.032   0.761
11797TIP3   OH235343   3.406   1.072   0.290
11797TIP3    H135344   3.498   1.073   0.315
11797TIP3    H235345   3.366   1.144   0.338
11798TIP3   OH235346   3.756   1.399   0.768
11798TIP3    H135347   3.677   1.445   0.739
11798TIP3    H235348   3.828   1.459   0.747
11799TIP3   OH235349   3.948   1.216   0.396
11799TIP3    H135350   4.019   1.278   0.409
11799TIP3    H235351   3.915   1.234   0.308
11800TIP3   OH235352   3.931   1.261   0.128
11800TIP3    H135353   3.864   1.236   0.063
11800TIP3    H235354   3.974   1.337   0.089
11801TIP3   OH235355   3.961   1.193   0.724
11801TIP3    H135356   3.877   1.216   0.764
11801TIP3    H235357   3.998   1.276   0.695
11802TIP3   OH235358   4.589   1.223  -0.007
11802TIP3    H135359   4.520   1.159   0.014
11802TIP3    H235360   4.571   1.297   0.051
11803TIP3   OH235361   3.476   1.533   0.102
11803TIP3    H135362   3.507   1.623   0.092
11803TIP3    H235363   3.395   1.541   0.152
11804TIP3   OH235364   6.656   5.655   6.132
11804TIP3    H135365   6.671   5.606   6.213
11804TIP3    H235366   6.600   5.729   6.158
11805TIP3   OH235367   3.641   1.752   0.195
11805TIP3    H135368   3.550   1.776   0.210
11805TIP3    H235369   3.669   1.810   0.124
11806TIP3   OH235370   3.968   0.918   0.325
11806TIP3    H135371   3.976   1.006   0.361
11806TIP3    H235372   4.058   0.889   0.313
11807TIP3   OH235373   3.672   1.998   0.019
11807TIP3    H135374   3.645   2.061   0.086
11807TIP3    H235375   3.698   2.051  -0.056
11808TIP3   OH235376   3.543   1.200   0.077
11808TIP3    H135377   3.609   1.224   0.142
11808TIP3    H235378   3.479   1.149   0.127
11809TIP3   OH235379   6.442   5.453   6.249
11809TIP3    H135380   6.476   5.472   6.337
11809TIP3    H235381   6.507   5.395   6.210
11810TIP3   OH235382   3.900   1.771   0.056
11810TIP3    H135383   3.892   1.795   0.148
11810TIP3    H235384   3.993   1.781   0.037
11811TIP3   OH235385   6.673   5.179   6.407
11811TIP3    H135386   6.655   5.166   6.313
11811TIP3    H235387   6.754   5.132   6.422
11812TIP3   OH235388   3.376   1.804   0.177
11812TIP3    H135389   3.346   1.895   0.178
11812TIP3    H235390   3.327   1.763   0.106
11813TIP3   OH235391   7.540   4.850   6.142
11813TIP3    H135392   7.549   4.906   6.219
11813TIP3    H235393   7.448   4.823   6.143
11814TIP3   OH235394   3.477   0.904   0.651
11814TIP3    H135395   3.389   0.874   0.628
11814TIP3    H235396   3.483   0.991   0.613
11815TIP3   OH235397   3.617   0.744   0.434
11815TIP3    H135398   3.644   0.785   0.352
11815TIP3    H235399   3.611   0.816   0.497
11816TIP3   OH235400   3.771   0.860   0.151
11816TIP3    H135401   3.803   0.790   0.093
11816TIP3    H235402   3.844   0.875   0.212
11817TIP3   OH235403   4.375   1.042   0.323
11817TIP3    H135404   4.303   0.981   0.336
11817TIP3    H235405   4.332   1.124   0.297
11818TIP3   OH235406   6.035   6.171   6.286
11818TIP3    H135407   6.088   6.235   6.333
11818TIP3    H235408   6.059   6.086   6.323
11819TIP3   OH235409   7.294   1.984   1.242
11819TIP3    H135410   7.206   2.022   1.241
11819TIP3    H235411   7.353   2.059   1.240
11820TIP3   OH235412   7.211   2.453   0.846
11820TIP3    H135413   7.147   2.522   0.863
11820TIP3    H235414   7.201   2.393   0.920
11821TIP3   OH235415   7.059   2.167   0.904
11821TIP3    H135416   7.139   2.176   0.956
11821TIP3    H235417   6.996   2.128   0.965
11822TIP3   OH235418   7.296   2.208   1.021
11822TIP3    H135419   7.346   2.132   0.990
11822TIP3    H235420   7.361   2.265   1.061
11823TIP3   OH235421   0.831   2.637   1.047
11823TIP3    H135422   0.888   2.628   1.123
11823TIP3    H235423   0.883   2.684   0.983
11824TIP3   OH235424   1.003   2.620   1.254
11824TIP3    H135425   0.985   2.636   1.347
11824TIP3    H235426   1.096   2.641   1.244
11825TIP3   OH235427   0.453   2.261   1.620
11825TIP3    H135428   0.461   2.167   1.636
11825TIP3    H235429   0.386   2.291   1.681
11826TIP3   OH235430   0.417   3.009   0.869
11826TIP3    H135431   0.333   3.036   0.833
11826TIP3    H235432   0.480   3.025   0.799
11827TIP3   OH235433   0.391   2.848   0.575
11827TIP3    H135434   0.456   2.893   0.630
11827TIP3    H235435   0.441   2.783   0.527
11828TIP3   OH235436   0.758   3.158   0.859
11828TIP3    H135437   0.749   3.209   0.939
11828TIP3    H235438   0.841   3.112   0.869
11829TIP3   OH235439   0.615   3.001   0.674
11829TIP3    H135440   0.666   3.068   0.719
11829TIP3    H235441   0.642   3.008   0.583
11830TIP3   OH235442   1.095   2.209   0.727
11830TIP3    H135443   1.019   2.228   0.781
11830TIP3    H235444   1.104   2.285   0.670
11831TIP3   OH235445   0.905   3.588   0.251
11831TIP3    H135446   0.898   3.683   0.239
11831TIP3    H235447   0.986   3.564   0.206
11832TIP3   OH235448   0.688   2.976   0.410
11832TIP3    H135449   0.638   2.983   0.329
11832TIP3    H235450   0.770   3.022   0.392
11833TIP3   OH235451   0.385   2.402   0.724
11833TIP3    H135452   0.353   2.410   0.814
11833TIP3    H235453   0.349   2.319   0.692
11834TIP3   OH235454   0.561   2.836   1.025
11834TIP3    H135455   0.508   2.904   0.983
11834TIP3    H235456   0.611   2.797   0.953
11835TIP3   OH235457   0.741   2.862   1.238
11835TIP3    H135458   0.680   2.864   1.165
11835TIP3    H235459   0.712   2.788   1.292
11836TIP3   OH235460   0.054   2.382   0.705
11836TIP3    H135461   0.048   2.379   0.800
11836TIP3    H235462  -0.025   2.428   0.677
11837TIP3   OH235463   7.455   2.419   1.111
11837TIP3    H135464   7.489   2.447   1.026
11837TIP3    H235465   7.410   2.496   1.146
11838TIP3   OH235466   0.387   2.568   1.319
11838TIP3    H135467   0.305   2.562   1.367
11838TIP3    H235468   0.454   2.543   1.383
11839TIP3   OH235469   0.060   2.616   1.041
11839TIP3    H135470   0.149   2.653   1.044
11839TIP3    H235471   0.022   2.653   0.961
11840TIP3   OH235472   0.797   2.586   1.506
11840TIP3    H135473   0.704   2.568   1.499
11840TIP3    H235474   0.840   2.513   1.462
11841TIP3   OH235475   7.851   2.683   0.794
11841TIP3    H135476   7.791   2.629   0.742
11841TIP3    H235477   7.913   2.718   0.730
11842TIP3   OH235478   0.054   2.405   1.380
11842TIP3    H135479  -0.006   2.335   1.407
11842TIP3    H235480   0.030   2.423   1.289
11843TIP3   OH235481   0.636   2.504   0.718
11843TIP3    H135482   0.542   2.485   0.717
11843TIP3    H235483   0.641   2.597   0.737
11844TIP3   OH235484   0.699   2.763   0.789
11844TIP3    H135485   0.794   2.761   0.792
11844TIP3    H235486   0.678   2.846   0.744
11845TIP3   OH235487   0.335   3.379   0.597
11845TIP3    H135488   0.350   3.465   0.638
11845TIP3    H235489   0.259   3.344   0.644
11846TIP3   OH235490   1.107   2.858   0.611
11846TIP3    H135491   1.049   2.813   0.550
11846TIP3    H235492   1.114   2.947   0.576
11847TIP3   OH235493   0.824   3.631   0.563
11847TIP3    H135494   0.815   3.564   0.495
11847TIP3    H235495   0.896   3.686   0.532
11848TIP3   OH235496   0.579   3.426   0.442
11848TIP3    H135497   0.633   3.397   0.515
11848TIP3    H235498   0.491   3.395   0.462
11849TIP3   OH235499   0.877   3.864   0.220
11849TIP3    H135500   0.860   3.932   0.155
11849TIP3    H235501   0.824   3.888   0.296
11850TIP3   OH235502   0.729   3.322   0.640
11850TIP3    H135503   0.718   3.281   0.726
11850TIP3    H235504   0.822   3.316   0.622
11851TIP3   OH235505   7.925   3.337   0.493
11851TIP3    H135506   7.939   3.255   0.446
11851TIP3    H235507   7.837   3.329   0.530
11852TIP3   OH235508   0.680   2.427   0.978
11852TIP3    H135509   0.659   2.445   0.886
11852TIP3    H235510   0.726   2.506   1.007
11853TIP3   OH235511   0.342   2.664   1.068
11853TIP3    H135512   0.410   2.728   1.049
11853TIP3    H235513   0.354   2.642   1.161
11854TIP3   OH235514   0.508   2.349   1.172
11854TIP3    H135515   0.489   2.430   1.219
11854TIP3    H235516   0.572   2.375   1.105
11855TIP3   OH235517   0.033   2.352   0.979
11855TIP3    H135518   0.021   2.442   1.011
11855TIP3    H235519   0.126   2.335   0.988
11856TIP3   OH235520   0.934   3.051   1.203
11856TIP3    H135521   0.864   2.991   1.229
11856TIP3    H235522   0.995   3.050   1.277
11857TIP3   OH235523   7.478   2.529   0.860
11857TIP3    H135524   7.499   2.598   0.796
11857TIP3    H235525   7.388   2.504   0.838
11858TIP3   OH235526   0.085   3.565   0.343
11858TIP3    H135527   0.061   3.489   0.396
11858TIP3    H235528   0.179   3.575   0.357
11859TIP3   OH235529   0.557   3.638   0.267
11859TIP3    H135530   0.577   3.577   0.338
11859TIP3    H235531   0.623   3.620   0.200
11860TIP3   OH235532   7.707   3.096   0.557
11860TIP3    H135533   7.739   3.062   0.641
11860TIP3    H235534   7.783   3.089   0.498
11861TIP3   OH235535   0.311   3.283   0.339
11861TIP3    H135536   0.300   3.308   0.431
11861TIP3    H235537   0.319   3.188   0.340
11862TIP3   OH235538   7.846   2.976   0.765
11862TIP3    H135539   7.816   2.908   0.825
11862TIP3    H235540   7.914   2.933   0.713
11863TIP3   OH235541   0.117   2.816   0.615
11863TIP3    H135542   0.089   2.817   0.524
11863TIP3    H235543   0.212   2.820   0.612
11864TIP3   OH235544   0.903   3.106   0.295
11864TIP3    H135545   0.885   3.071   0.208
11864TIP3    H235546   0.870   3.196   0.292
11865TIP3   OH235547   0.999   3.283   0.639
11865TIP3    H135548   1.028   3.374   0.644
11865TIP3    H235549   1.050   3.238   0.707
11866TIP3   OH235550   1.172   3.155   0.802
11866TIP3    H135551   1.116   3.097   0.854
11866TIP3    H235552   1.254   3.161   0.852
11867TIP3   OH235553   1.108   3.096   0.473
11867TIP3    H135554   1.045   3.088   0.401
11867TIP3    H235555   1.074   3.167   0.528
11868TIP3   OH235556   0.953   2.744   0.421
11868TIP3    H135557   0.907   2.780   0.345
11868TIP3    H235558   0.947   2.649   0.410
11869TIP3   OH235559   0.984   3.006   0.940
11869TIP3    H135560   0.964   2.915   0.919
11869TIP3    H235561   0.957   3.016   1.032
11870TIP3   OH235562   0.919   2.474   0.389
11870TIP3    H135563   0.982   2.443   0.454
11870TIP3    H235564   0.836   2.434   0.415
11871TIP3   OH235565   0.986   2.748   0.840
11871TIP3    H135566   1.028   2.664   0.856
11871TIP3    H235567   1.032   2.784   0.764
11872TIP3   OH235568   1.126   3.035   1.405
11872TIP3    H135569   1.210   3.016   1.364
11872TIP3    H235570   1.147   3.043   1.499
11873TIP3   OH235571   1.089   2.499   0.909
11873TIP3    H135572   1.126   2.483   0.996
11873TIP3    H235573   1.023   2.431   0.898
11874TIP3   OH235574   1.136   2.413   0.550
11874TIP3    H135575   1.184   2.352   0.494
11874TIP3    H235576   1.184   2.496   0.543
11875TIP3   OH235577   7.481   2.193   1.269
11875TIP3    H135578   7.510   2.208   1.359
11875TIP3    H235579   7.483   2.280   1.228
11876TIP3   OH235580   0.582   2.432   1.454
11876TIP3    H135581   0.547   2.373   1.520
11876TIP3    H235582   0.659   2.386   1.419
11877TIP3   OH235583   1.116   2.398   1.417
11877TIP3    H135584   1.162   2.414   1.335
11877TIP3    H235585   1.025   2.385   1.392
11878TIP3   OH235586   1.217   2.414   1.143
11878TIP3    H135587   1.280   2.354   1.103
11878TIP3    H235588   1.268   2.492   1.164
11879TIP3   OH235589   7.785   2.187   1.444
11879TIP3    H135590   7.704   2.149   1.478
11879TIP3    H235591   7.850   2.118   1.452
11880TIP3   OH235592   7.634   2.027   1.106
11880TIP3    H135593   7.660   2.084   1.033
11880TIP3    H235594   7.586   2.086   1.165
11881TIP3   OH235595   0.374   2.196   1.358
11881TIP3    H135596   0.413   2.255   1.295
11881TIP3    H235597   0.399   2.232   1.443
11882TIP3   OH235598   0.846   2.350   1.362
11882TIP3    H135599   0.850   2.321   1.271
11882TIP3    H235600   0.849   2.270   1.414
11883TIP3   OH235601   0.910   2.289   0.914
11883TIP3    H135602   0.826   2.332   0.933
11883TIP3    H235603   0.903   2.204   0.958
11884TIP3   OH235604   7.727   2.187   0.898
11884TIP3    H135605   7.774   2.134   0.834
11884TIP3    H235606   7.794   2.245   0.934
11885TIP3   OH235607   0.305   2.403   0.986
11885TIP3    H135608   0.363   2.359   1.049
11885TIP3    H235609   0.309   2.495   1.010
11886TIP3   OH235610   1.352   2.950   0.710
11886TIP3    H135611   1.317   3.031   0.746
11886TIP3    H235612   1.275   2.897   0.689
11887TIP3   OH235613   1.426   3.195   0.890
11887TIP3    H135614   1.507   3.154   0.860
11887TIP3    H235615   1.438   3.288   0.873
11888TIP3   OH235616   1.836   2.883   1.080
11888TIP3    H135617   1.872   2.894   0.992
11888TIP3    H235618   1.883   2.809   1.117
11889TIP3   OH235619   1.546   2.940   1.108
11889TIP3    H135620   1.621   2.989   1.142
11889TIP3    H235621   1.550   2.951   1.013
11890TIP3   OH235622   1.126   3.516   0.651
11890TIP3    H135623   1.143   3.525   0.557
11890TIP3    H235624   1.180   3.584   0.691
11891TIP3   OH235625   2.161   3.237   0.311
11891TIP3    H135626   2.201   3.301   0.370
11891TIP3    H235627   2.154   3.282   0.227
11892TIP3   OH235628   2.261   3.122   0.012
11892TIP3    H135629   2.203   3.059   0.055
11892TIP3    H235630   2.304   3.073  -0.058
11893TIP3   OH235631   0.640   2.408   2.021
11893TIP3    H135632   0.609   2.350   2.090
11893TIP3    H235633   0.569   2.471   2.008
11894TIP3   OH235634   3.014   2.500   0.240
11894TIP3    H135635   2.940   2.519   0.296
11894TIP3    H235636   3.060   2.583   0.230
11895TIP3   OH235637   1.604   3.204   0.386
11895TIP3    H135638   1.630   3.259   0.461
11895TIP3    H235639   1.603   3.115   0.421
11896TIP3   OH235640   5.080   7.088   6.323
11896TIP3    H135641   5.043   7.040   6.249
11896TIP3    H235642   5.164   7.046   6.340
11897TIP3   OH235643   2.209   2.631   0.179
11897TIP3    H135644   2.211   2.645   0.274
11897TIP3    H235645   2.144   2.563   0.166
11898TIP3   OH235646   1.846   3.059   0.752
11898TIP3    H135647   1.755   3.083   0.772
11898TIP3    H235648   1.839   2.984   0.693
11899TIP3   OH235649   1.837   2.642   0.179
11899TIP3    H135650   1.825   2.630   0.274
11899TIP3    H235651   1.760   2.690   0.150
11900TIP3   OH235652   1.348   2.734   0.947
11900TIP3    H135653   1.440   2.728   0.972
11900TIP3    H235654   1.331   2.653   0.899
11901TIP3   OH235655   1.280   2.645   0.543
11901TIP3    H135656   1.359   2.676   0.500
11901TIP3    H235657   1.227   2.724   0.556
11902TIP3   OH235658   1.592   2.973   0.846
11902TIP3    H135659   1.516   2.949   0.794
11902TIP3    H235660   1.658   2.906   0.827
11903TIP3   OH235661   1.844   2.882   0.533
11903TIP3    H135662   1.916   2.945   0.527
11903TIP3    H235663   1.794   2.895   0.453
11904TIP3   OH235664   1.707   2.880   0.305
11904TIP3    H135665   1.626   2.843   0.269
11904TIP3    H235666   1.752   2.917   0.230
11905TIP3   OH235667   1.767   2.769   0.802
11905TIP3    H135668   1.735   2.723   0.880
11905TIP3    H235669   1.847   2.723   0.777
11906TIP3   OH235670   1.917   3.503   0.340
11906TIP3    H135671   1.857   3.433   0.366
11906TIP3    H235672   1.980   3.509   0.412
11907TIP3   OH235673   2.414   2.799   0.095
11907TIP3    H135674   2.345   2.744   0.130
11907TIP3    H235675   2.434   2.861   0.166
11908TIP3   OH235676   2.625   3.094   0.308
11908TIP3    H135677   2.671   3.074   0.226
11908TIP3    H235678   2.549   3.146   0.281
11909TIP3   OH235679   1.337   3.059   0.323
11909TIP3    H135680   1.378   3.146   0.322
11909TIP3    H235681   1.259   3.069   0.377
11910TIP3   OH235682   4.385   7.344   6.309
11910TIP3    H135683   4.403   7.250   6.307
11910TIP3    H235684   4.362   7.362   6.399
11911TIP3   OH235685   1.697   3.646   0.208
11911TIP3    H135686   1.760   3.594   0.257
11911TIP3    H235687   1.707   3.735   0.243
11912TIP3   OH235688   1.352   3.343   0.329
11912TIP3    H135689   1.370   3.332   0.423
11912TIP3    H235690   1.347   3.438   0.317
11913TIP3   OH235691   2.402   2.687   0.398
11913TIP3    H135692   2.479   2.741   0.376
11913TIP3    H235693   2.384   2.707   0.489
11914TIP3   OH235694   2.094   3.002   0.545
11914TIP3    H135695   2.064   3.092   0.554
11914TIP3    H235696   2.187   3.005   0.565
11915TIP3   OH235697   1.757   3.903   0.286
11915TIP3    H135698   1.835   3.895   0.231
11915TIP3    H235699   1.769   3.987   0.332
11916TIP3   OH235700   1.803   2.598   0.451
11916TIP3    H135701   1.798   2.684   0.494
11916TIP3    H235702   1.851   2.544   0.513
11917TIP3   OH235703   1.439   3.573   0.182
11917TIP3    H135704   1.532   3.591   0.199
11917TIP3    H235705   1.440   3.494   0.128
11918TIP3   OH235706   1.415   2.795   0.343
11918TIP3    H135707   1.404   2.890   0.348
11918TIP3    H235708   1.358   2.768   0.271
11919TIP3   OH235709   1.747   2.502   1.197
11919TIP3    H135710   1.732   2.480   1.105
11919TIP3    H235711   1.759   2.418   1.240
11920TIP3   OH235712   1.318   3.716   0.635
11920TIP3    H135713   1.269   3.795   0.659
11920TIP3    H235714   1.410   3.744   0.634
11921TIP3   OH235715   7.196   0.098   6.244
11921TIP3    H135716   7.140   0.020   6.256
11921TIP3    H235717   7.276   0.064   6.205
11922TIP3   OH235718   4.279   6.837   6.435
11922TIP3    H135719   4.216   6.878   6.495
11922TIP3    H235720   4.317   6.910   6.387
11923TIP3   OH235721   4.701   7.251   6.284
11923TIP3    H135722   4.650   7.254   6.365
11923TIP3    H235723   4.706   7.158   6.263
11924TIP3   OH235724   1.734   3.333   0.190
11924TIP3    H135725   1.694   3.288   0.264
11924TIP3    H235726   1.812   3.281   0.169
11925TIP3   OH235727   1.859   2.967   0.091
11925TIP3    H135728   1.779   2.979   0.040
11925TIP3    H235729   1.896   3.055   0.098
11926TIP3   OH235730   5.355   7.006   6.225
11926TIP3    H135731   5.317   7.006   6.137
11926TIP3    H235732   5.407   7.087   6.228
11927TIP3   OH235733   6.955   0.420   6.471
11927TIP3    H135734   7.048   0.428   6.492
11927TIP3    H235735   6.945   0.467   6.389
11928TIP3   OH235736   1.145   3.500   0.143
11928TIP3    H135737   1.190   3.524   0.224
11928TIP3    H235738   1.160   3.406   0.134
11929TIP3   OH235739   5.229   6.771   6.279
11929TIP3    H135740   5.281   6.851   6.270
11929TIP3    H235741   5.287   6.701   6.250
11930TIP3   OH235742   5.362   6.523   6.286
11930TIP3    H135743   5.436   6.483   6.331
11930TIP3    H235744   5.291   6.459   6.294
11931TIP3   OH235745   1.635   2.713   1.360
11931TIP3    H135746   1.700   2.683   1.297
11931TIP3    H235747   1.651   2.807   1.368
11932TIP3   OH235748   1.372   2.976   1.310
11932TIP3    H135749   1.425   2.933   1.242
11932TIP3    H235750   1.395   3.069   1.302
11933TIP3   OH235751   2.951   2.705  -0.012
11933TIP3    H135752   2.994   2.624  -0.037
11933TIP3    H235753   2.997   2.734   0.067
11934TIP3   OH235754   1.338   2.515   0.775
11934TIP3    H135755   1.253   2.485   0.806
11934TIP3    H235756   1.319   2.558   0.691
11935TIP3   OH235757   1.669   2.374   0.958
11935TIP3    H135758   1.578   2.343   0.955
11935TIP3    H235759   1.722   2.294   0.961
11936TIP3   OH235760   1.492   2.327   0.616
11936TIP3    H135761   1.519   2.371   0.536
11936TIP3    H235762   1.456   2.396   0.672
11937TIP3   OH235763   2.140   2.490   0.806
11937TIP3    H135764   2.232   2.484   0.780
11937TIP3    H235765   2.107   2.566   0.757
11938TIP3   OH235766   2.828   2.563   0.425
11938TIP3    H135767   2.810   2.638   0.481
11938TIP3    H235768   2.802   2.487   0.477
11939TIP3   OH235769   1.145   4.088   0.470
11939TIP3    H135770   1.086   4.087   0.546
11939TIP3    H235771   1.225   4.047   0.503
11940TIP3   OH235772   1.589   2.442   0.375
11940TIP3    H135773   1.638   2.381   0.321
11940TIP3    H235774   1.654   2.504   0.407
11941TIP3   OH235775   2.150   2.563   0.467
11941TIP3    H135776   2.079   2.515   0.510
11941TIP3    H235777   2.107   2.642   0.433
11942TIP3   OH235778   6.468   0.224   6.410
11942TIP3    H135779   6.457   0.281   6.486
11942TIP3    H235780   6.534   0.160   6.438
11943TIP3   OH235781   6.781   0.758   6.247
11943TIP3    H135782   6.784   0.771   6.342
11943TIP3    H235783   6.690   0.778   6.223
11944TIP3   OH235784   1.158   4.140   0.164
11944TIP3    H135785   1.164   4.200   0.089
11944TIP3    H235786   1.138   4.196   0.238
11945TIP3   OH235787   6.495   0.555   6.385
11945TIP3    H135788   6.562   0.503   6.340
11945TIP3    H235789   6.545   0.617   6.438
   7.90000   7.44819   6.45032   0.00000   0.00000  -2.63333   0.00000  -2.63333  -3.72410
