Title
29212
    1ASP      N    1   0.964   1.853   2.097 -0.6725 -0.4151  0.5732
    1ASP    HT1    2   0.908   1.823   2.180 -0.3460  1.1399  1.3912
    1ASP    HT2    3   0.899   1.906   2.036 -0.9282 -2.0935 -0.6891
    1ASP    HT3    4   1.033   1.925   2.124 -0.3524 -0.2598 -0.6086
    1ASP     CA    5   1.027   1.732   2.038 -0.2192 -0.5692 -0.2159
    1ASP     HA    6   1.064   1.761   1.941  0.3838 -1.0523 -0.1309
    1ASP     CB    7   1.130   1.670   2.139  0.2310  0.0288 -1.1850
    1ASP    HB1    8   1.172   1.582   2.086  0.0863 -1.3832  0.9275
    1ASP    HB2    9   1.087   1.628   2.233  1.6201  0.4259 -0.3488
    1ASP     CG   10   1.244   1.770   2.176  0.2640 -0.3240  0.0094
    1ASP    OD1   11   1.252   1.882   2.125 -0.6774  0.4595  0.0229
    1ASP    OD2   12   1.325   1.734   2.260 -0.5581  0.1266  0.3056
    1ASP      C   13   0.920   1.636   1.994  0.3570 -0.0472 -0.7439
    1ASP      O   14   0.803   1.671   1.967  0.2949 -0.8630 -0.4420
    2GLY      N   15   0.951   1.509   1.966  0.0413  0.5144 -0.5008
    2GLY     HN   16   1.044   1.473   1.972  0.3016  0.9806 -1.4874
    2GLY     CA   17   0.856   1.409   1.917 -0.0289  0.3680 -0.0010
    2GLY    HA1   18   0.911   1.320   1.893 -0.0995  0.9996 -2.8558
    2GLY    HA2   19   0.813   1.449   1.826  0.2241  3.3822  1.0764
    2GLY      C   20   0.739   1.376   2.013 -0.5787  0.7694 -0.2132
    2GLY      O   21   0.758   1.363   2.134 -0.2775 -0.0321 -0.2814
    3ASP      N   22   0.617   1.352   1.956  0.2249  0.5142 -0.2383
    3ASP     HN   23   0.619   1.361   1.857 -2.7896 -0.7596 -0.5049
    3ASP     CA   24   0.496   1.314   2.026  0.6768  1.0563  0.3857
    3ASP     HA   25   0.477   1.394   2.096 -0.2837  0.0715  1.2991
    3ASP     CB   26   0.374   1.301   1.933  0.2218 -0.0467  0.4173
    3ASP    HB1   27   0.283   1.271   1.990  0.1048  0.9456  0.7804
    3ASP    HB2   28   0.385   1.225   1.854  2.0656  0.1146  0.4930
    3ASP     CG   29   0.351   1.435   1.873 -0.0847  0.5180  0.3611
    3ASP    OD1   30   0.289   1.426   1.762  0.2802  0.2810  0.2339
    3ASP    OD2   31   0.366   1.549   1.927  0.0367 -0.1132  0.2034
    3ASP      C   32   0.508   1.186   2.111  0.0941 -0.4753  0.3175
    3ASP      O   33   0.568   1.088   2.068 -0.1063 -0.3221  0.5157
    4GLY      N   34   0.452   1.187   2.235  0.3065 -0.0746 -0.1487
    4GLY     HN   35   0.401   1.269   2.262 -1.1629 -1.2247  0.7379
    4GLY     CA   36   0.431   1.066   2.310 -0.1211  0.2239 -0.6335
    4GLY    HA1   37   0.422   1.101   2.411 -0.2160 -0.5750 -0.3540
    4GLY    HA2   38   0.519   1.006   2.289 -0.1420  0.7674 -2.4999
    4GLY      C   39   0.312   0.988   2.268 -0.0349 -0.4255 -0.4006
    4GLY      O   40   0.237   1.037   2.182  0.4271 -0.1992  0.0950
    5PRO      N   41   0.276   0.875   2.318 -0.5660  0.6109  0.2060
    5PRO     CD   42   0.361   0.787   2.390 -0.2500 -0.0308  0.2125
    5PRO    HD1   43   0.418   0.844   2.466  2.5427 -0.3556 -1.4857
    5PRO    HD2   44   0.428   0.728   2.323  1.2046  0.2726  1.3568
    5PRO     CA   45   0.145   0.821   2.303  0.1160 -1.0833 -0.0096
    5PRO     HA   46   0.117   0.838   2.200  2.6213  1.8545 -0.3395
    5PRO     CB   47   0.168   0.674   2.349 -0.0803 -0.1315 -0.1184
    5PRO    HB1   48   0.192   0.617   2.257 -0.1365 -1.0373  0.4169
    5PRO    HB2   49   0.073   0.640   2.394 -0.8894  0.2064 -1.5154
    5PRO     CG   50   0.270   0.681   2.454 -0.1314 -0.3374 -0.7073
    5PRO    HG1   51   0.221   0.722   2.545  1.0041  0.5216 -0.4630
    5PRO    HG2   52   0.336   0.596   2.483 -0.4320 -0.5023 -0.4894
    5PRO      C   53   0.058   0.915   2.404  0.6581  0.3555  0.1032
    5PRO      O   54  -0.060   0.931   2.385  0.1672 -0.1936 -0.0508
    6GLY      N   55   0.112   0.966   2.518 -0.4759  0.2269 -0.4862
    6GLY     HN   56   0.206   0.944   2.541 -0.7537 -2.4198 -1.5420
    6GLY     CA   57   0.042   1.058   2.612 -0.4996 -0.0335 -1.1463
    6GLY    HA1   58   0.101   1.050   2.703 -0.7943 -0.9795 -1.0229
    6GLY    HA2   59  -0.063   1.033   2.625 -1.1253  2.5370 -0.7386
    6GLY      C   60   0.056   1.201   2.576 -0.5048 -0.3454 -0.2447
    6GLY      O   61   0.105   1.230   2.469 -0.0251  0.2281  0.1830
    7ASP      N   62   0.011   1.291   2.665 -0.3901  0.1576 -0.5696
    7ASP     HN   63  -0.035   1.256   2.746  0.9302 -1.0809 -0.3005
    7ASP     CA   64   0.021   1.437   2.653  0.0147 -0.2804 -0.1875
    7ASP     HA   65   0.043   1.466   2.551  1.0067  0.3355  0.1928
    7ASP     CB   66  -0.119   1.500   2.690 -0.5947 -0.2474 -0.1174
    7ASP    HB1   67  -0.127   1.610   2.678 -3.7030 -0.2296  1.1924
    7ASP    HB2   68  -0.148   1.470   2.793  0.7155 -2.7654 -0.4146
    7ASP     CG   69  -0.224   1.438   2.600  0.4901 -0.9093 -0.0014
    7ASP    OD1   70  -0.343   1.419   2.637 -0.0202 -0.9052 -0.2819
    7ASP    OD2   71  -0.198   1.417   2.479 -0.9434  0.3285 -0.1884
    7ASP      C   72   0.126   1.498   2.748  0.4817 -0.4955 -0.4766
    7ASP      O   73   0.164   1.435   2.842  0.2784  0.8331 -0.0742
    8PRO      N   74   0.178   1.623   2.724 -0.3720 -0.3457  0.1552
    8PRO     CD   75   0.159   1.694   2.593 -0.2776 -0.6351 -0.0284
    8PRO    HD1   76   0.060   1.743   2.583 -0.4623 -0.5190  1.9460
    8PRO    HD2   77   0.157   1.620   2.510  0.7928 -0.4473 -0.2326
    8PRO     CA   78   0.288   1.685   2.799 -0.8336  0.7877 -0.4422
    8PRO     HA   79   0.365   1.612   2.778 -1.4850  0.1622 -0.7257
    8PRO     CB   80   0.313   1.816   2.725 -0.2581  0.3222  0.0674
    8PRO    HB1   81   0.422   1.837   2.735  0.3850 -2.0697 -1.0106
    8PRO    HB2   82   0.245   1.896   2.760  0.2061  0.9173 -0.3806
    8PRO     CG   83   0.284   1.779   2.574  0.4870 -0.0464 -0.4258
    8PRO    HG1   84   0.259   1.871   2.517 -1.6494 -1.5825 -2.1211
    8PRO    HG2   85   0.363   1.721   2.522  0.8108  0.2784 -0.3071
    8PRO      C   86   0.288   1.684   2.948 -0.4718 -0.7477  0.3418
    8PRO      O   87   0.186   1.710   3.007 -0.0066  0.1172 -0.9218
    9GLY      N   88   0.403   1.662   3.009 -0.2771  0.0102  0.2597
    9GLY     HN   89   0.482   1.624   2.961  0.3442  1.3081  0.2079
    9GLY     CA   90   0.423   1.691   3.152 -0.1073 -0.2407  0.5258
    9GLY    HA1   91   0.522   1.668   3.186 -0.9699 -0.6678  2.9378
    9GLY    HA2   92   0.345   1.634   3.200 -0.7306 -1.4249 -1.7274
    9GLY      C   93   0.419   1.842   3.182  0.5009  0.2164 -0.0138
    9GLY      O   94   0.421   1.931   3.093  0.0321 -0.3139  0.1037
   10ASP      N   95   0.406   1.876   3.312 -0.0839  0.2561 -0.2771
   10ASP     HN   96   0.399   1.805   3.381  4.2905  1.3581  1.5834
   10ASP     CA   97   0.397   2.015   3.359  0.4213  0.6346 -0.3231
   10ASP     HA   98   0.303   2.055   3.325 -0.1287 -0.3622 -0.0444
   10ASP     CB   99   0.383   2.014   3.516 -0.8399  0.0987  0.5080
   10ASP    HB1  100   0.370   2.112   3.565 -0.8640 -0.8081  2.3891
   10ASP    HB2  101   0.474   1.974   3.565 -1.8758 -0.2429  2.2256
   10ASP     CG  102   0.273   1.927   3.568  0.2029 -0.4080  0.8590
   10ASP    OD1  103   0.173   1.908   3.493  0.2238  0.5346  0.2934
   10ASP    OD2  104   0.282   1.880   3.683  0.0780  0.1828  0.0845
   10ASP      C  105   0.512   2.114   3.326 -0.0407 -0.4478  0.1920
   10ASP      O  106   0.630   2.080   3.317  0.0592 -0.0512  0.2692
   11GLY      N  107   0.470   2.239   3.311 -0.2595  0.2007  0.3724
   11GLY     HN  108   0.372   2.258   3.311 -0.1579  0.7745 -0.3784
   11GLY     CA  109   0.571   2.345   3.295  0.7098 -0.1525  0.1232
   11GLY    HA1  110   0.575   2.375   3.191  2.1358 -0.1744  0.1529
   11GLY    HA2  111   0.662   2.306   3.338  0.6001 -0.6707 -0.1155
   11GLY      C  112   0.531   2.478   3.372  0.1301 -0.1377 -0.8181
   11GLY    OT1  113   0.430   2.476   3.449 -0.2805 -0.2034  0.4302
   11GLY    OT2  114   0.605   2.578   3.365 -0.5188  0.2961  0.4130
   12LIT    LIT  115   6.033   1.236   2.757 -0.8895 -0.0281 -0.0511
   13LIT    LIT  116   4.620   1.549   5.320 -0.3795  0.0626  0.3824
   14LIT    LIT  117   4.980   5.111   2.595 -0.2405  0.0543 -1.0576
   15LIT    LIT  118   1.028   3.669   5.203  0.1846 -0.2417  1.0372
   16LIT    LIT  119   0.479   2.662   3.488 -0.4928 -0.9067 -0.5014
   17LIT    LIT  120   5.239   6.564   3.388  0.5258 -0.3610  0.4429
   18LIT    LIT  121   3.142   5.019   4.339  0.0170  0.8488 -0.2347
   19LIT    LIT  122   5.545   4.526   0.404 -0.5582 -0.4201  1.1875
   20LIT    LIT  123   3.081   2.549   1.120  0.6131 -0.3539 -0.3163
   21LIT    LIT  124   6.813   1.367   2.427  0.5296  0.3628  0.1728
   22LIT    LIT  125   2.717   0.539   0.923 -0.7278  0.7852  0.1622
   23LIT    LIT  126   1.566   4.651   1.841  0.5102  0.6455  1.2828
   24LIT    LIT  127   7.036   2.153   2.435  0.6998  1.1933 -0.0675
   25LIT    LIT  128   1.794   1.654   2.880 -0.2929 -0.1534 -0.1777
   26LIT    LIT  129   0.046   1.832   3.375 -0.1189 -0.1995  0.5087
   27LIT    LIT  130   0.738   6.111   2.045  0.2220 -0.2899  0.3660
   28LIT    LIT  131   2.617   1.673   4.558  0.0998 -0.7869  0.2509
   29LIT    LIT  132   3.423   6.219   1.644 -0.0323  0.2296  0.5663
   30LIT    LIT  133   4.293   3.956   0.568 -0.1039  1.4565 -0.2677
   31LIT    LIT  134   6.990   4.783   2.281  0.2442  0.7104 -0.2087
   32LIT    LIT  135   1.717   3.628   4.488 -0.4639 -1.0929 -0.3737
   33LIT    LIT  136   2.206   3.745   3.716 -0.5515 -0.3435  0.7676
   34LIT    LIT  137   2.792   2.574   2.871  0.2624 -1.7710 -0.5771
   35LIT    LIT  138   4.567   0.617   4.778 -0.4157 -1.0089  0.1974
   36LIT    LIT  139   1.071   0.806   2.942  0.6299 -0.0398 -0.8441
   37LIT    LIT  140   2.736   6.451   1.818 -0.0753  0.2568 -0.2487
   38LIT    LIT  141   2.310   5.023   5.340  0.4904  0.7954  0.1014
   39LIT    LIT  142   1.392   1.909   2.252 -0.8273 -0.3118 -0.2000
   40LIT    LIT  143   2.532   0.761   1.596  0.5781 -0.0389 -0.1375
   41LIT    LIT  144   4.778   6.192   5.569 -0.5530  0.6071  0.3101
   42LIT    LIT  145   0.268   1.619   1.774 -0.9087  0.8245 -0.4357
   43CLA    CLA  146   6.934   5.786   1.840 -0.3708 -0.3649  0.0132
   44CLA    CLA  147   6.301   1.448   4.369  0.1066  0.5033 -0.2029
   45CLA    CLA  148   1.158   2.876   0.591  0.3935  0.0633 -0.0212
   46CLA    CLA  149   3.211   3.474   3.247  0.1199  0.1291 -0.1698
   47CLA    CLA  150   4.883   5.098   2.804  0.1763  0.1235  0.1458
   48CLA    CLA  151   0.930   4.563   3.603  0.1561 -0.5284  0.2807
   49CLA    CLA  152   6.601   0.334   5.325  0.2642 -0.1147 -0.1556
   50CLA    CLA  153   1.152   0.394   2.019 -0.1262  0.4669 -0.2543
   51CLA    CLA  154   5.966   4.997   3.782 -0.1566  0.4084 -0.3514
   52CLA    CLA  155   2.192   2.097   3.066  0.1754 -0.1729 -0.0795
   53CLA    CLA  156   1.807   3.307   3.543  0.3255 -0.1007  0.0768
   54CLA    CLA  157   3.094   0.575   0.717 -0.2811  0.1189 -0.1210
   55CLA    CLA  158   5.643   0.707   2.116 -0.2429 -0.2953  0.0945
   56CLA    CLA  159   1.071   3.193   0.159  0.4377  0.0849  0.0322
   57CLA    CLA  160   5.739   4.562   0.295  0.1651  0.0208 -0.1262
   58CLA    CLA  161   2.006   4.544   5.550 -0.1707 -0.2822  0.1886
   59CLA    CLA  162   2.456   1.564   4.681 -0.2976 -0.0830 -0.4257
   60CLA    CLA  163   4.609   2.647   1.150  0.5955 -0.0840  0.1051
   61CLA    CLA  164   0.867   0.119   2.384  0.1401 -0.2157  0.3130
   62CLA    CLA  165   0.963   0.633   2.816  0.2009 -0.0339 -0.3437
   63CLA    CLA  166   6.469   2.269   5.279  0.2634 -0.2912 -0.0076
   64CLA    CLA  167   1.517   4.913   1.048 -0.1957 -0.0245 -0.3510
   65CLA    CLA  168   1.056   5.721   1.077  0.2450 -0.2258 -0.1667
   66CLA    CLA  169   0.096   6.228   0.093 -0.0253 -0.0723  0.3027
   67CLA    CLA  170   3.749   2.674   2.726  0.3576  0.1899 -0.2989
   68CLA    CLA  171   2.179   4.787   2.504 -0.4815  0.1232 -0.4572
   69CLA    CLA  172   5.861   4.837   1.496 -0.8022  0.1631 -0.0055
   70TIP3   OH2  173   0.175   4.566   4.074  0.0910 -0.5100  0.5653
   70TIP3    H1  174   0.262   4.596   4.046  0.3294 -2.3005 -0.7930
   70TIP3    H2  175   0.191   4.515   4.154  0.2676 -0.6554  0.4370
   71TIP3   OH2  176   0.018   6.590   3.708  0.1868  0.1654 -0.8896
   71TIP3    H1  177   0.048   6.505   3.676  1.5070  0.4544 -0.4805
   71TIP3    H2  178   0.015   6.646   3.630  1.6887  0.3896 -0.8081
   72TIP3   OH2  179   5.931   3.042   2.513 -0.5486  0.5150  0.2116
   72TIP3    H1  180   5.857   2.984   2.495 -2.6704  2.6714  1.4037
   72TIP3    H2  181   5.947   3.034   2.607 -0.6620  1.5573  0.3412
   73TIP3   OH2  182   0.411   6.739   5.079 -0.0540  0.0169  0.9205
   73TIP3    H1  183   0.367   6.807   5.132  1.0999  1.2422  0.3693
   73TIP3    H2  184   0.343   6.708   5.020  0.0930  3.1377 -1.1577
   74TIP3   OH2  185   1.864   0.959   5.301  0.3026  0.6306 -0.0832
   74TIP3    H1  186   1.769   0.963   5.301  0.3360  1.9033  0.2295
   74TIP3    H2  187   1.891   1.003   5.220  0.6221 -0.7615 -0.7710
   75TIP3   OH2  188   6.536   6.533   2.962 -0.0505 -0.4845 -0.3430
   75TIP3    H1  189   6.533   6.623   2.930 -0.2746  0.2291  1.5748
   75TIP3    H2  190   6.449   6.497   2.943 -0.0454 -0.2337 -0.8679
   76TIP3   OH2  191   5.290   0.568   3.309 -0.1618 -0.2816  0.2271
   76TIP3    H1  192   5.216   0.509   3.320 -0.2272 -0.3842 -0.6650
   76TIP3    H2  193   5.253   0.655   3.321 -1.1646 -0.0802 -3.1765
   77TIP3   OH2  194   5.593   0.090   4.327  0.7957 -0.0264 -0.7299
   77TIP3    H1  195   5.579   0.108   4.234 -0.9473 -1.7965 -0.8675
   77TIP3    H2  196   5.542   0.157   4.373 -0.6711 -0.8481 -1.1172
   78TIP3   OH2  197   5.179   1.658   0.886 -0.7035  0.0768 -0.2145
   78TIP3    H1  198   5.192   1.703   0.970  0.7010 -1.1305  0.2776
   78TIP3    H2  199   5.223   1.714   0.822  0.4972 -0.2460  0.2929
   79TIP3   OH2  200   2.468   5.811   1.345 -0.2099 -0.0457 -0.1524
   79TIP3    H1  201   2.437   5.902   1.338 -1.4254 -0.2714  1.6722
   79TIP3    H2  202   2.469   5.794   1.439  2.1335 -1.2455 -0.3384
   80TIP3   OH2  203   4.232   3.479   3.985  0.0684 -0.0656 -0.1337
   80TIP3    H1  204   4.224   3.575   3.981 -0.9869 -0.1418 -0.3068
   80TIP3    H2  205   4.321   3.461   3.956  0.0090  0.8287 -0.9354
   81TIP3   OH2  206   2.517   2.966   1.987 -0.4307 -0.1633 -0.0417
   81TIP3    H1  207   2.461   2.987   2.061 -0.3290  3.8169 -0.8769
   81TIP3    H2  208   2.592   3.025   1.995  0.1166 -0.3489 -2.7132
   82TIP3   OH2  209   5.604   5.701   0.162 -0.3717  0.2234  0.6609
   82TIP3    H1  210   5.575   5.784   0.199  2.0977  0.5815  2.0133
   82TIP3    H2  211   5.556   5.693   0.079 -1.6501  2.3168  1.1277
   83TIP3   OH2  212   0.035   4.020   3.629 -0.3154 -0.1048  0.6523
   83TIP3    H1  213   0.104   4.056   3.572  0.1703  1.2166  1.9940
   83TIP3    H2  214   0.053   4.058   3.715 -1.9664 -0.7797  1.3401
   84TIP3   OH2  215   0.682   1.867   3.478  0.6685  0.1931 -0.1570
   84TIP3    H1  216   0.774   1.886   3.497 -0.0349  2.4444  1.3657
   84TIP3    H2  217   0.655   1.935   3.418 -0.6325  1.1391  1.4362
   85TIP3   OH2  218   6.475   2.855   1.604  0.1781  0.1219  0.4865
   85TIP3    H1  219   6.399   2.886   1.555 -0.0001 -0.8519  0.1105
   85TIP3    H2  220   6.464   2.889   1.692 -0.3585  0.5285  0.2603
   86TIP3   OH2  221   0.123   3.634   0.279 -0.0812  0.0912 -0.4872
   86TIP3    H1  222   0.215   3.614   0.259 -0.0758  1.4907 -2.1358
   86TIP3    H2  223   0.105   3.715   0.231 -2.2636 -0.3019 -0.4602
   87TIP3   OH2  224   4.465   2.272   0.849  0.1516 -0.2514  0.3524
   87TIP3    H1  225   4.392   2.332   0.835 -0.1748 -1.0739 -1.9215
   87TIP3    H2  226   4.519   2.314   0.916 -1.8764  0.8425  1.3684
   88TIP3   OH2  227   3.105   5.511   2.910  0.1017  0.1541 -0.1853
   88TIP3    H1  228   3.082   5.548   2.825  0.4859  1.5134  0.2848
   88TIP3    H2  229   3.081   5.578   2.974  1.3817 -0.1266  0.6417
   89TIP3   OH2  230   3.896   5.937   5.232  0.0669 -0.5737 -0.0226
   89TIP3    H1  231   3.929   5.966   5.317  0.6173 -0.6412 -0.2093
   89TIP3    H2  232   3.835   6.005   5.205 -1.7134 -1.5127  1.3515
   90TIP3   OH2  233   3.127   0.159   0.624 -0.0228 -0.3253  0.3025
   90TIP3    H1  234   3.202   0.186   0.570 -0.6845  2.8337  0.7499
   90TIP3    H2  235   3.104   0.072   0.592  2.8933 -0.7617 -0.8472
   91TIP3   OH2  236   5.556   4.319   2.117  0.3754  0.2752  0.2030
   91TIP3    H1  237   5.469   4.309   2.078  0.3452 -0.9229  0.5316
   91TIP3    H2  238   5.540   4.366   2.199  0.1224  0.5713 -0.0110
   92TIP3   OH2  239   0.225   3.949   5.389  0.6460 -0.1565  0.3052
   92TIP3    H1  240   0.275   3.981   5.464 -0.1313  0.3172  0.6378
   92TIP3    H2  241   0.205   4.027   5.339  3.3614 -0.7093 -1.8378
   93TIP3   OH2  242   1.958   1.460   0.794  0.3553  0.0929  0.1972
   93TIP3    H1  243   1.912   1.377   0.779 -1.2098  0.9030  0.3442
   93TIP3    H2  244   2.018   1.468   0.720 -0.9024 -0.2308 -0.8911
   94TIP3   OH2  245   3.251   0.782   1.688 -0.4194 -0.8377  0.1602
   94TIP3    H1  246   3.195   0.704   1.681 -1.1001 -0.3239 -0.1826
   94TIP3    H2  247   3.297   0.786   1.604 -2.2418  0.5216 -0.8102
   95TIP3   OH2  248   2.702   0.167   5.201 -0.3476 -0.1658 -0.2672
   95TIP3    H1  249   2.776   0.225   5.184  0.4946 -1.8024 -2.7525
   95TIP3    H2  250   2.627   0.210   5.160  0.3047 -0.8325 -2.2498
   96TIP3   OH2  251   1.945   1.063   3.594  0.5411 -0.0706 -0.0571
   96TIP3    H1  252   2.008   1.135   3.594  1.1900 -0.6169 -0.9110
   96TIP3    H2  253   1.907   1.065   3.506 -0.9607  0.5027  0.5634
   97TIP3   OH2  254   0.082   0.019   0.270 -0.2437  0.5888 -0.5273
   97TIP3    H1  255   0.116   0.093   0.320  0.5171  1.1189 -1.7617
   97TIP3    H2  256   0.158  -0.014   0.222 -0.9117  0.0469 -1.2382
   98TIP3   OH2  257   1.963   2.752   2.968  0.0124 -0.2055 -0.1743
   98TIP3    H1  258   1.904   2.711   3.032  1.1701  0.4966  1.4233
   98TIP3    H2  259   1.984   2.682   2.907  0.9733 -1.7467  1.7779
   99TIP3   OH2  260   5.338   3.799   5.153 -0.0051 -0.0703 -0.1497
   99TIP3    H1  261   5.417   3.780   5.203 -0.1904 -2.7312 -0.7097
   99TIP3    H2  262   5.268   3.800   5.219  0.1304 -0.6502  0.0120
  100TIP3   OH2  263   0.935   3.203   0.435 -0.5893 -0.4726  0.6925
  100TIP3    H1  264   1.020   3.205   0.480 -0.2876  1.2847  0.1521
  100TIP3    H2  265   0.958   3.193   0.342 -1.1541 -3.0224  0.7670
  101TIP3   OH2  266   5.319   5.543   0.584  0.0670 -0.3890 -0.0576
  101TIP3    H1  267   5.262   5.468   0.604 -1.0799  0.3196 -0.5349
  101TIP3    H2  268   5.281   5.615   0.634 -0.2188  0.3887 -1.3460
  102TIP3   OH2  269   5.963   5.375   4.003 -0.3719 -0.2332  0.3187
  102TIP3    H1  270   6.055   5.354   3.990 -0.2653  1.0803 -1.2704
  102TIP3    H2  271   5.962   5.438   4.075 -0.1551 -0.9987  1.0140
  103TIP3   OH2  272   1.344   4.810   4.025  0.8155  0.0104 -0.2817
  103TIP3    H1  273   1.439   4.812   4.038  0.8053  0.5082 -0.2822
  103TIP3    H2  274   1.315   4.898   4.046  0.2154 -0.4153  0.7702
  104TIP3   OH2  275   0.989   4.164   2.180  0.2939 -0.5608 -0.2023
  104TIP3    H1  276   0.999   4.133   2.089  1.2998 -2.1611  0.4057
  104TIP3    H2  277   0.990   4.259   2.173 -1.7286 -0.5875 -2.0726
  105TIP3   OH2  278   3.165   1.760   2.363  0.0816 -0.7414  0.0996
  105TIP3    H1  279   3.151   1.683   2.417  1.4072 -1.2985 -0.3306
  105TIP3    H2  280   3.259   1.774   2.364  0.4791 -2.0484 -3.7310
  106TIP3   OH2  281   2.922   6.816   3.596 -0.2823  0.2962 -0.0552
  106TIP3    H1  282   2.901   6.727   3.625  0.9572 -0.3539 -1.0280
  106TIP3    H2  283   2.885   6.822   3.508 -0.6704  0.8704  0.1447
  107TIP3   OH2  284   2.763   1.077   1.469  0.0248  0.8612  0.0894
  107TIP3    H1  285   2.747   1.139   1.540 -0.5089  1.3116 -0.4201
  107TIP3    H2  286   2.835   1.021   1.502  0.3219  1.5628  0.6558
  108TIP3   OH2  287   3.168   2.459   3.442 -0.6977 -0.4053 -0.1784
  108TIP3    H1  288   3.112   2.530   3.472 -0.1758  0.2050 -0.5924
  108TIP3    H2  289   3.168   2.395   3.513 -4.4729 -2.0226 -1.3623
  109TIP3   OH2  290   0.145   6.527   1.082 -0.0723  0.2803  0.0311
  109TIP3    H1  291   0.079   6.469   1.120 -0.9024 -1.1796 -3.2645
  109TIP3    H2  292   0.105   6.614   1.086 -1.2709 -0.2524  0.0542
  110TIP3   OH2  293   0.504   1.166   0.986 -0.2644 -0.8799 -0.0743
  110TIP3    H1  294   0.481   1.257   0.968 -0.1862 -0.5911  1.2224
  110TIP3    H2  295   0.425   1.117   0.963  0.2119 -0.6992 -2.2911
  111TIP3   OH2  296   0.871   0.447   4.016  0.3589 -0.6360 -0.8136
  111TIP3    H1  297   0.824   0.508   4.073 -0.3428 -1.5842 -0.3418
  111TIP3    H2  298   0.961   0.480   4.014 -0.1958  0.9080 -1.2955
  112TIP3   OH2  299   3.631   1.910   0.071  0.1117  0.2044  0.4021
  112TIP3    H1  300   3.645   1.815   0.065 -0.6063  0.1084  0.1086
  112TIP3    H2  301   3.544   1.919   0.110  0.4413  0.7527  1.0128
  113TIP3   OH2  302   3.802   3.740   2.324 -0.7411 -0.7162 -0.4971
  113TIP3    H1  303   3.804   3.706   2.235 -1.0352 -2.1195  0.0018
  113TIP3    H2  304   3.712   3.725   2.354 -0.8460  0.3950 -0.1818
  114TIP3   OH2  305   6.223   3.217   3.373 -0.1971 -0.2436  0.5074
  114TIP3    H1  306   6.296   3.163   3.346 -0.1360 -0.3804  0.9348
  114TIP3    H2  307   6.207   3.193   3.464 -1.1644 -0.6474  0.2437
  115TIP3   OH2  308   3.207   3.589   1.745 -0.1171 -0.1211  0.0237
  115TIP3    H1  309   3.224   3.660   1.683 -1.6809  2.4278  2.2413
  115TIP3    H2  310   3.250   3.618   1.826 -1.2565 -1.4359  1.1530
  116TIP3   OH2  311   4.138   4.984   5.552  0.4694 -0.1852 -0.0678
  116TIP3    H1  312   4.132   4.981   5.648 -0.0721 -0.6345 -0.1077
  116TIP3    H2  313   4.174   4.899   5.528  0.1493 -0.2615 -0.2896
  117TIP3   OH2  314   2.973   2.589   0.945  0.2213  0.0828 -0.2731
  117TIP3    H1  315   2.897   2.645   0.963  1.2476  2.0669 -1.7408
  117TIP3    H2  316   2.948   2.538   0.868  0.7867  1.6925 -1.5703
  118TIP3   OH2  317   4.220   6.099   2.739  0.4602  0.4870  0.2123
  118TIP3    H1  318   4.145   6.094   2.681  0.7294  0.2562 -0.1208
  118TIP3    H2  319   4.252   6.189   2.729  1.5073 -0.0165 -1.2841
  119TIP3   OH2  320   4.852   0.853   2.751  0.0062  0.3867 -0.2497
  119TIP3    H1  321   4.865   0.918   2.820 -1.3788  0.6770 -0.2363
  119TIP3    H2  322   4.918   0.875   2.685 -0.6467  2.0524 -0.4018
  120TIP3   OH2  323   6.856   2.596   1.864  0.3145 -0.3389 -0.6834
  120TIP3    H1  324   6.814   2.512   1.848  0.4422 -0.2367 -1.6285
  120TIP3    H2  325   6.814   2.656   1.802 -0.4729  0.5310  0.6303
  121TIP3   OH2  326   2.140   2.763   0.668  0.3924 -0.3033  0.4215
  121TIP3    H1  327   2.127   2.733   0.578  2.0266  2.0451 -0.7006
  121TIP3    H2  328   2.139   2.683   0.720  1.5635 -2.0002 -1.9503
  122TIP3   OH2  329   1.343   2.952   1.791 -0.1479  0.2570 -0.3109
  122TIP3    H1  330   1.438   2.952   1.776 -0.1278 -0.2416 -0.1797
  122TIP3    H2  331   1.315   3.040   1.763  0.2257  0.1211 -1.1528
  123TIP3   OH2  332   4.711   3.385   2.555 -0.4529  0.0566 -0.3440
  123TIP3    H1  333   4.774   3.346   2.615  0.3575 -0.2410 -1.3601
  123TIP3    H2  334   4.692   3.317   2.491 -2.0709  0.0365  0.1149
  124TIP3   OH2  335   4.436   2.807   0.371  0.5695  0.2245  0.2085
  124TIP3    H1  336   4.419   2.718   0.402  1.2583  0.3412  0.9563
  124TIP3    H2  337   4.395   2.864   0.436  0.3862  0.4608 -0.1085
  125TIP3   OH2  338   3.342   5.712   3.999 -0.4181 -0.0322  0.3091
  125TIP3    H1  339   3.332   5.736   4.091 -0.9783 -0.6148  0.4044
  125TIP3    H2  340   3.296   5.782   3.951  1.2153  1.1313  0.3648
  126TIP3   OH2  341   3.251   3.905   1.337 -0.1225  0.5258 -0.0751
  126TIP3    H1  342   3.213   3.993   1.332  1.0258  0.9841 -1.3375
  126TIP3    H2  343   3.345   3.919   1.327  0.0268 -0.8918 -0.8753
  127TIP3   OH2  344   1.991   2.784   3.319  0.0061 -0.3079 -0.6032
  127TIP3    H1  345   2.002   2.850   3.387  0.3884  0.4865 -1.4228
  127TIP3    H2  346   2.055   2.806   3.252 -0.0320 -1.3603 -1.0199
  128TIP3   OH2  347   3.487   0.915   3.106  0.0741  0.3147  0.2723
  128TIP3    H1  348   3.542   0.993   3.099  0.2784  0.1406 -0.1172
  128TIP3    H2  349   3.452   0.917   3.195  0.2099  0.7625  0.3147
  129TIP3   OH2  350   4.402   2.297   3.534  0.2482  0.6500 -0.0168
  129TIP3    H1  351   4.436   2.362   3.596  0.9002 -0.1124  0.4385
  129TIP3    H2  352   4.479   2.267   3.486 -0.0546  0.2226 -0.2413
  130TIP3   OH2  353   0.821   1.564   0.336 -0.4057 -0.4703  0.1600
  130TIP3    H1  354   0.820   1.601   0.425  0.1332  1.7361 -0.6860
  130TIP3    H2  355   0.914   1.557   0.314 -0.5201  1.3364 -1.0914
  131TIP3   OH2  356   6.319   1.350   3.368 -0.7013  0.2169 -0.0185
  131TIP3    H1  357   6.390   1.398   3.412 -0.8959 -0.1563  0.7113
  131TIP3    H2  358   6.259   1.419   3.338 -0.3479  0.4999 -0.0865
  132TIP3   OH2  359   0.083   0.453   5.541 -0.1089 -0.4030  0.2651
  132TIP3    H1  360   0.134   0.413   5.471 -1.2589 -0.8330 -0.3492
  132TIP3    H2  361  -0.007   0.423   5.526 -0.8207  1.4751  0.4677
  133TIP3   OH2  362   1.802   1.255   4.323 -0.3161  0.3026  1.0252
  133TIP3    H1  363   1.745   1.329   4.300  1.0090  1.5836  1.6710
  133TIP3    H2  364   1.743   1.190   4.360 -1.8555  0.0513 -1.6544
  134TIP3   OH2  365   1.055   4.449   4.054 -0.1427  0.4105 -0.1804
  134TIP3    H1  366   1.143   4.481   4.069 -0.7007  0.9729  2.4300
  134TIP3    H2  367   1.055   4.359   4.089 -0.7520  0.6821  0.5672
  135TIP3   OH2  368   6.798   5.813   1.241  0.5512 -0.1261 -0.0069
  135TIP3    H1  369   6.742   5.783   1.313  0.0336  0.3790 -0.1893
  135TIP3    H2  370   6.878   5.843   1.284  0.8248 -1.1768  0.2272
  136TIP3   OH2  371   6.470   1.962   1.953  0.0635  0.1991  0.1776
  136TIP3    H1  372   6.435   2.048   1.929  2.9060  1.7071  1.0012
  136TIP3    H2  373   6.456   1.956   2.048  0.0979 -0.1335  0.1618
  137TIP3   OH2  374   1.182   2.435   0.839 -1.4109  0.3227 -0.3131
  137TIP3    H1  375   1.094   2.468   0.824 -1.2002  1.7001  1.2023
  137TIP3    H2  376   1.238   2.489   0.783 -1.1723  1.9824  1.4454
  138TIP3   OH2  377   3.413   6.575   1.521 -0.1217 -0.0069  0.2220
  138TIP3    H1  378   3.403   6.655   1.469  0.0850 -0.5242 -0.6416
  138TIP3    H2  379   3.478   6.598   1.587  0.9321  0.1789 -0.8302
  139TIP3   OH2  380   1.439   6.647   4.149 -0.1743 -0.3820 -0.4707
  139TIP3    H1  381   1.366   6.630   4.209 -0.5301  0.8243 -0.5501
  139TIP3    H2  382   1.481   6.725   4.184  0.0485 -0.0778 -1.4055
  140TIP3   OH2  383   5.555   6.402   1.508  0.2380 -0.5535  0.5276
  140TIP3    H1  384   5.572   6.484   1.462  0.0978  0.2206  1.7873
  140TIP3    H2  385   5.642   6.367   1.528  0.3050 -0.4305  0.4523
  141TIP3   OH2  386   0.574   4.856   4.675 -0.1229  0.3647  0.0160
  141TIP3    H1  387   0.509   4.892   4.614  0.4225  1.6646  0.1737
  141TIP3    H2  388   0.522   4.824   4.749 -0.6236  1.1552  0.0287
  142TIP3   OH2  389   1.785   6.781   1.616 -0.5118 -0.1526 -0.4449
  142TIP3    H1  390   1.724   6.751   1.549  0.2704  0.6934 -1.5833
  142TIP3    H2  391   1.860   6.723   1.609 -0.3063  0.1167 -0.5127
  143TIP3   OH2  392   0.540   3.664   1.594 -0.2607 -0.0835 -0.3487
  143TIP3    H1  393   0.445   3.674   1.604 -0.1829 -0.4480  0.8668
  143TIP3    H2  394   0.559   3.707   1.511 -1.4500  0.2461 -0.4781
  144TIP3   OH2  395   3.317   5.062   1.637 -0.3726  0.1358  0.1318
  144TIP3    H1  396   3.246   5.070   1.573  0.4347  1.8042 -0.6476
  144TIP3    H2  397   3.308   4.975   1.674  0.5790 -2.0274 -4.0658
  145TIP3   OH2  398   5.471   1.271   5.331  0.4148 -0.4980  0.2723
  145TIP3    H1  399   5.404   1.290   5.397  0.2785  0.4486 -0.1166
  145TIP3    H2  400   5.549   1.250   5.382  0.1317 -0.4472  0.7362
  146TIP3   OH2  401   7.118   1.605   2.310 -0.6623 -0.2514 -0.9067
  146TIP3    H1  402   7.052   1.593   2.242 -1.9362  0.5118  0.1447
  146TIP3    H2  403   7.092   1.545   2.380 -0.0931 -0.1130 -0.5679
  147TIP3   OH2  404   1.794   6.469   2.673 -0.2485  0.0040 -0.2721
  147TIP3    H1  405   1.719   6.409   2.675  0.4365 -0.9415 -1.5905
  147TIP3    H2  406   1.758   6.552   2.704 -1.3081 -0.9598  1.2904
  148TIP3   OH2  407   0.305   4.259   5.411  0.2976  0.1782  0.1341
  148TIP3    H1  408   0.393   4.293   5.394  0.5481 -0.2934  0.4489
  148TIP3    H2  409   0.313   4.215   5.496 -0.6480  1.5759  0.9889
  149TIP3   OH2  410   4.506   2.068   3.807  0.2484 -0.3212 -0.3174
  149TIP3    H1  411   4.449   2.140   3.780 -0.3480 -0.8082 -0.3624
  149TIP3    H2  412   4.516   2.078   3.901 -0.0403 -0.3277 -0.2865
  150TIP3   OH2  413   5.222   6.307   0.888  0.1849  0.5508 -0.3523
  150TIP3    H1  414   5.302   6.333   0.843  0.4935  1.6393  0.7852
  150TIP3    H2  415   5.247   6.298   0.980 -0.8753  0.3683 -0.0644
  151TIP3   OH2  416   5.673   5.808   3.364 -0.4154 -0.1535 -0.4158
  151TIP3    H1  417   5.733   5.734   3.371  0.2148  0.3428 -0.5389
  151TIP3    H2  418   5.618   5.788   3.288 -1.8752 -1.6497  0.9385
  152TIP3   OH2  419   4.013   4.107   4.740 -0.3287 -0.2299  0.5719
  152TIP3    H1  420   4.031   4.030   4.794 -1.4935 -0.5421  0.5273
  152TIP3    H2  421   3.952   4.159   4.793 -0.8479 -0.1459 -0.1103
  153TIP3   OH2  422   3.484   1.521   4.029  0.1505  0.1189  0.2777
  153TIP3    H1  423   3.420   1.573   4.078  0.0103  0.2180 -0.0084
  153TIP3    H2  424   3.442   1.505   3.944  0.0338 -0.7933  0.5005
  154TIP3   OH2  425   2.295   3.778   4.576 -0.4135 -0.3189 -0.5498
  154TIP3    H1  426   2.211   3.758   4.534 -0.3838 -1.4774 -0.1081
  154TIP3    H2  427   2.292   3.872   4.592 -1.5652 -0.3113 -0.6941
  155TIP3   OH2  428   3.739   3.009   1.110  0.5939 -0.5856  0.1724
  155TIP3    H1  429   3.794   3.053   1.175  1.2095 -1.1256  0.0366
  155TIP3    H2  430   3.650   3.015   1.144  1.0875 -2.5274  2.0616
  156TIP3   OH2  431   3.289   0.596   1.237  0.6132  0.1633 -0.2670
  156TIP3    H1  432   3.328   0.537   1.301  0.2237 -0.6767 -0.7856
  156TIP3    H2  433   3.323   0.567   1.153  0.5794  0.8148 -0.5157
  157TIP3   OH2  434   5.323   3.336   1.368  0.3720 -0.2023 -0.1358
  157TIP3    H1  435   5.271   3.344   1.289 -1.1455 -2.5571  0.5287
  157TIP3    H2  436   5.309   3.418   1.415  0.6544  0.8856 -1.8703
  158TIP3   OH2  437   2.671   6.616   0.844 -0.9787 -0.0899  0.1352
  158TIP3    H1  438   2.698   6.614   0.753 -1.3890  1.5409 -0.0523
  158TIP3    H2  439   2.579   6.641   0.841 -1.1788 -0.6583  0.9856
  159TIP3   OH2  440   2.024   4.540   2.339 -0.1545  0.4749  0.2275
  159TIP3    H1  441   2.074   4.586   2.407  1.6922 -0.4403 -0.4489
  159TIP3    H2  442   2.004   4.455   2.377 -0.4010  0.4992  0.1539
  160TIP3   OH2  443   3.568   3.162   1.858  0.0104 -0.2830 -0.5177
  160TIP3    H1  444   3.639   3.104   1.884  0.4437  0.9486  1.2236
  160TIP3    H2  445   3.505   3.156   1.930  0.1279  1.4363 -0.2179
  161TIP3   OH2  446   3.348   3.351   0.376  0.5944 -0.1411 -0.1221
  161TIP3    H1  447   3.293   3.368   0.299 -1.2226 -1.5697  0.7730
  161TIP3    H2  448   3.419   3.297   0.344  0.5962  0.3941 -1.0370
  162TIP3   OH2  449   3.268   4.793   1.701 -0.7089 -0.4840  0.2900
  162TIP3    H1  450   3.333   4.729   1.731  0.1426 -0.3443 -1.1274
  162TIP3    H2  451   3.227   4.826   1.781  0.4010 -1.1764  1.1746
  163TIP3   OH2  452   2.453   5.443   3.015  0.1564 -0.7474 -0.2097
  163TIP3    H1  453   2.530   5.390   3.035  0.9836 -0.0270 -1.3471
  163TIP3    H2  454   2.488   5.525   2.981 -1.0990  0.2675  0.7811
  164TIP3   OH2  455   6.880   1.267   3.458 -0.2016  0.2334  0.0660
  164TIP3    H1  456   6.957   1.219   3.427 -0.8529  0.1459 -1.4959
  164TIP3    H2  457   6.826   1.200   3.502 -0.7015 -0.3197 -1.3498
  165TIP3   OH2  458   6.256   0.406   5.257  0.3407  0.7434  0.0040
  165TIP3    H1  459   6.340   0.382   5.295 -0.0632 -2.1386 -0.6395
  165TIP3    H2  460   6.193   0.391   5.328  0.1369  0.6384 -0.1985
  166TIP3   OH2  461   0.648   2.416   4.152  0.8306  0.3312  0.3506
  166TIP3    H1  462   0.555   2.435   4.139  0.8430  0.3355  0.2687
  166TIP3    H2  463   0.649   2.334   4.201  0.7861  0.2587  0.2304
  167TIP3   OH2  464   0.480   6.547   5.542 -0.2473  0.2846 -0.4475
  167TIP3    H1  465   0.422   6.537   5.617  0.9634 -1.9647  0.2626
  167TIP3    H2  466   0.421   6.545   5.466 -1.2313 -0.4677  0.3134
  168TIP3   OH2  467   4.275   0.066   2.578 -0.1480  0.0701  0.3408
  168TIP3    H1  468   4.193   0.046   2.533 -0.6377 -0.6647  1.5310
  168TIP3    H2  469   4.334  -0.005   2.551  0.6611  1.4637 -1.8107
  169TIP3   OH2  470   4.276   1.192   5.608 -0.1314  0.0389 -0.4389
  169TIP3    H1  471   4.336   1.144   5.665 -0.7797  1.7573  1.8268
  169TIP3    H2  472   4.268   1.278   5.649 -1.4107  1.0348 -2.6398
  170TIP3   OH2  473   0.300   1.818   1.303  0.5364  0.0948  0.4623
  170TIP3    H1  474   0.316   1.731   1.339  0.2183 -0.0201  0.3351
  170TIP3    H2  475   0.252   1.801   1.221  0.3761  0.3939  0.4946
  171TIP3   OH2  476   3.886   1.827   5.820 -0.7054 -0.5955  0.3222
  171TIP3    H1  477   3.892   1.894   5.752  1.6123 -0.7323  0.3078
  171TIP3    H2  478   3.830   1.759   5.782  1.0068 -0.9545 -1.7802
  172TIP3   OH2  479   7.083   5.468   0.174 -0.5531  0.0839  0.4335
  172TIP3    H1  480   7.156   5.470   0.236 -1.0566  1.4387  1.0250
  172TIP3    H2  481   7.023   5.404   0.210  0.2264 -0.8828  0.0577
  173TIP3   OH2  482   4.131   3.602   1.867 -0.0772  0.0057  0.1775
  173TIP3    H1  483   4.104   3.598   1.959 -0.4769 -2.1296 -0.0035
  173TIP3    H2  484   4.062   3.557   1.819 -0.1305  1.5268 -1.2694
  174TIP3   OH2  485   5.258   3.421   4.612  0.6540  0.4946  0.0888
  174TIP3    H1  486   5.185   3.475   4.582  1.1896  1.0833 -0.1799
  174TIP3    H2  487   5.232   3.391   4.699  0.1132  0.7293  0.0110
  175TIP3   OH2  488   0.666   0.002   4.670 -0.4555 -0.1843  0.0321
  175TIP3    H1  489   0.655   0.065   4.741  0.3942  1.5453 -1.3265
  175TIP3    H2  490   0.709   0.050   4.600 -1.0135 -1.9128 -1.5919
  176TIP3   OH2  491   5.197   3.013   3.177 -0.3384  0.7003 -0.3455
  176TIP3    H1  492   5.147   3.082   3.134  0.3044  0.9882 -0.6442
  176TIP3    H2  493   5.278   3.055   3.204  0.7081 -0.2546 -1.8391
  177TIP3   OH2  494   2.366   6.705   4.476  0.0683 -1.1460  0.6162
  177TIP3    H1  495   2.325   6.750   4.402 -0.8715 -2.9350  0.0032
  177TIP3    H2  496   2.460   6.708   4.455 -0.0222 -0.0789  0.2752
  178TIP3   OH2  497   4.312   1.882   3.609 -0.1360 -0.1563 -0.9977
  178TIP3    H1  498   4.374   1.896   3.538 -1.2231  1.0744 -1.7283
  178TIP3    H2  499   4.307   1.966   3.655  0.8437 -1.0287  0.8154
  179TIP3   OH2  500   5.879   5.168   5.300  0.0928  0.1506 -0.5785
  179TIP3    H1  501   5.848   5.118   5.375 -1.7601 -0.1101 -1.4719
  179TIP3    H2  502   5.929   5.105   5.248 -1.2471 -0.5170 -1.1063
  180TIP3   OH2  503   5.410   6.728   0.434 -0.0166 -0.4796 -0.4091
  180TIP3    H1  504   5.423   6.636   0.411  1.2602 -0.4704  0.1919
  180TIP3    H2  505   5.391   6.727   0.527  2.6317 -0.0068  0.2278
  181TIP3   OH2  506   2.366   4.345   1.997 -0.2502  0.4132 -0.2349
  181TIP3    H1  507   2.317   4.314   1.921  0.6677  0.7623 -0.9845
  181TIP3    H2  508   2.304   4.337   2.070 -0.4591 -1.9575 -0.6005
  182TIP3   OH2  509   5.417   1.124   2.013  0.1281 -0.1839 -0.5296
  182TIP3    H1  510   5.333   1.135   2.057  0.8715  0.9764  0.6854
  182TIP3    H2  511   5.414   1.184   1.939  0.1189  0.3487 -0.1049
  183TIP3   OH2  512   1.192   5.539   2.604 -0.1259  0.2182 -0.1987
  183TIP3    H1  513   1.243   5.478   2.657 -3.5207 -2.5107  0.2139
  183TIP3    H2  514   1.141   5.589   2.668 -2.2000 -1.1699 -0.7008
  184TIP3   OH2  515   3.998   4.413   1.868  0.3994 -0.4426 -0.5165
  184TIP3    H1  516   4.074   4.437   1.814  0.5273 -1.1615 -0.6609
  184TIP3    H2  517   4.016   4.324   1.897  0.8814  0.2897  1.6594
  185TIP3   OH2  518   2.777   3.733   5.629  0.8618  0.2937  0.3127
  185TIP3    H1  519   2.757   3.678   5.704 -0.5749  0.4672  0.0986
  185TIP3    H2  520   2.811   3.814   5.667  0.0464  0.4226  0.7997
  186TIP3   OH2  521   1.305   0.936   4.327 -0.3611 -0.8263  0.2783
  186TIP3    H1  522   1.397   0.925   4.304 -0.0724 -3.0853  2.1071
  186TIP3    H2  523   1.257   0.898   4.254  0.1236  0.4837 -0.7452
  187TIP3   OH2  524   4.963   1.376   4.191  0.3355 -0.2513  0.0188
  187TIP3    H1  525   5.054   1.369   4.163  0.4821 -3.5444  0.8808
  187TIP3    H2  526   4.959   1.325   4.273 -2.0281  0.8763  0.7038
  188TIP3   OH2  527   2.328   3.245   2.362  0.3918 -0.4028 -0.2646
  188TIP3    H1  528   2.335   3.160   2.318  0.9967 -0.2771 -0.4269
  188TIP3    H2  529   2.406   3.293   2.334  0.0719  0.1989 -0.1501
  189TIP3   OH2  530   3.262   5.502   0.109 -0.0238  0.0779 -0.5334
  189TIP3    H1  531   3.208   5.487   0.031 -1.9581 -1.1255  0.9423
  189TIP3    H2  532   3.203   5.486   0.183  1.8984  0.5368  1.2100
  190TIP3   OH2  533   3.050   6.130   2.253 -0.1696  0.4047  0.0088
  190TIP3    H1  534   3.005   6.046   2.264 -0.5922  0.9656  4.1601
  190TIP3    H2  535   3.093   6.145   2.337 -0.2450  4.4423 -0.4973
  191TIP3   OH2  536   2.989   1.400   3.267 -0.7090  0.3810  0.5923
  191TIP3    H1  537   2.955   1.478   3.312 -1.9033 -0.4402  1.1551
  191TIP3    H2  538   2.924   1.332   3.284 -1.2299 -0.0102 -2.3353
  192TIP3   OH2  539   6.320   1.571   3.027 -0.1841  0.0633  0.3100
  192TIP3    H1  540   6.359   1.600   2.944 -1.5504  0.2496 -0.3027
  192TIP3    H2  541   6.256   1.640   3.048 -0.9211 -0.7343  0.7258
  193TIP3   OH2  542   2.242   3.106   1.966  0.4383 -0.3673 -0.4290
  193TIP3    H1  543   2.176   3.046   2.002  2.3823 -1.6490  1.2236
  193TIP3    H2  544   2.195   3.154   1.898 -1.7606 -2.3475 -0.4722
  194TIP3   OH2  545   4.552   0.137   1.088  0.1777 -0.0747 -0.6987
  194TIP3    H1  546   4.603   0.104   1.014 -0.5396 -0.2580 -1.1205
  194TIP3    H2  547   4.463   0.105   1.073 -0.1664  0.6145 -0.2169
  195TIP3   OH2  548   5.014   6.475   4.302 -0.2456  0.0956 -0.2835
  195TIP3    H1  549   5.095   6.507   4.341 -0.0317  1.0460 -1.4398
  195TIP3    H2  550   4.947   6.494   4.367  0.3971 -0.3071  0.5039
  196TIP3   OH2  551   4.477   3.571   0.592 -0.7395 -0.5486 -0.5509
  196TIP3    H1  552   4.544   3.513   0.629 -0.0426  0.0188 -0.9051
  196TIP3    H2  553   4.400   3.515   0.583 -1.1499 -0.5941  2.2814
  197TIP3   OH2  554   2.676   5.158   1.201  0.0186  0.1600 -0.0230
  197TIP3    H1  555   2.692   5.126   1.290  1.8301 -0.1192 -0.4121
  197TIP3    H2  556   2.705   5.249   1.203  0.3778  0.0529 -0.4136
  198TIP3   OH2  557   0.564   2.436   5.108  0.2489 -0.4724  0.3343
  198TIP3    H1  558   0.496   2.492   5.069 -0.7438 -1.8910 -0.0379
  198TIP3    H2  559   0.609   2.398   5.033  1.1897  0.1240  0.5856
  199TIP3   OH2  560   5.127   1.086   4.136 -0.2282 -0.5101  0.2853
  199TIP3    H1  561   5.032   1.092   4.150 -0.3210 -2.0396  0.3798
  199TIP3    H2  562   5.158   1.026   4.203  0.7510 -0.3943 -0.0540
  200TIP3   OH2  563   4.741   3.791   5.832  0.3146  0.5175  0.1471
  200TIP3    H1  564   4.669   3.844   5.868  1.3067  0.9708  1.5710
  200TIP3    H2  565   4.819   3.825   5.877  1.5492  0.6190 -1.9681
  201TIP3   OH2  566   5.479   3.863   3.946 -0.0186 -0.8604 -0.5222
  201TIP3    H1  567   5.566   3.896   3.925  0.3506  0.0447  2.0185
  201TIP3    H2  568   5.421   3.939   3.936  0.0605 -0.5871  0.8716
  202TIP3   OH2  569   5.587   5.989   2.866  0.1786  0.2779 -0.0554
  202TIP3    H1  570   5.528   6.036   2.806 -1.2289 -0.2448  0.8544
  202TIP3    H2  571   5.637   6.058   2.909  1.1713  0.6719 -1.7444
  203TIP3   OH2  572   4.238   6.756   5.456 -0.2539 -0.2134 -0.5984
  203TIP3    H1  573   4.248   6.831   5.515  1.5714 -0.2498 -0.8238
  203TIP3    H2  574   4.160   6.711   5.489  1.6480 -1.2214  2.9560
  204TIP3   OH2  575   4.859   5.832   3.757 -0.3789  0.6624 -0.3760
  204TIP3    H1  576   4.907   5.781   3.691 -0.6820  0.1253 -0.1907
  204TIP3    H2  577   4.784   5.776   3.780 -0.8885  1.3323 -0.3945
  205TIP3   OH2  578   7.064   4.223   0.329  0.1225 -0.4577  0.2254
  205TIP3    H1  579   7.035   4.214   0.238  1.4055  0.9005 -0.3666
  205TIP3    H2  580   7.159   4.230   0.323  0.1820  0.2870  1.6034
  206TIP3   OH2  581   1.320   2.793   0.912 -0.2941 -0.4167  0.5961
  206TIP3    H1  582   1.319   2.759   0.823  0.0922 -0.9669  0.8034
  206TIP3    H2  583   1.279   2.879   0.904 -0.9374 -0.7642  0.0089
  207TIP3   OH2  584   0.640   5.252   4.046  0.4127 -0.0018  0.7889
  207TIP3    H1  585   0.623   5.276   4.138 -0.1176  0.4431  0.5876
  207TIP3    H2  586   0.588   5.173   4.032  0.8159 -0.3045  0.9819
  208TIP3   OH2  587   0.519   5.410   0.728 -0.2444 -0.0130  0.4334
  208TIP3    H1  588   0.558   5.323   0.727  0.3356  0.2395  0.7136
  208TIP3    H2  589   0.556   5.453   0.805 -1.2580  0.1561  0.8456
  209TIP3   OH2  590   4.955   0.015   1.246 -0.3149  0.1396 -0.0044
  209TIP3    H1  591   4.877   0.068   1.262 -0.2669  0.4926 -0.8688
  209TIP3    H2  592   4.958   0.005   1.151  0.9472  0.5443 -0.0320
  210TIP3   OH2  593   1.732   2.601   4.591 -0.8253 -0.0327 -0.5292
  210TIP3    H1  594   1.700   2.645   4.670  0.2137  0.9855 -0.6389
  210TIP3    H2  595   1.693   2.649   4.518 -0.2156  0.3051 -0.6441
  211TIP3   OH2  596   1.277   6.472   5.761  0.0688  0.4911  0.0718
  211TIP3    H1  597   1.369   6.486   5.783 -0.0916  1.3361  0.2308
  211TIP3    H2  598   1.265   6.377   5.765  0.6763  0.4430  1.1021
  212TIP3   OH2  599   4.709   0.747   4.858 -0.1613 -0.1971 -0.3796
  212TIP3    H1  600   4.804   0.756   4.850 -0.2811 -0.5801 -3.1093
  212TIP3    H2  601   4.676   0.836   4.846 -0.1772  0.0983  1.4913
  213TIP3   OH2  602   1.343   1.353   5.823 -0.1078  0.1103  0.5991
  213TIP3    H1  603   1.332   1.379   5.914  0.5070  1.0493  0.4156
  213TIP3    H2  604   1.414   1.290   5.824  0.0800  0.3248  0.7355
  214TIP3   OH2  605   5.921   0.836   2.025 -0.2783 -0.1514 -0.1745
  214TIP3    H1  606   5.947   0.761   1.972  1.6873 -1.4633  2.4095
  214TIP3    H2  607   5.830   0.818   2.050 -0.3806 -0.7820 -0.9745
  215TIP3   OH2  608   5.632   4.780   4.525 -0.5125  0.2717  0.3604
  215TIP3    H1  609   5.556   4.812   4.476 -0.4108 -0.6741 -0.4562
  215TIP3    H2  610   5.596   4.722   4.592 -0.6551  1.5931  1.4636
  216TIP3   OH2  611   3.342   1.286   3.026  0.0002  0.0210  0.0181
  216TIP3    H1  612   3.394   1.298   2.946  1.2845 -0.8619  0.6987
  216TIP3    H2  613   3.397   1.320   3.096 -0.5505 -0.4769  0.7014
  217TIP3   OH2  614   0.115   6.358   3.608  0.1251 -0.0678  0.2772
  217TIP3    H1  615   0.153   6.322   3.528  0.1864 -0.2886  0.4051
  217TIP3    H2  616   0.177   6.335   3.677 -0.0369 -0.0704  0.4232
  218TIP3   OH2  617   5.094   4.053   0.940  0.0475  0.1254  0.1619
  218TIP3    H1  618   5.019   3.995   0.923 -0.0712  0.2401  0.2839
  218TIP3    H2  619   5.055   4.129   0.984 -0.0757  1.1401 -1.6052
  219TIP3   OH2  620   5.694   1.199   5.030 -0.0356 -0.1540  0.3286
  219TIP3    H1  621   5.676   1.131   5.095  0.4619 -0.5522  0.0511
  219TIP3    H2  622   5.764   1.164   4.976 -1.0644 -0.2368 -1.0262
  220TIP3   OH2  623   2.323   1.623   2.095 -0.6208  0.3677 -0.2468
  220TIP3    H1  624   2.397   1.579   2.137  0.1095  1.0677 -0.7749
  220TIP3    H2  625   2.335   1.607   2.002  0.3073  2.5576 -0.5782
  221TIP3   OH2  626   3.929   2.914   3.519 -0.1833  0.3718 -0.1869
  221TIP3    H1  627   3.917   2.935   3.611 -1.8272 -1.4957  0.0922
  221TIP3    H2  628   3.892   2.826   3.509 -0.1998  0.5787 -2.6518
  222TIP3   OH2  629   6.074   4.230   0.907  0.0642 -0.3112 -0.2405
  222TIP3    H1  630   6.100   4.146   0.943 -0.6545 -0.5813 -0.3314
  222TIP3    H2  631   6.007   4.263   0.967  2.3084  1.5461  1.3970
  223TIP3   OH2  632   6.676   2.421   2.965  0.0038 -0.2311 -0.1955
  223TIP3    H1  633   6.639   2.419   2.876  0.5166 -1.0909 -0.4009
  223TIP3    H2  634   6.638   2.344   3.008  1.4980 -1.1092 -0.3976
  224TIP3   OH2  635   5.668   6.452   1.811 -0.0359 -0.3101  0.0750
  224TIP3    H1  636   5.696   6.542   1.825  1.7020 -0.8621  0.4819
  224TIP3    H2  637   5.720   6.422   1.736  0.3428 -1.3381  0.7230
  225TIP3   OH2  638   0.654   5.458   2.516 -0.0627  0.3025  0.6843
  225TIP3    H1  639   0.567   5.483   2.484  0.6795  1.7115 -0.3812
  225TIP3    H2  640   0.686   5.395   2.452 -0.2028 -0.0539  0.9607
  226TIP3   OH2  641   4.077   3.483   2.900 -0.2886 -0.1811 -0.3682
  226TIP3    H1  642   4.004   3.489   2.962  1.3464 -0.2670  1.7167
  226TIP3    H2  643   4.040   3.440   2.823 -1.7880 -3.0340  1.7419
  227TIP3   OH2  644   5.162   6.760   3.672  0.2090 -0.4821 -0.1351
  227TIP3    H1  645   5.158   6.779   3.766  1.9289  0.2346 -0.1844
  227TIP3    H2  646   5.097   6.819   3.633  0.3425  0.0860  0.4798
  228TIP3   OH2  647   6.579   3.081   1.210  0.1443 -0.7360  0.2508
  228TIP3    H1  648   6.486   3.078   1.234 -0.8357  1.1006 -2.8144
  228TIP3    H2  649   6.600   2.991   1.185 -0.4897 -1.3602  1.8162
  229TIP3   OH2  650   5.289   3.918   3.250  0.3951  0.1653 -0.2645
  229TIP3    H1  651   5.349   3.902   3.178  1.2939  1.6274  0.1169
  229TIP3    H2  652   5.338   3.974   3.310 -1.2550  1.1931  0.1867
  230TIP3   OH2  653   6.091   2.428   1.878  0.0155  0.2902 -0.0496
  230TIP3    H1  654   6.145   2.507   1.870 -1.3938  1.3320  0.2934
  230TIP3    H2  655   6.043   2.440   1.960  0.3311 -1.3164  0.4156
  231TIP3   OH2  656   3.937   1.071   1.859  0.4906  0.1192 -0.1774
  231TIP3    H1  657   3.864   1.133   1.855  2.0508  2.1393  0.8583
  231TIP3    H2  658   3.990   1.090   1.782  0.3374 -0.8343 -0.5344
  232TIP3   OH2  659   6.380   4.479   0.592 -0.0888 -0.3677 -0.5798
  232TIP3    H1  660   6.451   4.440   0.642  1.6940  1.2014 -1.7260
  232TIP3    H2  661   6.301   4.438   0.626  1.2251 -1.1273  1.7670
  233TIP3   OH2  662   5.964   6.706   0.157  0.0432  0.1711 -0.0286
  233TIP3    H1  663   5.904   6.714   0.232  0.0441 -0.7554  0.0821
  233TIP3    H2  664   6.027   6.777   0.170  0.4384 -0.3671  1.2324
  234TIP3   OH2  665   2.250   3.959   2.589 -0.3015  0.4261 -1.1043
  234TIP3    H1  666   2.305   3.896   2.636  0.8670 -1.0729 -4.1583
  234TIP3    H2  667   2.264   4.042   2.635  1.3014 -0.7418  0.6852
  235TIP3   OH2  668   2.668   5.418   4.692  0.0890 -0.0692  0.2881
  235TIP3    H1  669   2.665   5.430   4.597 -1.8806 -0.6935  0.2099
  235TIP3    H2  670   2.643   5.503   4.728  1.7181  0.4241  0.3015
  236TIP3   OH2  671   2.066   4.127   3.990  0.0772 -0.1188  0.2374
  236TIP3    H1  672   1.985   4.106   4.036 -0.2138  0.0097 -0.2140
  236TIP3    H2  673   2.051   4.213   3.951 -0.1605 -0.7724 -1.1800
  237TIP3   OH2  674   0.752   0.885   2.114  0.3973  0.0610  0.4756
  237TIP3    H1  675   0.810   0.918   2.183  0.2970 -0.7665  0.9693
  237TIP3    H2  676   0.680   0.949   2.110  1.6143  1.4546 -0.5824
  238TIP3   OH2  677   3.798   6.325   4.390 -0.2999 -0.3520 -0.4321
  238TIP3    H1  678   3.784   6.329   4.484  0.0642 -0.4789 -0.3703
  238TIP3    H2  679   3.711   6.332   4.352 -0.4996 -0.8333 -0.0695
  239TIP3   OH2  680   0.278   1.831   4.928 -0.2233  0.0852  0.0461
  239TIP3    H1  681   0.357   1.817   4.877  1.4747  0.1645  2.4872
  239TIP3    H2  682   0.279   1.925   4.948 -0.3571 -0.0902  0.9238
  240TIP3   OH2  683   3.469   5.910   3.784  0.3386  0.9168 -0.1056
  240TIP3    H1  684   3.374   5.894   3.781  0.5800 -1.4877 -4.9318
  240TIP3    H2  685   3.507   5.826   3.807  1.3234  1.1639 -0.7625
  241TIP3   OH2  686   0.736   3.498   5.711  0.2401 -0.0362  0.2300
  241TIP3    H1  687   0.683   3.476   5.788  1.3342  0.8991  1.2873
  241TIP3    H2  688   0.779   3.417   5.687 -0.4314 -0.4342  0.3310
  242TIP3   OH2  689   0.559   6.112   4.208 -0.7281  0.0607 -0.4143
  242TIP3    H1  690   0.533   6.153   4.291  1.5705  1.0055 -0.0956
  242TIP3    H2  691   0.554   6.018   4.226 -0.6804  0.2520  0.6593
  243TIP3   OH2  692   6.226   3.785   0.049  0.2454  0.3739 -0.0048
  243TIP3    H1  693   6.231   3.720   0.119  0.1164  1.6746  1.2638
  243TIP3    H2  694   6.177   3.741  -0.020 -1.9214 -0.1277  1.7165
  244TIP3   OH2  695   0.171   0.430   1.110 -0.6329 -0.2810 -0.2659
  244TIP3    H1  696   0.181   0.335   1.100  0.8635 -0.0285 -1.5158
  244TIP3    H2  697   0.165   0.443   1.204  1.0164 -1.4914  0.0618
  245TIP3   OH2  698   5.156   3.339   4.852 -0.6602 -0.1439  0.4126
  245TIP3    H1  699   5.194   3.260   4.890  0.3780  0.7018  1.1874
  245TIP3    H2  700   5.159   3.404   4.922 -1.8018  0.5141 -0.1008
  246TIP3   OH2  701   3.596   6.712   0.672  0.3357  0.2680  0.1162
  246TIP3    H1  702   3.646   6.787   0.638  1.6809  0.1454  1.6825
  246TIP3    H2  703   3.616   6.711   0.766 -0.7555 -1.2507  0.3651
  247TIP3   OH2  704   3.151   0.287   3.608 -0.7796  0.1741 -0.2906
  247TIP3    H1  705   3.209   0.221   3.571  0.4420  1.2049 -0.2805
  247TIP3    H2  706   3.101   0.241   3.676 -0.7797 -0.9868 -1.0652
  248TIP3   OH2  707   6.037   2.161   2.754 -0.1806  0.1590  0.5059
  248TIP3    H1  708   6.000   2.225   2.692 -0.2114 -1.5528 -1.3582
  248TIP3    H2  709   6.124   2.142   2.719 -0.5059 -1.4325  0.4704
  249TIP3   OH2  710   6.112   6.381   1.672 -0.2546 -0.2950 -0.4110
  249TIP3    H1  711   6.123   6.473   1.696  2.4886 -0.6089 -0.1735
  249TIP3    H2  712   6.069   6.383   1.587 -1.7167  1.1181  0.3168
  250TIP3   OH2  713   4.182   3.294   0.999  0.1287  0.3106  0.7204
  250TIP3    H1  714   4.221   3.208   1.005 -0.9945 -0.4800 -1.8231
  250TIP3    H2  715   4.237   3.342   0.937 -0.2423  0.8285  0.7770
  251TIP3   OH2  716   2.232   5.431   3.750 -0.0832  0.3306  0.4904
  251TIP3    H1  717   2.273   5.376   3.683 -0.2985 -0.0436  0.6613
  251TIP3    H2  718   2.143   5.445   3.718  0.3068  1.5338 -0.1113
  252TIP3   OH2  719   3.105   3.947   4.747 -0.2849 -0.1309 -0.1366
  252TIP3    H1  720   3.037   3.891   4.786  1.0489 -1.5323  0.2737
  252TIP3    H2  721   3.066   3.977   4.664 -2.0303  0.5101  0.8745
  253TIP3   OH2  722   1.438   3.246   4.751  0.1721  0.1179  0.3431
  253TIP3    H1  723   1.351   3.209   4.770  0.5930 -0.9480  0.2487
  253TIP3    H2  724   1.460   3.211   4.665  0.7503  0.2898  0.4206
  254TIP3   OH2  725   1.434   2.611   1.078  0.6056  0.2184 -0.1435
  254TIP3    H1  726   1.397   2.664   1.007  0.5276  0.3218 -0.0265
  254TIP3    H2  727   1.529   2.619   1.066  0.5920  0.0881 -0.3441
  255TIP3   OH2  728   5.105   2.758   5.467 -0.7991  0.1696  0.0612
  255TIP3    H1  729   5.017   2.744   5.501 -0.3544 -2.4379  0.3590
  255TIP3    H2  730   5.162   2.743   5.542 -0.0512  3.3737  0.2809
  256TIP3   OH2  731   5.790   6.313   0.717  0.2618  0.1518  0.1267
  256TIP3    H1  732   5.780   6.255   0.793  1.1520  0.6853  0.6660
  256TIP3    H2  733   5.874   6.289   0.678 -0.4004 -0.4342 -0.9903
  257TIP3   OH2  734   6.324   2.595   4.051  0.2170  0.5788  0.2832
  257TIP3    H1  735   6.281   2.618   3.968  2.6325 -1.3529 -1.6917
  257TIP3    H2  736   6.392   2.661   4.062  0.1235  0.6330  0.5372
  258TIP3   OH2  737   3.454   3.031   0.569 -0.1117 -0.4007 -0.2961
  258TIP3    H1  738   3.548   3.040   0.553 -0.5072  2.7301 -1.5682
  258TIP3    H2  739   3.431   3.109   0.619 -2.4359  0.5294 -2.5881
  259TIP3   OH2  740   4.563   5.845   3.658 -0.1396 -0.4874  0.3463
  259TIP3    H1  741   4.576   5.806   3.745  0.9228 -0.2767  0.2931
  259TIP3    H2  742   4.468   5.842   3.645 -0.2333 -1.4075  1.1026
  260TIP3   OH2  743   0.697   4.692   1.037  0.0243  0.4645 -0.1720
  260TIP3    H1  744   0.688   4.606   0.997  1.0113  0.0812  0.3880
  260TIP3    H2  745   0.673   4.753   0.968 -2.5400 -0.2651 -0.0331
  261TIP3   OH2  746   4.799   0.508   5.780 -0.2294  0.0658 -0.1123
  261TIP3    H1  747   4.780   0.559   5.701  1.6249  2.4323  0.8596
  261TIP3    H2  748   4.717   0.508   5.829 -0.2018  2.6059  0.0606
  262TIP3   OH2  749   3.483   1.145   0.041  0.1312 -0.4074 -0.2064
  262TIP3    H1  750   3.504   1.238   0.028  0.4134 -0.8225 -3.6852
  262TIP3    H2  751   3.502   1.129   0.134  2.9762  2.2893 -0.1378
  263TIP3   OH2  752   5.808   4.803   4.032 -0.2845 -0.2348 -0.4364
  263TIP3    H1  753   5.846   4.825   3.947  0.7951  1.3956  0.4146
  263TIP3    H2  754   5.717   4.832   4.026 -0.3943 -0.7028 -1.2208
  264TIP3   OH2  755   2.246   6.204   2.719  0.0722  0.3790  0.2383
  264TIP3    H1  756   2.296   6.154   2.655 -0.5990  0.3045 -0.2360
  264TIP3    H2  757   2.155   6.184   2.699 -0.1327 -0.1688  1.6450
  265TIP3   OH2  758   5.000   5.052   1.269  0.2084  0.5810  0.5244
  265TIP3    H1  759   4.997   5.144   1.243 -0.8953  0.1314 -1.0934
  265TIP3    H2  760   4.942   5.047   1.346 -0.5376  1.0633  0.0061
  266TIP3   OH2  761   1.894   4.311   0.594  0.1167  0.0304  0.5055
  266TIP3    H1  762   1.818   4.339   0.543  0.6137 -1.0843 -0.9004
  266TIP3    H2  763   1.859   4.296   0.682 -1.1947 -0.0365 -0.0035
  267TIP3   OH2  764   1.831   6.288   3.877 -0.8169  0.6212 -0.3739
  267TIP3    H1  765   1.886   6.352   3.922 -0.6237 -0.0551  0.3641
  267TIP3    H2  766   1.892   6.237   3.824 -1.0092  1.2324 -1.2161
  268TIP3   OH2  767   4.812   6.255   0.659 -0.3089 -0.7100  0.5721
  268TIP3    H1  768   4.765   6.287   0.582 -1.6838 -1.5274  1.0346
  268TIP3    H2  769   4.857   6.332   0.693 -2.2664  0.4177  0.7703
  269TIP3   OH2  770   6.055   0.865   4.979 -0.4248 -0.4164 -0.3918
  269TIP3    H1  771   6.027   0.957   4.974 -0.3726 -0.2841  1.1132
  269TIP3    H2  772   6.048   0.844   5.072  1.1698 -1.4404 -0.4700
  270TIP3   OH2  773   3.912   2.617   5.645 -0.0218 -0.0306 -0.8008
  270TIP3    H1  774   3.924   2.526   5.672  0.6284  0.5909  1.1764
  270TIP3    H2  775   3.835   2.646   5.695 -0.1956  0.5272 -1.3822
  271TIP3   OH2  776   5.459   4.956   4.412  0.2913 -0.1058  0.1847
  271TIP3    H1  777   5.386   5.000   4.456 -0.4563 -0.0980 -1.0269
  271TIP3    H2  778   5.462   4.995   4.325  1.9420  0.0877  0.3021
  272TIP3   OH2  779   1.979   6.714   5.686  0.1641 -0.2401 -0.4555
  272TIP3    H1  780   1.905   6.775   5.682  0.0168 -0.2632  1.1651
  272TIP3    H2  781   1.960   6.649   5.619 -0.4884  0.6187 -1.1272
  273TIP3   OH2  782   0.598   4.455   3.892 -0.0571 -0.0140 -0.1068
  273TIP3    H1  783   0.520   4.505   3.918 -0.7084 -0.1071 -1.8157
  273TIP3    H2  784   0.669   4.520   3.891 -0.0335  0.0412  1.5994
  274TIP3   OH2  785   4.668   3.865   3.116 -0.4324  0.0672  0.1039
  274TIP3    H1  786   4.744   3.868   3.174  0.7162  2.2962 -1.3789
  274TIP3    H2  787   4.705   3.861   3.028 -2.0374  0.8950 -0.6494
  275TIP3   OH2  788   3.470   5.338   2.187 -0.3467  0.8433 -0.2577
  275TIP3    H1  789   3.555   5.375   2.211 -0.3614  0.9993 -0.4377
  275TIP3    H2  790   3.448   5.279   2.259  1.1453 -1.2309 -1.4094
  276TIP3   OH2  791   2.312   0.612   3.438 -0.1348  0.7364 -0.1647
  276TIP3    H1  792   2.330   0.534   3.385 -1.5978 -0.5468  1.1321
  276TIP3    H2  793   2.263   0.670   3.380 -0.4854 -0.0327 -0.6536
  277TIP3   OH2  794   1.684   0.768   2.162 -0.3336  0.1490 -0.0613
  277TIP3    H1  795   1.625   0.724   2.100 -0.6986  0.1976  0.2423
  277TIP3    H2  796   1.652   0.740   2.248 -1.4897  2.1284  0.2026
  278TIP3   OH2  797   6.334   1.378   5.579 -0.4613  0.0631 -0.3668
  278TIP3    H1  798   6.340   1.386   5.674 -1.1093 -0.7707 -0.2500
  278TIP3    H2  799   6.303   1.464   5.550 -1.1948  0.0235  0.2697
  279TIP3   OH2  800   1.989   4.624   1.405 -0.1385 -0.0279 -0.4338
  279TIP3    H1  801   1.944   4.625   1.320  1.3558 -0.8097 -1.2959
  279TIP3    H2  802   2.080   4.643   1.383  0.5309 -1.5955  0.8202
  280TIP3   OH2  803   0.660   2.248   3.628  0.3643 -0.1203  0.0619
  280TIP3    H1  804   0.722   2.322   3.626  0.2425 -0.0213 -1.1889
  280TIP3    H2  805   0.660   2.215   3.538 -0.6394 -0.7723  0.2860
  281TIP3   OH2  806   3.862   6.101   5.461 -0.1009  0.2956 -0.1494
  281TIP3    H1  807   3.929   6.038   5.487 -1.2157 -0.3749  1.2599
  281TIP3    H2  808   3.844   6.151   5.541 -1.2622  0.4635 -0.4996
  282TIP3   OH2  809   6.514   0.120   3.780 -0.4836  0.4521 -0.0009
  282TIP3    H1  810   6.527   0.034   3.740 -0.5607  0.6205 -0.3918
  282TIP3    H2  811   6.454   0.165   3.721  1.0977  1.4994 -0.8785
  283TIP3   OH2  812   3.752   3.131   2.657 -0.1183 -0.0144  0.3922
  283TIP3    H1  813   3.700   3.190   2.603  0.1775 -0.2281 -0.1306
  283TIP3    H2  814   3.738   3.162   2.747  0.1686  0.9586  0.1145
  284TIP3   OH2  815   2.676   4.615   5.871  0.5094 -0.2644  0.5367
  284TIP3    H1  816   2.751   4.663   5.906  0.4381 -0.1088  0.4750
  284TIP3    H2  817   2.697   4.601   5.779 -0.6691  2.0309 -0.1427
  285TIP3   OH2  818   0.345   3.655   0.917 -0.1916  0.2218 -0.0421
  285TIP3    H1  819   0.318   3.728   0.861  0.0413 -0.2645 -0.8013
  285TIP3    H2  820   0.359   3.582   0.857 -1.3803 -0.7430  0.7942
  286TIP3   OH2  821   5.642   1.454   2.282  0.7853  0.2577 -0.2269
  286TIP3    H1  822   5.671   1.362   2.285  2.2828  0.7177  0.2082
  286TIP3    H2  823   5.562   1.455   2.336  0.2978 -0.9206 -0.8794
  287TIP3   OH2  824   2.579   5.232   2.214  0.0431  0.6303 -0.2327
  287TIP3    H1  825   2.650   5.184   2.259  0.8964  2.3327  0.3415
  287TIP3    H2  826   2.575   5.193   2.127  1.1134 -0.0782  0.0106
  288TIP3   OH2  827   0.483   1.758   3.825  0.6128 -0.0546 -0.2321
  288TIP3    H1  828   0.413   1.801   3.775  0.2705 -0.3145  0.0145
  288TIP3    H2  829   0.452   1.759   3.915  1.7373  1.4305  0.1715
  289TIP3   OH2  830   4.885   0.333   0.209  0.1980  0.5067 -0.1005
  289TIP3    H1  831   4.867   0.382   0.290 -1.1717 -1.6147  0.9745
  289TIP3    H2  832   4.833   0.253   0.217  0.1767  0.1168 -3.0304
  290TIP3   OH2  833   4.425   2.472   1.877 -0.0684 -0.0979 -0.3895
  290TIP3    H1  834   4.493   2.490   1.941  0.3035  0.0638 -0.8282
  290TIP3    H2  835   4.468   2.479   1.792 -0.6101 -0.0708 -0.6713
  291TIP3   OH2  836   7.136   0.849   0.925  0.5264 -0.0114 -0.0528
  291TIP3    H1  837   7.208   0.786   0.927  0.5202 -0.0266 -0.2407
  291TIP3    H2  838   7.112   0.855   0.832 -0.3042 -0.6807  0.1000
  292TIP3   OH2  839   3.235   1.344  -0.011 -0.3786 -0.1198  0.1708
  292TIP3    H1  840   3.145   1.373   0.004 -0.6095 -0.1990 -1.0177
  292TIP3    H2  841   3.236   1.253   0.019 -1.0664 -0.5538 -1.0408
  293TIP3   OH2  842   2.117   1.025   1.995  0.0733 -0.0846  0.3818
  293TIP3    H1  843   2.108   0.933   2.022  0.2100 -0.3337 -0.3786
  293TIP3    H2  844   2.028   1.061   2.001 -0.2574 -0.6735 -0.6857
  294TIP3   OH2  845   6.319   3.508   4.259 -0.5238 -0.7335 -0.1712
  294TIP3    H1  846   6.236   3.530   4.217  0.1918  3.4123  0.1724
  294TIP3    H2  847   6.384   3.513   4.189  0.0170  1.3997  0.3892
  295TIP3   OH2  848   3.426   4.961   5.545 -0.2216  0.2222  0.0782
  295TIP3    H1  849   3.426   5.041   5.493 -0.7961  1.0155  1.2382
  295TIP3    H2  850   3.394   4.989   5.631  1.6872 -0.8261  1.1978
  296TIP3   OH2  851   3.776   3.522   2.555  0.3777  0.0513  0.2791
  296TIP3    H1  852   3.802   3.575   2.479 -0.3343  0.8622  0.5780
  296TIP3    H2  853   3.703   3.469   2.523 -0.1226  0.6157  0.4665
  297TIP3   OH2  854   3.749   3.911   1.651  0.4448 -0.6100  0.0855
  297TIP3    H1  855   3.793   3.900   1.566 -0.0736 -1.5508 -0.0758
  297TIP3    H2  856   3.811   3.875   1.715  0.7031 -0.1868  0.0789
  298TIP3   OH2  857   6.098   2.044   2.430  0.3401 -0.3162  0.1284
  298TIP3    H1  858   6.023   1.988   2.450  0.9569 -0.5170  2.1090
  298TIP3    H2  859   6.059   2.123   2.393 -0.8437 -0.5557  0.8027
  299TIP3   OH2  860   0.769   6.490   2.908  0.2171  0.3167 -0.8416
  299TIP3    H1  861   0.748   6.582   2.925 -0.2176  0.1284 -0.3288
  299TIP3    H2  862   0.864   6.486   2.914  0.1967  0.6046 -0.1794
  300TIP3   OH2  863   5.372   5.910   5.463 -0.7085  0.4520  0.2017
  300TIP3    H1  864   5.338   5.957   5.539 -0.1072  1.3048 -0.0462
  300TIP3    H2  865   5.467   5.909   5.475 -0.6032  0.6024 -0.5431
  301TIP3   OH2  866   3.305   3.731   1.959  0.5572  0.3409  0.0129
  301TIP3    H1  867   3.259   3.736   2.043 -1.8733  0.5022 -1.2392
  301TIP3    H2  868   3.281   3.813   1.915  1.9016  0.3139 -0.8090
  302TIP3   OH2  869   3.242   4.966   1.913  0.2135 -0.4097 -0.0940
  302TIP3    H1  870   3.290   4.983   1.994  0.8822  0.1670 -0.6013
  302TIP3    H2  871   3.242   5.050   1.867 -2.7669  0.1198  0.6259
  303TIP3   OH2  872   0.454   6.386   3.666 -0.6527  0.0354 -0.3748
  303TIP3    H1  873   0.393   6.401   3.594 -2.1130 -0.4188  0.7132
  303TIP3    H2  874   0.397   6.368   3.742  0.7970  1.4626  1.1198
  304TIP3   OH2  875   2.886   5.894   4.913  0.0516 -0.0721 -0.0215
  304TIP3    H1  876   2.855   5.969   4.965 -0.2449  0.5495 -1.0603
  304TIP3    H2  877   2.933   5.934   4.840 -0.3700 -0.8883 -0.7613
  305TIP3   OH2  878   4.794   4.538   5.434 -0.1712 -0.4038  0.0812
  305TIP3    H1  879   4.883   4.560   5.406 -0.2241 -0.2182  0.0546
  305TIP3    H2  880   4.758   4.485   5.363 -0.4310  0.3673 -0.3759
  306TIP3   OH2  881   6.785   0.120   0.949 -0.4662  0.1189  0.0816
  306TIP3    H1  882   6.861   0.166   0.985 -0.3935 -0.3243  0.5054
  306TIP3    H2  883   6.719   0.188   0.937  0.1448  0.5940 -0.7258
  307TIP3   OH2  884   4.906   5.295   1.251  0.1136 -0.1363 -0.5952
  307TIP3    H1  885   4.907   5.363   1.318  2.3442  0.4909 -1.1789
  307TIP3    H2  886   4.885   5.341   1.170  1.3117 -0.1320 -0.9368
  308TIP3   OH2  887   2.038   5.636   3.560  0.5271 -0.7485 -0.1992
  308TIP3    H1  888   1.979   5.563   3.580  0.5112 -1.9192 -3.7055
  308TIP3    H2  889   2.094   5.602   3.489  0.6887  2.5287 -1.8096
  309TIP3   OH2  890   6.350   2.388   4.490  0.3959 -0.5688 -0.1169
  309TIP3    H1  891   6.297   2.465   4.507  1.1886 -0.1473  0.5159
  309TIP3    H2  892   6.288   2.322   4.458 -0.2332  0.4356 -1.0214
  310TIP3   OH2  893   2.748   1.477   5.604 -0.2114  0.1911  0.2324
  310TIP3    H1  894   2.714   1.388   5.598 -0.2551  0.2328 -0.1863
  310TIP3    H2  895   2.671   1.533   5.589  0.2063  0.2856 -1.8954
  311TIP3   OH2  896   6.822   4.081   1.838 -0.2879 -0.3337 -0.5643
  311TIP3    H1  897   6.771   4.133   1.900  0.6730  0.8844 -0.7598
  311TIP3    H2  898   6.892   4.042   1.890 -0.3119 -0.4792 -0.6389
  312TIP3   OH2  899   4.688   3.710   4.961 -0.4789  0.2680  0.4365
  312TIP3    H1  900   4.664   3.618   4.969 -1.5649  0.5124  0.1573
  312TIP3    H2  901   4.766   3.710   4.905 -1.2929 -0.3918 -0.7280
  313TIP3   OH2  902   1.559   2.160   4.212 -0.0414 -0.3678  0.3167
  313TIP3    H1  903   1.598   2.184   4.296 -1.0291  0.7296  0.4938
  313TIP3    H2  904   1.501   2.233   4.191  0.6595 -0.3093 -1.6488
  314TIP3   OH2  905   2.352   0.039   1.990 -0.4291 -0.2426 -0.0160
  314TIP3    H1  906   2.413   0.002   2.054 -0.8032 -1.3824 -0.3002
  314TIP3    H2  907   2.408   0.087   1.929  0.4309 -2.5053 -1.1524
  315TIP3   OH2  908   1.066   0.176   0.060 -0.0647  0.0740 -0.0789
  315TIP3    H1  909   1.143   0.137   0.102 -1.3156  0.1590  2.4997
  315TIP3    H2  910   1.045   0.118  -0.013  2.0690 -0.2489 -0.4838
  316TIP3   OH2  911   3.379   4.289   2.207 -0.1208 -0.1940  0.1532
  316TIP3    H1  912   3.361   4.358   2.143  0.1292  1.1050  1.4434
  316TIP3    H2  913   3.462   4.251   2.180  0.7608  1.3893  0.5595
  317TIP3   OH2  914   1.812   3.070   4.895  0.1593 -0.1638  0.8668
  317TIP3    H1  915   1.887   3.130   4.892  1.9704 -2.3502 -0.7834
  317TIP3    H2  916   1.842   2.996   4.947 -1.3987 -0.4814  1.3771
  318TIP3   OH2  917   6.666  -0.030   1.809 -0.1096  0.2722  0.1647
  318TIP3    H1  918   6.608   0.025   1.862  0.5767  3.1332 -1.7809
  318TIP3    H2  919   6.740   0.027   1.788  1.7569 -2.1579 -0.2591
  319TIP3   OH2  920   3.758   3.712   0.059 -0.5075 -0.3569 -0.0124
  319TIP3    H1  921   3.802   3.705   0.144  0.1052 -1.5690 -0.3863
  319TIP3    H2  922   3.811   3.775   0.010 -0.8571  0.3388  0.4873
  320TIP3   OH2  923   3.533   2.871   2.185  0.2756 -0.1952 -0.1264
  320TIP3    H1  924   3.571   2.810   2.122  0.5107 -0.3446  0.1577
  320TIP3    H2  925   3.564   2.840   2.270 -0.4635 -0.3135  0.1087
  321TIP3   OH2  926   6.701   5.016   5.160  0.4088  0.4832 -0.0052
  321TIP3    H1  927   6.746   5.052   5.083  1.5013  1.6844  1.1298
  321TIP3    H2  928   6.609   5.008   5.132  0.7527  0.9773 -1.3954
  322TIP3   OH2  929   3.424   2.929   3.294  0.1920 -0.2632 -0.3517
  322TIP3    H1  930   3.410   2.961   3.383  0.6929 -0.1103 -0.3258
  322TIP3    H2  931   3.503   2.875   3.301 -0.1781 -0.8416 -0.5589
  323TIP3   OH2  932   1.921   6.128   3.655  0.8228  0.3512 -0.0435
  323TIP3    H1  933   1.830   6.141   3.626  0.3636  0.6762  1.4494
  323TIP3    H2  934   1.954   6.059   3.599 -0.1008  0.7593 -1.1339
  324TIP3   OH2  935   0.646   1.210   2.580  0.3189  0.4263  0.5070
  324TIP3    H1  936   0.689   1.258   2.650  1.4731 -0.5366  0.4945
  324TIP3    H2  937   0.706   1.216   2.505 -1.4436  2.4879 -0.8614
  325TIP3   OH2  938   0.709   2.249   1.826  0.0073 -0.0923  0.0014
  325TIP3    H1  939   0.710   2.344   1.838  0.5601 -0.1496  0.4310
  325TIP3    H2  940   0.762   2.234   1.747  1.5415 -0.1712  0.9968
  326TIP3   OH2  941   3.143   5.016   4.719  0.2318 -0.3961 -0.3828
  326TIP3    H1  942   3.169   5.024   4.811  1.4528 -1.0826 -0.6405
  326TIP3    H2  943   3.062   4.966   4.721  0.5469 -0.9019  0.3056
  327TIP3   OH2  944   0.184   5.214   0.279  0.0618  0.4094 -0.1631
  327TIP3    H1  945   0.135   5.150   0.226 -1.4041  1.6030 -0.3114
  327TIP3    H2  946   0.162   5.191   0.369 -1.0033  1.0943 -0.2370
  328TIP3   OH2  947   2.923   2.567   3.996  0.3208  0.2286  0.1150
  328TIP3    H1  948   2.912   2.630   4.067 -0.6368  0.3162 -0.0936
  328TIP3    H2  949   2.957   2.618   3.923  1.0155  0.1957  0.4039
  329TIP3   OH2  950   1.804   4.413   5.767 -0.6705  0.2662 -0.0939
  329TIP3    H1  951   1.862   4.452   5.702 -1.2390 -1.4879 -1.7450
  329TIP3    H2  952   1.842   4.438   5.851  0.9044  1.4194 -1.0836
  330TIP3   OH2  953   4.795   5.503   2.499 -0.2881  0.1651 -0.2261
  330TIP3    H1  954   4.876   5.540   2.535 -1.3452  0.3134  2.2598
  330TIP3    H2  955   4.730   5.571   2.514 -1.0724 -0.3320 -1.3007
  331TIP3   OH2  956   1.640   5.283   4.360  0.3374 -0.2324  0.1909
  331TIP3    H1  957   1.656   5.254   4.270 -0.3197  1.1209 -0.3746
  331TIP3    H2  958   1.697   5.359   4.371  1.1570 -0.9691  1.2705
  332TIP3   OH2  959   6.581   2.736   5.609  0.6080 -0.3311  0.1058
  332TIP3    H1  960   6.549   2.750   5.698 -0.8273 -0.6085 -0.3471
  332TIP3    H2  961   6.507   2.755   5.552  1.2696 -0.8835 -0.9992
  333TIP3   OH2  962   4.724   1.803   3.442  0.1640 -0.2627  0.1635
  333TIP3    H1  963   4.801   1.854   3.419 -1.0711  0.8686 -1.7495
  333TIP3    H2  964   4.671   1.862   3.496 -1.5672  0.8770 -2.5813
  334TIP3   OH2  965   0.389   2.961   0.105 -0.4062  0.0452  0.4033
  334TIP3    H1  966   0.337   2.887   0.138 -0.0280 -0.2930  0.2396
  334TIP3    H2  967   0.341   2.990   0.027 -0.6037  0.0355  0.5182
  335TIP3   OH2  968   6.518   3.697   1.385 -0.0853  0.0874 -0.1864
  335TIP3    H1  969   6.446   3.633   1.386 -0.0655  0.0588  1.3770
  335TIP3    H2  970   6.585   3.655   1.331 -0.1683 -1.1270  0.6130
  336TIP3   OH2  971   2.946   0.889   4.962  0.5253 -0.0741  0.2235
  336TIP3    H1  972   2.977   0.891   5.052  0.9751 -2.1062  0.1677
  336TIP3    H2  973   2.973   0.973   4.925  2.2564 -0.0735  1.3773
  337TIP3   OH2  974   7.195   2.560   2.220  0.0483  0.2308 -0.6642
  337TIP3    H1  975   7.239   2.500   2.159  0.1197  0.7035 -1.0867
  337TIP3    H2  976   7.147   2.621   2.163 -0.9318 -0.1012 -0.2242
  338TIP3   OH2  977   0.167   2.780   0.228  0.0838  0.4462 -0.3053
  338TIP3    H1  978   0.126   2.855   0.271 -0.4234  0.0533 -0.0877
  338TIP3    H2  979   0.097   2.742   0.174 -0.2682 -1.0685  1.1546
  339TIP3   OH2  980   5.469   6.156   2.332  0.0753 -0.0387 -0.1603
  339TIP3    H1  981   5.481   6.238   2.283  1.1237  0.1872  0.4493
  339TIP3    H2  982   5.391   6.172   2.386 -0.8969 -0.1781 -1.4908
  340TIP3   OH2  983   0.831   3.294   1.614 -0.1172 -0.2467  0.1489
  340TIP3    H1  984   0.916   3.254   1.634 -0.2663  0.3255  2.1389
  340TIP3    H2  985   0.825   3.289   1.519  1.7539 -1.0980  0.0148
  341TIP3   OH2  986   5.046   4.907   4.920  0.1299  0.2588  0.3060
  341TIP3    H1  987   5.042   4.822   4.876  2.4148  0.7284 -0.9590
  341TIP3    H2  988   5.114   4.897   4.986  0.5711  1.1648 -0.0005
  342TIP3   OH2  989   6.329   1.885   1.366  0.5607 -0.0843  0.4173
  342TIP3    H1  990   6.351   1.976   1.385 -1.1213  0.8424 -1.7085
  342TIP3    H2  991   6.252   1.866   1.420  0.1584  0.1730 -0.0618
  343TIP3   OH2  992   5.609   3.778   5.231  0.0678  0.0966  0.3728
  343TIP3    H1  993   5.643   3.691   5.249  0.5152  0.3887  0.9685
  343TIP3    H2  994   5.655   3.835   5.293 -0.5138  0.6948  0.2615
  344TIP3   OH2  995   1.155   5.894   0.334  0.0660  0.2319 -0.4179
  344TIP3    H1  996   1.142   5.815   0.387  0.7532  0.2849 -0.1523
  344TIP3    H2  997   1.073   5.942   0.341 -0.8542 -1.0777 -1.6649
  345TIP3   OH2  998   3.481   6.598   3.262 -0.2038 -0.0132  0.1497
  345TIP3    H1  999   3.520   6.594   3.174 -0.2625  1.5528  0.0305
  345TIP3    H2 1000   3.541   6.652   3.313 -1.1729  0.7669  0.5056
  346TIP3   OH2 1001   5.906   2.929   3.419  0.3146 -0.5694  0.4642
  346TIP3    H1 1002   5.931   2.942   3.511  2.0144 -1.3656  0.1597
  346TIP3    H2 1003   5.810   2.930   3.420  0.2897  0.9000  2.0099
  347TIP3   OH2 1004   1.617   4.151   3.028 -0.4527 -0.2393  0.0738
  347TIP3    H1 1005   1.614   4.116   3.117 -0.4679  1.0774  0.6060
  347TIP3    H2 1006   1.526   4.169   3.005 -0.2943  1.3544  0.5997
  348TIP3   OH2 1007   5.268   5.622   1.997 -0.2869  0.1837 -0.0096
  348TIP3    H1 1008   5.334   5.608   2.065 -0.9698  0.5925  0.7597
  348TIP3    H2 1009   5.287   5.556   1.930  0.9247  0.3325  0.1680
  349TIP3   OH2 1010   5.757   3.486   4.516  0.1103  0.3919  0.1919
  349TIP3    H1 1011   5.684   3.484   4.578  0.5003 -0.1796  0.6347
  349TIP3    H2 1012   5.819   3.548   4.554  0.1884  0.3120  0.1956
  350TIP3   OH2 1013   3.627   4.289   3.889  0.7055  0.2668 -0.2987
  350TIP3    H1 1014   3.636   4.193   3.885  0.2044  0.2239 -0.5516
  350TIP3    H2 1015   3.716   4.322   3.874  0.8338 -0.1551 -0.4871
  351TIP3   OH2 1016   5.130   0.383   5.579  0.2295  0.3507 -0.3818
  351TIP3    H1 1017   5.104   0.466   5.620 -1.2423  0.4558 -1.4487
  351TIP3    H2 1018   5.127   0.319   5.650 -0.5548  0.8516  0.0494
  352TIP3   OH2 1019   6.361   1.276   4.061 -0.1906  0.2384 -0.3047
  352TIP3    H1 1020   6.335   1.318   4.143 -0.9322 -1.3438  0.3064
  352TIP3    H2 1021   6.451   1.305   4.047 -0.4133  1.4056  0.4720
  353TIP3   OH2 1022   2.399   3.754   3.645  0.0394  0.2064 -0.2449
  353TIP3    H1 1023   2.419   3.767   3.553  0.4489  1.1087 -0.0333
  353TIP3    H2 1024   2.455   3.815   3.692 -1.3926  1.0061  0.5141
  354TIP3   OH2 1025   0.355   5.268   3.106  0.5829 -0.3216  0.1551
  354TIP3    H1 1026   0.409   5.281   3.028  1.2659 -1.3029  0.4473
  354TIP3    H2 1027   0.396   5.195   3.152  0.0862  0.1284  1.3542
  355TIP3   OH2 1028   0.200   5.877   0.878 -0.0899 -0.0282 -0.2115
  355TIP3    H1 1029   0.293   5.898   0.885 -0.0908  0.3863 -1.2105
  355TIP3    H2 1030   0.155   5.953   0.916 -0.0403  0.6980 -1.5324
  356TIP3   OH2 1031   0.850   4.844   3.527 -0.1896 -0.1519 -0.0509
  356TIP3    H1 1032   0.897   4.766   3.558  0.2486  0.0246 -0.2675
  356TIP3    H2 1033   0.908   4.882   3.462 -0.4077  0.3525  0.0492
  357TIP3   OH2 1034   2.385   0.309   5.354 -0.0967  0.4477  0.0433
  357TIP3    H1 1035   2.342   0.393   5.335 -0.3565  0.6135  1.2474
  357TIP3    H2 1036   2.429   0.324   5.438  2.4992  0.3453 -1.1878
  358TIP3   OH2 1037   6.646   4.937   3.482 -0.3222 -0.7783  0.0728
  358TIP3    H1 1038   6.591   4.905   3.410 -0.3729 -0.7918  0.1173
  358TIP3    H2 1039   6.586   4.943   3.557 -1.2167  2.7120 -0.7188
  359TIP3   OH2 1040   3.719   5.649   4.529 -0.5576 -0.3252 -0.0479
  359TIP3    H1 1041   3.688   5.736   4.555 -1.7206 -0.0873 -2.0459
  359TIP3    H2 1042   3.773   5.620   4.602  1.4253  2.8587 -0.0523
  360TIP3   OH2 1043   6.133   3.520   0.602  0.2060 -0.4788  0.0356
  360TIP3    H1 1044   6.193   3.590   0.630  0.6385 -1.1252  0.7706
  360TIP3    H2 1045   6.177   3.440   0.629 -0.0597 -1.0647 -1.2332
  361TIP3   OH2 1046   1.342   4.798   0.536  0.1725 -0.0394 -0.5695
  361TIP3    H1 1047   1.344   4.894   0.539 -0.5287 -0.0306 -0.0510
  361TIP3    H2 1048   1.307   4.773   0.621 -2.0793 -0.6430 -1.5893
  362TIP3   OH2 1049   2.910   1.624   5.739  0.5220 -0.4697  0.0536
  362TIP3    H1 1050   2.883   1.606   5.829  1.1662 -1.3523  0.0763
  362TIP3    H2 1051   2.853   1.568   5.685 -0.2152  0.4337 -0.1357
  363TIP3   OH2 1052   3.953   1.538   5.862  0.0312  0.2003 -0.1946
  363TIP3    H1 1053   3.939   1.565   5.953  0.9063 -4.5212  1.6134
  363TIP3    H2 1054   3.866   1.538   5.824 -0.9692 -1.2240  1.8816
  364TIP3   OH2 1055   0.404   5.791   4.732  0.1152 -0.2157  0.1731
  364TIP3    H1 1056   0.428   5.876   4.769 -0.0195 -0.1070  0.0141
  364TIP3    H2 1057   0.436   5.794   4.642  0.0375 -0.3006  0.1423
  365TIP3   OH2 1058   3.733   6.653   5.600 -0.2667  0.4160 -0.4045
  365TIP3    H1 1059   3.684   6.735   5.602  0.0798  0.6334 -0.6403
  365TIP3    H2 1060   3.720   6.618   5.512 -1.0120 -0.1602 -0.0790
  366TIP3   OH2 1061   2.104   2.014   3.936 -0.3302 -0.0953  0.3323
  366TIP3    H1 1062   2.096   2.083   3.870  0.1191  0.0518  0.4264
  366TIP3    H2 1063   2.092   2.059   4.020 -1.6969 -0.4097  0.3341
  367TIP3   OH2 1064   0.661   3.588   0.717 -0.0633 -0.9727 -0.1902
  367TIP3    H1 1065   0.731   3.651   0.705  0.0160 -1.2359 -1.2646
  367TIP3    H2 1066   0.705   3.508   0.747  0.2906 -1.4773 -1.8961
  368TIP3   OH2 1067   5.598   3.965   2.120 -0.0671 -0.1581 -0.0868
  368TIP3    H1 1068   5.553   4.038   2.164  0.4536  0.4417 -0.5287
  368TIP3    H2 1069   5.630   4.003   2.038  0.8278 -0.7003  0.0013
  369TIP3   OH2 1070   2.615   0.548   1.960  0.3024  0.0510  0.1259
  369TIP3    H1 1071   2.559   0.625   1.969 -0.9537 -0.7867 -0.3481
  369TIP3    H2 1072   2.570   0.480   2.009  0.5287 -0.8463 -0.8973
  370TIP3   OH2 1073   1.159   1.317   2.008  0.4988  0.1649 -0.0871
  370TIP3    H1 1074   1.178   1.292   2.099 -0.6292 -0.7934 -0.0887
  370TIP3    H2 1075   1.193   1.245   1.955  0.2269  0.2164 -0.3371
  371TIP3   OH2 1076   7.003   3.451   0.751  0.2722 -0.4728  0.4291
  371TIP3    H1 1077   7.053   3.413   0.823 -0.6621 -0.7739  0.9470
  371TIP3    H2 1078   6.939   3.384   0.729 -0.6165  0.3110  0.5400
  372TIP3   OH2 1079   4.521   5.040   1.902 -0.2978  1.0761  0.4903
  372TIP3    H1 1080   4.550   5.117   1.951 -0.6804  1.3824  0.2426
  372TIP3    H2 1081   4.441   5.069   1.858  1.2379  1.5425 -2.2120
  373TIP3   OH2 1082   6.017   3.897   2.366  0.1937 -0.4067  0.2785
  373TIP3    H1 1083   5.922   3.907   2.363  0.2450  0.4971  1.2226
  373TIP3    H2 1084   6.040   3.863   2.280 -0.9309 -0.0975 -0.1606
  374TIP3   OH2 1085   7.048   1.045   2.145  0.1824  0.1743  0.5404
  374TIP3    H1 1086   7.107   1.095   2.089  0.6443  0.2342  1.0819
  374TIP3    H2 1087   7.105   0.993   2.202 -0.2677  0.6403  1.4389
  375TIP3   OH2 1088   6.678   5.046   1.741 -0.3106  0.3280  0.5870
  375TIP3    H1 1089   6.663   5.013   1.830 -2.1512 -1.4197 -0.2653
  375TIP3    H2 1090   6.618   5.120   1.733 -0.8734 -0.1159  0.5406
  376TIP3   OH2 1091   2.773   0.607   5.398 -0.7528 -0.3021 -0.4306
  376TIP3    H1 1092   2.679   0.626   5.402 -0.2807  2.1273  0.8839
  376TIP3    H2 1093   2.810   0.653   5.473  1.5704 -0.7973 -1.1971
  377TIP3   OH2 1094   6.604   3.646   2.746 -0.3634 -0.1414 -0.4596
  377TIP3    H1 1095   6.601   3.697   2.665 -0.8586 -0.2493 -0.5088
  377TIP3    H2 1096   6.542   3.690   2.804  0.3642  0.2480  0.0495
  378TIP3   OH2 1097   1.712   5.807   3.512  0.5699  0.1410  0.3678
  378TIP3    H1 1098   1.675   5.794   3.425  0.3907  0.6955  0.3557
  378TIP3    H2 1099   1.799   5.843   3.496  0.0036  1.6354  0.4063
  379TIP3   OH2 1100   0.229   3.928   0.418  0.4966  0.1362 -0.0831
  379TIP3    H1 1101   0.161   3.933   0.486  1.6076  0.7474  1.0159
  379TIP3    H2 1102   0.301   3.881   0.460  1.5782  1.3711 -0.4849
  380TIP3   OH2 1103   0.237   6.056   4.496 -0.0021  0.3362 -0.4291
  380TIP3    H1 1104   0.327   6.025   4.495  0.1213  0.6230 -2.3778
  380TIP3    H2 1105   0.184   5.977   4.510  0.5283  0.1541  0.6150
  381TIP3   OH2 1106   2.678   4.492   0.106 -0.4737  0.5182  0.1428
  381TIP3    H1 1107   2.739   4.561   0.130 -2.1564  1.5503  1.6557
  381TIP3    H2 1108   2.615   4.534   0.047 -1.5025  0.3013  1.0581
  382TIP3   OH2 1109   3.277   1.205   0.411  0.0089 -0.0737  0.5370
  382TIP3    H1 1110   3.327   1.283   0.386 -2.3850  0.6559 -2.5361
  382TIP3    H2 1111   3.193   1.239   0.441 -0.7219 -1.4370  0.0973
  383TIP3   OH2 1112   4.509   1.648   1.747 -0.1208 -0.1663  0.6090
  383TIP3    H1 1113   4.503   1.565   1.700 -0.4421 -0.1522  0.6203
  383TIP3    H2 1114   4.590   1.642   1.797  1.4658  0.7402 -1.7121
  384TIP3   OH2 1115   4.134   5.284   0.471 -0.1155  0.2010  0.1560
  384TIP3    H1 1116   4.051   5.289   0.519 -0.5110  1.4112 -0.6030
  384TIP3    H2 1117   4.147   5.373   0.436  0.3520 -0.5327 -1.6388
  385TIP3   OH2 1118   1.073   6.750   4.356  0.1077  0.3275 -0.1222
  385TIP3    H1 1119   0.978   6.752   4.367  0.1423 -1.6807  1.0464
  385TIP3    H2 1120   1.092   6.659   4.330  1.8529  0.2228  1.3323
  386TIP3   OH2 1121   4.373   6.196   3.768  0.1353 -0.4610 -0.7684
  386TIP3    H1 1122   4.454   6.182   3.719 -0.3461 -1.2905 -1.3544
  386TIP3    H2 1123   4.381   6.138   3.843  0.6657  0.4633 -0.0870
  387TIP3   OH2 1124   3.957   4.055   2.898  0.3740  0.1226  0.0169
  387TIP3    H1 1125   3.887   3.994   2.922  0.6531 -1.3159 -2.4602
  387TIP3    H2 1126   4.025   4.040   2.963  0.0374 -1.5717  0.0290
  388TIP3   OH2 1127   6.574   3.122   1.733  0.1157  0.3712 -0.0261
  388TIP3    H1 1128   6.483   3.148   1.747 -0.5153 -1.2148 -0.9173
  388TIP3    H2 1129   6.605   3.178   1.662 -0.1688  0.8534  0.2225
  389TIP3   OH2 1130   6.092   4.001   1.054 -0.2760 -0.5755 -0.3588
  389TIP3    H1 1131   6.129   3.923   1.093 -1.6859 -0.4109  1.4115
  389TIP3    H2 1132   6.057   3.972   0.970  0.9904 -1.3797 -0.6267
  390TIP3   OH2 1133   1.728   1.106   2.401  0.1408  0.1515 -0.7754
  390TIP3    H1 1134   1.813   1.073   2.370 -0.1384 -0.3825 -0.9807
  390TIP3    H2 1135   1.716   1.188   2.354 -0.0104 -0.3663 -1.6736
  391TIP3   OH2 1136   0.084   4.482   0.856  0.0356  0.2799 -0.2488
  391TIP3    H1 1137   0.007   4.429   0.836  0.0255  0.8936 -1.9777
  391TIP3    H2 1138   0.060   4.571   0.831  0.7535  0.7709  0.7335
  392TIP3   OH2 1139   1.922   3.404   1.565 -0.5216  0.7614 -0.3099
  392TIP3    H1 1140   1.902   3.317   1.529 -0.6749 -0.2336  2.0148
  392TIP3    H2 1141   1.992   3.438   1.508  1.5182 -2.0685  0.2831
  393TIP3   OH2 1142   5.442   1.276   1.786 -0.1676 -0.0637 -0.5724
  393TIP3    H1 1143   5.490   1.243   1.710  0.3338  0.4326 -0.4815
  393TIP3    H2 1144   5.420   1.367   1.762  1.5658  0.7137  0.5557
  394TIP3   OH2 1145   1.434   1.046   0.539 -0.5099  0.1153 -0.3496
  394TIP3    H1 1146   1.343   1.025   0.520  0.3037 -1.6660 -2.6643
  394TIP3    H2 1147   1.455   1.119   0.481 -0.3350  0.2751 -0.0923
  395TIP3   OH2 1148   4.517   4.500   1.667 -0.0285  0.0790  0.5110
  395TIP3    H1 1149   4.586   4.564   1.652 -0.3707  0.2295 -0.5052
  395TIP3    H2 1150   4.563   4.419   1.688  0.4620  0.2166 -0.0089
  396TIP3   OH2 1151   2.803   0.594   3.329  0.1323  0.2576  0.4696
  396TIP3    H1 1152   2.872   0.572   3.392 -0.7333 -0.4304  1.2131
  396TIP3    H2 1153   2.822   0.684   3.303  0.4643  0.6096  1.8214
  397TIP3   OH2 1154   6.166   3.847   1.591 -0.0705  0.7626  0.4835
  397TIP3    H1 1155   6.122   3.876   1.671  0.1452  2.4460  0.0317
  397TIP3    H2 1156   6.257   3.876   1.602  0.7321 -1.6944  0.9205
  398TIP3   OH2 1157   6.415  -0.003   0.736  0.0161  0.3808 -0.1913
  398TIP3    H1 1158   6.441   0.051   0.810  0.4570 -0.2571  0.1347
  398TIP3    H2 1159   6.497  -0.028   0.694 -0.2480  1.0333 -1.1234
  399TIP3   OH2 1160   6.403   1.784   1.111 -0.2499  0.3996 -0.2082
  399TIP3    H1 1161   6.376   1.789   1.203 -0.0514  0.5432 -0.1559
  399TIP3    H2 1162   6.474   1.848   1.104  0.5652 -0.4722 -0.1694
  400TIP3   OH2 1163   0.933   3.169   2.526  0.1013  0.1116  0.3859
  400TIP3    H1 1164   0.922   3.143   2.435  2.0468 -1.4145  0.5285
  400TIP3    H2 1165   0.982   3.252   2.522  0.5751 -0.1833  0.0450
  401TIP3   OH2 1166   6.876   4.840   4.257  0.0063  0.0596  0.5307
  401TIP3    H1 1167   6.807   4.847   4.323  1.2189 -1.6861  2.0723
  401TIP3    H2 1168   6.862   4.754   4.217  1.2486 -0.3286  0.8775
  402TIP3   OH2 1169   4.129   1.846   5.204  0.5878  0.0110  0.2092
  402TIP3    H1 1170   4.154   1.856   5.113  1.3746  0.2667  0.4439
  402TIP3    H2 1171   4.085   1.761   5.208  3.3487 -1.5169  0.1669
  403TIP3   OH2 1172   4.765   6.368   5.644 -0.3683 -0.0818 -0.3462
  403TIP3    H1 1173   4.826   6.399   5.712  0.4052 -1.4618 -0.3622
  403TIP3    H2 1174   4.703   6.439   5.633 -1.5115 -0.3689  2.9770
  404TIP3   OH2 1175   2.151   0.270   1.983  0.3705  0.2631  0.1941
  404TIP3    H1 1176   2.071   0.219   1.971 -0.0717  0.0615  3.2215
  404TIP3    H2 1177   2.222   0.206   1.976  0.0581 -0.1100  0.3892
  405TIP3   OH2 1178   6.175   5.825   3.361 -0.0349 -0.1447 -0.1625
  405TIP3    H1 1179   6.102   5.772   3.392 -1.7958  1.6792 -0.9199
  405TIP3    H2 1180   6.252   5.771   3.374 -1.4137 -1.8268  1.4962
  406TIP3   OH2 1181   5.677   2.479   3.285  0.0214 -0.9352 -0.0634
  406TIP3    H1 1182   5.628   2.554   3.252 -0.8291 -0.8053  1.3946
  406TIP3    H2 1183   5.613   2.407   3.286  0.1997 -1.0956  0.6195
  407TIP3   OH2 1184   3.490   1.950   1.827  0.1995  0.6906  0.4325
  407TIP3    H1 1185   3.401   1.917   1.820  0.0089  0.7515  2.0832
  407TIP3    H2 1186   3.497   2.017   1.759 -0.5253 -0.3139 -0.6633
  408TIP3   OH2 1187   0.936   2.824   4.053  0.4070 -0.0286 -0.8159
  408TIP3    H1 1188   0.984   2.793   4.129  0.1718 -1.0084 -1.0500
  408TIP3    H2 1189   0.997   2.881   4.007  0.3200  1.1312  0.4496
  409TIP3   OH2 1190   0.438   6.581   0.695 -0.3688  0.3287 -0.1370
  409TIP3    H1 1191   0.437   6.581   0.791  0.6452 -1.0579 -0.0999
  409TIP3    H2 1192   0.436   6.488   0.671  1.2598  0.5823 -1.4134
  410TIP3   OH2 1193   2.397   2.879   2.490  0.1897  0.3614 -0.3391
  410TIP3    H1 1194   2.393   2.788   2.520 -0.7622  0.0384 -1.3799
  410TIP3    H2 1195   2.314   2.918   2.517 -0.2034  0.3790 -1.5346
  411TIP3   OH2 1196   4.954   2.091   5.096 -0.4382 -0.3682 -0.0186
  411TIP3    H1 1197   5.047   2.103   5.114 -0.1654 -2.3599  0.1684
  411TIP3    H2 1198   4.911   2.161   5.144  0.9290  0.2853  0.3114
  412TIP3   OH2 1199   3.422   0.035   1.195  0.3062  0.4891 -0.0075
  412TIP3    H1 1200   3.349  -0.007   1.240  2.0243  0.2392  2.7392
  412TIP3    H2 1201   3.381   0.088   1.127 -2.3398 -0.3853  0.7956
  413TIP3   OH2 1202   1.967   5.373   3.679  0.8548 -0.2189  0.2543
  413TIP3    H1 1203   1.954   5.280   3.701 -0.3380 -0.2956 -0.6562
  413TIP3    H2 1204   1.945   5.379   3.586  1.5838  0.8644  0.1336
  414TIP3   OH2 1205   2.998   5.012   5.178  0.3397 -0.1125  0.4645
  414TIP3    H1 1206   3.076   4.999   5.125  0.4239 -2.8198  1.1154
  414TIP3    H2 1207   3.032   5.022   5.268 -0.0157 -0.9058  0.6954
  415TIP3   OH2 1208   2.430   5.980   2.937  0.2952  0.5754 -0.2668
  415TIP3    H1 1209   2.408   6.054   2.993  0.9447  0.2145  0.4774
  415TIP3    H2 1210   2.345   5.943   2.912 -0.0085  0.3070  1.0697
  416TIP3   OH2 1211   3.418   2.855   0.776  0.0821 -0.5498  0.3827
  416TIP3    H1 1212   3.499   2.807   0.760 -0.4614 -1.1729 -0.6030
  416TIP3    H2 1213   3.389   2.883   0.689 -1.8166 -2.1252  0.4387
  417TIP3   OH2 1214   6.811   2.975   3.022 -0.6733 -0.1459 -0.0352
  417TIP3    H1 1215   6.750   2.914   3.064 -1.7128  0.1570 -1.0614
  417TIP3    H2 1216   6.823   3.045   3.086 -2.2996  0.3568 -0.2508
  418TIP3   OH2 1217   4.285   3.434   3.075 -0.5269 -0.1816  0.3959
  418TIP3    H1 1218   4.209   3.466   3.026  1.0872  4.7009  0.5285
  418TIP3    H2 1219   4.346   3.405   3.007 -1.6495 -2.2733  0.1969
  419TIP3   OH2 1220   0.167   2.353   0.051  0.2121  0.1006 -0.6169
  419TIP3    H1 1221   0.167   2.413  -0.024  1.3964  0.4321 -0.3544
  419TIP3    H2 1222   0.202   2.271   0.016  0.8489  0.2820 -0.4017
  420TIP3   OH2 1223   2.951   1.755   5.168 -0.3764  0.4930  0.1559
  420TIP3    H1 1224   2.897   1.812   5.113  0.4069  0.9343 -0.1718
  420TIP3    H2 1225   3.040   1.788   5.156  0.0579 -0.6423  0.1684
  421TIP3   OH2 1226   3.644   4.599   5.374 -0.3059  0.1403  0.1057
  421TIP3    H1 1227   3.721   4.656   5.386 -1.5063  1.9613 -0.4764
  421TIP3    H2 1228   3.662   4.553   5.293  0.6640 -0.2988  0.5469
  422TIP3   OH2 1229   5.210   3.594   1.503 -0.1513  0.7791  0.3412
  422TIP3    H1 1230   5.145   3.629   1.442  1.2175  0.2360 -1.5228
  422TIP3    H2 1231   5.294   3.625   1.469  0.8473 -1.5292  0.5047
  423TIP3   OH2 1232   2.231   3.633   3.866 -0.2272 -0.2263 -0.6107
  423TIP3    H1 1233   2.279   3.641   3.949  0.0491  3.6622 -0.9642
  423TIP3    H2 1234   2.144   3.603   3.892  0.0166  0.3769  1.0671
  424TIP3   OH2 1235   2.846   2.662   3.448 -0.0121 -0.1459  0.5744
  424TIP3    H1 1236   2.931   2.694   3.477 -0.1922  0.3326  0.5840
  424TIP3    H2 1237   2.795   2.741   3.429 -0.1474 -0.4332 -0.3317
  425TIP3   OH2 1238   4.177   2.664   0.143  0.1733  0.2072 -0.2855
  425TIP3    H1 1239   4.215   2.576   0.139 -0.0569  0.0823  0.2444
  425TIP3    H2 1240   4.227   2.714   0.079  1.5138  0.1548  0.6946
  426TIP3   OH2 1241   2.111   2.071   5.803  0.0406 -0.2273 -0.2512
  426TIP3    H1 1242   2.105   2.031   5.717 -0.1329  0.0711 -0.3770
  426TIP3    H2 1243   2.131   2.163   5.786 -0.0114 -0.1628  0.0249
  427TIP3   OH2 1244   3.128   6.301   5.689  0.3906  0.3762 -0.1071
  427TIP3    H1 1245   3.125   6.217   5.735  0.1286  0.3440 -0.1811
  427TIP3    H2 1246   3.197   6.350   5.733  0.5998  0.0917 -0.1148
  428TIP3   OH2 1247   0.853   0.303   0.221 -0.4643  0.0109  0.1814
  428TIP3    H1 1248   0.854   0.228   0.281  0.5021  0.8941  1.3270
  428TIP3    H2 1249   0.924   0.284   0.159 -0.1162  0.0374  0.5633
  429TIP3   OH2 1250   4.679   6.324   1.962 -0.0914  0.4034 -0.2909
  429TIP3    H1 1251   4.773   6.308   1.971 -0.1727  0.4126  0.7915
  429TIP3    H2 1252   4.669   6.418   1.974 -0.2673  0.3625 -0.1041
  430TIP3   OH2 1253   0.287   4.603   1.569  0.8327 -0.5941  0.1540
  430TIP3    H1 1254   0.220   4.669   1.589  0.3396 -0.8810 -0.5151
  430TIP3    H2 1255   0.343   4.602   1.647  0.6620  0.3830  0.2967
  431TIP3   OH2 1256   5.097   3.695   3.720 -0.3912  0.0483 -0.2160
  431TIP3    H1 1257   5.064   3.734   3.640 -0.1596 -1.0914 -0.8856
  431TIP3    H2 1258   5.190   3.681   3.704 -0.1884  0.4737  0.5289
  432TIP3   OH2 1259   4.754   1.112   5.513  0.1808  0.1972 -0.4248
  432TIP3    H1 1260   4.721   1.118   5.423 -0.5937 -3.5376 -0.5597
  432TIP3    H2 1261   4.792   1.024   5.518  1.8900  0.9999  2.4120
  433TIP3   OH2 1262   0.272   1.565   0.212  0.2332  0.5904 -0.1858
  433TIP3    H1 1263   0.365   1.561   0.234  0.4847 -0.1622 -1.2974
  433TIP3    H2 1264   0.229   1.511   0.278  0.6651  0.3684 -0.0869
  434TIP3   OH2 1265   2.746   3.089   3.450 -0.0287 -1.2318 -0.1950
  434TIP3    H1 1266   2.762   3.182   3.436  0.5790 -1.3934 -0.6543
  434TIP3    H2 1267   2.655   3.084   3.478  0.0278 -0.4726  0.1559
  435TIP3   OH2 1268   0.966   3.321   1.951  0.5371 -0.1088 -0.0832
  435TIP3    H1 1269   0.934   3.320   2.041 -0.4075 -0.6607 -0.4030
  435TIP3    H2 1270   0.978   3.414   1.931  0.2737  0.0471  0.4552
  436TIP3   OH2 1271   5.491   3.778   4.737 -0.2525 -0.3625  0.1609
  436TIP3    H1 1272   5.541   3.828   4.672  0.2509 -0.1072  0.7345
  436TIP3    H2 1273   5.541   3.788   4.818 -0.9687 -0.5386  0.6260
  437TIP3   OH2 1274   3.932   4.815   5.801 -0.2440 -0.2979  0.2068
  437TIP3    H1 1275   3.859   4.873   5.823  1.1581  1.8027 -0.3443
  437TIP3    H2 1276   4.010   4.867   5.819  1.1845 -2.6484  1.2758
  438TIP3   OH2 1277   2.777   1.539   5.267 -0.2091  0.2460 -0.2613
  438TIP3    H1 1278   2.818   1.504   5.347 -0.1692  0.7874 -0.0393
  438TIP3    H2 1279   2.832   1.614   5.244 -0.5880  0.4655 -0.4420
  439TIP3   OH2 1280   1.377   4.527   0.978 -0.1744 -0.1710 -0.1412
  439TIP3    H1 1281   1.470   4.541   0.963 -0.0180 -0.7432  0.2796
  439TIP3    H2 1282   1.368   4.518   1.073 -0.8974  1.5189 -0.0264
  440TIP3   OH2 1283   6.340   6.418   3.837  0.6580  0.0548 -0.0203
  440TIP3    H1 1284   6.388   6.338   3.814 -1.3359 -1.4924  0.9481
  440TIP3    H2 1285   6.375   6.443   3.923  1.6876  0.5951 -0.5767
  441TIP3   OH2 1286   3.731   0.144   0.117 -0.1813  0.5821  0.5559
  441TIP3    H1 1287   3.783   0.112   0.191 -0.1869  0.7805  0.6478
  441TIP3    H2 1288   3.779   0.221   0.086  0.8503 -0.5684 -0.8459
  442TIP3   OH2 1289   1.119   2.095   2.033  0.2584  0.6431  0.5234
  442TIP3    H1 1290   1.133   2.182   2.070 -0.6918  0.6248  0.9678
  442TIP3    H2 1291   1.192   2.043   2.067 -0.0201  0.8920  1.5317
  443TIP3   OH2 1292   0.123   4.424   4.653 -0.6796  0.0698 -0.1162
  443TIP3    H1 1293   0.169   4.349   4.691  0.9583  0.3527 -1.4256
  443TIP3    H2 1294   0.076   4.387   4.578  0.5988  0.4064 -1.1148
  444TIP3   OH2 1295   2.842   2.415   2.771 -0.3631  0.5042 -0.3957
  444TIP3    H1 1296   2.911   2.365   2.728  0.1412  0.8624  0.0000
  444TIP3    H2 1297   2.775   2.349   2.793  0.5975 -0.1180  0.7539
  445TIP3   OH2 1298   1.464   5.868   2.392 -0.1497  0.1466  0.6966
  445TIP3    H1 1299   1.425   5.910   2.468 -0.0090 -0.5685  1.1729
  445TIP3    H2 1300   1.415   5.786   2.382  0.0509  0.0811  0.2209
  446TIP3   OH2 1301   1.080   3.185   2.224 -0.0748 -0.2503 -0.2790
  446TIP3    H1 1302   1.145   3.214   2.161 -2.6593  0.6218 -2.7769
  446TIP3    H2 1303   1.015   3.256   2.227 -2.0252 -1.9404  0.3383
  447TIP3   OH2 1304   3.555   1.607   2.519 -0.3946 -0.4649  0.2966
  447TIP3    H1 1305   3.539   1.661   2.595  1.5940  0.8699 -0.1607
  447TIP3    H2 1306   3.491   1.637   2.454 -2.4857 -1.9906  1.4944
  448TIP3   OH2 1307   5.870   6.365   3.986 -0.0296 -0.3095  0.4707
  448TIP3    H1 1308   5.787   6.342   4.027  0.9348 -3.0293  1.1702
  448TIP3    H2 1309   5.856   6.349   3.893 -0.7626  0.9227  0.3583
  449TIP3   OH2 1310   5.307   4.551   3.526 -0.0059  0.6344 -0.4110
  449TIP3    H1 1311   5.332   4.608   3.598 -1.3614  1.6132 -0.6815
  449TIP3    H2 1312   5.387   4.542   3.474  1.4135 -1.2524  1.8921
  450TIP3   OH2 1313   1.479   2.719   2.433 -0.3903  0.4502  0.2079
  450TIP3    H1 1314   1.531   2.765   2.367 -0.3437 -0.6126 -0.5161
  450TIP3    H2 1315   1.442   2.644   2.387 -1.3902  0.3760  1.0835
  451TIP3   OH2 1316   2.061   4.056   0.197 -0.7144  0.3563 -0.2031
  451TIP3    H1 1317   1.969   4.048   0.170 -1.2215  2.7465  0.5197
  451TIP3    H2 1318   2.057   4.098   0.283  1.0562 -0.0255  0.1045
  452TIP3   OH2 1319   3.105   4.142   1.656 -0.2032 -0.1282  0.1749
  452TIP3    H1 1320   3.042   4.202   1.694 -1.4138 -0.4220 -1.2765
  452TIP3    H2 1321   3.153   4.195   1.592 -0.1743 -0.3128  0.0430
  453TIP3   OH2 1322   3.667   2.535   3.735  0.6934  0.2556 -0.1189
  453TIP3    H1 1323   3.600   2.592   3.772  1.2854  2.0365 -1.6033
  453TIP3    H2 1324   3.620   2.482   3.670  0.1477 -0.9825  1.2383
  454TIP3   OH2 1325   1.598   1.747   1.022  0.0246  0.1440 -0.1579
  454TIP3    H1 1326   1.681   1.710   1.054 -0.2804  1.0700  1.8945
  454TIP3    H2 1327   1.534   1.677   1.034  0.0150  0.3150  0.8989
  455TIP3   OH2 1328   0.673   4.470   0.877 -0.0394 -0.5158 -0.1092
  455TIP3    H1 1329   0.767   4.450   0.877 -0.2828 -1.7304 -0.0648
  455TIP3    H2 1330   0.631   4.389   0.850 -1.1331 -0.2766  0.7855
  456TIP3   OH2 1331   1.839   0.441   4.274  0.4588  0.3964  0.2621
  456TIP3    H1 1332   1.883   0.472   4.195  1.5417 -1.5082  0.0296
  456TIP3    H2 1333   1.755   0.407   4.243  0.7822 -0.1310 -0.0566
  457TIP3   OH2 1334   5.040   2.334   3.892 -0.1243 -0.9020 -0.3354
  457TIP3    H1 1335   5.111   2.398   3.896 -1.2018  0.6073 -2.8566
  457TIP3    H2 1336   5.041   2.302   3.802 -1.1635 -2.6516  0.2215
  458TIP3   OH2 1337   2.121   4.130   1.282  0.5118 -0.0697  0.6201
  458TIP3    H1 1338   2.107   4.194   1.353  1.5984  1.1827 -0.2460
  458TIP3    H2 1339   2.053   4.151   1.218  0.7493  0.0872  0.4202
  459TIP3   OH2 1340   1.301   3.030   3.827  0.0919 -0.5499 -0.1377
  459TIP3    H1 1341   1.212   3.050   3.799 -0.6717 -2.2021  0.9798
  459TIP3    H2 1342   1.357   3.074   3.763 -1.5229 -0.2608 -1.4029
  460TIP3   OH2 1343   5.063   2.540   1.810  0.4568 -0.1341  0.5396
  460TIP3    H1 1344   5.084   2.555   1.717  1.7133  1.0482  0.9738
  460TIP3    H2 1345   4.983   2.488   1.808  1.4140 -1.6632 -1.2257
  461TIP3   OH2 1346   4.524   4.600   3.836  0.2862 -0.1187  0.0027
  461TIP3    H1 1347   4.488   4.519   3.873 -0.1682 -0.2911 -0.8033
  461TIP3    H2 1348   4.540   4.656   3.913  0.3269 -0.8560  0.5426
  462TIP3   OH2 1349   2.938   6.507   1.274 -0.1057 -0.1663  0.3213
  462TIP3    H1 1350   3.022   6.517   1.318 -0.4389 -0.3830  1.0316
  462TIP3    H2 1351   2.948   6.553   1.191  0.5770  0.1589  0.5783
  463TIP3   OH2 1352   0.746   1.467   1.285  1.0101 -0.2710 -0.1641
  463TIP3    H1 1353   0.726   1.496   1.374 -1.6014 -0.2339 -0.6840
  463TIP3    H2 1354   0.710   1.378   1.280 -1.3733  0.6931 -1.9115
  464TIP3   OH2 1355   5.974   6.407   5.782  0.2515  0.3756 -0.1236
  464TIP3    H1 1356   5.895   6.380   5.828  0.6530 -0.1491  0.2680
  464TIP3    H2 1357   5.961   6.377   5.692  0.9355 -1.7460  0.4190
  465TIP3   OH2 1358   2.621   5.812   1.016  0.1229  0.1566 -0.0173
  465TIP3    H1 1359   2.527   5.808   0.999  0.3843 -0.0094 -1.5983
  465TIP3    H2 1360   2.632   5.891   1.069 -0.7585  1.0611 -1.1209
  466TIP3   OH2 1361   2.867   2.921   3.280  0.0646 -0.2376 -0.2744
  466TIP3    H1 1362   2.835   2.973   3.354 -0.1448  1.2095 -1.3639
  466TIP3    H2 1363   2.808   2.941   3.208 -0.2392 -2.2858 -0.6478
  467TIP3   OH2 1364   0.050   5.677   2.637  0.1992 -0.2111  0.7557
  467TIP3    H1 1365   0.102   5.707   2.711  1.6340 -0.4208 -0.1291
  467TIP3    H2 1366   0.090   5.719   2.560 -1.7637  0.6723  0.1463
  468TIP3   OH2 1367   5.560   6.285   5.413 -0.1539  0.1474  0.2648
  468TIP3    H1 1368   5.594   6.374   5.407  0.9011 -0.1994  0.7605
  468TIP3    H2 1369   5.465   6.295   5.414 -0.0413  1.3393  1.2333
  469TIP3   OH2 1370   2.957   3.695   1.689  0.0663  0.2049 -0.5746
  469TIP3    H1 1371   3.037   3.671   1.736  0.4380  1.5022 -0.5243
  469TIP3    H2 1372   2.988   3.739   1.610 -0.5949  0.9591 -0.4207
  470TIP3   OH2 1373   0.485   2.323   4.597 -0.1740  0.1442  0.5688
  470TIP3    H1 1374   0.451   2.371   4.522  0.4081  0.9257  0.8037
  470TIP3    H2 1375   0.406   2.293   4.644 -0.5597 -1.1597 -0.8277
  471TIP3   OH2 1376   5.975   3.839   1.311 -0.4970  0.0518  0.2042
  471TIP3    H1 1377   6.062   3.804   1.296 -0.4649 -0.4490  1.4427
  471TIP3    H2 1378   5.991   3.927   1.345 -0.4744 -0.0416  0.4351
  472TIP3   OH2 1379   6.010   1.838   5.569 -0.0205 -0.1060 -0.2536
  472TIP3    H1 1380   6.082   1.899   5.554  0.0368 -0.6117 -2.3253
  472TIP3    H2 1381   5.976   1.820   5.482 -0.3928 -2.6106  0.3578
  473TIP3   OH2 1382   6.991   5.688   4.414 -0.4731 -0.3797  0.0293
  473TIP3    H1 1383   6.948   5.607   4.387 -0.9186 -0.5685  1.2277
  473TIP3    H2 1384   6.918   5.748   4.433 -0.3097 -0.9170  2.7540
  474TIP3   OH2 1385   6.256   3.402   5.519  0.4226  0.5222 -0.3229
  474TIP3    H1 1386   6.224   3.408   5.429  0.6962 -0.0323 -0.4588
  474TIP3    H2 1387   6.333   3.346   5.514  1.5113  1.9259 -0.0212
  475TIP3   OH2 1388   1.267   5.552   5.216 -0.0756 -0.1009 -0.8011
  475TIP3    H1 1389   1.233   5.472   5.176  2.5405 -2.2369  0.8634
  475TIP3    H2 1390   1.223   5.557   5.301 -0.8054  0.7295 -1.2097
  476TIP3   OH2 1391   5.706   1.268   5.461 -0.3303  1.2106  0.2147
  476TIP3    H1 1392   5.732   1.314   5.541  0.3351  0.6935  0.3019
  476TIP3    H2 1393   5.788   1.251   5.414 -0.6032  0.5325 -0.0390
  477TIP3   OH2 1394   0.231   5.409   5.849 -0.2796 -0.1610  0.5279
  477TIP3    H1 1395   0.282   5.455   5.782 -1.9245 -0.2370 -0.8783
  477TIP3    H2 1396   0.272   5.322   5.855 -0.5046 -0.3984 -0.9318
  478TIP3   OH2 1397   3.553   2.705   3.349  0.0362 -0.5461  0.3754
  478TIP3    H1 1398   3.627   2.662   3.391  1.3717  0.0678 -1.2273
  478TIP3    H2 1399   3.537   2.655   3.269 -0.7322 -0.1653  0.2743
  479TIP3   OH2 1400   2.799   2.236   2.031 -0.1900  0.2355  0.1134
  479TIP3    H1 1401   2.716   2.282   2.024 -2.1543 -3.1812 -0.9852
  479TIP3    H2 1402   2.835   2.265   2.115 -1.1061  3.7728 -0.5540
  480TIP3   OH2 1403   1.353   6.158   5.403 -0.0018  0.1123 -0.2491
  480TIP3    H1 1404   1.271   6.156   5.353 -0.4670  1.2340  0.4228
  480TIP3    H2 1405   1.391   6.071   5.391  0.6093  0.7387 -3.6683
  481TIP3   OH2 1406   0.825   2.427   3.080 -0.1572 -0.9603  0.6065
  481TIP3    H1 1407   0.894   2.469   3.030 -1.3728  0.6722  0.2203
  481TIP3    H2 1408   0.758   2.494   3.091 -1.6705 -2.4504  1.0202
  482TIP3   OH2 1409   3.480   5.372   1.354 -0.4309 -0.3634  0.2171
  482TIP3    H1 1410   3.390   5.391   1.326 -0.5123  0.4040  0.9684
  482TIP3    H2 1411   3.526   5.454   1.342 -0.2482 -0.2643  1.4441
  483TIP3   OH2 1412   3.876   2.156   3.954 -0.1948 -0.2574 -0.2745
  483TIP3    H1 1413   3.882   2.061   3.955 -2.0175 -0.4577 -1.8159
  483TIP3    H2 1414   3.882   2.180   3.861  0.4115  1.1526  0.0998
  484TIP3   OH2 1415   7.033   3.015   3.451 -0.0487  0.2022 -0.0082
  484TIP3    H1 1416   7.054   2.956   3.380 -1.2051 -0.0493 -0.1550
  484TIP3    H2 1417   7.099   3.085   3.445  1.1470 -0.8866 -0.0061
  485TIP3   OH2 1418   3.199   4.938   3.020  0.4708 -0.0626 -0.9396
  485TIP3    H1 1419   3.274   4.880   3.033  0.2480 -0.0702  0.4238
  485TIP3    H2 1420   3.128   4.897   3.069 -0.0257  0.7275 -0.9822
  486TIP3   OH2 1421   6.231   2.366   0.529  0.3691 -0.4757  0.4725
  486TIP3    H1 1422   6.281   2.398   0.604 -0.4117  0.8164  0.4574
  486TIP3    H2 1423   6.298   2.338   0.466  1.2223  2.7252 -0.2234
  487TIP3   OH2 1424   5.621   2.117   3.761  0.2740 -0.2538 -0.0387
  487TIP3    H1 1425   5.551   2.172   3.728 -0.0237 -0.5249  0.1381
  487TIP3    H2 1426   5.675   2.099   3.684  0.7214  0.7828  0.0138
  488TIP3   OH2 1427   2.835   4.310   2.969  0.5087  0.0295  0.2790
  488TIP3    H1 1428   2.856   4.246   2.900 -1.9168  0.9197 -1.4198
  488TIP3    H2 1429   2.920   4.344   2.996  1.6009 -0.5835 -2.1038
  489TIP3   OH2 1430   4.259   4.558   1.776  0.4105  0.4503  0.0791
  489TIP3    H1 1431   4.331   4.506   1.740  1.1116  1.7883 -0.5612
  489TIP3    H2 1432   4.291   4.589   1.861  0.2694  0.3793  0.1581
  490TIP3   OH2 1433   3.114   1.957   4.502  0.3810  0.6935  0.1138
  490TIP3    H1 1434   3.181   1.896   4.470  0.0076 -0.3149  1.1715
  490TIP3    H2 1435   3.115   2.029   4.439  1.7610  0.2242 -0.4416
  491TIP3   OH2 1436   3.014   5.082   4.222  0.7382 -0.0299 -0.1891
  491TIP3    H1 1437   3.018   5.110   4.131  0.9338  1.3035  0.2131
  491TIP3    H2 1438   2.925   5.103   4.250  0.6649 -0.4727 -0.0828
  492TIP3   OH2 1439   2.501   0.070   3.957 -0.3431  0.0511  0.3919
  492TIP3    H1 1440   2.470   0.097   3.870 -1.5039 -0.8547  0.4947
  492TIP3    H2 1441   2.423   0.036   4.001  0.4357 -0.4982  1.3972
  493TIP3   OH2 1442   2.708   1.228   1.710 -0.1050 -0.8822  0.7062
  493TIP3    H1 1443   2.754   1.166   1.766  0.1088 -1.1015  0.2945
  493TIP3    H2 1444   2.697   1.306   1.764  1.5342 -0.4999  0.5388
  494TIP3   OH2 1445   4.482   3.913   4.924 -0.2685  0.0620  0.5262
  494TIP3    H1 1446   4.405   3.886   4.874  1.0247  0.2405 -1.7120
  494TIP3    H2 1447   4.545   3.842   4.910  1.7680  2.1749 -2.1256
  495TIP3   OH2 1448   0.789   3.735   3.057 -0.2313 -0.4966 -0.2793
  495TIP3    H1 1449   0.839   3.657   3.036 -0.8876 -0.3240 -2.7293
  495TIP3    H2 1450   0.706   3.702   3.092  1.2987 -0.7824  3.6029
  496TIP3   OH2 1451   3.065   4.209   4.232 -0.6717  0.5384  0.0147
  496TIP3    H1 1452   3.126   4.255   4.289 -0.2353 -1.0157  0.8304
  496TIP3    H2 1453   3.118   4.143   4.187 -1.5599 -0.2304  0.0613
  497TIP3   OH2 1454   1.336   4.141   2.985 -0.3806 -0.4282 -0.1694
  497TIP3    H1 1455   1.356   4.174   2.898 -0.9894  3.2560  0.8906
  497TIP3    H2 1456   1.242   4.159   2.996 -0.2071 -0.3182  1.3716
  498TIP3   OH2 1457   0.231   6.730   4.636  0.2660 -0.3458 -0.3910
  498TIP3    H1 1458   0.250   6.824   4.628  1.5875 -0.5045  0.5792
  498TIP3    H2 1459   0.137   6.724   4.618  0.7077  0.7102 -3.7624
  499TIP3   OH2 1460   5.127   1.366   3.760  0.0477  0.5500  0.3926
  499TIP3    H1 1461   5.220   1.353   3.780 -0.5406 -2.9298  1.7007
  499TIP3    H2 1462   5.083   1.356   3.844 -1.6295 -0.3747 -0.5359
  500TIP3   OH2 1463   0.886   0.819   5.743 -0.1887 -0.0537  0.1353
  500TIP3    H1 1464   0.916   0.791   5.656 -3.8152  0.1951 -1.3626
  500TIP3    H2 1465   0.870   0.737   5.790  1.0380 -0.1977  0.3406
  501TIP3   OH2 1466   6.138   1.176   4.355 -0.0694 -0.6306  0.0488
  501TIP3    H1 1467   6.175   1.263   4.369  1.2134 -1.1507  0.0798
  501TIP3    H2 1468   6.142   1.162   4.261  1.1789 -1.2304  0.1644
  502TIP3   OH2 1469   6.852   2.785   4.962  0.5894 -0.1722 -0.2147
  502TIP3    H1 1470   6.801   2.758   5.038  1.6246 -0.5617  0.3680
  502TIP3    H2 1471   6.821   2.873   4.941 -0.7163 -0.6208 -0.2456
  503TIP3   OH2 1472   2.034   3.097   5.464 -0.1117 -0.0458  0.1009
  503TIP3    H1 1473   2.114   3.117   5.417  0.1025 -0.8351  0.1160
  503TIP3    H2 1474   2.030   3.001   5.465 -0.5920 -0.0254  0.8745
  504TIP3   OH2 1475   1.671   5.924   0.343  0.0120  0.4189 -0.0386
  504TIP3    H1 1476   1.616   5.892   0.414  1.4259  0.6109  1.1974
  504TIP3    H2 1477   1.612   5.973   0.287 -0.8569  1.9384  2.0714
  505TIP3   OH2 1478   6.458   1.316   3.786  0.4778  0.0765 -0.1204
  505TIP3    H1 1479   6.513   1.306   3.863 -0.2949 -0.8738  0.3199
  505TIP3    H2 1480   6.389   1.376   3.814  1.0117  0.9038 -0.5345
  506TIP3   OH2 1481   2.783   5.989   4.219  0.4864 -0.9208 -0.1289
  506TIP3    H1 1482   2.695   5.990   4.182 -0.0943  0.3415  1.2166
  506TIP3    H2 1483   2.804   6.081   4.234  1.0761 -1.3335  1.7470
  507TIP3   OH2 1484   0.782   3.368   3.292 -0.3090  0.1821 -0.1741
  507TIP3    H1 1485   0.716   3.336   3.231  1.1380 -0.4341 -1.5017
  507TIP3    H2 1486   0.862   3.374   3.239  0.8720  0.1862  1.5389
  508TIP3   OH2 1487   0.818   6.698   3.698 -0.3359  0.3235  0.7430
  508TIP3    H1 1488   0.731   6.670   3.728 -0.5467 -1.6157 -1.2943
  508TIP3    H2 1489   0.854   6.619   3.658  2.9321  0.7334  2.5833
  509TIP3   OH2 1490   1.697   6.143   0.868  0.2535  0.0228  0.0631
  509TIP3    H1 1491   1.626   6.109   0.814  1.2655 -0.7885 -0.7929
  509TIP3    H2 1492   1.749   6.197   0.809  0.0461  1.0873  0.8252
  510TIP3   OH2 1493   6.707   4.986   3.818 -0.3949 -0.3066  0.0725
  510TIP3    H1 1494   6.792   5.019   3.848  1.8677 -1.5708 -4.1106
  510TIP3    H2 1495   6.704   4.895   3.848 -1.2662  0.2578  1.8302
  511TIP3   OH2 1496   3.098   2.762   3.489  0.0439 -0.4487  0.3517
  511TIP3    H1 1497   3.187   2.771   3.456  1.3156 -0.8370  3.3697
  511TIP3    H2 1498   3.079   2.846   3.532 -2.5167  1.0117 -3.1405
  512TIP3   OH2 1499   6.088   0.783   0.186 -0.1047 -0.4538  0.7858
  512TIP3    H1 1500   6.144   0.754   0.257 -0.3644 -1.6674  0.5233
  512TIP3    H2 1501   6.002   0.744   0.205 -0.4366  0.0380  0.3350
  513TIP3   OH2 1502   5.902   5.789   4.472  0.0846 -0.4136  0.1034
  513TIP3    H1 1503   5.886   5.842   4.393  1.3503  1.1184  0.8119
  513TIP3    H2 1504   5.976   5.832   4.514 -0.2252 -1.5238  1.8548
  514TIP3   OH2 1505   0.284   0.749   3.020  0.2186  0.0631 -0.1159
  514TIP3    H1 1506   0.237   0.830   3.040  1.8280  1.0189 -0.0682
  514TIP3    H2 1507   0.277   0.740   2.925  0.0539  0.2506 -0.1217
  515TIP3   OH2 1508   3.983   2.089   5.372 -0.4178  0.2177 -0.0046
  515TIP3    H1 1509   4.027   2.024   5.316  1.5889  2.1264 -0.8118
  515TIP3    H2 1510   3.975   2.167   5.317 -0.7350  1.3614  1.5851
  516TIP3   OH2 1511   6.097   6.291   3.157  0.0464  0.1106 -0.2136
  516TIP3    H1 1512   6.065   6.215   3.205 -0.5133 -0.2707 -1.1635
  516TIP3    H2 1513   6.156   6.255   3.092 -2.0391  0.1716 -2.2665
  517TIP3   OH2 1514   6.260   2.924   1.790  0.3694 -0.2496 -0.4821
  517TIP3    H1 1515   6.264   2.954   1.880  1.1992 -1.6316 -0.0335
  517TIP3    H2 1516   6.167   2.905   1.775 -0.0055  1.3439 -0.4232
  518TIP3   OH2 1517   2.539   1.719   0.100 -0.3303 -0.5130  0.6434
  518TIP3    H1 1518   2.535   1.780   0.026 -1.6813  0.2865  1.3535
  518TIP3    H2 1519   2.512   1.635   0.063  3.3917 -1.2907 -0.8216
  519TIP3   OH2 1520   0.489   1.197   5.178  0.4514 -0.7551  0.1665
  519TIP3    H1 1521   0.423   1.253   5.137 -0.1995 -0.8301  1.0725
  519TIP3    H2 1522   0.461   1.108   5.156  0.6174 -0.7697  0.0136
  520TIP3   OH2 1523   1.887   1.682   0.964 -0.0481  0.5857  0.4468
  520TIP3    H1 1524   1.884   1.607   0.904  1.4585  0.3446  0.6314
  520TIP3    H2 1525   1.942   1.652   1.036 -0.6582  1.3724  1.2589
  521TIP3   OH2 1526   0.741   3.459   1.099 -0.2383 -0.7907 -0.1619
  521TIP3    H1 1527   0.814   3.489   1.152  1.3567  0.1013 -2.6708
  521TIP3    H2 1528   0.716   3.535   1.047 -1.6695 -1.6159 -0.7447
  522TIP3   OH2 1529   2.415   3.787   3.364 -0.0289 -0.1760  0.3937
  522TIP3    H1 1530   2.354   3.759   3.296 -0.3443 -0.7346  0.8906
  522TIP3    H2 1531   2.501   3.765   3.329 -0.0407  1.2641 -0.6145
  523TIP3   OH2 1532   3.560   3.610   2.027  0.1018 -0.2164 -0.2489
  523TIP3    H1 1533   3.486   3.652   1.981 -0.5600 -0.8027  0.2552
  523TIP3    H2 1534   3.521   3.534   2.069  0.8652 -0.1309  0.6273
  524TIP3   OH2 1535   3.213   0.641   4.098 -0.4804 -0.1737 -0.1944
  524TIP3    H1 1536   3.151   0.624   4.027 -0.4814 -1.8813  0.1768
  524TIP3    H2 1537   3.169   0.606   4.176 -0.1500  0.9796  0.5269
  525TIP3   OH2 1538   5.653   1.841   4.466 -0.5040 -0.7284  0.5869
  525TIP3    H1 1539   5.726   1.789   4.433  0.3297  1.0107 -0.4238
  525TIP3    H2 1540   5.680   1.868   4.554  1.3479  2.0597 -0.6973
  526TIP3   OH2 1541   3.027   0.543   5.681  0.1493  0.4495 -0.0273
  526TIP3    H1 1542   2.993   0.488   5.752  1.4642  1.0317  1.1004
  526TIP3    H2 1543   3.097   0.490   5.642 -1.1334 -0.2309 -1.5192
  527TIP3   OH2 1544   6.383   0.803   1.235  0.2067 -0.2462  0.3485
  527TIP3    H1 1545   6.470   0.803   1.275  0.9590  1.3129 -1.1882
  527TIP3    H2 1546   6.362   0.895   1.222 -1.1328 -0.6378 -0.4638
  528TIP3   OH2 1547   0.101   5.036   4.226  0.4577  0.1131 -0.0048
  528TIP3    H1 1548   0.049   5.112   4.200 -0.9016 -0.1234  1.8723
  528TIP3    H2 1549   0.171   5.032   4.160 -0.4324  1.9333 -1.1494
  529TIP3   OH2 1550   7.006   5.916   0.633  0.5384 -0.3910 -0.4121
  529TIP3    H1 1551   7.014   5.908   0.538  1.4734  0.1925 -0.4006
  529TIP3    H2 1552   7.072   5.855   0.668 -0.6800 -1.5718 -0.0952
  530TIP3   OH2 1553   6.320   1.437   4.695 -0.2419 -0.0627 -0.0864
  530TIP3    H1 1554   6.295   1.473   4.610  0.1282 -0.5570 -0.4157
  530TIP3    H2 1555   6.344   1.346   4.676 -4.1222 -1.5624  1.1881
  531TIP3   OH2 1556   1.524   3.803   4.051  0.2570 -0.3208  0.0194
  531TIP3    H1 1557   1.608   3.759   4.040  0.4065  0.3510 -1.8242
  531TIP3    H2 1558   1.542   3.877   4.109  0.8337 -0.4407 -0.0020
  532TIP3   OH2 1559   0.925  -0.024   5.474  0.0747  0.0475  0.2084
  532TIP3    H1 1560   0.928   0.071   5.459  1.2304 -0.0800 -0.5557
  532TIP3    H2 1561   1.008  -0.044   5.516 -0.5648 -0.5113  1.2473
  533TIP3   OH2 1562   1.671   1.354   4.603 -0.4336 -0.0978 -0.3876
  533TIP3    H1 1563   1.608   1.293   4.642  0.5027  0.1844  1.7203
  533TIP3    H2 1564   1.753   1.336   4.649  0.9218 -0.0784 -2.6882
  534TIP3   OH2 1565   3.613   5.496   1.082 -0.4645 -0.4995 -0.0589
  534TIP3    H1 1566   3.611   5.551   1.160 -0.4628  0.4444 -0.7111
  534TIP3    H2 1567   3.699   5.513   1.042 -0.3597 -1.1668 -0.1372
  535TIP3   OH2 1568   0.692   4.310   2.372  0.4044 -0.5179  0.2876
  535TIP3    H1 1569   0.635   4.347   2.439  0.1658  0.7911 -0.5811
  535TIP3    H2 1570   0.767   4.370   2.369  0.0976 -0.1622 -1.0401
  536TIP3   OH2 1571   5.226   1.776  -0.021 -0.1216 -0.3362  0.1332
  536TIP3    H1 1572   5.298   1.836   0.000 -0.0695 -1.0062  2.0996
  536TIP3    H2 1573   5.223   1.716   0.054 -1.9470 -1.0807 -0.4896
  537TIP3   OH2 1574   1.598   1.854   1.796  0.0797  0.7413 -0.4891
  537TIP3    H1 1575   1.625   1.939   1.831 -0.9666  1.1218 -0.5828
  537TIP3    H2 1576   1.585   1.799   1.873  3.2516 -0.1693 -0.4728
  538TIP3   OH2 1577   7.069   2.360   0.176 -0.6850  0.2169  0.2604
  538TIP3    H1 1578   7.051   2.386   0.267  1.0338 -2.5354  1.5313
  538TIP3    H2 1579   7.163   2.368   0.167 -0.4930 -1.9753 -0.3483
  539TIP3   OH2 1580   2.146   0.458   5.015  0.4343  0.2563 -0.0908
  539TIP3    H1 1581   2.090   0.482   4.941 -0.1399 -0.4864  0.0859
  539TIP3    H2 1582   2.174   0.369   4.996  0.0631 -0.0419  0.7043
  540TIP3   OH2 1583   1.329   0.184   2.669 -0.0165  0.2166  0.1568
  540TIP3    H1 1584   1.235   0.167   2.672 -0.5623  2.8961  1.3567
  540TIP3    H2 1585   1.344   0.228   2.585  0.1972 -0.1788 -0.0201
  541TIP3   OH2 1586   5.940   2.546   4.970 -0.3188 -0.0649  0.0144
  541TIP3    H1 1587   5.864   2.535   4.914  0.3239  0.9751 -1.0902
  541TIP3    H2 1588   6.015   2.540   4.911  0.3600  1.4968  0.6530
  542TIP3   OH2 1589   6.652   3.363   2.862  0.5744  0.4387  0.2297
  542TIP3    H1 1590   6.643   3.458   2.856 -1.6181  0.4116  1.8560
  542TIP3    H2 1591   6.740   3.350   2.897  0.8286  1.8869  0.2096
  543TIP3   OH2 1592   6.922   1.780   3.674 -0.6359  0.4226 -1.0223
  543TIP3    H1 1593   6.944   1.699   3.629  1.5268  0.9613 -1.0676
  543TIP3    H2 1594   6.912   1.755   3.766  0.3344  0.1399 -0.9862
  544TIP3   OH2 1595   0.103   1.327   1.355 -0.1604 -0.2405 -0.3038
  544TIP3    H1 1596   0.035   1.269   1.320 -0.6737 -0.6223  1.2739
  544TIP3    H2 1597   0.102   1.312   1.449  0.6854  1.2939 -0.0174
  545TIP3   OH2 1598   1.353   2.224   5.015 -0.2582 -0.2884 -0.1023
  545TIP3    H1 1599   1.383   2.285   4.948 -1.1620  1.1954  0.7964
  545TIP3    H2 1600   1.433   2.194   5.058  0.1220  2.4915  1.3199
  546TIP3   OH2 1601   5.241   4.516   4.233 -0.2470  0.4468  0.1377
  546TIP3    H1 1602   5.222   4.602   4.272 -1.0777  0.2240  0.2440
  546TIP3    H2 1603   5.198   4.454   4.292 -0.5150  0.0264 -0.4892
  547TIP3   OH2 1604   6.725   4.307   0.105  0.0922  0.4368  0.5617
  547TIP3    H1 1605   6.731   4.396   0.070  0.7573  0.2010  0.0294
  547TIP3    H2 1606   6.639   4.302   0.146  0.2520  1.4854  1.0556
  548TIP3   OH2 1607   3.676   1.858   0.992 -0.1999  0.2965  0.0566
  548TIP3    H1 1608   3.644   1.941   1.029  0.7063  1.2887 -1.2810
  548TIP3    H2 1609   3.622   1.791   1.034  0.9657  1.2487  3.4270
  549TIP3   OH2 1610   2.991   3.938   1.511  0.2667  0.7058 -0.1893
  549TIP3    H1 1611   3.031   4.010   1.559  1.4367 -0.7212  1.0949
  549TIP3    H2 1612   3.063   3.902   1.458 -0.6949  1.4396 -2.1015
  550TIP3   OH2 1613   6.520   2.849   3.438  0.4164 -0.0490  0.2945
  550TIP3    H1 1614   6.528   2.860   3.533  0.0791 -1.2394  0.4833
  550TIP3    H2 1615   6.482   2.761   3.427  1.5271 -0.4133 -0.9709
  551TIP3   OH2 1616   6.567   1.546   5.871 -0.0151 -0.4847 -0.0185
  551TIP3    H1 1617   6.659   1.518   5.873 -0.3205 -1.8088 -1.6310
  551TIP3    H2 1618   6.518   1.464   5.865 -1.2516  0.2458 -0.1820
  552TIP3   OH2 1619   0.332   0.934   2.762 -0.5324 -0.1200  0.1760
  552TIP3    H1 1620   0.253   0.894   2.797 -1.6201  1.3637 -0.4991
  552TIP3    H2 1621   0.320   1.028   2.776  0.2367  0.2856 -1.6252
  553TIP3   OH2 1622   5.777   2.472   0.242  0.0536  0.6250 -0.0263
  553TIP3    H1 1623   5.811   2.552   0.201 -0.8838  2.5117  2.5717
  553TIP3    H2 1624   5.855   2.428   0.276  0.4688  1.2837 -0.1032
  554TIP3   OH2 1625   3.473   2.903   5.391 -0.1214 -0.3571 -0.4718
  554TIP3    H1 1626   3.519   2.956   5.456  1.1779 -0.5752 -1.1834
  554TIP3    H2 1627   3.461   2.818   5.433 -3.2236  0.7103  1.1141
  555TIP3   OH2 1628   6.331   6.187   0.470  0.2960  0.0856  0.0913
  555TIP3    H1 1629   6.375   6.154   0.392  0.9629 -2.8742  1.5394
  555TIP3    H2 1630   6.256   6.129   0.482 -1.1113  1.9037  0.4433
  556TIP3   OH2 1631   5.928   2.446   3.391  0.2121 -0.1610 -0.2736
  556TIP3    H1 1632   5.916   2.416   3.300 -0.4916 -0.0970 -0.2099
  556TIP3    H2 1633   5.843   2.483   3.415 -1.1205 -3.9587  1.8464
  557TIP3   OH2 1634   6.092   0.141   3.716  0.5957 -0.8847 -0.2596
  557TIP3    H1 1635   6.031   0.074   3.746 -1.7690  1.1632 -0.1819
  557TIP3    H2 1636   6.118   0.187   3.795  2.1552 -1.6207 -0.3178
  558TIP3   OH2 1637   0.821   6.041   1.881 -0.3789 -0.0096 -0.1590
  558TIP3    H1 1638   0.886   5.972   1.895 -0.2417  0.4681  1.7204
  558TIP3    H2 1639   0.823   6.056   1.786  1.0701 -1.1207 -0.3424
  559TIP3   OH2 1640   0.068   3.642   3.131 -0.0997 -0.1905 -0.0263
  559TIP3    H1 1641   0.045   3.661   3.222  0.9467  0.5462  0.1131
  559TIP3    H2 1642   0.075   3.547   3.128  0.9019 -0.1769  0.9595
  560TIP3   OH2 1643   1.968   3.357   4.667  0.0329 -0.0785 -0.4129
  560TIP3    H1 1644   2.015   3.310   4.736  2.0803 -1.1647 -2.4128
  560TIP3    H2 1645   1.899   3.296   4.640 -2.2114  1.2154  2.0160
  561TIP3   OH2 1646   5.790   2.103   3.120  0.1450  0.0337  0.4256
  561TIP3    H1 1647   5.713   2.146   3.157  0.8150  1.4217  0.2441
  561TIP3    H2 1648   5.765   2.083   3.030 -0.1427  0.0977  0.4885
  562TIP3   OH2 1649   2.140   2.975   2.517  0.3122 -0.0145 -0.3143
  562TIP3    H1 1650   2.119   3.028   2.594  1.4540  0.0776 -0.0446
  562TIP3    H2 1651   2.103   3.024   2.444  0.0554  0.3910  0.0796
  563TIP3   OH2 1652   4.650   4.086   5.699 -0.0250 -0.1083 -0.2231
  563TIP3    H1 1653   4.602   4.010   5.668  0.3748 -1.2492  1.8046
  563TIP3    H2 1654   4.585   4.140   5.743 -0.0521  0.0381 -0.4406
  564TIP3   OH2 1655   5.746   5.973   1.535 -0.4023 -0.0307 -0.3600
  564TIP3    H1 1656   5.699   5.931   1.462 -0.4258  0.7754 -0.8117
  564TIP3    H2 1657   5.831   5.930   1.536 -0.3345  0.0772 -0.9861
  565TIP3   OH2 1658   3.257   4.276   5.830  0.0128 -0.3041  0.1580
  565TIP3    H1 1659   3.222   4.362   5.809 -0.4659 -0.3644  0.6610
  565TIP3    H2 1660   3.280   4.238   5.745 -0.4932  0.0222 -0.1341
  566TIP3   OH2 1661   1.249   4.602   0.743  0.3792  0.3726  0.1438
  566TIP3    H1 1662   1.292   4.559   0.817  0.3072 -0.5757 -0.3502
  566TIP3    H2 1663   1.167   4.635   0.780  0.0536 -0.6387  0.3588
  567TIP3   OH2 1664   2.633   4.087   3.040  0.0295  0.4094  0.6031
  567TIP3    H1 1665   2.710   4.131   3.005 -0.1527  0.1669 -0.1099
  567TIP3    H2 1666   2.571   4.086   2.968 -0.0320 -0.8669  0.6550
  568TIP3   OH2 1667   2.786   6.474   4.329 -0.1738 -0.1200 -0.8215
  568TIP3    H1 1668   2.704   6.523   4.334  1.4847  2.9998 -1.5431
  568TIP3    H2 1669   2.841   6.514   4.397  2.1220  0.9330 -3.1362
  569TIP3   OH2 1670   7.078   0.012   3.598  0.6265  0.1359 -0.1223
  569TIP3    H1 1671   7.170   0.022   3.621  1.0059 -1.7725 -0.6088
  569TIP3    H2 1672   7.071   0.043   3.508  1.2525 -1.5059 -0.7759
  570TIP3   OH2 1673   0.917   2.994   4.360 -0.0492  0.2533  0.2511
  570TIP3    H1 1674   0.859   2.975   4.287 -0.5944  0.0547  0.7305
  570TIP3    H2 1675   0.937   2.908   4.398 -1.1495  0.4622  1.3766
  571TIP3   OH2 1676   5.137   0.077   4.038 -0.1922 -0.0065 -0.0342
  571TIP3    H1 1677   5.182   0.009   3.987 -2.0691 -1.0300 -0.4241
  571TIP3    H2 1678   5.112   0.143   3.973  0.8030  0.6098  0.1965
  572TIP3   OH2 1679   3.377   0.440   3.707  0.0895  0.0982 -0.6738
  572TIP3    H1 1680   3.363   0.534   3.714  1.2323  0.2350 -0.0695
  572TIP3    H2 1681   3.289   0.402   3.714 -0.3179  1.0769 -0.3574
  573TIP3   OH2 1682   2.547   3.953   2.597  0.1400  0.8022  0.6002
  573TIP3    H1 1683   2.634   3.981   2.627  0.5394  0.1392  0.0934
  573TIP3    H2 1684   2.551   3.858   2.599  0.8363  0.6193 -3.2568
  574TIP3   OH2 1685   3.154   6.623   4.232  0.2834  0.0612 -0.2754
  574TIP3    H1 1686   3.148   6.718   4.223  1.8108  0.2608  0.3599
  574TIP3    H2 1687   3.121   6.604   4.320  0.8307  0.1388 -0.0443
  575TIP3   OH2 1688   7.155   3.830   5.433  0.6998  0.3657  0.0771
  575TIP3    H1 1689   7.238   3.833   5.480  0.6450  0.7063  0.1557
  575TIP3    H2 1690   7.150   3.914   5.387  1.0073 -0.1850 -0.9783
  576TIP3   OH2 1691   2.826   4.126   1.266  0.3830  0.1341  0.3538
  576TIP3    H1 1692   2.869   4.046   1.235  0.1682 -0.7956  2.3178
  576TIP3    H2 1693   2.845   4.191   1.198 -1.5745 -2.1422 -2.6088
  577TIP3   OH2 1694   1.868   0.606   3.492 -0.6647 -0.3390 -0.0914
  577TIP3    H1 1695   1.807   0.550   3.540  1.4086 -1.5357  1.3130
  577TIP3    H2 1696   1.906   0.548   3.426 -0.7118  0.2716 -0.6640
  578TIP3   OH2 1697   1.423   3.242   0.636  0.2022 -0.1668  0.2134
  578TIP3    H1 1698   1.489   3.184   0.673  2.0644  1.6892  0.0106
  578TIP3    H2 1699   1.472   3.320   0.610 -1.9572  0.9403 -0.7973
  579TIP3   OH2 1700   5.360   6.595   0.025  0.1249  0.1107 -0.2379
  579TIP3    H1 1701   5.320   6.573   0.110  1.5760  0.1876  0.4954
  579TIP3    H2 1702   5.322   6.532  -0.036 -2.9491  1.6523 -0.1450
  580TIP3   OH2 1703   5.146   1.871   5.833  0.1047  0.1932  0.5008
  580TIP3    H1 1704   5.160   1.954   5.789  1.7469 -0.4230 -0.2139
  580TIP3    H2 1705   5.234   1.839   5.853 -0.3599 -2.3630 -1.1269
  581TIP3   OH2 1706   3.820   2.502   1.943  0.0567 -0.0674  0.0726
  581TIP3    H1 1707   3.840   2.491   2.036  0.7743 -0.4260 -0.1119
  581TIP3    H2 1708   3.903   2.531   1.905 -0.3198  0.3810 -0.4036
  582TIP3   OH2 1709   5.564   5.371   2.833 -0.1603  0.3487  0.0761
  582TIP3    H1 1710   5.658   5.383   2.842 -0.2580  1.2236  0.0444
  582TIP3    H2 1711   5.526   5.414   2.909 -0.5524  0.3592 -0.1193
  583TIP3   OH2 1712   6.727   6.104   4.512 -0.3565  0.1676 -1.0400
  583TIP3    H1 1713   6.634   6.090   4.495 -0.6988  1.2547 -0.1944
  583TIP3    H2 1714   6.734   6.198   4.526  0.4534 -0.1736  1.2472
  584TIP3   OH2 1715   6.584   4.631   3.646  0.0133 -0.7499 -0.0919
  584TIP3    H1 1716   6.661   4.629   3.589 -0.9009  0.4301 -1.4345
  584TIP3    H2 1717   6.510   4.645   3.587 -0.8755  1.8129  1.4343
  585TIP3   OH2 1718   7.059   4.021   1.282 -0.1564  0.2253  0.2935
  585TIP3    H1 1719   7.140   4.073   1.284 -0.0926  0.1148  1.9331
  585TIP3    H2 1720   7.033   4.021   1.190  1.1604  1.1157 -0.1117
  586TIP3   OH2 1721   1.655   3.239   2.613  0.7638  0.6160 -0.0715
  586TIP3    H1 1722   1.741   3.198   2.599  0.6496  0.2064  0.4253
  586TIP3    H2 1723   1.593   3.178   2.575  0.6613  0.7510 -0.1228
  587TIP3   OH2 1724   6.765   1.587   5.427  0.1798 -0.9428  0.3309
  587TIP3    H1 1725   6.827   1.519   5.453  0.0648 -0.9786  0.5131
  587TIP3    H2 1726   6.722   1.551   5.349 -1.3417 -1.9871  1.5773
  588TIP3   OH2 1727   3.564   0.249   1.787 -0.4445  0.4932 -0.1566
  588TIP3    H1 1728   3.496   0.182   1.790 -0.7724  0.6300 -2.7134
  588TIP3    H2 1729   3.646   0.200   1.777 -0.5011  0.4201 -0.2664
  589TIP3   OH2 1730   6.133   2.219   2.180  0.3116  0.4876 -0.1768
  589TIP3    H1 1731   6.163   2.305   2.207 -0.0380  0.7770 -0.6873
  589TIP3    H2 1732   6.060   2.236   2.120 -0.5126 -0.1850  0.6002
  590TIP3   OH2 1733   5.225   4.562   2.953  0.2146  0.3453 -0.5893
  590TIP3    H1 1734   5.286   4.516   2.895  0.2791 -2.2341  1.3398
  590TIP3    H2 1735   5.277   4.583   3.031 -0.6396  0.7586 -0.1132
  591TIP3   OH2 1736   0.936   5.613   4.982  0.1563 -0.4076  0.3391
  591TIP3    H1 1737   0.981   5.550   4.926  0.1730 -0.6400  0.6115
  591TIP3    H2 1738   0.967   5.594   5.070 -0.8766 -0.9548  0.6139
  592TIP3   OH2 1739   2.395   2.959   1.555  0.0515 -0.7719  0.1142
  592TIP3    H1 1740   2.442   2.942   1.473 -1.2305  2.0120 -1.3102
  592TIP3    H2 1741   2.439   3.035   1.593 -0.8490 -0.5811  0.8019
  593TIP3   OH2 1742   6.639   1.419   3.278  0.1139  0.5571 -0.0076
  593TIP3    H1 1743   6.655   1.356   3.349  1.0280 -1.9137 -2.2401
  593TIP3    H2 1744   6.702   1.490   3.294  0.9996 -0.4422  1.0908
  594TIP3   OH2 1745   7.181   3.576   1.314 -0.5292  0.6568 -0.2588
  594TIP3    H1 1746   7.157   3.486   1.337  1.4483  0.1568  0.0358
  594TIP3    H2 1747   7.160   3.583   1.221 -2.4096  0.5244  0.1162
  595TIP3   OH2 1748   5.014   0.066   4.952  0.8063 -0.2948  0.2404
  595TIP3    H1 1749   5.080   0.123   4.911  1.1338 -1.3107 -0.7008
  595TIP3    H2 1750   4.931   0.094   4.913  0.9377 -0.3203 -0.0627
  596TIP3   OH2 1751   3.191   3.808   2.364 -0.2804  0.1030 -0.5402
  596TIP3    H1 1752   3.245   3.849   2.297 -0.7005 -1.7695 -2.1034
  596TIP3    H2 1753   3.221   3.717   2.368 -1.0981 -0.1497  0.9441
  597TIP3   OH2 1754   3.817   2.624   2.208  1.0040  0.8868 -0.4553
  597TIP3    H1 1755   3.913   2.619   2.197  1.4706  1.2229  2.6625
  597TIP3    H2 1756   3.805   2.657   2.297 -2.0404 -0.6298 -0.1937
  598TIP3   OH2 1757   1.244   3.985   0.172 -0.4158  0.2872  0.3832
  598TIP3    H1 1758   1.162   4.025   0.143 -0.5366 -0.8897 -1.0183
  598TIP3    H2 1759   1.300   4.059   0.195 -0.0716  1.5016 -3.5638
  599TIP3   OH2 1760   0.644   5.302   5.180  0.3225 -0.0177  0.8120
  599TIP3    H1 1761   0.585   5.287   5.255 -1.5595  0.7744 -0.4317
  599TIP3    H2 1762   0.594   5.358   5.121  2.5956  1.2167 -0.0654
  600TIP3   OH2 1763   3.962   5.018   3.485  0.4071 -0.0804  0.1702
  600TIP3    H1 1764   3.995   5.099   3.446  0.8137 -1.9114 -3.7389
  600TIP3    H2 1765   3.869   5.017   3.463  0.2705 -0.4467  0.7461
  601TIP3   OH2 1766   5.119   6.579   5.768  0.4091  0.6002 -0.4145
  601TIP3    H1 1767   5.056   6.636   5.811  1.1139  1.5404 -0.6052
  601TIP3    H2 1768   5.146   6.626   5.690  2.3247  0.8383  0.3297
  602TIP3   OH2 1769   1.690   4.238   2.428  0.7044  0.3841 -0.2885
  602TIP3    H1 1770   1.773   4.279   2.404  0.3192  0.7076 -1.1099
  602TIP3    H2 1771   1.709   4.191   2.510  2.0250 -0.6169 -1.1248
  603TIP3   OH2 1772   3.029   0.507   3.486  0.0495  0.6801  0.1924
  603TIP3    H1 1773   3.080   0.431   3.515 -0.9808 -0.7811 -1.5955
  603TIP3    H2 1774   3.056   0.578   3.544  2.7603 -0.4669  0.4689
  604TIP3   OH2 1775   1.302   2.558   5.185 -0.2937  0.2347 -0.1436
  604TIP3    H1 1776   1.352   2.639   5.202  1.3490 -0.9544  1.0408
  604TIP3    H2 1777   1.307   2.546   5.090  4.1403 -1.1946  0.0463
  605TIP3   OH2 1778   0.141   0.162   1.029  0.2153  0.1365  0.8138
  605TIP3    H1 1779   0.113   0.100   1.097 -0.3718  0.3294  0.7459
  605TIP3    H2 1780   0.076   0.153   0.959  0.8030 -0.0403  0.2831
  606TIP3   OH2 1781   5.958   3.303   4.378  0.2307  0.3168 -0.2477
  606TIP3    H1 1782   5.889   3.369   4.381  0.3990  0.4874 -0.1186
  606TIP3    H2 1783   5.927   3.234   4.437 -0.0229  0.2030 -0.5124
  607TIP3   OH2 1784   6.142   2.765   3.397 -0.2768 -0.1863  0.5684
  607TIP3    H1 1785   6.190   2.777   3.479 -0.9125  1.0600  0.7757
  607TIP3    H2 1786   6.071   2.829   3.400 -1.1556 -1.0761 -0.3401
  608TIP3   OH2 1787   6.702   0.078   5.213 -0.4485 -0.2352  0.0983
  608TIP3    H1 1788   6.715   0.030   5.295  0.0673 -0.3964 -0.0701
  608TIP3    H2 1789   6.662   0.160   5.239 -0.0875 -0.1951  0.5380
  609TIP3   OH2 1790   2.416   3.229   0.439  0.2077  0.2501 -0.1017
  609TIP3    H1 1791   2.355   3.158   0.459 -0.7093  1.5539  2.0554
  609TIP3    H2 1792   2.457   3.250   0.522  1.4444  1.3951 -0.9483
  610TIP3   OH2 1793   2.850   5.717   3.149  0.4472 -0.2314  0.4827
  610TIP3    H1 1794   2.796   5.718   3.069 -0.3908  1.6351  1.0302
  610TIP3    H2 1795   2.893   5.802   3.150 -1.4334  0.8294  3.2153
  611TIP3   OH2 1796   4.126   2.618   4.409 -0.1048  0.5251 -0.1971
  611TIP3    H1 1797   4.071   2.683   4.365 -0.4999 -0.2449 -0.8605
  611TIP3    H2 1798   4.194   2.670   4.452 -1.1997  1.4770  0.4447
  612TIP3   OH2 1799   1.984   3.818   5.835 -0.1109 -0.3712  0.1198
  612TIP3    H1 1800   2.079   3.823   5.825 -0.2879  0.3018 -1.4718
  612TIP3    H2 1801   1.960   3.737   5.791 -0.3775  0.0012 -0.4261
  613TIP3   OH2 1802   2.379   6.373   5.780 -0.4512 -0.1699  0.3851
  613TIP3    H1 1803   2.473   6.384   5.774 -0.3312 -1.2676  0.0949
  613TIP3    H2 1804   2.363   6.352   5.872 -0.7127  2.4216  1.0122
  614TIP3   OH2 1805   2.551   5.590   3.991  0.0472 -0.4885  0.4644
  614TIP3    H1 1806   2.542   5.569   3.898  1.6812  1.8300 -0.3015
  614TIP3    H2 1807   2.464   5.620   4.018  0.0700  0.9559 -0.9458
  615TIP3   OH2 1808   1.112   1.665   4.441  0.7103  0.0504 -0.2264
  615TIP3    H1 1809   1.161   1.747   4.450  1.1888 -0.2704  0.1461
  615TIP3    H2 1810   1.076   1.667   4.352  1.1837  0.4107 -0.4089
  616TIP3   OH2 1811   4.848   1.556   4.714 -0.5853  0.2584  0.3058
  616TIP3    H1 1812   4.807   1.571   4.629  0.5166  1.4341 -0.0590
  616TIP3    H2 1813   4.887   1.469   4.706  0.5519  0.8291 -0.8763
  617TIP3   OH2 1814   0.902   5.486   2.636  0.2817 -0.0718 -0.0764
  617TIP3    H1 1815   0.815   5.451   2.618 -0.0776  0.7014  0.1438
  617TIP3    H2 1816   0.895   5.579   2.616  0.5373  0.3714  1.7463
  618TIP3   OH2 1817   2.989   1.740   0.304 -0.1661  0.2350 -0.3769
  618TIP3    H1 1818   3.041   1.780   0.373 -2.3676 -0.4587  1.8615
  618TIP3    H2 1819   2.980   1.808   0.238 -0.5200  2.1239  1.4803
  619TIP3   OH2 1820   3.713   3.627   5.221 -0.2140 -0.0393  0.0631
  619TIP3    H1 1821   3.669   3.657   5.301 -1.3973  0.3150 -0.6973
  619TIP3    H2 1822   3.735   3.707   5.174  1.2206 -0.2110  0.3802
  620TIP3   OH2 1823   0.736   3.333   0.784 -0.1554 -0.6317  0.4426
  620TIP3    H1 1824   0.719   3.293   0.869 -1.1693  0.8478  0.9684
  620TIP3    H2 1825   0.679   3.286   0.724 -0.8058 -0.4644  0.9159
  621TIP3   OH2 1826   4.715   5.285   4.122  0.4068 -0.8151 -0.1587
  621TIP3    H1 1827   4.629   5.324   4.134  1.0449  1.1233 -1.4622
  621TIP3    H2 1828   4.770   5.326   4.189  0.9974  0.3231 -1.3031
  622TIP3   OH2 1829   6.439   2.657   1.170  0.5453 -0.4355 -0.0255
  622TIP3    H1 1830   6.488   2.584   1.131 -1.0525 -0.7439 -1.5441
  622TIP3    H2 1831   6.375   2.614   1.228  0.2173 -0.1854 -0.2008
  623TIP3   OH2 1832   1.537   0.389   0.791  0.1704 -0.8148 -0.4338
  623TIP3    H1 1833   1.596   0.321   0.824  1.0400  0.3632  0.5239
  623TIP3    H2 1834   1.596   0.454   0.751 -0.4406  0.4401  0.6490
  624TIP3   OH2 1835   5.372   6.726   1.584  0.1835 -0.5877  0.4262
  624TIP3    H1 1836   5.320   6.656   1.622  1.7276 -1.8543  0.3077
  624TIP3    H2 1837   5.463   6.695   1.590  0.7959  0.8106 -0.8691
  625TIP3   OH2 1838   3.283   6.078   1.063 -0.3071  0.1777 -0.2065
  625TIP3    H1 1839   3.294   6.031   1.146 -2.4507  0.2038  0.1411
  625TIP3    H2 1840   3.235   6.158   1.087  2.5807  2.3221 -0.8883
  626TIP3   OH2 1841   5.378   0.113   4.137 -0.4012 -0.0069  0.0885
  626TIP3    H1 1842   5.293   0.115   4.092 -0.3702  0.5137  0.0459
  626TIP3    H2 1843   5.442   0.129   4.068 -0.2110 -1.1273 -0.0008
  627TIP3   OH2 1844   6.269   5.282   1.727 -0.3869 -0.1219 -0.3457
  627TIP3    H1 1845   6.268   5.363   1.778  0.3226 -0.5060  0.3109
  627TIP3    H2 1846   6.355   5.283   1.684 -1.6384  1.0699 -3.0394
  628TIP3   OH2 1847   4.237   2.817   2.491 -0.2734 -0.1011 -0.1780
  628TIP3    H1 1848   4.328   2.822   2.465  0.9268  1.3046  3.5937
  628TIP3    H2 1849   4.216   2.723   2.490  0.9915 -0.3880 -1.6553
  629TIP3   OH2 1850   0.462   1.321   4.849  0.0369  0.9997  0.2823
  629TIP3    H1 1851   0.404   1.351   4.918  0.5983  1.8202  0.4112
  629TIP3    H2 1852   0.420   1.242   4.815 -0.3208  0.6718  1.4474
  630TIP3   OH2 1853   4.627   5.348   1.826  0.4370 -0.6300 -0.2230
  630TIP3    H1 1854   4.587   5.312   1.747 -0.2392 -1.6822  0.5840
  630TIP3    H2 1855   4.711   5.383   1.796  0.5129 -1.6686 -1.2738
  631TIP3   OH2 1856   1.079   2.600   1.742  0.1751  0.3162 -0.5201
  631TIP3    H1 1857   1.049   2.510   1.729  1.9114 -0.3167 -0.4348
  631TIP3    H2 1858   1.093   2.633   1.653  1.0161 -0.0563 -0.5402
  632TIP3   OH2 1859   6.976   4.445   0.592 -0.1824  0.2165  0.9349
  632TIP3    H1 1860   7.010   4.408   0.674 -0.0695 -0.1637  0.7193
  632TIP3    H2 1861   6.930   4.372   0.550 -1.7116  0.8336  1.4496
  633TIP3   OH2 1862   0.760   4.174   3.497 -0.0806 -0.9086  0.1257
  633TIP3    H1 1863   0.754   4.208   3.407 -0.7169 -0.5761  0.2837
  633TIP3    H2 1864   0.708   4.236   3.549  0.8773 -0.6874  0.8436
  634TIP3   OH2 1865   0.720   1.520   3.992  0.2702 -0.3519  0.9716
  634TIP3    H1 1866   0.719   1.615   3.990 -0.5273 -0.3572  0.0731
  634TIP3    H2 1867   0.771   1.497   4.069  0.2626  0.8044  1.3283
  635TIP3   OH2 1868   2.689   3.742   1.113 -0.4165 -0.5443 -0.1721
  635TIP3    H1 1869   2.689   3.696   1.030  0.6410  0.0232 -0.5094
  635TIP3    H2 1870   2.607   3.792   1.113  1.1064  2.2356 -2.5022
  636TIP3   OH2 1871   1.904   5.973   2.772 -0.0876 -0.3076  0.1077
  636TIP3    H1 1872   1.876   5.881   2.781 -0.0804 -0.2436  0.8471
  636TIP3    H2 1873   1.938   5.996   2.858 -0.1957  0.4315 -0.0400
  637TIP3   OH2 1874   6.693   0.359   0.838  0.0929  0.0555 -0.6681
  637TIP3    H1 1875   6.703   0.345   0.744  2.0644  1.1316 -0.6674
  637TIP3    H2 1876   6.663   0.450   0.846  1.1383  0.3693 -0.2296
  638TIP3   OH2 1877   3.543   6.288   2.150 -0.5531 -0.0529  0.0113
  638TIP3    H1 1878   3.454   6.253   2.155 -0.9326  0.8368 -0.3843
  638TIP3    H2 1879   3.560   6.298   2.057  0.2737 -0.9630  0.0487
  639TIP3   OH2 1880   3.392   0.284   4.836  0.0097 -0.0169  0.2515
  639TIP3    H1 1881   3.339   0.251   4.764  0.3336 -0.5970  0.2715
  639TIP3    H2 1882   3.463   0.221   4.845  1.0502  1.0585 -0.1598
  640TIP3   OH2 1883   6.981   2.264   3.526  0.1924 -0.4207  0.2463
  640TIP3    H1 1884   7.005   2.186   3.577 -2.7041 -1.0871  0.7596
  640TIP3    H2 1885   6.898   2.292   3.563 -0.8416  0.5253 -2.5495
  641TIP3   OH2 1886   6.045   2.752   1.386  0.6150  0.2146  0.0614
  641TIP3    H1 1887   6.003   2.732   1.302  0.2253  0.4778  0.1914
  641TIP3    H2 1888   5.973   2.760   1.448  0.8611  0.5838  0.3060
  642TIP3   OH2 1889   6.974   3.837   0.025 -0.3860 -0.6620  0.2293
  642TIP3    H1 1890   6.930   3.885   0.095 -0.5571  1.3945 -1.1884
  642TIP3    H2 1891   6.910   3.771  -0.003 -1.9283  1.1014 -0.6025
  643TIP3   OH2 1892   2.526   2.988   3.801 -0.4589  0.2866 -0.2899
  643TIP3    H1 1893   2.476   2.944   3.731  1.5919 -0.2714 -1.4810
  643TIP3    H2 1894   2.559   3.068   3.759 -0.3056  0.6204  0.4577
  644TIP3   OH2 1895   4.354   2.671   3.128  0.3791  0.2892 -0.0129
  644TIP3    H1 1896   4.297   2.748   3.135  0.1449  0.1943 -0.8403
  644TIP3    H2 1897   4.442   2.707   3.117  0.1833  0.4467 -1.1152
  645TIP3   OH2 1898   7.073   1.811   0.469  0.1597 -0.1704  0.3519
  645TIP3    H1 1899   7.087   1.836   0.378 -1.9470 -0.0380  0.0171
  645TIP3    H2 1900   7.155   1.836   0.513 -0.0102  2.9420 -0.8366
  646TIP3   OH2 1901   2.692   1.660   0.311  0.2142 -0.3835 -0.4291
  646TIP3    H1 1902   2.633   1.682   0.239 -2.0871 -0.1316  1.4023
  646TIP3    H2 1903   2.689   1.736   0.369  2.5865 -0.2737 -0.3717
  647TIP3   OH2 1904   2.187   0.710   4.724  0.1869 -0.1032 -0.3548
  647TIP3    H1 1905   2.101   0.679   4.755 -0.2715  0.1020 -1.3826
  647TIP3    H2 1906   2.181   0.806   4.733  0.1594 -0.0631 -0.7907
  648TIP3   OH2 1907   0.541   0.299   1.887 -0.0771 -0.7432 -0.3795
  648TIP3    H1 1908   0.570   0.292   1.796 -1.2881 -2.5999 -0.6772
  648TIP3    H2 1909   0.623   0.300   1.938  0.7758  3.0671 -1.4879
  649TIP3   OH2 1910   0.209   0.342   4.030  0.3473  0.2990 -0.9449
  649TIP3    H1 1911   0.168   0.388   3.957  0.8612  1.3078 -0.6142
  649TIP3    H2 1912   0.303   0.354   4.016  0.6148 -2.1565 -1.8133
  650TIP3   OH2 1913   0.186   1.609   5.080  0.2566  0.1665 -0.0379
  650TIP3    H1 1914   0.209   1.690   5.035  2.1216 -0.4256 -0.2323
  650TIP3    H2 1915   0.198   1.629   5.173  1.7366 -0.1358 -0.1342
  651TIP3   OH2 1916   0.907   1.067   0.656 -0.0902 -0.0512  0.1699
  651TIP3    H1 1917   0.910   1.072   0.751  0.7641  1.1678  0.0973
  651TIP3    H2 1918   0.836   1.005   0.638 -1.4029  0.9547  1.5767
  652TIP3   OH2 1919   2.289   1.528   5.015 -0.5775  0.3900  0.1647
  652TIP3    H1 1920   2.307   1.510   4.923 -1.6627  4.5557 -1.0816
  652TIP3    H2 1921   2.370   1.505   5.060  1.1367  1.0932 -2.3269
  653TIP3   OH2 1922   4.490   2.888   5.180 -0.2409 -0.3474  0.6082
  653TIP3    H1 1923   4.450   2.813   5.226 -1.1762 -0.5752 -0.5265
  653TIP3    H2 1924   4.522   2.851   5.098 -2.8089  0.8676 -1.0442
  654TIP3   OH2 1925   6.640   4.052   0.294 -0.2511  0.1831 -0.0409
  654TIP3    H1 1926   6.573   4.004   0.342  0.2546  0.1121  0.6052
  654TIP3    H2 1927   6.611   4.143   0.296 -1.2233 -0.0642 -1.2878
  655TIP3   OH2 1928   6.370   1.555   0.181 -0.5339  0.3092 -0.5052
  655TIP3    H1 1929   6.463   1.565   0.202 -0.2486  1.0281 -1.9814
  655TIP3    H2 1930   6.339   1.487   0.241  0.7183  0.6964  0.6389
  656TIP3   OH2 1931   1.886   4.314   5.354 -0.0950  0.0297 -0.0332
  656TIP3    H1 1932   1.920   4.368   5.425 -1.5816 -0.9687  1.5188
  656TIP3    H2 1933   1.794   4.339   5.347 -0.2461 -0.6907 -0.8449
  657TIP3   OH2 1934   2.700   5.075   2.769  0.2813  0.4056 -0.2933
  657TIP3    H1 1935   2.751   5.038   2.841  1.3309  0.6809 -0.8817
  657TIP3    H2 1936   2.611   5.041   2.783  0.4138  0.6125  1.2379
  658TIP3   OH2 1937   6.472   3.056   3.964  0.2938 -0.2441  0.4640
  658TIP3    H1 1938   6.454   3.117   3.892  0.4306 -0.4488  0.2558
  658TIP3    H2 1939   6.387   3.045   4.008  0.1968 -0.1669  0.2948
  659TIP3   OH2 1940   3.211   6.727   1.042  0.4913 -0.1818  0.1093
  659TIP3    H1 1941   3.172   6.641   1.026  0.1502  0.0670 -0.4419
  659TIP3    H2 1942   3.218   6.766   0.955  0.0399  0.6048  0.4118
  660TIP3   OH2 1943   4.849   0.814   4.354  0.5436  0.6346 -0.4547
  660TIP3    H1 1944   4.879   0.866   4.279  2.4763  1.2756  0.6993
  660TIP3    H2 1945   4.824   0.879   4.420  0.5582  0.0959  0.0956
  661TIP3   OH2 1946   0.032   3.950   4.702 -0.6738 -0.3361  0.3939
  661TIP3    H1 1947  -0.032   3.948   4.632 -0.4503  0.3803  0.1570
  661TIP3    H2 1948   0.007   4.026   4.755  0.0230 -0.0014  0.2525
  662TIP3   OH2 1949   3.132   4.616   3.325  0.1151  0.1939 -0.2401
  662TIP3    H1 1950   3.118   4.523   3.343  0.1304  0.3061  0.3860
  662TIP3    H2 1951   3.140   4.656   3.412  0.7594  0.6792 -0.5163
  663TIP3   OH2 1952   6.921   5.115   4.234  0.5099  0.6465 -0.3724
  663TIP3    H1 1953   6.875   5.147   4.311 -1.1139 -0.3003 -0.8849
  663TIP3    H2 1954   6.943   5.024   4.256 -1.2232 -0.0958 -1.4802
  664TIP3   OH2 1955   4.671   5.294   3.656  0.4253  0.1402 -0.2807
  664TIP3    H1 1956   4.717   5.215   3.628  1.5711  0.7874 -0.2709
  664TIP3    H2 1957   4.717   5.321   3.736 -0.8018  0.0820  0.4715
  665TIP3   OH2 1958   7.105   6.509   0.530 -0.3001  0.4692  0.2404
  665TIP3    H1 1959   7.076   6.459   0.454 -0.6619  0.1089  0.6131
  665TIP3    H2 1960   7.064   6.595   0.519  0.5565  0.7981 -0.5512
  666TIP3   OH2 1961   4.169   1.436   5.724 -0.2053  0.2093 -0.0619
  666TIP3    H1 1962   4.254   1.450   5.766 -0.6404  1.6269  0.4089
  666TIP3    H2 1963   4.108   1.490   5.775 -1.3716 -0.6560 -0.4871
  667TIP3   OH2 1964   2.273   0.628   2.716  0.3438 -0.0775 -0.4373
  667TIP3    H1 1965   2.295   0.711   2.674  1.8843  0.5759  1.4840
  667TIP3    H2 1966   2.335   0.565   2.678  0.1904 -0.0144 -0.7957
  668TIP3   OH2 1967   4.551   4.893   4.959  0.2941  0.1955  0.0893
  668TIP3    H1 1968   4.486   4.825   4.973  0.2918 -0.7702 -3.5328
  668TIP3    H2 1969   4.511   4.952   4.895  1.8417  1.2989  0.0727
  669TIP3   OH2 1970   6.755   0.829   2.894 -0.2966  0.4695 -0.6035
  669TIP3    H1 1971   6.709   0.746   2.882 -2.2554  1.2398  1.0926
  669TIP3    H2 1972   6.713   0.888   2.831  0.2820  0.4998 -0.9693
  670TIP3   OH2 1973   3.888   3.716   2.933  0.5052  0.5930  0.0417
  670TIP3    H1 1974   3.946   3.735   2.859  1.1125  0.3419  0.4495
  670TIP3    H2 1975   3.870   3.622   2.926 -0.8882  0.8828 -0.8119
  671TIP3   OH2 1976   0.180   0.825   5.655  0.7597  0.0268 -0.2619
  671TIP3    H1 1977   0.255   0.837   5.713 -0.4663  1.2254  1.1301
  671TIP3    H2 1978   0.151   0.735   5.672  1.8938 -0.4921 -0.8922
  672TIP3   OH2 1979   0.166   3.176   1.363  0.3076  0.8759 -0.2181
  672TIP3    H1 1980   0.237   3.129   1.409 -0.7330  0.2292  0.7838
  672TIP3    H2 1981   0.137   3.242   1.426  0.7789  1.9350 -1.0750
  673TIP3   OH2 1982   2.827   3.099   4.052  0.4550  0.0016 -0.5038
  673TIP3    H1 1983   2.905   3.056   4.087 -0.5151 -1.4779 -0.0770
  673TIP3    H2 1984   2.791   3.037   3.989 -1.7338 -0.4792  1.1221
  674TIP3   OH2 1985   4.151   5.464   5.104 -0.1060  0.2994  0.2597
  674TIP3    H1 1986   4.224   5.403   5.109  1.9631  2.7114  2.3645
  674TIP3    H2 1987   4.081   5.423   5.154  0.3432 -1.3450 -0.4079
  675TIP3   OH2 1988   4.632   4.543   0.126  0.3705  0.1269 -0.3363
  675TIP3    H1 1989   4.647   4.482   0.054  0.8517  1.4632 -1.4236
  675TIP3    H2 1990   4.713   4.594   0.132 -0.2493  1.0930  0.0921
  676TIP3   OH2 1991   3.073   0.820   5.723  0.0127 -0.3823  0.0896
  676TIP3    H1 1992   3.002   0.868   5.679 -0.1029 -0.3353  0.3258
  676TIP3    H2 1993   3.065   0.730   5.689 -0.6303 -0.5575  0.6623
  677TIP3   OH2 1994   1.931   6.010   4.047  0.1420  0.4068  0.1169
  677TIP3    H1 1995   1.884   5.970   3.974 -0.9283  1.4688  0.1800
  677TIP3    H2 1996   1.868   6.072   4.085  0.6460 -0.1307  1.9609
  678TIP3   OH2 1997   3.778   2.369   1.354 -0.3134 -0.0129  0.0348
  678TIP3    H1 1998   3.840   2.414   1.297 -0.8751 -0.5120 -1.0006
  678TIP3    H2 1999   3.798   2.276   1.343 -1.5663 -0.2098 -0.7100
  679TIP3   OH2 2000   1.110   0.290   4.463 -0.1366 -0.2845  0.3886
  679TIP3    H1 2001   1.079   0.253   4.380  0.7335 -2.8719  1.1322
  679TIP3    H2 2002   1.205   0.295   4.453 -0.2031  1.8710  0.3376
  680TIP3   OH2 2003   4.618   6.252   3.632 -0.5138 -0.6348 -0.1082
  680TIP3    H1 2004   4.644   6.290   3.715 -2.7577 -0.5150  0.6050
  680TIP3    H2 2005   4.564   6.319   3.591  0.7339 -0.6020 -1.8056
  681TIP3   OH2 2006   3.153   5.582   3.207 -0.3829  0.5346 -0.3289
  681TIP3    H1 2007   3.134   5.503   3.258  1.9631 -1.8677 -2.8438
  681TIP3    H2 2008   3.249   5.591   3.212 -0.2811  1.3290 -2.6486
  682TIP3   OH2 2009   4.384   5.339   5.176  0.0356 -0.0326 -0.8304
  682TIP3    H1 2010   4.446   5.375   5.239  1.1484 -0.5861 -1.5836
  682TIP3    H2 2011   4.389   5.244   5.190  0.4567 -0.1748 -1.8853
  683TIP3   OH2 2012   2.163   6.304   0.565 -0.4075 -0.3370 -0.2953
  683TIP3    H1 2013   2.183   6.222   0.611 -0.3333  0.2402  0.7234
  683TIP3    H2 2014   2.155   6.369   0.634  0.1810  0.6658 -1.1381
  684TIP3   OH2 2015   4.905   2.012   1.701  0.2869 -0.2714 -0.2493
  684TIP3    H1 2016   4.967   2.041   1.768 -0.1991  1.2294 -0.3980
  684TIP3    H2 2017   4.851   1.946   1.745  0.1190  0.5321  0.7969
  685TIP3   OH2 2018   0.653   2.557   2.763  0.2079  0.4788  0.1195
  685TIP3    H1 2019   0.579   2.551   2.823 -0.9105 -1.6199 -1.3604
  685TIP3    H2 2020   0.635   2.491   2.696  2.1403  1.6907 -1.7080
  686TIP3   OH2 2021   3.655   3.817   2.837  0.1738  0.8700 -0.0135
  686TIP3    H1 2022   3.618   3.840   2.923 -0.7799 -0.2908 -0.0918
  686TIP3    H2 2023   3.745   3.792   2.856 -0.1172  0.3375  0.7085
  687TIP3   OH2 2024   4.749   0.027   5.593  0.1949 -0.2138  0.6176
  687TIP3    H1 2025   4.722   0.119   5.597 -0.3255 -0.2695 -1.0532
  687TIP3    H2 2026   4.742  -0.004   5.684 -0.7728  1.0633  1.0066
  688TIP3   OH2 2027   5.722   3.334   1.316  0.3470  0.4268  0.3911
  688TIP3    H1 2028   5.667   3.288   1.253 -0.9904  0.8578  1.1862
  688TIP3    H2 2029   5.803   3.284   1.320 -0.6851 -1.3097  0.5309
  689TIP3   OH2 2030   3.594   5.714   0.437  0.6972  0.4920  0.0809
  689TIP3    H1 2031   3.595   5.786   0.500  0.8849 -0.9707  1.8263
  689TIP3    H2 2032   3.644   5.644   0.480  0.1112 -0.8490 -1.3427
  690TIP3   OH2 2033   0.547   4.143   3.929  0.1681 -0.4660 -0.0412
  690TIP3    H1 2034   0.473   4.116   3.874  1.0264 -0.9292 -0.9901
  690TIP3    H2 2035   0.513   4.218   3.978 -1.3724 -1.5096  0.5863
  691TIP3   OH2 2036   4.029   1.112   3.832  0.3295  0.3018 -0.4690
  691TIP3    H1 2037   3.992   1.085   3.748  0.2591  1.9916 -1.0256
  691TIP3    H2 2038   3.953   1.137   3.885  0.4799  1.1543 -0.6377
  692TIP3   OH2 2039   7.186   0.383   3.446 -0.0600  0.5175 -0.3976
  692TIP3    H1 2040   7.257   0.430   3.402 -0.6024  0.8572 -0.9261
  692TIP3    H2 2041   7.158   0.441   3.516 -0.5562  0.8767 -0.8877
  693TIP3   OH2 2042   4.414   6.684   3.848 -0.1363 -0.1022 -0.3103
  693TIP3    H1 2043   4.362   6.728   3.915  1.3696  0.9983  0.1760
  693TIP3    H2 2044   4.410   6.591   3.872 -2.3568 -0.1596 -0.6644
  694TIP3   OH2 2045   0.968   2.474   1.175  0.0575  0.1447  0.1847
  694TIP3    H1 2046   0.979   2.531   1.099  0.9587 -0.9275 -0.5201
  694TIP3    H2 2047   0.995   2.527   1.250 -0.5318  1.1108 -0.2702
  695TIP3   OH2 2048   6.648   4.559   3.198  0.3937  0.2235  0.2345
  695TIP3    H1 2049   6.728   4.590   3.240  0.2158  0.8548  0.1302
  695TIP3    H2 2050   6.642   4.611   3.117  0.1053 -0.1195  0.0326
  696TIP3   OH2 2051   3.970   4.851   4.054  0.3127 -0.4645 -0.0704
  696TIP3    H1 2052   4.037   4.788   4.026  0.5149 -0.2391 -0.0990
  696TIP3    H2 2053   4.020   4.926   4.086  0.0696  0.5038 -1.8539
  697TIP3   OH2 2054   5.248   0.604   1.172  0.1060 -0.2501  0.0232
  697TIP3    H1 2055   5.165   0.644   1.146 -0.0487  1.0584  2.2327
  697TIP3    H2 2056   5.312   0.639   1.110 -1.0036 -1.6449 -2.0074
  698TIP3   OH2 2057   2.385   2.027   3.689 -0.1089  0.3696 -0.1411
  698TIP3    H1 2058   2.329   2.084   3.742  0.4533  1.0685 -0.2780
  698TIP3    H2 2059   2.445   2.087   3.645 -0.2379 -0.2374 -1.1852
  699TIP3   OH2 2060   5.000   3.635   1.307  0.3961 -0.1449 -0.4851
  699TIP3    H1 2061   4.996   3.592   1.222  0.0788  1.0039 -1.0827
  699TIP3    H2 2062   4.970   3.725   1.290  1.5336  0.4782  0.5904
  700TIP3   OH2 2063   3.231   1.234   4.615 -0.0595  0.2098 -0.2198
  700TIP3    H1 2064   3.190   1.296   4.675 -1.6589 -0.4373 -0.5779
  700TIP3    H2 2065   3.261   1.288   4.542 -0.6475  0.6660 -0.1333
  701TIP3   OH2 2066   5.109   4.723   0.346  0.2449  0.2655  0.1232
  701TIP3    H1 2067   5.073   4.810   0.325  1.7581  1.4612  2.1621
  701TIP3    H2 2068   5.102   4.716   0.441 -0.7365 -2.3345 -0.0456
  702TIP3   OH2 2069   3.620   2.613   2.989  0.3168 -0.0856 -0.0913
  702TIP3    H1 2070   3.537   2.662   2.984  0.7551  0.8095  0.9712
  702TIP3    H2 2071   3.660   2.626   2.904 -1.3092 -1.8275 -1.2027
  703TIP3   OH2 2072   7.165   4.414   2.744  0.0670  0.8632  0.5073
  703TIP3    H1 2073   7.235   4.351   2.730 -1.0524 -0.3972  0.3840
  703TIP3    H2 2074   7.153   4.417   2.839  1.0395  1.9702  0.6226
  704TIP3   OH2 2075   3.650   3.808   5.039 -0.2307 -0.1096 -0.0277
  704TIP3    H1 2076   3.684   3.736   4.986  0.9057 -0.2075  0.7916
  704TIP3    H2 2077   3.555   3.798   5.036 -0.1052 -1.2511 -0.4643
  705TIP3   OH2 2078   4.708   6.330   4.685 -0.8679 -0.2270  0.3242
  705TIP3    H1 2079   4.745   6.251   4.724 -0.3168  0.2417  0.7583
  705TIP3    H2 2080   4.706   6.394   4.756  0.4949  0.7539 -0.4639
  706TIP3   OH2 2081   0.400   0.265   1.393 -0.6706  0.6122 -0.0365
  706TIP3    H1 2082   0.386   0.171   1.384 -1.9300  0.7829  0.0280
  706TIP3    H2 2083   0.438   0.291   1.309 -0.2553  0.0525 -0.0339
  707TIP3   OH2 2084   3.206   3.416   5.032  0.3694  0.2142  0.7605
  707TIP3    H1 2085   3.288   3.458   5.059  0.6849 -0.2536  0.5570
  707TIP3    H2 2086   3.170   3.379   5.112  0.6364 -0.0388  0.7685
  708TIP3   OH2 2087   4.533   5.292   1.013 -0.0305  0.0911 -0.0404
  708TIP3    H1 2088   4.583   5.316   0.934  0.6717 -0.1926  0.3072
  708TIP3    H2 2089   4.590   5.232   1.060 -0.5894 -0.0119  0.5207
  709TIP3   OH2 2090   5.959   5.039   2.311 -0.2550 -0.2020 -0.3873
  709TIP3    H1 2091   5.935   5.088   2.232 -0.5537  0.3374  0.0322
  709TIP3    H2 2092   6.050   5.012   2.295 -0.0116  0.6712 -0.5367
  710TIP3   OH2 2093   1.748   0.579   0.691  0.4614  0.0427 -0.0846
  710TIP3    H1 2094   1.771   0.664   0.728  0.6376  0.3952 -0.9688
  710TIP3    H2 2095   1.748   0.594   0.596  1.3477 -1.1502 -0.2873
  711TIP3   OH2 2096   4.315   3.913   1.875  0.5326  0.4746  0.1264
  711TIP3    H1 2097   4.255   3.917   1.950  1.0510  1.4228  0.5119
  711TIP3    H2 2098   4.302   3.826   1.838 -0.2932  0.2760  0.8567
  712TIP3   OH2 2099   3.846   1.551   4.377 -0.5664 -0.0635 -0.1079
  712TIP3    H1 2100   3.929   1.514   4.346 -1.2784 -1.8954  0.0765
  712TIP3    H2 2101   3.872   1.630   4.425  1.5327 -2.5427  3.2723
  713TIP3   OH2 2102   0.302   0.613   4.069  0.1781  0.1126  0.2518
  713TIP3    H1 2103   0.318   0.703   4.099  0.4373  0.8225 -1.8439
  713TIP3    H2 2104   0.221   0.619   4.019  1.4556 -0.2734 -1.9559
  714TIP3   OH2 2105   2.425   0.895   2.975  0.6221  0.2241 -0.6613
  714TIP3    H1 2106   2.498   0.897   3.037  0.0733 -2.0934  0.1750
  714TIP3    H2 2107   2.461   0.855   2.896  0.5234  0.0144 -0.6029
  715TIP3   OH2 2108   2.369   2.102   3.972 -0.3317  0.2238 -0.1880
  715TIP3    H1 2109   2.440   2.050   3.935 -1.3699  0.6352 -3.0041
  715TIP3    H2 2110   2.292   2.047   3.965 -0.9277  1.0746 -0.5001
  716TIP3   OH2 2111   7.126   4.920   5.043 -0.6383 -0.7871  0.3106
  716TIP3    H1 2112   7.175   4.918   4.961  0.3411 -1.4934  0.8809
  716TIP3    H2 2113   7.155   5.001   5.086 -1.1976 -0.3855 -0.0520
  717TIP3   OH2 2114   5.143   5.812   5.012 -0.0089 -0.2550  0.1939
  717TIP3    H1 2115   5.208   5.743   4.993  0.0280 -0.4562  1.0246
  717TIP3    H2 2116   5.193   5.881   5.055 -0.1768 -0.0001 -0.0170
  718TIP3   OH2 2117   2.073   3.204   5.151 -0.2001  0.0788  0.4550
  718TIP3    H1 2118   1.983   3.187   5.177 -0.3610  0.4796  0.1773
  718TIP3    H2 2119   2.071   3.292   5.112  0.3587  0.2016  0.6877
  719TIP3   OH2 2120   4.640   5.843   2.976 -0.1552 -0.1158 -0.4989
  719TIP3    H1 2121   4.559   5.880   2.939 -0.5156 -0.5098 -0.1105
  719TIP3    H2 2122   4.612   5.804   3.059  0.4326 -0.2812 -0.3809
  720TIP3   OH2 2123   5.118   5.178   1.041  0.6980 -0.3781  0.0672
  720TIP3    H1 2124   5.077   5.236   0.977 -0.5616 -0.3121  0.8943
  720TIP3    H2 2125   5.208   5.211   1.050  0.8500 -0.3019 -1.5317
  721TIP3   OH2 2126   6.540   6.373   1.040  0.5717 -0.1254  0.5417
  721TIP3    H1 2127   6.466   6.371   1.102  1.0550  1.7036  1.2640
  721TIP3    H2 2128   6.599   6.305   1.071  0.7459  0.6632  2.0923
  722TIP3   OH2 2129   1.374   3.130   2.544  0.0104  0.0321 -0.7439
  722TIP3    H1 2130   1.286   3.093   2.550 -0.2510  0.6844 -0.4710
  722TIP3    H2 2131   1.369   3.214   2.590  0.8650 -0.0801 -0.4229
  723TIP3   OH2 2132   5.260   3.515   5.650 -0.2791 -0.0880  0.7824
  723TIP3    H1 2133   5.224   3.456   5.584  0.2334  0.8138 -0.3205
  723TIP3    H2 2134   5.183   3.555   5.692 -0.5957 -0.2230  0.3340
  724TIP3   OH2 2135   5.361   6.453   0.368 -0.0676  0.0437 -0.1718
  724TIP3    H1 2136   5.383   6.419   0.455 -0.6577 -1.3366 -0.5192
  724TIP3    H2 2137   5.297   6.390   0.334 -0.1114  0.7539 -1.4623
  725TIP3   OH2 2138   1.227   0.911   3.760 -0.2186  0.0385 -0.3190
  725TIP3    H1 2139   1.247   0.835   3.705 -0.0889  0.7518 -1.2712
  725TIP3    H2 2140   1.134   0.899   3.783 -0.0250 -0.7504  0.1167
  726TIP3   OH2 2141   1.392   2.524   4.779  0.2080  0.4152  0.3714
  726TIP3    H1 2142   1.415   2.567   4.697  0.2554  0.7093  0.5380
  726TIP3    H2 2143   1.398   2.430   4.760  2.4205  0.4691  0.6444
  727TIP3   OH2 2144   5.201   1.065   1.658  0.7405  0.0803 -0.4483
  727TIP3    H1 2145   5.126   1.081   1.599  1.4223  1.2777 -1.0406
  727TIP3    H2 2146   5.209   0.970   1.661 -0.4051 -0.0578 -0.8877
  728TIP3   OH2 2147   0.744   2.323   0.803  0.8641  0.4322 -0.4839
  728TIP3    H1 2148   0.733   2.418   0.805  1.2613  0.4794  0.8845
  728TIP3    H2 2149   0.658   2.288   0.827  1.0373  0.4959  0.2549
  729TIP3   OH2 2150   3.427   3.219   3.573  0.2097  0.2821  0.4574
  729TIP3    H1 2151   3.393   3.305   3.548  0.9162  0.5974  0.5359
  729TIP3    H2 2152   3.516   3.219   3.538  0.8528  0.3089  2.0173
  730TIP3   OH2 2153   1.634   4.093   3.295  0.4900 -0.4844  0.3456
  730TIP3    H1 2154   1.599   4.035   3.363 -1.4852  0.4840  0.2138
  730TIP3    H2 2155   1.643   4.178   3.339 -2.1053  0.5047 -0.8561
  731TIP3   OH2 2156   2.465   6.037   3.252  0.4065 -0.2407  0.6587
  731TIP3    H1 2157   2.515   5.957   3.235  1.1499  0.0934  1.1911
  731TIP3    H2 2158   2.513   6.080   3.324  1.2635  1.7304 -0.9814
  732TIP3   OH2 2159   5.985   2.396   2.588  0.6647  0.0140  0.6774
  732TIP3    H1 2160   6.075   2.410   2.558  0.1853  0.1829 -0.7635
  732TIP3    H2 2161   5.957   2.482   2.619  0.7428  0.1380  0.4072
  733TIP3   OH2 2162   4.775   5.084   3.265 -0.5135 -0.6265  0.6313
  733TIP3    H1 2163   4.833   5.040   3.202 -1.2554 -0.6319 -0.0783
  733TIP3    H2 2164   4.832   5.109   3.337  0.5912  0.3999 -0.5532
  734TIP3   OH2 2165   4.700   4.329   1.066 -0.3583 -0.7114  0.2344
  734TIP3    H1 2166   4.693   4.301   0.975 -1.6683  0.8576 -0.2058
  734TIP3    H2 2167   4.630   4.280   1.111 -1.1401  0.1044 -0.0666
  735TIP3   OH2 2168   6.090   0.080   4.936  0.0487  0.4218  0.0203
  735TIP3    H1 2169   6.008   0.120   4.965 -0.5561  0.3038 -1.4322
  735TIP3    H2 2170   6.159   0.133   4.977 -0.7422  1.3245  0.2164
  736TIP3   OH2 2171   0.842   0.678   4.959  0.1366  0.3467  0.0886
  736TIP3    H1 2172   0.801   0.724   4.885  0.3310  0.8612  0.2928
  736TIP3    H2 2173   0.796   0.713   5.036 -0.7401 -0.9040  0.1537
  737TIP3   OH2 2174   5.343   3.893   0.498  0.1630  0.0674  0.2837
  737TIP3    H1 2175   5.266   3.857   0.453  0.3923  1.1154 -1.0379
  737TIP3    H2 2176   5.336   3.862   0.588 -1.7292  0.0148  0.1593
  738TIP3   OH2 2177   0.526   0.605   4.504 -0.0497  0.7059 -0.2027
  738TIP3    H1 2178   0.601   0.659   4.479  1.9056 -1.7986 -0.1866
  738TIP3    H2 2179   0.504   0.556   4.425 -0.1677 -0.2025  0.3745
  739TIP3   OH2 2180   2.535   4.737   1.294  0.6403 -0.1182 -0.3571
  739TIP3    H1 2181   2.490   4.811   1.336  0.6519  1.6191 -3.1879
  739TIP3    H2 2182   2.467   4.671   1.285 -0.3133  0.8931 -0.8535
  740TIP3   OH2 2183   2.568   1.661   1.053  0.3380 -0.1706  0.6240
  740TIP3    H1 2184   2.513   1.715   0.996 -0.3009 -0.4568  0.9627
  740TIP3    H2 2185   2.573   1.709   1.135  0.8174 -0.0196  0.5108
  741TIP3   OH2 2186   3.717   4.446   1.013 -1.1446  0.3588  0.3350
  741TIP3    H1 2187   3.667   4.425   0.935 -2.6518  1.8546  0.8354
  741TIP3    H2 2188   3.764   4.526   0.991  1.4060 -1.1628 -0.2272
  742TIP3   OH2 2189   5.588   5.209   2.446  0.2952  0.5255  0.0458
  742TIP3    H1 2190   5.560   5.239   2.359 -1.7531 -0.7904  0.2082
  742TIP3    H2 2191   5.530   5.253   2.507  0.5823  0.1001  0.6334
  743TIP3   OH2 2192   5.879   0.896   3.428  0.2741 -0.3373  0.6475
  743TIP3    H1 2193   5.869   0.927   3.338  1.9549  2.4741  1.2654
  743TIP3    H2 2194   5.942   0.825   3.422  0.4977 -0.0725 -0.3939
  744TIP3   OH2 2195   0.339   4.671   5.769 -0.3178 -0.6420 -0.2720
  744TIP3    H1 2196   0.376   4.612   5.702 -1.5055 -1.4574 -0.2457
  744TIP3    H2 2197   0.259   4.627   5.797 -0.2923  0.1283  1.0658
  745TIP3   OH2 2198   6.489   2.501   0.493  0.1061  0.0136  0.3286
  745TIP3    H1 2199   6.553   2.432   0.511  1.2563  0.7654 -0.7523
  745TIP3    H2 2200   6.466   2.489   0.400 -0.6647  0.3046  0.4700
  746TIP3   OH2 2201   5.835   5.590   1.640  0.3799 -0.1528 -0.0520
  746TIP3    H1 2202   5.909   5.566   1.696  1.0211  1.3434 -0.1957
  746TIP3    H2 2203   5.781   5.646   1.695  0.5057  0.5309 -0.6066
  747TIP3   OH2 2204   1.510   3.249   5.726  0.0469 -0.0740 -0.4499
  747TIP3    H1 2205   1.465   3.258   5.810  0.7040 -1.6463  0.1247
  747TIP3    H2 2206   1.602   3.233   5.750  0.6848  1.6905 -1.5539
  748TIP3   OH2 2207   6.677   2.224   0.803  0.3416 -0.0870 -0.3711
  748TIP3    H1 2208   6.586   2.203   0.780  0.3024 -1.1275  0.6178
  748TIP3    H2 2209   6.727   2.202   0.725  0.0193 -1.8985 -0.1159
  749TIP3   OH2 2210   2.056   3.994   1.916 -0.1297  0.0444  0.2678
  749TIP3    H1 2211   2.113   3.963   1.846 -0.7584 -0.1443 -0.1697
  749TIP3    H2 2212   1.987   3.928   1.922  0.3042 -0.3108  1.5647
  750TIP3   OH2 2213   0.020   3.447   0.581  0.4281  0.3711 -0.6780
  750TIP3    H1 2214  -0.066   3.425   0.544  0.0187 -0.0904  0.5047
  750TIP3    H2 2215   0.057   3.362   0.608 -0.3057  0.8283  2.0880
  751TIP3   OH2 2216   6.529   4.001   0.824 -0.1422  0.5258  0.2082
  751TIP3    H1 2217   6.584   3.932   0.787 -0.5521  0.7408 -0.8180
  751TIP3    H2 2218   6.539   3.991   0.919  2.1840  0.9551  0.0637
  752TIP3   OH2 2219   6.532   3.726   4.698  0.7667  0.2512  0.3949
  752TIP3    H1 2220   6.534   3.639   4.736 -1.1957 -0.1476 -0.2817
  752TIP3    H2 2221   6.464   3.772   4.747  1.0582  1.0545  0.0593
  753TIP3   OH2 2222   3.313   0.917   0.019 -0.6973  0.2945  0.4225
  753TIP3    H1 2223   3.265   0.957   0.091 -0.5225 -0.4782  0.9753
  753TIP3    H2 2224   3.376   0.984  -0.008 -2.1119  1.3539 -0.3643
  754TIP3   OH2 2225   6.802   1.256   0.290 -0.0901  0.5559 -0.3468
  754TIP3    H1 2226   6.845   1.329   0.247 -0.5921  0.6525 -0.6942
  754TIP3    H2 2227   6.723   1.294   0.329  0.2217  0.4180  0.4327
  755TIP3   OH2 2228   3.976   4.087   4.028 -0.5677 -0.0138  0.1553
  755TIP3    H1 2229   4.054   4.129   4.064  0.7445 -2.2794  0.1270
  755TIP3    H2 2230   3.920   4.160   4.000  0.4740  1.7342  2.3122
  756TIP3   OH2 2231   3.440   6.405   5.050 -0.4936 -0.1522  0.1700
  756TIP3    H1 2232   3.511   6.424   4.989 -0.0277 -1.5683  0.2437
  756TIP3    H2 2233   3.381   6.347   5.002 -1.6255  0.9888  0.1141
  757TIP3   OH2 2234   5.247   1.628   2.772  0.7024 -0.6924  0.0741
  757TIP3    H1 2235   5.216   1.537   2.773 -0.1097 -0.4194  0.3836
  757TIP3    H2 2236   5.272   1.644   2.681 -0.1728 -0.8958 -0.2118
  758TIP3   OH2 2237   6.472   1.417   2.719  0.0484  0.6754 -0.6463
  758TIP3    H1 2238   6.402   1.439   2.657 -1.6816  1.9438  1.6138
  758TIP3    H2 2239   6.493   1.499   2.762  1.1221 -0.1678  0.5114
  759TIP3   OH2 2240   2.432   0.897   4.343 -0.1516 -0.6251 -0.3567
  759TIP3    H1 2241   2.523   0.926   4.347  0.4240 -2.4257  2.6127
  759TIP3    H2 2242   2.385   0.971   4.305  2.2160  1.2383  0.0961
  760TIP3   OH2 2243   1.242   2.331   2.173 -0.9708 -0.0150  0.3624
  760TIP3    H1 2244   1.248   2.411   2.122 -0.8889 -0.4520 -0.3357
  760TIP3    H2 2245   1.165   2.342   2.228 -0.1950  1.0882  1.2666
  761TIP3   OH2 2246   4.852   3.642   0.547  0.3907 -0.0269 -0.0804
  761TIP3    H1 2247   4.787   3.708   0.520  0.0820 -0.2380  0.1365
  761TIP3    H2 2248   4.877   3.599   0.465  1.1287  0.8361 -0.3204
  762TIP3   OH2 2249   4.675   5.162   1.234  0.0769  0.2268  0.3719
  762TIP3    H1 2250   4.767   5.188   1.233 -0.4131  2.1155  0.6873
  762TIP3    H2 2251   4.639   5.203   1.313 -0.7982 -1.4753  0.9296
  763TIP3   OH2 2252   4.025   0.845   3.508  0.2214  0.4034 -0.3618
  763TIP3    H1 2253   4.076   0.858   3.428  2.0197  1.3585  0.8645
  763TIP3    H2 2254   3.972   0.924   3.516  3.4348  2.6271  1.6406
  764TIP3   OH2 2255   0.295   5.033   5.618  0.0112  0.6902  0.6318
  764TIP3    H1 2256   0.330   5.112   5.661 -1.8087  1.6027  0.5413
  764TIP3    H2 2257   0.285   5.059   5.527 -0.3971  0.2838  0.5593
  765TIP3   OH2 2258   5.003   6.374   1.366  0.1265  0.3472  0.6945
  765TIP3    H1 2259   4.972   6.402   1.452  0.4784 -0.4273  1.0897
  765TIP3    H2 2260   5.099   6.373   1.374  0.1502 -0.0763  0.4141
  766TIP3   OH2 2261   3.884   6.540   2.070  0.2650  0.5019  0.3853
  766TIP3    H1 2262   3.815   6.523   2.135  1.3951 -2.9144  0.8925
  766TIP3    H2 2263   3.963   6.555   2.123  0.8371 -0.5166 -0.1518
  767TIP3   OH2 2264   4.932   4.748  -0.011  0.2951 -0.4388  0.0544
  767TIP3    H1 2265   4.938   4.717   0.079  0.0382  1.2872  0.7177
  767TIP3    H2 2266   4.862   4.813  -0.009  0.3972 -0.2543 -1.3528
  768TIP3   OH2 2267   5.247   3.891   2.374  0.3049 -0.2052 -0.0273
  768TIP3    H1 2268   5.269   3.964   2.316  0.8034 -0.1632  0.2154
  768TIP3    H2 2269   5.151   3.885   2.368  0.4906 -2.7392 -3.9546
  769TIP3   OH2 2270   2.596   2.218   1.702  0.3477 -0.0377  0.9100
  769TIP3    H1 2271   2.515   2.256   1.667  0.0285 -0.9564  0.6116
  769TIP3    H2 2272   2.643   2.292   1.740 -1.3075  0.3071  2.4368
  770TIP3   OH2 2273   0.065   0.590   5.791  0.1753 -0.3255 -0.0111
  770TIP3    H1 2274  -0.023   0.624   5.774  0.4738  0.0814 -0.8037
  770TIP3    H2 2275   0.072   0.515   5.731 -0.3081 -1.5364  1.3889
  771TIP3   OH2 2276   1.018   5.700   0.509 -0.4184 -0.3858 -0.0895
  771TIP3    H1 2277   1.072   5.662   0.578 -0.6118  0.8937  0.7949
  771TIP3    H2 2278   0.977   5.624   0.467 -0.8232 -1.1722  1.6290
  772TIP3   OH2 2279   3.215   1.424   5.468 -0.1165 -0.2369  0.5883
  772TIP3    H1 2280   3.201   1.494   5.531 -1.4100  1.8307 -1.8144
  772TIP3    H2 2281   3.128   1.407   5.431  0.6963 -0.7328 -1.2186
  773TIP3   OH2 2282   7.207   3.042   4.621 -0.0303 -0.1209  0.1611
  773TIP3    H1 2283   7.145   2.971   4.605 -0.3175 -0.0235  0.7887
  773TIP3    H2 2284   7.212   3.048   4.717  0.0751  0.6258  0.1171
  774TIP3   OH2 2285   0.658   0.153   2.632 -0.2572  0.8413 -0.1485
  774TIP3    H1 2286   0.633   0.239   2.598 -0.8031  0.6143 -0.3381
  774TIP3    H2 2287   0.736   0.129   2.582 -0.8502  0.6667 -1.0143
  775TIP3   OH2 2288   3.833   0.395   2.864 -0.9099  0.3610 -0.1407
  775TIP3    H1 2289   3.884   0.476   2.863 -1.7902  0.9516 -2.0602
  775TIP3    H2 2290   3.887   0.333   2.814 -0.5490 -0.0486  0.7421
  776TIP3   OH2 2291   4.871   6.804   2.515 -0.4009  0.4561 -0.1285
  776TIP3    H1 2292   4.947   6.817   2.459  0.4515 -0.5086  0.7654
  776TIP3    H2 2293   4.880   6.714   2.548 -1.7536  0.4307  0.2523
  777TIP3   OH2 2294   2.427   2.623   2.615  0.4325  0.2529 -0.2562
  777TIP3    H1 2295   2.432   2.541   2.567 -1.0378  0.4370 -0.7635
  777TIP3    H2 2296   2.368   2.606   2.688 -1.2384  1.2450 -1.2937
  778TIP3   OH2 2297   4.214   3.544   3.652 -0.0556 -0.3651  0.1696
  778TIP3    H1 2298   4.204   3.505   3.565 -1.7706  0.3001  0.0204
  778TIP3    H2 2299   4.240   3.634   3.635 -0.6585 -0.1575  0.3134
  779TIP3   OH2 2300   6.831   1.518   0.147  0.0593  0.1033  0.2990
  779TIP3    H1 2301   6.922   1.545   0.132 -0.3311  2.6255  1.8095
  779TIP3    H2 2302   6.792   1.513   0.060  0.8931  2.0927 -0.2513
  780TIP3   OH2 2303   2.202   1.031   5.752 -0.0278  0.1941  0.2833
  780TIP3    H1 2304   2.124   1.069   5.710 -0.9860 -0.4644  1.4174
  780TIP3    H2 2305   2.209   0.943   5.714  0.1477  0.2382  0.2134
  781TIP3   OH2 2306   1.037   0.350   3.273 -0.2440  0.5206  0.6753
  781TIP3    H1 2307   0.986   0.285   3.225 -0.9504  0.0587  2.0211
  781TIP3    H2 2308   1.110   0.370   3.214  0.3684 -1.9582  0.4626
  782TIP3   OH2 2309   5.875   4.569   1.336  0.3226 -1.0317  0.2948
  782TIP3    H1 2310   5.786   4.535   1.340  0.4758 -1.6236 -0.9285
  782TIP3    H2 2311   5.873   4.648   1.389 -1.2573 -0.3175 -0.7665
  783TIP3   OH2 2312   3.745   3.973   2.621  0.5099  0.4955  0.6118
  783TIP3    H1 2313   3.763   3.906   2.687 -0.9588  0.3892  0.9422
  783TIP3    H2 2314   3.831   4.001   2.590  1.2317  0.6133  2.6217
  784TIP3   OH2 2315   1.650   6.570   3.968 -0.1147 -0.0977  0.3487
  784TIP3    H1 2316   1.743   6.559   3.991 -0.0770  2.4208  1.6783
  784TIP3    H2 2317   1.608   6.598   4.050 -1.8311  0.0333 -0.5331
  785TIP3   OH2 2318   4.527   1.721   4.006  0.3488 -0.6641 -0.2437
  785TIP3    H1 2319   4.599   1.774   4.041  0.0108  0.9564 -1.8911
  785TIP3    H2 2320   4.451   1.779   4.008  0.1420 -0.7253 -2.8648
  786TIP3   OH2 2321   3.953   3.606   0.917 -0.3346 -0.2822  0.6797
  786TIP3    H1 2322   4.001   3.565   0.990 -1.7622 -0.7649  1.3792
  786TIP3    H2 2323   3.960   3.700   0.934  2.5525 -0.1447 -0.6713
  787TIP3   OH2 2324   5.958   5.771   0.580  0.0240  0.5128  0.5613
  787TIP3    H1 2325   5.905   5.770   0.660 -0.0766 -2.9934  0.6286
  787TIP3    H2 2326   5.894   5.762   0.509  0.2416  1.3454  0.2574
  788TIP3   OH2 2327   2.562   6.753   5.452 -0.3988  0.2748  0.3271
  788TIP3    H1 2328   2.477   6.764   5.494 -0.4146  0.4812  0.2434
  788TIP3    H2 2329   2.567   6.825   5.389 -0.2825  0.0967  0.1332
  789TIP3   OH2 2330   0.927   0.872   1.690  0.7560 -0.2149 -1.0771
  789TIP3    H1 2331   0.860   0.915   1.742  1.7882 -2.0566  2.0170
  789TIP3    H2 2332   0.882   0.799   1.647  0.6188 -1.0973  0.5203
  790TIP3   OH2 2333   6.007   6.255   1.435 -0.3852 -0.0021 -0.2180
  790TIP3    H1 2334   6.005   6.294   1.348  2.7927  2.0075  0.4052
  790TIP3    H2 2335   6.093   6.213   1.440 -1.4994 -2.3280  1.1385
  791TIP3   OH2 2336   1.940   0.997   2.624 -0.3627  0.4210 -0.1069
  791TIP3    H1 2337   1.966   0.905   2.614  1.2570  0.9707 -1.4082
  791TIP3    H2 2338   1.977   1.041   2.547 -0.9804  2.2012  0.5550
  792TIP3   OH2 2339   6.284   2.766   4.275  0.0888 -0.4881  0.3352
  792TIP3    H1 2340   6.259   2.710   4.202  3.8506 -0.7745 -0.9137
  792TIP3    H2 2341   6.240   2.727   4.351 -2.7234 -1.0489 -1.4267
  793TIP3   OH2 2342   1.416   1.668   3.349 -0.0265 -0.0765 -0.0839
  793TIP3    H1 2343   1.421   1.619   3.268  0.8846  0.0567 -0.1124
  793TIP3    H2 2344   1.440   1.606   3.417 -0.2989 -0.0553  0.0332
  794TIP3   OH2 2345   4.657   5.048   4.500 -0.2916 -0.2652  0.3334
  794TIP3    H1 2346   4.736   5.048   4.554  1.0483 -0.3944 -1.5123
  794TIP3    H2 2347   4.626   5.139   4.504 -0.1339 -0.2372  1.1624
  795TIP3   OH2 2348   5.776   3.287   3.203 -0.4597 -0.0898 -0.7292
  795TIP3    H1 2349   5.690   3.306   3.240  0.0763 -0.5778  0.8568
  795TIP3    H2 2350   5.821   3.372   3.202 -0.1006 -0.2356  0.8363
  796TIP3   OH2 2351   4.997   4.276   1.066  0.4707 -0.1826 -0.3355
  796TIP3    H1 2352   4.926   4.268   1.130  1.0163 -0.4363  0.2483
  796TIP3    H2 2353   4.984   4.363   1.027 -1.0266 -0.8090 -1.3096
  797TIP3   OH2 2354   5.086   4.794   1.180 -0.0613 -0.0777 -0.5273
  797TIP3    H1 2355   5.180   4.781   1.194  0.1778 -0.6397 -2.3844
  797TIP3    H2 2356   5.073   4.888   1.189  0.7700  0.0580 -0.6450
  798TIP3   OH2 2357   6.254   0.948   0.910  0.0228  0.1102 -0.4763
  798TIP3    H1 2358   6.257   0.988   0.997 -0.6842 -0.5005 -0.1575
  798TIP3    H2 2359   6.165   0.914   0.902  0.7262 -1.8783 -0.4847
  799TIP3   OH2 2360   5.760   5.316   5.503  0.0425  0.0726 -0.2567
  799TIP3    H1 2361   5.784   5.234   5.461 -0.2154 -1.1456  1.8522
  799TIP3    H2 2362   5.837   5.372   5.492  0.7698 -0.9431 -0.4837
  800TIP3   OH2 2363   2.712   3.850   2.328  0.1623 -1.1468  0.0179
  800TIP3    H1 2364   2.712   3.872   2.235  0.4242  0.0662  0.2935
  800TIP3    H2 2365   2.648   3.910   2.367  1.3142 -0.4398  0.8760
  801TIP3   OH2 2366   1.236   6.675   1.131 -0.1716  0.1032 -0.0198
  801TIP3    H1 2367   1.167   6.740   1.137  1.7253  2.3275 -0.8014
  801TIP3    H2 2368   1.255   6.669   1.037  0.5647 -0.6023  0.1637
  802TIP3   OH2 2369   3.836   5.238   4.515 -0.3739 -0.5684  0.1178
  802TIP3    H1 2370   3.772   5.293   4.470  0.0603 -0.1306  0.0242
  802TIP3    H2 2371   3.801   5.229   4.604  0.5083  1.5128  0.7379
  803TIP3   OH2 2372   2.377   0.614   3.701 -0.6059  0.0823  0.0477
  803TIP3    H1 2373   2.347   0.536   3.747  0.1078  0.0844  0.5302
  803TIP3    H2 2374   2.328   0.614   3.619  0.7812 -1.9622 -0.8662
  804TIP3   OH2 2375   2.531   3.360   5.491  0.1811  0.0215  0.1873
  804TIP3    H1 2376   2.573   3.344   5.407 -1.1524  0.1918 -0.5319
  804TIP3    H2 2377   2.539   3.277   5.539  1.7839  0.2096  0.2960
  805TIP3   OH2 2378   2.942   2.569   1.260  0.0783 -0.1484  0.1853
  805TIP3    H1 2379   2.897   2.513   1.323 -2.4099 -0.0078 -1.3027
  805TIP3    H2 2380   2.933   2.657   1.296 -3.3667  0.2431 -1.2450
  806TIP3   OH2 2381   4.451   6.259   5.842 -0.1876 -0.8535 -0.2334
  806TIP3    H1 2382   4.391   6.201   5.889  0.6045 -1.7429 -0.3082
  806TIP3    H2 2383   4.420   6.256   5.751 -1.7305  0.8821  0.1500
  807TIP3   OH2 2384   5.709   0.788   2.828  0.0642  0.1714  0.0550
  807TIP3    H1 2385   5.768   0.712   2.829  0.7861  0.7210  0.1893
  807TIP3    H2 2386   5.664   0.784   2.913  1.8855  1.2305  1.1325
  808TIP3   OH2 2387   5.961   1.192   3.651  0.3738  0.3152  0.0131
  808TIP3    H1 2388   5.875   1.152   3.645  0.3646  0.3384 -0.0153
  808TIP3    H2 2389   5.950   1.265   3.711  0.6279 -0.3524  0.8812
  809TIP3   OH2 2390   4.519   5.059   3.104 -0.1574  0.4490 -0.0627
  809TIP3    H1 2391   4.578   5.036   3.176 -0.5940 -2.1873 -0.4326
  809TIP3    H2 2392   4.577   5.070   3.028  0.2047  2.2680  0.4238
  810TIP3   OH2 2393   1.944   0.392   0.081  0.6635  0.3987 -0.3516
  810TIP3    H1 2394   1.991   0.313   0.055 -1.9799 -2.1030  1.7457
  810TIP3    H2 2395   1.878   0.405   0.013  0.6268  0.3670 -0.3220
  811TIP3   OH2 2396   1.527   4.716   4.829  0.4625 -0.4918 -0.2583
  811TIP3    H1 2397   1.502   4.710   4.921  1.7661  0.2773  0.1752
  811TIP3    H2 2398   1.621   4.698   4.828  0.6123  0.2180 -1.3339
  812TIP3   OH2 2399   1.917   4.719   4.224  0.1870 -0.2614 -0.1165
  812TIP3    H1 2400   1.840   4.769   4.197 -0.8153 -2.3636 -1.3548
  812TIP3    H2 2401   1.991   4.772   4.192 -0.8722 -0.8659 -4.1491
  813TIP3   OH2 2402   3.535   4.873   3.819 -0.4559 -0.6732  0.1215
  813TIP3    H1 2403   3.584   4.952   3.801 -0.4418 -0.4283  1.1627
  813TIP3    H2 2404   3.457   4.880   3.764  0.1806 -0.5842 -0.7827
  814TIP3   OH2 2405   6.239   1.170   1.434 -0.0634  0.0709  0.1198
  814TIP3    H1 2406   6.146   1.167   1.415 -0.1205 -1.9428  0.4850
  814TIP3    H2 2407   6.246   1.218   1.517 -1.1913 -2.7562  1.9743
  815TIP3   OH2 2408   5.551   4.763   1.476  0.3818  0.1817  0.1978
  815TIP3    H1 2409   5.639   4.773   1.511  0.7050 -1.0873 -0.2018
  815TIP3    H2 2410   5.539   4.839   1.419  0.7175  1.0377  1.2448
  816TIP3   OH2 2411   1.370   1.376   1.450 -0.2392 -0.0383 -0.3470
  816TIP3    H1 2412   1.424   1.321   1.392 -1.5185 -1.3153 -0.3783
  816TIP3    H2 2413   1.376   1.333   1.535 -0.3221  0.4467 -0.0963
  817TIP3   OH2 2414   3.840   3.935   1.970 -0.1388  0.6989  0.3206
  817TIP3    H1 2415   3.832   3.845   2.002  0.5200  0.1691 -0.9466
  817TIP3    H2 2416   3.751   3.957   1.940 -0.1386  0.1899 -0.0681
  818TIP3   OH2 2417   2.387   4.813   2.717  0.1886 -0.6015 -0.6827
  818TIP3    H1 2418   2.456   4.761   2.675  0.7631  0.4062 -1.0380
  818TIP3    H2 2419   2.313   4.806   2.657 -0.3575 -2.4186  0.1343
  819TIP3   OH2 2420   5.692   5.884   0.531 -0.2504  1.0486 -0.1437
  819TIP3    H1 2421   5.642   5.847   0.458  0.2403 -2.2640  1.0525
  819TIP3    H2 2422   5.625   5.917   0.592 -0.7419  1.4608 -0.8883
  820TIP3   OH2 2423   3.805   5.156   4.086  0.6790 -0.3908 -0.0681
  820TIP3    H1 2424   3.724   5.193   4.119 -0.3373 -1.6348 -1.0361
  820TIP3    H2 2425   3.851   5.124   4.164  0.1213  0.0743  0.4605
  821TIP3   OH2 2426   3.646   6.711   1.666  0.0505 -0.4441  0.2581
  821TIP3    H1 2427   3.618   6.801   1.649 -0.9025 -0.5226  1.3305
  821TIP3    H2 2428   3.742   6.715   1.664  0.0304  0.1904 -1.6484
  822TIP3   OH2 2429   6.572   2.936   4.959  0.0150  0.3785  0.2857
  822TIP3    H1 2430   6.513   2.930   4.884  1.2622 -0.0431 -0.7096
  822TIP3    H2 2431   6.599   2.845   4.975  1.7272  0.7273 -0.4161
  823TIP3   OH2 2432   3.806   6.745   4.679 -0.4356  0.9403 -0.4415
  823TIP3    H1 2433   3.740   6.777   4.740 -1.0553  0.9282 -1.0969
  823TIP3    H2 2434   3.879   6.806   4.690 -0.0941  0.2990  1.0966
  824TIP3   OH2 2435   1.464   4.027   2.082 -0.1144  0.2805 -0.9095
  824TIP3    H1 2436   1.453   4.009   1.989  0.6239 -0.5383 -0.8499
  824TIP3    H2 2437   1.556   4.048   2.092 -0.2785  0.7768 -0.4264
  825TIP3   OH2 2438   3.187   4.159   1.299 -0.7139 -0.2213  0.4589
  825TIP3    H1 2439   3.155   4.151   1.209 -1.2275  0.2780  0.5894
  825TIP3    H2 2440   3.136   4.232   1.336 -0.0303  0.0165  0.9429
  826TIP3   OH2 2441   1.580   0.940   4.647  0.1286  0.6378 -0.6757
  826TIP3    H1 2442   1.552   1.017   4.696 -2.0814 -0.2758 -0.3868
  826TIP3    H2 2443   1.505   0.881   4.650  1.6685 -1.4653 -1.0656
  827TIP3   OH2 2444   0.338   4.080   2.779 -0.1907 -0.2665 -0.4457
  827TIP3    H1 2445   0.307   4.140   2.846  0.1301  0.5546 -1.0179
  827TIP3    H2 2446   0.433   4.094   2.775  0.2078 -2.1867  0.7417
  828TIP3   OH2 2447   1.504   3.504   3.822 -0.2362 -0.2755  0.0463
  828TIP3    H1 2448   1.473   3.429   3.872 -0.8540 -0.4373 -0.5506
  828TIP3    H2 2449   1.424   3.551   3.798  0.0520 -0.1002 -0.6070
  829TIP3   OH2 2450   1.178   2.956   2.322 -0.5854 -0.1115  0.2759
  829TIP3    H1 2451   1.160   3.041   2.284 -0.1971  0.4504  1.2987
  829TIP3    H2 2452   1.202   2.900   2.248 -0.8980  0.6458 -0.4065
  830TIP3   OH2 2453   6.303   2.160   3.020  0.1718 -0.1229 -0.2233
  830TIP3    H1 2454   6.233   2.158   3.085  0.8651  0.5484  0.5706
  830TIP3    H2 2455   6.264   2.200   2.943 -0.6202 -0.7750 -0.1745
  831TIP3   OH2 2456   4.553   0.097   5.798 -0.1742  0.5243 -0.0789
  831TIP3    H1 2457   4.500   0.033   5.750  1.4385 -0.3633 -0.7833
  831TIP3    H2 2458   4.588   0.048   5.872  2.4828 -0.0278 -1.5678
  832TIP3   OH2 2459   2.351   3.312   3.932  0.7653 -0.3207 -0.5133
  832TIP3    H1 2460   2.427   3.319   3.990  0.0172  0.0484  0.4743
  832TIP3    H2 2461   2.368   3.373   3.861  1.3785 -0.2261 -0.2870
  833TIP3   OH2 2462   3.219   6.577   5.507 -0.3413 -0.3722  0.2889
  833TIP3    H1 2463   3.231   6.604   5.416  0.5782 -0.7018  0.3001
  833TIP3    H2 2464   3.228   6.482   5.505  0.1470 -0.3412  0.7877
  834TIP3   OH2 2465   2.521   2.710   3.090  0.6698 -0.2933  0.0070
  834TIP3    H1 2466   2.427   2.730   3.084  0.4145 -1.3299  0.2945
  834TIP3    H2 2467   2.563   2.795   3.097 -0.2333  0.2008 -0.3777
  835TIP3   OH2 2468   2.261   5.818   0.647  0.0760  0.6928 -0.8012
  835TIP3    H1 2469   2.208   5.769   0.710  0.3630  1.1490 -0.1940
  835TIP3    H2 2470   2.344   5.771   0.643  0.3085  1.0600 -0.3090
  836TIP3   OH2 2471   0.309   5.875   5.050 -0.4063 -0.1940 -0.3936
  836TIP3    H1 2472   0.389   5.910   5.010 -0.7552 -0.8320 -1.7256
  836TIP3    H2 2473   0.341   5.815   5.117  0.2711 -0.8856 -1.2988
  837TIP3   OH2 2474   2.180   0.148   5.226 -0.0364 -0.1688 -0.9022
  837TIP3    H1 2475   2.234   0.185   5.297  0.5503  0.8270 -1.8375
  837TIP3    H2 2476   2.232   0.075   5.192 -0.5928 -1.0477  0.0625
  838TIP3   OH2 2477   3.892   0.990   4.333  0.2876  0.8016  0.6883
  838TIP3    H1 2478   3.986   1.008   4.330  0.7360 -0.9234  2.3053
  838TIP3    H2 2479   3.863   1.000   4.243  2.6200 -1.3921 -0.4536
  839TIP3   OH2 2480   3.604   0.333   3.606 -0.0249  0.5974  0.1785
  839TIP3    H1 2481   3.526   0.356   3.657 -0.4483 -1.0097  0.3198
  839TIP3    H2 2482   3.574   0.327   3.516  0.5239  2.5006 -0.1766
  840TIP3   OH2 2483   7.051   3.966   3.219  0.4435 -0.4566 -0.2122
  840TIP3    H1 2484   7.083   3.877   3.234 -1.0526 -1.0370 -0.3232
  840TIP3    H2 2485   7.002   3.988   3.298  0.4319  0.1022 -0.3708
  841TIP3   OH2 2486   2.875   5.244   0.040  0.5016  0.0785 -0.0167
  841TIP3    H1 2487   2.928   5.221   0.117  1.0716  2.3105  0.3336
  841TIP3    H2 2488   2.821   5.317   0.070 -1.4969 -0.9407 -0.9214
  842TIP3   OH2 2489   1.615   4.314   3.488 -0.5121  0.0816 -0.2516
  842TIP3    H1 2490   1.653   4.349   3.569 -0.4311 -1.8501  0.5975
  842TIP3    H2 2491   1.664   4.356   3.418  0.6095  0.4731  0.7461
  843TIP3   OH2 2492   6.104   2.961   3.100 -0.3039  0.2768 -0.3991
  843TIP3    H1 2493   6.021   2.914   3.105 -0.1743  0.0713 -0.1720
  843TIP3    H2 2494   6.079   3.053   3.096 -0.5280  0.2544  0.3059
  844TIP3   OH2 2495   2.102   6.416   1.003 -0.1022  0.1188  1.0184
  844TIP3    H1 2496   2.103   6.477   1.076 -1.9087 -0.4669  1.5840
  844TIP3    H2 2497   2.064   6.466   0.930 -1.1988 -0.1672  1.3694
  845TIP3   OH2 2498   3.008   1.248   4.369 -0.0547 -0.5645  0.0722
  845TIP3    H1 2499   3.038   1.338   4.358  0.4896 -0.8124 -0.5800
  845TIP3    H2 2500   2.941   1.253   4.437  0.1577  0.2883  0.2334
  846TIP3   OH2 2501   0.542   3.148   2.835  0.3683 -0.5397  0.0831
  846TIP3    H1 2502   0.455   3.111   2.821 -0.2181  1.0175 -0.5324
  846TIP3    H2 2503   0.580   3.155   2.747  0.4509  0.3580  0.1841
  847TIP3   OH2 2504   5.680   3.178   4.957 -0.0067 -0.0882  0.0328
  847TIP3    H1 2505   5.751   3.177   5.021  2.3835  1.9874 -2.3512
  847TIP3    H2 2506   5.718   3.218   4.879 -3.0005 -1.5694 -2.4310
  848TIP3   OH2 2507   3.934   1.885   3.964  0.0928 -0.9233 -0.3463
  848TIP3    H1 2508   4.017   1.918   3.997 -0.9915  1.1729  0.4327
  848TIP3    H2 2509   3.929   1.795   3.997  1.4591 -0.6568  0.6659
  849TIP3   OH2 2510   1.442   5.311   0.395  0.4084  0.3910  0.3573
  849TIP3    H1 2511   1.407   5.400   0.390 -1.3129 -0.2864 -0.5042
  849TIP3    H2 2512   1.415   5.279   0.481  0.9103  0.6334  0.6117
  850TIP3   OH2 2513   1.169   1.976   1.037 -0.2449  0.2019  0.2908
  850TIP3    H1 2514   1.158   1.970   1.131  0.2454  3.5947  0.6857
  850TIP3    H2 2515   1.143   1.890   1.004 -1.5072 -0.7253  3.3780
  851TIP3   OH2 2516   1.350   1.324   4.217  0.1857 -0.1187  0.3650
  851TIP3    H1 2517   1.327   1.325   4.310  0.9259  0.9020  0.5483
  851TIP3    H2 2518   1.434   1.279   4.213  0.6814  0.7996  0.3259
  852TIP3   OH2 2519   1.763   1.019   1.537 -0.1460 -0.1347 -0.1399
  852TIP3    H1 2520   1.850   1.052   1.560 -0.8632  2.2566 -0.6513
  852TIP3    H2 2521   1.777   0.973   1.454  0.3054  2.3613 -1.5483
  853TIP3   OH2 2522   4.459   3.576   4.832  0.4846  0.4047 -0.4523
  853TIP3    H1 2523   4.373   3.618   4.829 -0.6839 -1.6930  1.2779
  853TIP3    H2 2524   4.469   3.548   4.923  2.2686 -0.8913 -0.9957
  854TIP3   OH2 2525   6.798   5.331   2.900 -0.4664 -0.0858  0.4588
  854TIP3    H1 2526   6.727   5.394   2.899  0.2945  0.7993 -0.4972
  854TIP3    H2 2527   6.755   5.246   2.885 -1.2879  0.4938 -0.6594
  855TIP3   OH2 2528   1.594   0.903   0.692 -0.2545  0.1183 -0.4613
  855TIP3    H1 2529   1.540   0.851   0.751 -1.2438 -0.9785 -2.2272
  855TIP3    H2 2530   1.531   0.951   0.638  0.6213  1.5116 -0.2898
  856TIP3   OH2 2531   1.372   5.516   2.851 -0.2772  0.1919  0.1758
  856TIP3    H1 2532   1.310   5.561   2.909 -1.4773 -0.6974 -0.3764
  856TIP3    H2 2533   1.458   5.534   2.889 -0.5620  3.7479 -0.5370
  857TIP3   OH2 2534   5.085   0.425   3.417 -0.0268 -0.1116 -0.1933
  857TIP3    H1 2535   5.001   0.443   3.375 -1.1571 -1.9369  1.1313
  857TIP3    H2 2536   5.079   0.470   3.502 -0.9540 -2.5417  1.1387
  858TIP3   OH2 2537   2.164   1.485   4.206 -0.2280  0.2640  0.0073
  858TIP3    H1 2538   2.071   1.507   4.193 -0.3318  1.0758  1.8714
  858TIP3    H2 2539   2.176   1.487   4.301  2.0696  1.6949 -0.2484
  859TIP3   OH2 2540   3.538   3.593   1.110  0.1974  0.0383  0.0171
  859TIP3    H1 2541   3.602   3.558   1.047 -0.0443  0.2883 -0.3727
  859TIP3    H2 2542   3.512   3.677   1.073  0.7000  0.5880  0.9062
  860TIP3   OH2 2543   5.163   2.848   3.418 -0.2702  0.0008  0.9397
  860TIP3    H1 2544   5.076   2.825   3.452  0.1859 -1.7293  1.0306
  860TIP3    H2 2545   5.146   2.914   3.351 -1.6745 -0.4329  0.8310
  861TIP3   OH2 2546   5.577   3.989   1.119  0.2663 -0.2900  0.1467
  861TIP3    H1 2547   5.513   3.966   1.052  0.1591  0.5892 -0.0562
  861TIP3    H2 2548   5.655   3.937   1.097 -0.0783 -0.6981 -0.1156
  862TIP3   OH2 2549   3.737   2.107   0.222 -0.5482  0.3342  0.1202
  862TIP3    H1 2550   3.697   2.184   0.183  1.0259  1.0239 -0.2020
  862TIP3    H2 2551   3.703   2.033   0.171  0.0868  1.0614 -1.4126
  863TIP3   OH2 2552   4.913   0.593   0.741  1.0951  0.4099  0.4038
  863TIP3    H1 2553   4.859   0.559   0.813 -2.5155  1.2033 -1.6624
  863TIP3    H2 2554   4.984   0.530   0.733 -2.0474 -3.5907  0.4545
  864TIP3   OH2 2555   1.062   1.833   2.465  0.6849 -0.3220 -0.1662
  864TIP3    H1 2556   0.976   1.801   2.437  0.9242 -2.8583  1.6201
  864TIP3    H2 2557   1.066   1.922   2.432 -1.3727 -1.0956 -2.9072
  865TIP3   OH2 2558   2.373   2.344   1.590  0.5304  0.0440 -0.0357
  865TIP3    H1 2559   2.322   2.355   1.671  0.2038  0.5200 -0.3022
  865TIP3    H2 2560   2.313   2.299   1.531  0.0170  1.5894 -0.7258
  866TIP3   OH2 2561   0.777   4.497   4.207 -0.2918 -0.1503  0.2805
  866TIP3    H1 2562   0.838   4.570   4.216  0.4079 -0.7368  0.4466
  866TIP3    H2 2563   0.767   4.486   4.112  0.8198 -0.8067  0.2203
  867TIP3   OH2 2564   2.579   1.672   2.688  0.1764 -0.1136  0.9096
  867TIP3    H1 2565   2.596   1.633   2.602  0.8406 -0.6715  1.2858
  867TIP3    H2 2566   2.581   1.598   2.749 -0.5105  0.2470  1.3844
  868TIP3   OH2 2567   5.307   1.932   3.911 -0.5004  0.2779 -0.1809
  868TIP3    H1 2568   5.341   1.925   3.822  2.3668 -0.2828  0.8529
  868TIP3    H2 2569   5.311   2.025   3.931  1.9029  0.1240  0.3556
  869TIP3   OH2 2570   4.740   0.516   2.032 -0.0824 -0.2554 -0.8589
  869TIP3    H1 2571   4.788   0.598   2.045 -0.2147 -0.4015  0.7868
  869TIP3    H2 2572   4.672   0.517   2.100 -0.2341 -1.6222 -0.9626
  870TIP3   OH2 2573   0.101   3.670   4.058  0.2511  0.0202  0.8981
  870TIP3    H1 2574   0.147   3.604   4.006 -2.2908 -0.3876 -1.0466
  870TIP3    H2 2575   0.161   3.745   4.058  1.6205 -0.9994 -0.0565
  871TIP3   OH2 2576   3.082   5.791   0.703  0.3137 -0.0123 -0.3965
  871TIP3    H1 2577   3.138   5.769   0.629  1.7173  0.4788  0.4951
  871TIP3    H2 2578   3.076   5.710   0.753  0.3241 -0.0311 -0.4259
  872TIP3   OH2 2579   1.863   4.872   1.648 -0.1215  0.3686 -0.2511
  872TIP3    H1 2580   1.896   4.879   1.738 -0.5660 -2.1096  0.1925
  872TIP3    H2 2581   1.873   4.779   1.626  0.0989  0.9382 -2.8439
  873TIP3   OH2 2582   2.832   5.766   1.547  0.1628  0.5804 -0.1705
  873TIP3    H1 2583   2.860   5.838   1.603 -0.2548  1.1906 -0.7301
  873TIP3    H2 2584   2.770   5.717   1.601  1.0981  0.1237  0.5173
  874TIP3   OH2 2585   2.054   2.258   3.462  0.0972  0.6214 -0.4272
  874TIP3    H1 2586   2.090   2.278   3.375 -0.1558  1.8578 -0.2689
  874TIP3    H2 2587   2.115   2.297   3.523 -1.4152  2.7544 -0.1575
  875TIP3   OH2 2588   5.354   0.316   2.190  0.0392 -0.6615  0.5701
  875TIP3    H1 2589   5.310   0.400   2.178  1.9667  0.4744  0.9645
  875TIP3    H2 2590   5.284   0.252   2.193 -1.6362  1.1279  2.0980
  876TIP3   OH2 2591   3.756   6.327   3.999 -0.6297  0.2129 -0.1720
  876TIP3    H1 2592   3.700   6.250   3.987 -0.4627 -0.2033  1.4131
  876TIP3    H2 2593   3.821   6.299   4.064  1.2749  0.7733 -1.7448
  877TIP3   OH2 2594   2.923   3.135   1.776 -0.8162  0.3484  0.1915
  877TIP3    H1 2595   2.967   3.214   1.744  1.2529 -0.9007 -0.2711
  877TIP3    H2 2596   2.994   3.080   1.809 -2.3299 -0.7922  1.7500
  878TIP3   OH2 2597   1.549   4.690   3.631 -0.2470  0.2979  0.8686
  878TIP3    H1 2598   1.625   4.648   3.591 -0.7244 -1.3425  1.6078
  878TIP3    H2 2599   1.499   4.723   3.556 -0.8245 -2.2037  0.0537
  879TIP3   OH2 2600   2.061   4.146   0.458 -0.1323 -0.1995 -0.8110
  879TIP3    H1 2601   2.023   4.228   0.489 -0.4231 -0.2188 -1.1132
  879TIP3    H2 2602   1.988   4.084   0.458  0.0938 -0.4685 -0.5505
  880TIP3   OH2 2603   2.238   4.548   4.347  0.1061  0.7586  0.2113
  880TIP3    H1 2604   2.310   4.577   4.404  0.2451  1.3407 -0.2538
  880TIP3    H2 2605   2.281   4.525   4.265 -0.2877  1.6294 -0.2540
  881TIP3   OH2 2606   4.317   2.376   5.114 -0.1667 -0.2336 -0.0745
  881TIP3    H1 2607   4.339   2.434   5.041 -1.4701 -0.6137 -0.7872
  881TIP3    H2 2608   4.368   2.297   5.098  0.2460  0.0200 -0.0562
  882TIP3   OH2 2609   0.182   5.943   0.175  0.0473  0.4522  0.2137
  882TIP3    H1 2610   0.101   5.902   0.145  0.8309 -0.0127 -1.4221
  882TIP3    H2 2611   0.181   6.030   0.134  1.5610 -0.5187 -2.1544
  883TIP3   OH2 2612   2.818   5.132   5.754  0.0049 -0.1925 -0.0672
  883TIP3    H1 2613   2.857   5.045   5.764 -0.1201 -0.4584 -1.6028
  883TIP3    H2 2614   2.761   5.142   5.830 -0.2927 -1.6353 -0.0737
  884TIP3   OH2 2615   2.588   1.406   2.778 -0.0887 -0.1344 -0.4233
  884TIP3    H1 2616   2.499   1.373   2.793 -0.8569  1.8334 -0.3840
  884TIP3    H2 2617   2.645   1.343   2.823 -1.6857  0.3300  2.4505
  885TIP3   OH2 2618   5.363   4.986   5.026  0.0525 -0.4330 -0.1116
  885TIP3    H1 2619   5.329   5.062   4.979  0.1773  0.2184  0.8015
  885TIP3    H2 2620   5.454   4.977   4.996  0.3629  0.4336  0.5267
  886TIP3   OH2 2621   4.959   6.234   4.447  0.1150 -0.4887  0.2380
  886TIP3    H1 2622   4.996   6.298   4.385 -0.5354 -1.1490 -0.8793
  886TIP3    H2 2623   4.970   6.150   4.403 -1.5084 -0.8428  0.4509
  887TIP3   OH2 2624   4.570   2.883   3.608  0.7237  0.1934 -0.4309
  887TIP3    H1 2625   4.592   2.955   3.549  1.1024 -0.2059 -0.7909
  887TIP3    H2 2626   4.600   2.913   3.694  1.5403  0.1863 -0.6961
  888TIP3   OH2 2627   0.032   0.132   1.831 -0.5084  0.0316  0.1173
  888TIP3    H1 2628  -0.014   0.096   1.755 -1.7330  2.4806 -0.3860
  888TIP3    H2 2629   0.125   0.123   1.809 -0.6970 -2.9240  0.1494
  889TIP3   OH2 2630   6.777   5.702   0.482  0.9076  0.7362 -0.3500
  889TIP3    H1 2631   6.827   5.704   0.401  1.2891 -0.6618 -0.1796
  889TIP3    H2 2632   6.839   5.669   0.547  0.2888  0.7687  0.2679
  890TIP3   OH2 2633   6.409   0.686   1.521  0.0718  0.4421  0.1915
  890TIP3    H1 2634   6.496   0.667   1.556 -0.7132  1.4683  2.9701
  890TIP3    H2 2635   6.408   0.781   1.508 -1.0872  0.7008  1.7889
  891TIP3   OH2 2636   6.418   5.864   1.537  0.0397  0.1381 -0.2433
  891TIP3    H1 2637   6.325   5.845   1.532  0.3165 -1.5294  0.2231
  891TIP3    H2 2638   6.429   5.913   1.619 -0.2290 -1.1933  0.6255
  892TIP3   OH2 2639   3.229   2.804   4.766  0.0796 -0.6185  0.0225
  892TIP3    H1 2640   3.144   2.763   4.785  0.4313 -1.1155  0.5628
  892TIP3    H2 2641   3.269   2.815   4.852 -0.3057  1.5545 -0.0192
  893TIP3   OH2 2642   4.084   2.061   2.281  0.0312 -0.7912 -0.3333
  893TIP3    H1 2643   4.175   2.036   2.264  0.3122 -0.5884  0.8346
  893TIP3    H2 2644   4.035   1.980   2.270  0.1281 -0.6223 -2.4065
  894TIP3   OH2 2645   2.260   3.918   3.040 -0.2677  0.2059 -0.0441
  894TIP3    H1 2646   2.217   3.841   3.003 -2.4101  2.0020 -1.5597
  894TIP3    H2 2647   2.308   3.956   2.967  0.5413  0.4936  0.6199
  895TIP3   OH2 2648   6.142   6.535   5.579  0.0235 -0.4912  0.3490
  895TIP3    H1 2649   6.187   6.602   5.528 -1.1255 -0.2922 -0.4340
  895TIP3    H2 2650   6.195   6.527   5.659  0.9691  0.3138 -0.1679
  896TIP3   OH2 2651   5.381   4.053   5.089 -0.3589 -0.1816  0.1291
  896TIP3    H1 2652   5.366   3.961   5.068 -0.6914 -0.0846 -0.0748
  896TIP3    H2 2653   5.417   4.052   5.177  0.0789 -0.5354 -0.0495
  897TIP3   OH2 2654   6.585   3.168   0.669  0.0509 -0.3535 -0.1409
  897TIP3    H1 2655   6.654   3.137   0.610  1.1314 -0.4654  1.1115
  897TIP3    H2 2656   6.585   3.105   0.741 -0.3345  0.4452  0.5877
  898TIP3   OH2 2657   2.211   0.610   4.198  1.4581 -0.0352  0.1006
  898TIP3    H1 2658   2.210   0.585   4.106  0.7383 -1.3333  0.4407
  898TIP3    H2 2659   2.192   0.704   4.197 -1.1072 -0.4722 -0.9828
  899TIP3   OH2 2660   4.328   6.678   2.876 -0.4535  0.0419 -0.1615
  899TIP3    H1 2661   4.246   6.645   2.839  0.4943 -2.4703 -0.2705
  899TIP3    H2 2662   4.381   6.701   2.800 -1.9520  4.6143 -0.1152
  900TIP3   OH2 2663   0.108   1.280   4.273  0.6202 -0.1524 -0.8839
  900TIP3    H1 2664   0.088   1.331   4.194  1.7468 -0.2589 -1.2609
  900TIP3    H2 2665   0.111   1.345   4.343 -0.0540 -0.0071 -0.9878
  901TIP3   OH2 2666   4.585   5.050   3.958 -0.4390  0.2794  0.1847
  901TIP3    H1 2667   4.623   4.990   4.022 -0.3580  0.6731  0.5086
  901TIP3    H2 2668   4.609   5.137   3.989 -0.1407  0.4635 -0.5459
  902TIP3   OH2 2669   4.497   3.262   3.977 -0.2021  0.0036  0.1408
  902TIP3    H1 2670   4.535   3.294   4.058  0.4070  0.3734 -0.2778
  902TIP3    H2 2671   4.494   3.339   3.920  1.0664 -0.6170 -0.8040
  903TIP3   OH2 2672   3.499   2.061   1.166  0.1460  0.0921  0.6967
  903TIP3    H1 2673   3.535   2.114   1.237 -1.1751  0.9043  0.7954
  903TIP3    H2 2674   3.532   2.103   1.086  0.8902 -0.2756  0.8036
  904TIP3   OH2 2675   2.703   5.202   5.049 -0.4635 -0.0084 -0.9321
  904TIP3    H1 2676   2.610   5.225   5.042 -0.1585  1.2701 -1.0614
  904TIP3    H2 2677   2.706   5.136   5.117 -1.3542  0.7573 -0.1141
  905TIP3   OH2 2678   6.244   0.672   5.255  0.3816  0.0192 -0.0813
  905TIP3    H1 2679   6.230   0.578   5.240  0.4406 -0.3904  2.0491
  905TIP3    H2 2680   6.299   0.700   5.182  1.3456 -1.8800 -0.1643
  906TIP3   OH2 2681   4.206   3.567   0.771  0.1749  0.5605 -0.6827
  906TIP3    H1 2682   4.246   3.628   0.834 -0.4181  0.5053 -0.2523
  906TIP3    H2 2683   4.112   3.577   0.784 -0.0433  1.8998 -2.8360
  907TIP3   OH2 2684   1.019   1.957   0.467 -0.5007  0.5484 -0.3311
  907TIP3    H1 2685   1.026   2.051   0.446 -0.3450  0.5276 -0.3762
  907TIP3    H2 2686   1.017   1.955   0.563 -1.0021  0.6290 -0.3368
  908TIP3   OH2 2687   5.772   4.979   5.760  0.0259 -0.7142 -0.6728
  908TIP3    H1 2688   5.756   4.891   5.794 -0.7592 -0.9900 -1.6774
  908TIP3    H2 2689   5.693   5.028   5.783  1.2838  0.3745  1.7113
  909TIP3   OH2 2690   2.760   1.253   1.248  0.0412  0.1712 -0.2084
  909TIP3    H1 2691   2.848   1.275   1.217  0.4736 -0.3828  0.5668
  909TIP3    H2 2692   2.776   1.195   1.323 -0.9904 -0.0510 -0.1514
  910TIP3   OH2 2693   3.372   4.295   0.924  0.2782 -0.0142  0.5950
  910TIP3    H1 2694   3.423   4.214   0.929 -0.0644 -0.3165 -0.5395
  910TIP3    H2 2695   3.409   4.351   0.993  1.7075 -0.4633  0.2158
  911TIP3   OH2 2696   1.479   2.162   1.543 -0.3507 -0.4294  0.3933
  911TIP3    H1 2697   1.546   2.097   1.564  0.4289  0.4453  0.6869
  911TIP3    H2 2698   1.489   2.176   1.448  1.9346  1.8075  0.8271
  912TIP3   OH2 2699   3.477   1.336   1.204  0.0673 -0.2817  0.2089
  912TIP3    H1 2700   3.456   1.343   1.297  0.9816  0.8316  0.3500
  912TIP3    H2 2701   3.398   1.300   1.164 -1.3448  1.7306  1.0253
  913TIP3   OH2 2702   0.952   2.417   1.978  0.0491 -0.0083 -0.2491
  913TIP3    H1 2703   1.040   2.418   1.939 -0.5635  1.4083 -1.6868
  913TIP3    H2 2704   0.964   2.374   2.063  1.4781 -3.1761 -1.8543
  914TIP3   OH2 2705   6.440   1.920   2.606 -0.4857 -0.0316 -0.2520
  914TIP3    H1 2706   6.362   1.876   2.641 -0.5293  0.5068  0.3351
  914TIP3    H2 2707   6.498   1.848   2.581 -1.1056 -0.4375 -0.5594
  915TIP3   OH2 2708   1.776   1.870   3.510  0.2629  0.1132  0.2374
  915TIP3    H1 2709   1.797   1.781   3.483  3.7078  1.2905 -1.6009
  915TIP3    H2 2710   1.697   1.893   3.461 -0.0553 -1.5401 -0.0692
  916TIP3   OH2 2711   4.127   4.016   0.500 -0.2618  0.5598  0.3022
  916TIP3    H1 2712   4.121   4.108   0.526 -1.3499  0.1671  1.5128
  916TIP3    H2 2713   4.048   4.001   0.448  1.8011  1.3085 -3.4435
  917TIP3   OH2 2714   0.256   2.167   2.354 -0.7552  0.5530  0.1267
  917TIP3    H1 2715   0.283   2.247   2.309 -2.3663  1.0198 -0.0791
  917TIP3    H2 2716   0.237   2.196   2.443 -2.4892  0.6672 -0.2555
  918TIP3   OH2 2717   5.535   6.104   0.973  0.6806 -0.0216  0.5341
  918TIP3    H1 2718   5.631   6.109   0.977  0.8096 -0.8427 -0.8436
  918TIP3    H2 2719   5.510   6.181   0.923  0.6831 -0.2120  0.2404
  919TIP3   OH2 2720   3.355   3.711   3.697 -0.2174  0.0410  0.1551
  919TIP3    H1 2721   3.439   3.755   3.693 -0.3573  0.2375 -0.9012
  919TIP3    H2 2722   3.297   3.764   3.641 -0.9139 -0.3514  0.4883
  920TIP3   OH2 2723   0.126   1.402   3.251  0.2615  0.2857  0.4593
  920TIP3    H1 2724   0.219   1.384   3.235 -0.3257 -3.5115  0.6191
  920TIP3    H2 2725   0.085   1.394   3.166  0.0222  2.2817  0.3314
  921TIP3   OH2 2726   5.532   0.713   1.076  0.8841 -0.0400  0.0107
  921TIP3    H1 2727   5.510   0.765   1.153  0.7029  1.4262 -0.9765
  921TIP3    H2 2728   5.569   0.776   1.014  0.1795 -0.9866 -1.4419
  922TIP3   OH2 2729   2.071   3.444   0.434 -0.8177  0.2115  0.4056
  922TIP3    H1 2730   1.999   3.423   0.493 -1.1219  0.0446 -0.0210
  922TIP3    H2 2731   2.029   3.478   0.355 -0.4399 -0.0126  0.1016
  923TIP3   OH2 2732   0.443   6.372   2.322 -0.6297  0.4772  0.4901
  923TIP3    H1 2733   0.476   6.404   2.406 -0.4764  3.3686 -0.5645
  923TIP3    H2 2734   0.502   6.411   2.257 -2.2237  0.3578 -1.0851
  924TIP3   OH2 2735   5.529   1.587   1.187  0.0494  0.1916  0.6722
  924TIP3    H1 2736   5.597   1.535   1.230 -0.4655 -0.8121  0.2941
  924TIP3    H2 2737   5.448   1.561   1.230 -0.5208 -1.0591 -1.0551
  925TIP3   OH2 2738   5.940   3.432   0.241 -0.1572 -0.4805  0.2205
  925TIP3    H1 2739   5.907   3.522   0.233 -1.0417 -0.7833  0.3923
  925TIP3    H2 2740   6.013   3.429   0.179  0.3425  0.5635  0.7291
  926TIP3   OH2 2741   2.311   3.995   4.072  0.0121 -0.7854  0.1902
  926TIP3    H1 2742   2.323   4.010   4.166 -1.0753 -0.0689  0.2338
  926TIP3    H2 2743   2.231   4.042   4.051  1.0435  0.3679 -1.4058
  927TIP3   OH2 2744   5.416   0.055   0.715  0.3380  0.0609  0.0369
  927TIP3    H1 2745   5.506   0.060   0.747  0.9857  1.7075 -1.8659
  927TIP3    H2 2746   5.416  -0.021   0.656  0.2915 -0.2934  0.4805
  928TIP3   OH2 2747   3.703   0.739   3.761  0.8648  0.7772  0.1101
  928TIP3    H1 2748   3.754   0.676   3.710 -0.8229  0.3261 -1.1107
  928TIP3    H2 2749   3.745   0.823   3.745  2.5020  0.1448  0.8941
  929TIP3   OH2 2750   3.968   1.117   2.926 -0.6215  0.7909 -0.2548
  929TIP3    H1 2751   3.909   1.172   2.874  2.3101  3.0469 -1.5039
  929TIP3    H2 2752   4.021   1.180   2.974  0.0256 -1.1696  1.7161
  930TIP3   OH2 2753   7.160   5.927   4.001  0.3805 -0.0255 -0.3385
  930TIP3    H1 2754   7.123   6.007   4.040  0.5798  0.0810 -0.3676
  930TIP3    H2 2755   7.251   5.949   3.983  1.2351 -1.1290  2.1679
  931TIP3   OH2 2756   5.973   5.539   1.176  0.3314 -0.6501  0.1130
  931TIP3    H1 2757   5.927   5.623   1.170  0.0498 -0.7902  0.2880
  931TIP3    H2 2758   6.010   5.525   1.089 -0.8126 -1.0243 -0.3210
  932TIP3   OH2 2759   2.596   0.913   0.010  0.2229  0.3236  0.1925
  932TIP3    H1 2760   2.680   0.883  -0.026  0.2029  0.2010  0.2464
  932TIP3    H2 2761   2.620   0.969   0.084  0.2482 -0.4347  0.7765
  933TIP3   OH2 2762   0.950   2.216   2.645 -0.0565  0.0228  0.0039
  933TIP3    H1 2763   1.000   2.254   2.572  0.7557  0.0243  0.5482
  933TIP3    H2 2764   1.002   2.236   2.723 -0.3160 -0.9909  0.4532
  934TIP3   OH2 2765   6.457   6.007   3.076 -0.2150  0.0261  0.0977
  934TIP3    H1 2766   6.518   5.975   3.143  0.0038  0.0946 -0.0694
  934TIP3    H2 2767   6.480   5.959   2.997  0.8970  1.3967 -0.4709
  935TIP3   OH2 2768   2.215   1.093   3.886  0.2068  0.0826 -0.4740
  935TIP3    H1 2769   2.143   1.030   3.880  0.2859 -0.0647  0.0487
  935TIP3    H2 2770   2.172   1.177   3.903  0.1886 -0.1203  0.5277
  936TIP3   OH2 2771   4.827   1.282   3.192 -0.1458 -0.7150 -0.4018
  936TIP3    H1 2772   4.831   1.344   3.120  0.4366  0.1125  0.3159
  936TIP3    H2 2773   4.764   1.322   3.253  1.3295 -0.0400  0.7458
  937TIP3   OH2 2774   0.098   0.823   2.800  0.4622  0.0007  0.0950
  937TIP3    H1 2775   0.016   0.831   2.849  0.8319  1.5298  0.5211
  937TIP3    H2 2776   0.072   0.784   2.717 -0.7475  0.6646  0.1350
  938TIP3   OH2 2777   2.195   2.084   0.405 -0.0123 -0.4145 -0.0934
  938TIP3    H1 2778   2.128   2.084   0.473  0.5110  1.0463  0.4659
  938TIP3    H2 2779   2.219   2.176   0.394 -0.3812 -0.5433 -2.5881
  939TIP3   OH2 2780   4.922   0.844   3.556  0.1473 -0.1982 -0.0468
  939TIP3    H1 2781   4.911   0.779   3.625 -5.1778  0.4287  0.1128
  939TIP3    H2 2782   4.908   0.929   3.599 -1.7314  0.2994 -1.4554
  940TIP3   OH2 2783   0.783   4.733   4.532  0.8895 -0.5756 -0.1044
  940TIP3    H1 2784   0.749   4.780   4.609  3.3674 -0.3820  0.9841
  940TIP3    H2 2785   0.710   4.679   4.503 -0.7504  0.8047  1.1887
  941TIP3   OH2 2786   2.072   0.891   1.495  0.3263 -0.2230 -0.9258
  941TIP3    H1 2787   2.075   0.876   1.401 -0.8115  0.9687 -1.1715
  941TIP3    H2 2788   2.024   0.816   1.530  1.8809 -1.3532 -1.1003
  942TIP3   OH2 2789   1.310   5.467   3.797  0.0746  0.0806  0.8156
  942TIP3    H1 2790   1.387   5.458   3.853  1.7252  1.3806 -1.1399
  942TIP3    H2 2791   1.290   5.378   3.769  0.2945 -0.3732  2.0223
  943TIP3   OH2 2792   3.538   4.630   3.323  0.5593  0.5858 -0.2781
  943TIP3    H1 2793   3.598   4.580   3.378 -1.0876 -1.8771 -0.5564
  943TIP3    H2 2794   3.544   4.587   3.237 -3.6767 -1.8732  0.3799
  944TIP3   OH2 2795   2.669   5.863   2.306 -0.1735 -0.8131  0.3720
  944TIP3    H1 2796   2.649   5.796   2.372  0.3301 -0.2528  1.1193
  944TIP3    H2 2797   2.765   5.864   2.302 -0.1968 -0.6277 -0.1474
  945TIP3   OH2 2798   3.812   5.092   2.444 -0.2585 -0.3960  0.1322
  945TIP3    H1 2799   3.830   5.077   2.351 -0.6802 -1.3233  0.1929
  945TIP3    H2 2800   3.841   5.013   2.488 -4.8835 -2.4121  0.1594
  946TIP3   OH2 2801   6.000   4.597   4.100  0.2592 -0.6088 -0.6705
  946TIP3    H1 2802   5.944   4.669   4.072  1.1901  0.3392 -0.1520
  946TIP3    H2 2803   6.090   4.628   4.086  0.6976 -1.3029  0.4052
  947TIP3   OH2 2804   4.654   2.834   2.289 -0.5536  0.8578 -0.9114
  947TIP3    H1 2805   4.584   2.769   2.278 -0.8389  1.2968 -1.8104
  947TIP3    H2 2806   4.659   2.878   2.204  1.1396  0.5318 -1.0001
  948TIP3   OH2 2807   6.313   1.483   2.490  0.0227 -0.3848 -0.1110
  948TIP3    H1 2808   6.344   1.449   2.406 -3.0965  0.7083 -1.8756
  948TIP3    H2 2809   6.295   1.575   2.473 -1.8890 -0.4350  1.3549
  949TIP3   OH2 2810   4.063   3.068   1.769 -0.7001  0.1885  0.3472
  949TIP3    H1 2811   4.059   3.067   1.673  2.1527 -0.5451  0.1479
  949TIP3    H2 2812   4.046   2.977   1.794 -0.7788  0.2381  0.4695
  950TIP3   OH2 2813   6.482   3.373   0.029 -0.0936 -0.0162  0.3277
  950TIP3    H1 2814   6.430   3.440  -0.016  0.8255  0.3136 -0.2777
  950TIP3    H2 2815   6.564   3.418   0.052  0.5174 -0.9032 -0.0465
  951TIP3   OH2 2816   0.294   3.526   0.532  0.1945  0.1188 -0.0724
  951TIP3    H1 2817   0.200   3.507   0.527 -0.4655  2.4980  1.5055
  951TIP3    H2 2818   0.318   3.547   0.442 -1.2011  1.0102 -0.2844
  952TIP3   OH2 2819   4.237   4.846   1.675 -0.2550  0.3663 -0.1287
  952TIP3    H1 2820   4.188   4.849   1.758 -1.3398  1.4803 -0.7802
  952TIP3    H2 2821   4.239   4.753   1.652  0.0228  0.0394  1.1075
  953TIP3   OH2 2822   3.197   4.553   5.757  0.1379  0.4093 -0.1897
  953TIP3    H1 2823   3.203   4.570   5.851 -0.8695  0.7889 -0.1814
  953TIP3    H2 2824   3.287   4.557   5.726  0.3987  1.0664  0.6234
  954TIP3   OH2 2825   0.206   3.887   4.936  0.1712  0.3919 -0.5452
  954TIP3    H1 2826   0.171   3.885   4.847  1.2003  1.2400 -0.9938
  954TIP3    H2 2827   0.170   3.809   4.978 -1.2167  0.5647 -1.3494
  955TIP3   OH2 2828   3.930   3.967   3.231  0.3313 -0.1712  0.4393
  955TIP3    H1 2829   4.004   3.979   3.172 -1.0500  0.2301 -1.2858
  955TIP3    H2 2830   3.956   3.894   3.287  1.5113 -0.8775 -0.9485
  956TIP3   OH2 2831   0.406   1.584   5.861  0.3997 -0.3719 -0.6325
  956TIP3    H1 2832   0.406   1.679   5.871  0.0227 -0.0640 -3.0232
  956TIP3    H2 2833   0.324   1.565   5.816 -0.8196 -2.1731  2.1167
  957TIP3   OH2 2834   6.854   0.332   4.624  0.4488 -0.1217 -0.3089
  957TIP3    H1 2835   6.887   0.375   4.545  0.1075  0.4139 -0.1615
  957TIP3    H2 2836   6.779   0.282   4.593  0.3217  0.0791 -0.3266
  958TIP3   OH2 2837   3.973   5.293   2.524 -0.2802 -1.0214  0.3455
  958TIP3    H1 2838   4.015   5.211   2.551 -0.3034 -0.8219  0.9908
  958TIP3    H2 2839   3.880   5.277   2.535 -0.2634 -0.7539  0.9363
  959TIP3   OH2 2840   5.511   3.818   3.096  0.7806  0.0701  0.2135
  959TIP3    H1 2841   5.493   3.792   3.005 -1.7978  0.8912  0.3909
  959TIP3    H2 2842   5.560   3.900   3.089 -1.8860  1.7298 -0.5967
  960TIP3   OH2 2843   0.473   2.646   0.169  0.5245 -1.0390 -0.2677
  960TIP3    H1 2844   0.432   2.686   0.246  3.1326 -2.8353  2.2770
  960TIP3    H2 2845   0.410   2.660   0.098 -1.9171  0.9837  2.0807
  961TIP3   OH2 2846   2.238   1.798   1.143 -0.1635  0.2973  0.4766
  961TIP3    H1 2847   2.261   1.747   1.220  1.6113  0.6391  0.2189
  961TIP3    H2 2848   2.261   1.888   1.166 -0.8098  0.5942 -0.0030
  962TIP3   OH2 2849   1.457   2.630   0.305 -0.0156 -0.4416 -0.4500
  962TIP3    H1 2850   1.492   2.567   0.368 -0.7700 -1.6397 -1.1917
  962TIP3    H2 2851   1.362   2.624   0.314 -0.1407 -0.6252 -1.6685
  963TIP3   OH2 2852   6.657   1.421   1.799  0.0323 -0.5516  0.5806
  963TIP3    H1 2853   6.665   1.504   1.846 -0.5151 -0.6477  0.8507
  963TIP3    H2 2854   6.679   1.443   1.708 -0.7539  0.0448  0.5188
  964TIP3   OH2 2855   0.196   5.674   3.703 -0.5097  0.1938 -0.0113
  964TIP3    H1 2856   0.169   5.593   3.747  1.3148  0.1178  1.0828
  964TIP3    H2 2857   0.150   5.672   3.619 -1.4521 -1.3587  0.4905
  965TIP3   OH2 2858   2.762   1.437   0.955  0.2094 -0.4193 -0.3707
  965TIP3    H1 2859   2.781   1.359   1.008  2.1296 -0.2358 -0.7365
  965TIP3    H2 2860   2.707   1.491   1.012 -1.0678 -1.9565 -0.0683
  966TIP3   OH2 2861   2.669   2.793   5.713 -0.6855 -0.4754  0.0664
  966TIP3    H1 2862   2.712   2.861   5.765 -1.1301 -0.9437  1.0811
  966TIP3    H2 2863   2.739   2.729   5.697 -0.5647 -0.3750  0.1830
  967TIP3   OH2 2864   2.476   5.615   2.384  0.8332 -0.0444 -0.1896
  967TIP3    H1 2865   2.424   5.541   2.416  1.3784 -1.0965 -1.6392
  967TIP3    H2 2866   2.411   5.680   2.358  0.2313 -1.0546 -1.3161
  968TIP3   OH2 2867   1.356   3.716   5.442 -0.5877 -0.5898 -0.1748
  968TIP3    H1 2868   1.359   3.798   5.491  1.2891  0.8303 -2.4584
  968TIP3    H2 2869   1.384   3.649   5.505 -0.2994  0.7974  1.2297
  969TIP3   OH2 2870   0.634   1.646   1.059 -0.2948 -0.0736  0.5392
  969TIP3    H1 2871   0.666   1.735   1.069  0.9991 -0.5570  1.0209
  969TIP3    H2 2872   0.688   1.595   1.120 -0.0099 -1.3955 -0.7692
  970TIP3   OH2 2873   6.870   3.073   4.952  0.3913 -0.1495  0.6464
  970TIP3    H1 2874   6.792   3.126   4.965  1.0949  1.1415 -0.1565
  970TIP3    H2 2875   6.930   3.101   5.022  0.4344 -0.5528  0.7739
  971TIP3   OH2 2876   7.177   1.392   3.026 -0.2505  0.5197 -0.1243
  971TIP3    H1 2877   7.146   1.307   2.993 -0.8621  0.4595  0.5813
  971TIP3    H2 2878   7.227   1.429   2.954 -1.9835  0.6233 -1.3300
  972TIP3   OH2 2879   7.145   3.403   4.729  0.5485  0.1418 -0.5084
  972TIP3    H1 2880   7.230   3.442   4.751  1.1111 -1.0325 -0.4945
  972TIP3    H2 2881   7.164   3.341   4.659  0.1288 -1.7380  0.9433
  973TIP3   OH2 2882   2.697   3.993   0.924 -0.3148  0.0144 -0.5775
  973TIP3    H1 2883   2.694   3.931   0.851 -0.7063 -2.0986  1.1419
  973TIP3    H2 2884   2.770   3.961   0.979  0.3182  1.8662 -0.2728
  974TIP3   OH2 2885   5.053   5.593   4.220 -0.5801  0.0028  0.3547
  974TIP3    H1 2886   5.134   5.634   4.250 -0.5902  0.5703 -0.3713
  974TIP3    H2 2887   5.008   5.662   4.172 -1.9287 -0.0332  1.5215
  975TIP3   OH2 2888   0.278   3.680   5.313  0.3238  0.1609 -0.3592
  975TIP3    H1 2889   0.224   3.674   5.234  0.5584 -0.9163 -0.4547
  975TIP3    H2 2890   0.250   3.761   5.356 -1.1754 -0.2468 -0.5331
  976TIP3   OH2 2891   3.295   3.606   2.964 -0.2107 -0.1241 -0.3873
  976TIP3    H1 2892   3.308   3.691   3.006 -0.4635 -0.1332 -0.2910
  976TIP3    H2 2893   3.265   3.549   3.034 -0.0594 -0.2903 -0.4565
  977TIP3   OH2 2894   4.157   1.038   2.066 -0.3122  0.2837  0.3001
  977TIP3    H1 2895   4.118   1.076   1.987  0.4810 -0.7431 -0.6365
  977TIP3    H2 2896   4.233   1.093   2.084  0.6515 -0.5767 -0.8666
  978TIP3   OH2 2897   3.554   5.300   4.138 -0.0448  0.1661 -0.5895
  978TIP3    H1 2898   3.492   5.235   4.106  0.6377  1.2594 -4.6338
  978TIP3    H2 2899   3.513   5.385   4.120  0.0182  1.0174  2.5697
  979TIP3   OH2 2900   3.141   5.614   1.451 -0.1239 -0.6725 -0.3403
  979TIP3    H1 2901   3.077   5.565   1.502 -1.5865  1.9014  0.5060
  979TIP3    H2 2902   3.135   5.578   1.362 -2.6826 -0.6175 -0.2476
  980TIP3   OH2 2903   5.394   3.782   0.761 -0.2184  0.6181  0.5836
  980TIP3    H1 2904   5.387   3.850   0.828  0.4548  2.0259 -0.7078
  980TIP3    H2 2905   5.487   3.779   0.738 -0.4888  0.5137 -0.5950
  981TIP3   OH2 2906   6.287   1.611   5.025  0.6363 -0.2159  0.0012
  981TIP3    H1 2907   6.203   1.580   4.991  0.5658  0.1909 -0.2017
  981TIP3    H2 2908   6.350   1.594   4.956  1.1573 -2.5069  0.9540
  982TIP3   OH2 2909   1.865   1.129   1.965 -0.3793 -0.0096 -0.4683
  982TIP3    H1 2910   1.851   1.208   1.913  0.3668  1.0897  0.9427
  982TIP3    H2 2911   1.781   1.113   2.008 -0.3951  0.2726 -0.3952
  983TIP3   OH2 2912   5.349   4.856   5.680  0.2545  1.1357  0.1922
  983TIP3    H1 2913   5.264   4.898   5.666 -0.1848  0.9384  2.0372
  983TIP3    H2 2914   5.372   4.877   5.770 -0.7151 -3.6774  1.8620
  984TIP3   OH2 2915   6.936   2.994   1.140  0.1752  0.7132 -0.0104
  984TIP3    H1 2916   6.895   3.004   1.226 -1.8823 -0.4568 -0.7854
  984TIP3    H2 2917   7.030   3.006   1.156 -0.1808  0.7847  2.3269
  985TIP3   OH2 2918   1.659   2.309   2.061 -0.2337 -0.3571 -0.5721
  985TIP3    H1 2919   1.708   2.381   2.021  0.7524  0.7039  2.2353
  985TIP3    H2 2920   1.574   2.346   2.082  0.3984  0.2223  1.2087
  986TIP3   OH2 2921   0.275   6.685   3.259  0.3029  0.1626 -0.0963
  986TIP3    H1 2922   0.196   6.638   3.231  0.2952 -0.4161  0.8604
  986TIP3    H2 2923   0.242   6.770   3.290  0.0693 -0.0212  0.1647
  987TIP3   OH2 2924   6.374   0.103   5.395  0.0918  0.2613  0.7044
  987TIP3    H1 2925   6.445   0.152   5.354  1.1983 -1.5309  0.3399
  987TIP3    H2 2926   6.396   0.011   5.377 -0.3560 -0.5236  3.7327
  988TIP3   OH2 2927   3.882   4.057   3.563  0.1248  0.6032  0.0318
  988TIP3    H1 2928   3.913   3.996   3.630 -0.0729  0.2052 -0.2334
  988TIP3    H2 2929   3.950   4.125   3.559  1.5527 -0.8103 -1.2715
  989TIP3   OH2 2930   3.591   0.518   1.883 -0.4733 -0.4740 -0.2317
  989TIP3    H1 2931   3.618   0.529   1.974  0.2049  1.2510 -0.6016
  989TIP3    H2 2932   3.570   0.425   1.875 -0.0432 -0.7555  1.5437
  990TIP3   OH2 2933   4.944   1.523   0.986  0.6223  0.7542 -0.5231
  990TIP3    H1 2934   5.020   1.581   0.985  0.2315  1.9038  5.1350
  990TIP3    H2 2935   4.869   1.583   0.992 -0.3527 -0.3862 -0.8522
  991TIP3   OH2 2936   6.044   4.340   5.725  0.5273  0.8094 -0.0037
  991TIP3    H1 2937   6.006   4.417   5.766 -2.2981 -0.9422  0.8797
  991TIP3    H2 2938   6.039   4.272   5.791  4.1168  0.0343 -0.3148
  992TIP3   OH2 2939   4.774   6.039   3.522 -0.4835  0.5615  0.9196
  992TIP3    H1 2940   4.746   5.961   3.570  2.3090  0.0593  1.9168
  992TIP3    H2 2941   4.740   6.112   3.572  0.7836  0.0125  2.6770
  993TIP3   OH2 2942   3.671   3.835   4.396  0.1775 -0.4753 -0.8915
  993TIP3    H1 2943   3.618   3.889   4.338 -0.3116  0.4371  0.3567
  993TIP3    H2 2944   3.618   3.757   4.412 -0.1576 -0.2317 -0.8130
  994TIP3   OH2 2945   6.379   3.915   0.278 -0.0354 -0.1686 -0.1801
  994TIP3    H1 2946   6.444   3.848   0.258  1.1751  1.2175 -1.1344
  994TIP3    H2 2947   6.302   3.890   0.228 -0.0304 -1.4743  0.4257
  995TIP3   OH2 2948   2.842   3.733   0.134  0.1046  0.7637  0.1654
  995TIP3    H1 2949   2.776   3.663   0.141  1.1865 -0.3891 -0.8411
  995TIP3    H2 2950   2.803   3.796   0.074 -1.2586  1.5307  1.7434
  996TIP3   OH2 2951   6.514   5.136   0.659 -0.0128 -0.0238  0.0749
  996TIP3    H1 2952   6.505   5.196   0.585 -0.2834  0.4913  0.5247
  996TIP3    H2 2953   6.426   5.099   0.670  0.0836 -0.2818 -0.0096
  997TIP3   OH2 2954   1.826   3.514   0.547  0.0236 -0.0917 -0.2726
  997TIP3    H1 2955   1.750   3.558   0.585 -0.5201 -0.6895 -0.6406
  997TIP3    H2 2956   1.825   3.427   0.587  0.2319 -0.2707 -0.6542
  998TIP3   OH2 2957   7.066   1.837   3.421  0.1903 -0.0563  0.4812
  998TIP3    H1 2958   6.986   1.877   3.387  0.5678  0.7556  0.5240
  998TIP3    H2 2959   7.054   1.835   3.516  0.5318  0.7825  0.5519
  999TIP3   OH2 2960   4.753   1.199   0.148  0.1359 -0.2504  0.3115
  999TIP3    H1 2961   4.672   1.212   0.198 -1.2572 -0.1395 -1.8419
  999TIP3    H2 2962   4.793   1.286   0.144  0.6135 -0.3783  1.7205
 1000TIP3   OH2 2963   4.462   0.479   4.435 -0.0347 -0.1724  0.3369
 1000TIP3    H1 2964   4.446   0.571   4.414 -0.0234  0.0658  1.3444
 1000TIP3    H2 2965   4.378   0.446   4.465 -0.5465 -1.0380 -1.8384
 1001TIP3   OH2 2966   0.610   1.313   3.500 -0.0509  0.0733 -0.6018
 1001TIP3    H1 2967   0.657   1.292   3.581 -0.3473  0.4315 -0.3309
 1001TIP3    H2 2968   0.543   1.375   3.528  1.3673  2.1279 -1.5071
 1002TIP3   OH2 2969   2.425   4.356   2.566  0.5127 -0.2520  0.4537
 1002TIP3    H1 2970   2.478   4.395   2.497  0.7428 -0.3061  0.5971
 1002TIP3    H2 2971   2.427   4.420   2.637 -0.3130  0.1223  0.1448
 1003TIP3   OH2 2972   5.622   2.895   2.201  0.1966 -0.0720 -0.6942
 1003TIP3    H1 2973   5.656   2.974   2.161  0.7457 -0.1074 -0.3088
 1003TIP3    H2 2974   5.541   2.877   2.154  0.0749  0.7093 -0.7879
 1004TIP3   OH2 2975   1.503   0.577   5.842 -0.0984 -0.2043  0.0867
 1004TIP3    H1 2976   1.448   0.548   5.770 -0.3055 -0.4454  0.3397
 1004TIP3    H2 2977   1.542   0.659   5.811 -0.9331  0.1962  0.0619
 1005TIP3   OH2 2978   5.966   0.462   5.705  0.1519 -0.0331 -0.4264
 1005TIP3    H1 2979   5.874   0.466   5.678 -0.4154 -0.7782  1.2073
 1005TIP3    H2 2980   5.982   0.369   5.722  1.5214 -0.0479 -1.6010
 1006TIP3   OH2 2981   4.884   4.243   1.313 -0.2913  0.7522 -0.1276
 1006TIP3    H1 2982   4.897   4.202   1.398 -2.6427  0.5373  0.1919
 1006TIP3    H2 2983   4.819   4.187   1.269 -1.3977  2.5063 -0.8338
 1007TIP3   OH2 2984   3.211   3.093   4.620 -0.2254 -0.2767  0.5817
 1007TIP3    H1 2985   3.232   3.023   4.681 -0.1305 -1.6634 -0.9800
 1007TIP3    H2 2986   3.118   3.111   4.636 -0.0910 -0.2650  1.4309
 1008TIP3   OH2 2987   3.383   1.886   3.191 -0.0155  0.0387  0.7742
 1008TIP3    H1 2988   3.392   1.931   3.107  0.7047 -1.0762  0.2375
 1008TIP3    H2 2989   3.311   1.824   3.179  0.1419 -0.1824  0.9509
 1009TIP3   OH2 2990   0.152   6.579   2.997  0.1856 -0.7958  0.2111
 1009TIP3    H1 2991   0.139   6.494   2.955 -0.9979 -0.7131  0.3948
 1009TIP3    H2 2992   0.077   6.589   3.055  0.1993  0.4797  0.0301
 1010TIP3   OH2 2993   0.875   5.807   5.456  0.1587 -0.5608  0.0799
 1010TIP3    H1 2994   0.913   5.803   5.543 -0.2229 -0.7735  0.2391
 1010TIP3    H2 2995   0.872   5.900   5.435  0.6627 -0.5375  0.1091
 1011TIP3   OH2 2996   6.046   3.320   5.649 -0.1208 -0.1307  0.0450
 1011TIP3    H1 2997   6.025   3.333   5.742 -2.2929 -0.3176 -0.3696
 1011TIP3    H2 2998   6.132   3.361   5.638 -0.7145  1.7385  1.7014
 1012TIP3   OH2 2999   6.316   5.897   0.734 -0.2099 -0.1258  0.7572
 1012TIP3    H1 3000   6.406   5.865   0.724 -0.6871 -1.7593  1.3997
 1012TIP3    H2 3001   6.261   5.822   0.712 -1.4092  0.6020  1.1672
 1013TIP3   OH2 3002   0.211   1.977   1.541  0.2409 -0.3051 -0.1184
 1013TIP3    H1 3003   0.259   1.904   1.581 -0.8990 -1.5219 -0.9130
 1013TIP3    H2 3004   0.261   1.998   1.462  1.1450  0.5054  0.6301
 1014TIP3   OH2 3005   2.900   5.884   2.641  0.3827  0.2670  0.0566
 1014TIP3    H1 3006   2.814   5.925   2.628  0.4611  0.0032 -1.4085
 1014TIP3    H2 3007   2.946   5.944   2.700  0.3792  2.1673 -1.7446
 1015TIP3   OH2 3008   3.901   3.485   3.251  0.1640 -0.0156 -0.0774
 1015TIP3    H1 3009   3.884   3.451   3.163  0.3646 -0.5018  0.0689
 1015TIP3    H2 3010   3.888   3.580   3.243  0.5906 -0.0078 -0.7267
 1016TIP3   OH2 3011   2.438   0.911   0.516  0.3886  0.2541  0.2837
 1016TIP3    H1 3012   2.404   0.949   0.596 -1.4845 -1.8963  0.6044
 1016TIP3    H2 3013   2.523   0.875   0.540  0.3620  0.6438  0.9767
 1017TIP3   OH2 3014   6.715   6.348   0.537  0.1022  0.0849 -0.8353
 1017TIP3    H1 3015   6.629   6.389   0.541 -0.2196 -0.4319 -2.1230
 1017TIP3    H2 3016   6.698   6.256   0.516  0.9521 -0.1146 -0.7183
 1018TIP3   OH2 3017   1.286   1.764   5.770  0.0243  0.4071 -0.1241
 1018TIP3    H1 3018   1.204   1.721   5.793  0.2774  0.5202  1.0776
 1018TIP3    H2 3019   1.288   1.844   5.823  1.2612 -0.0060  0.5180
 1019TIP3   OH2 3020   3.749   0.691   3.409  0.5011  0.7631  0.3688
 1019TIP3    H1 3021   3.744   0.649   3.323  0.9206  1.6148 -0.0737
 1019TIP3    H2 3022   3.790   0.625   3.465  0.6432  0.3754 -0.1802
 1020TIP3   OH2 3023   5.831   4.261   1.070 -0.2271  0.2000 -0.5613
 1020TIP3    H1 3024   5.824   4.182   1.015  0.2943  1.4880 -2.5672
 1020TIP3    H2 3025   5.745   4.303   1.062 -0.5835 -0.2635  0.6999
 1021TIP3   OH2 3026   3.708   2.943   1.519 -0.1857  0.1238 -0.1325
 1021TIP3    H1 3027   3.719   2.918   1.611 -2.1969  0.5763  0.2819
 1021TIP3    H2 3028   3.641   3.012   1.521 -1.2327 -0.7542 -2.0226
 1022TIP3   OH2 3029   3.036   4.908   2.446  0.8204  0.6618  0.0015
 1022TIP3    H1 3030   2.977   4.884   2.517  1.2374 -0.1505  0.0832
 1022TIP3    H2 3031   3.123   4.883   2.477  0.9093 -0.5372 -1.1227
 1023TIP3   OH2 3032   2.768   1.250   4.128 -0.1052 -0.0549  0.4742
 1023TIP3    H1 3033   2.795   1.181   4.067  1.0755  0.3748  0.4974
 1023TIP3    H2 3034   2.818   1.234   4.208  1.6332  1.8940 -0.1369
 1024TIP3   OH2 3035   2.775   2.720   0.704  0.7122 -0.9704 -0.3020
 1024TIP3    H1 3036   2.845   2.655   0.696  0.8814 -0.6639 -1.5780
 1024TIP3    H2 3037   2.730   2.717   0.620  0.1035 -0.1285 -0.0198
 1025TIP3   OH2 3038   2.674   3.885   3.238 -0.0013 -0.0519  0.3583
 1025TIP3    H1 3039   2.667   3.795   3.204 -1.1179  0.2241 -0.2037
 1025TIP3    H2 3040   2.693   3.938   3.161 -0.1113  0.2915  0.5680
 1026TIP3   OH2 3041   0.996   3.391   0.669  0.1923 -1.0199  0.4126
 1026TIP3    H1 3042   0.916   3.344   0.692 -0.0535 -0.8992 -0.1706
 1026TIP3    H2 3043   1.062   3.322   0.659  0.0920 -1.1444  0.6113
 1027TIP3   OH2 3044   5.600   1.713   0.604  0.2888 -0.1496  0.2647
 1027TIP3    H1 3045   5.615   1.794   0.652 -0.4832 -0.2853  0.7412
 1027TIP3    H2 3046   5.682   1.699   0.555  0.1074  1.3742 -0.5340
 1028TIP3   OH2 3047   1.275   4.271   0.721  0.4195 -0.5760 -0.2091
 1028TIP3    H1 3048   1.227   4.241   0.798 -1.1526  3.7626  0.7583
 1028TIP3    H2 3049   1.274   4.196   0.662 -2.5840 -2.5513  2.0538
 1029TIP3   OH2 3050   0.736   2.011   0.764  0.3655 -0.4352 -0.1020
 1029TIP3    H1 3051   0.751   2.090   0.712 -0.9439  0.0144  0.1641
 1029TIP3    H2 3052   0.642   2.013   0.784  0.1606 -2.4390 -0.6828
 1030TIP3   OH2 3053   7.113   3.033   5.162 -0.2966  0.2973  0.2128
 1030TIP3    H1 3054   7.090   3.094   5.232 -1.0163  1.3593 -0.9067
 1030TIP3    H2 3055   7.204   3.054   5.140 -0.1094  0.0450  0.7344
 1031TIP3   OH2 3056   0.149   1.863   4.178 -0.2777 -0.7030 -0.4519
 1031TIP3    H1 3057   0.240   1.852   4.152 -0.6215 -1.1558 -1.5150
 1031TIP3    H2 3058   0.103   1.791   4.135 -0.9137 -1.4171  1.3093
 1032TIP3   OH2 3059   4.489   1.018   4.079 -0.1615 -0.4281 -0.2279
 1032TIP3    H1 3060   4.408   1.069   4.082  1.2866  1.9839  0.5907
 1032TIP3    H2 3061   4.529   1.031   4.165  2.0828  0.2243 -1.2927
 1033TIP3   OH2 3062   2.190   5.897   5.335 -0.3091  0.1314  0.1173
 1033TIP3    H1 3063   2.111   5.952   5.336 -0.0727  0.5204 -1.2247
 1033TIP3    H2 3064   2.185   5.848   5.417 -1.3470  0.9967  0.6106
 1034TIP3   OH2 3065   5.907   0.403   0.314 -0.5651 -0.0492 -0.0362
 1034TIP3    H1 3066   5.845   0.447   0.255  0.1727  1.3337  0.1533
 1034TIP3    H2 3067   5.991   0.410   0.269 -0.4503 -1.5183 -0.0943
 1035TIP3   OH2 3068   6.274   2.935   2.062 -0.1072  0.1106 -0.0872
 1035TIP3    H1 3069   6.236   2.861   2.109  0.1530  0.8563  1.3359
 1035TIP3    H2 3070   6.366   2.911   2.052  0.3081  0.8296  1.6597
 1036TIP3   OH2 3071   0.160   3.629   5.062  0.2220  0.5148 -0.1191
 1036TIP3    H1 3072   0.237   3.593   5.019  1.6385 -0.8658  3.2316
 1036TIP3    H2 3073   0.101   3.554   5.073  0.5536  0.4641  1.5768
 1037TIP3   OH2 3074   5.605   2.588   1.923  0.3714  0.0309  0.3320
 1037TIP3    H1 3075   5.546   2.663   1.920 -0.1893 -0.3705  1.0317
 1037TIP3    H2 3076   5.588   2.541   1.842  0.4840  0.4830  0.0458
 1038TIP3   OH2 3077   5.092   5.501   2.676 -0.2906  0.2092 -0.1375
 1038TIP3    H1 3078   5.156   5.515   2.606  0.4622  1.1632  0.7119
 1038TIP3    H2 3079   5.056   5.588   2.694  0.2811  0.1692  1.3575
 1039TIP3   OH2 3080   3.967   0.891   5.473 -0.4984  0.6885  0.0513
 1039TIP3    H1 3081   3.879   0.879   5.438 -0.5536  0.4920  0.2594
 1039TIP3    H2 3082   3.962   0.861   5.563 -0.2001  0.6100  0.0443
 1040TIP3   OH2 3083   2.724   3.872   4.398  0.2294  0.3012  0.2983
 1040TIP3    H1 3084   2.632   3.897   4.397 -0.3651 -1.7102  0.1710
 1040TIP3    H2 3085   2.761   3.912   4.319 -0.6741  0.6351  0.0378
 1041TIP3   OH2 3086   0.016   0.228   0.040  0.2462 -0.1160 -0.0150
 1041TIP3    H1 3087   0.068   0.206  -0.037 -1.4499 -3.0196 -0.4580
 1041TIP3    H2 3088   0.071   0.204   0.114  0.1879 -1.7465 -0.4557
 1042TIP3   OH2 3089   0.377   3.529   0.242  0.2928  0.5141  0.1413
 1042TIP3    H1 3090   0.464   3.502   0.271  0.4521  1.3072  0.4362
 1042TIP3    H2 3091   0.380   3.520   0.147  0.5610  0.1530  0.1813
 1043TIP3   OH2 3092   4.686   5.299   4.599  0.2516  0.2314  0.0981
 1043TIP3    H1 3093   4.761   5.292   4.657 -0.3281 -1.9823  0.6893
 1043TIP3    H2 3094   4.623   5.353   4.647  0.8754  0.8100  0.2659
 1044TIP3   OH2 3095   4.124   2.113   0.609  0.1543 -0.5738 -0.0298
 1044TIP3    H1 3096   4.032   2.140   0.605  0.4366  1.2732  3.0155
 1044TIP3    H2 3097   4.122   2.026   0.647 -0.3256 -0.0449  1.1885
 1045TIP3   OH2 3098   2.391   0.552   2.391 -0.3006 -0.4786  0.2482
 1045TIP3    H1 3099   2.329   0.491   2.351 -0.5325  0.3727 -0.7402
 1045TIP3    H2 3100   2.411   0.514   2.476  0.3946 -2.5153 -0.7491
 1046TIP3   OH2 3101   1.859   3.500   5.162  0.4198  0.2828  0.2305
 1046TIP3    H1 3102   1.827   3.517   5.073 -1.2577  0.6808  0.8743
 1046TIP3    H2 3103   1.953   3.517   5.157  0.1164  1.8428 -1.1202
 1047TIP3   OH2 3104   5.960   4.670   2.159  0.3217 -0.5028 -0.1692
 1047TIP3    H1 3105   6.052   4.653   2.176  0.0205 -1.5776  0.4999
 1047TIP3    H2 3106   5.959   4.723   2.079  1.5060 -0.4705 -0.1752
 1048TIP3   OH2 3107   4.814   2.141   4.608  0.1226 -0.4569  0.5410
 1048TIP3    H1 3108   4.723   2.135   4.635  0.6427 -1.7017  2.2145
 1048TIP3    H2 3109   4.847   2.219   4.653 -0.2694  0.4224 -0.6534
 1049TIP3   OH2 3110   0.561   0.117   4.076 -0.7854 -0.4304 -0.2374
 1049TIP3    H1 3111   0.515   0.084   4.153  0.6929  0.8738  1.2664
 1049TIP3    H2 3112   0.646   0.074   4.078  0.7230  2.3776  1.0974
 1050TIP3   OH2 3113   4.101   5.816   0.699  0.5904  0.3966 -0.1547
 1050TIP3    H1 3114   4.092   5.765   0.618  1.9760  1.9989 -1.4025
 1050TIP3    H2 3115   4.101   5.751   0.769  0.5326 -1.1526 -1.5331
 1051TIP3   OH2 3116   1.526   1.917   0.838  0.0491  0.3464 -0.4018
 1051TIP3    H1 3117   1.576   1.858   0.894  1.5681  2.9825  1.2692
 1051TIP3    H2 3118   1.457   1.951   0.895 -1.2123 -0.2445 -1.5260
 1052TIP3   OH2 3119   5.278   2.432   2.437  0.1291 -0.0611 -0.2029
 1052TIP3    H1 3120   5.197   2.422   2.386  1.2921  0.7241 -2.2965
 1052TIP3    H2 3121   5.255   2.496   2.505 -0.8024  0.7393 -1.2348
 1053TIP3   OH2 3122   1.159   2.033   0.733 -1.0200 -0.3703  0.2714
 1053TIP3    H1 3123   1.093   2.101   0.749  1.0282  1.1957  3.2212
 1053TIP3    H2 3124   1.223   2.076   0.676 -0.4723 -0.3489  0.8977
 1054TIP3   OH2 3125   5.266   3.784   4.517  0.0629  0.2239  0.3906
 1054TIP3    H1 3126   5.359   3.807   4.524  0.7363 -2.1894  0.2027
 1054TIP3    H2 3127   5.254   3.757   4.426 -0.8763  0.6461  0.3727
 1055TIP3   OH2 3128   1.852   4.203   1.943 -0.5413  0.3110  0.2182
 1055TIP3    H1 3129   1.869   4.262   2.016  1.6510  0.9299 -0.7327
 1055TIP3    H2 3130   1.922   4.137   1.949 -0.1949  0.5062 -1.4419
 1056TIP3   OH2 3131   4.339   2.730   5.370  0.3796  0.0774 -0.4868
 1056TIP3    H1 3132   4.344   2.761   5.460 -0.4647  2.6148 -1.2394
 1056TIP3    H2 3133   4.257   2.680   5.367  0.4825 -0.1398  0.1773
 1057TIP3   OH2 3134   1.942   5.410   5.358 -0.2520 -0.7534 -0.0856
 1057TIP3    H1 3135   1.882   5.462   5.410  0.0896  0.1941 -0.6169
 1057TIP3    H2 3136   1.956   5.461   5.278  0.5499 -1.3775 -0.3648
 1058TIP3   OH2 3137   3.681   2.562   4.296 -0.0500  0.1585 -0.4744
 1058TIP3    H1 3138   3.683   2.492   4.231  1.0102 -0.2873  0.0021
 1058TIP3    H2 3139   3.754   2.541   4.355 -0.5857  0.9019  0.4777
 1059TIP3   OH2 3140   5.963   0.150   1.518 -0.4312 -0.2332  0.3319
 1059TIP3    H1 3141   5.946   0.244   1.514 -0.2594 -0.2624 -1.9145
 1059TIP3    H2 3142   5.887   0.110   1.476  0.8330 -0.8931 -1.4170
 1060TIP3   OH2 3143   5.302   5.198   5.892 -0.5853  0.5907 -0.3445
 1060TIP3    H1 3144   5.247   5.274   5.873  0.9845  1.5794 -1.2111
 1060TIP3    H2 3145   5.259   5.126   5.846 -0.5715  1.5638 -1.9595
 1061TIP3   OH2 3146   5.067   2.246   3.647  0.4545  0.0054  0.4681
 1061TIP3    H1 3147   5.049   2.263   3.554  1.3034  0.9716  0.4699
 1061TIP3    H2 3148   5.072   2.150   3.652 -0.6647 -0.1155 -0.2662
 1062TIP3   OH2 3149   1.956   2.511   0.728 -0.3869 -0.3165 -0.2795
 1062TIP3    H1 3150   1.917   2.517   0.641 -0.3257  1.0388 -0.2317
 1062TIP3    H2 3151   1.896   2.456   0.778 -1.8251  1.0429 -0.4397
 1063TIP3   OH2 3152   2.733   6.251   0.322  0.1768  0.8455 -0.0912
 1063TIP3    H1 3153   2.700   6.316   0.259  0.1770 -1.3200 -2.4951
 1063TIP3    H2 3154   2.654   6.208   0.355  0.2783  0.0912 -0.8041
 1064TIP3   OH2 3155   0.001   5.556   3.052  0.0360 -0.1603 -0.5606
 1064TIP3    H1 3156  -0.042   5.475   3.025 -1.4973  0.3983  0.0765
 1064TIP3    H2 3157   0.080   5.527   3.097 -1.1057 -1.4053  0.7638
 1065TIP3   OH2 3158   6.960   4.793   4.556 -0.0661  0.7329  0.3215
 1065TIP3    H1 3159   6.995   4.738   4.486  0.5439  0.5732  0.7484
 1065TIP3    H2 3160   6.877   4.826   4.521 -1.1894 -1.6000  0.6095
 1066TIP3   OH2 3161   4.263   5.046   3.806  1.0992 -0.4493 -0.3853
 1066TIP3    H1 3162   4.284   4.962   3.848  0.2242 -0.3398  0.3004
 1066TIP3    H2 3163   4.293   5.112   3.868 -0.5642 -0.2882  0.2925
 1067TIP3   OH2 3164   6.566   4.566   4.134 -0.0103  0.5163 -0.0685
 1067TIP3    H1 3165   6.615   4.488   4.160  0.5349  0.6506 -0.6652
 1067TIP3    H2 3166   6.491   4.532   4.086 -0.0509  0.3389  0.1183
 1068TIP3   OH2 3167   1.048   4.876   2.226  0.2370 -0.2652 -0.3544
 1068TIP3    H1 3168   1.051   4.937   2.299  1.0928 -1.4672  0.6447
 1068TIP3    H2 3169   1.082   4.794   2.261 -2.7137 -1.9577 -1.0533
 1069TIP3   OH2 3170   5.075   6.700   2.798  0.1501  0.3494  0.5293
 1069TIP3    H1 3171   4.985   6.721   2.772  0.4835  0.6955 -0.4029
 1069TIP3    H2 3172   5.128   6.731   2.724  0.9585 -0.6234  0.6890
 1070TIP3   OH2 3173   1.053   1.524   4.790 -0.2961 -0.5451  0.2776
 1070TIP3    H1 3174   1.043   1.619   4.782 -1.5703 -0.5056  1.8036
 1070TIP3    H2 3175   1.032   1.490   4.703 -1.3723  0.5020  0.1004
 1071TIP3   OH2 3176   1.864   6.742   3.297  0.3005 -0.1145  0.3287
 1071TIP3    H1 3177   1.944   6.775   3.337  2.0142 -1.7833 -1.5168
 1071TIP3    H2 3178   1.801   6.738   3.369  1.8780  1.1509  1.8588
 1072TIP3   OH2 3179   2.248   6.509   1.882 -0.0341  0.2255 -0.2221
 1072TIP3    H1 3180   2.178   6.443   1.886  0.2709 -0.0383  1.1876
 1072TIP3    H2 3181   2.213   6.578   1.825 -1.8038  0.4925  1.1211
 1073TIP3   OH2 3182   5.831   1.804   4.717  0.4288 -0.4679 -0.1419
 1073TIP3    H1 3183   5.869   1.806   4.804  0.2310  4.2749  0.0657
 1073TIP3    H2 3184   5.891   1.855   4.663 -1.7070  0.6230 -1.6221
 1074TIP3   OH2 3185   6.589   4.228   3.869  0.7270  0.2045 -0.1471
 1074TIP3    H1 3186   6.675   4.234   3.828  0.8236 -0.4546 -0.0622
 1074TIP3    H2 3187   6.569   4.317   3.898  0.8032  0.6109 -1.3051
 1075TIP3   OH2 3188   2.688   5.087   1.786 -0.3939 -0.2833  0.1076
 1075TIP3    H1 3189   2.780   5.112   1.777 -0.2115 -0.6821  0.7852
 1075TIP3    H2 3190   2.688   4.992   1.774 -0.9891 -0.0802 -1.7907
 1076TIP3   OH2 3191   5.759   5.452   1.971  0.1740 -0.7829  0.2944
 1076TIP3    H1 3192   5.772   5.473   2.064  0.5004  3.1546 -0.4604
 1076TIP3    H2 3193   5.846   5.458   1.932 -0.2846  0.1254 -0.6341
 1077TIP3   OH2 3194   3.858   4.997   1.202  0.0267 -0.1007 -0.1569
 1077TIP3    H1 3195   3.798   5.054   1.154 -1.5631 -0.3313  1.4506
 1077TIP3    H2 3196   3.860   4.916   1.152  1.3357  0.8762 -1.7961
 1078TIP3   OH2 3197   1.351   2.120   0.070  0.5873  0.2068 -0.0908
 1078TIP3    H1 3198   1.262   2.154   0.071  0.7558  0.6624 -0.3022
 1078TIP3    H2 3199   1.343   2.032   0.107  0.1309  0.4356  0.3793
 1079TIP3   OH2 3200   2.317   1.465   3.207 -0.2067  0.0748 -0.2424
 1079TIP3    H1 3201   2.309   1.380   3.250  0.9411 -2.5592 -4.5521
 1079TIP3    H2 3202   2.244   1.467   3.145  0.0572  2.0508 -0.5527
 1080TIP3   OH2 3203   4.153   5.785   1.039 -0.4199  0.1244  0.4633
 1080TIP3    H1 3204   4.164   5.880   1.042  1.9837  0.0243 -1.8951
 1080TIP3    H2 3205   4.239   5.750   1.062 -0.7464 -1.4196 -0.5226
 1081TIP3   OH2 3206   0.954   1.840   0.825  0.3143 -0.0068  0.3810
 1081TIP3    H1 3207   0.873   1.885   0.797  0.4771  1.1948  1.7295
 1081TIP3    H2 3208   1.024   1.902   0.803  0.8292 -0.7992 -0.2525
 1082TIP3   OH2 3209   6.683   4.420   0.462  0.0483 -0.3614  0.3643
 1082TIP3    H1 3210   6.729   4.343   0.494  0.3971 -0.0236  0.6833
 1082TIP3    H2 3211   6.664   4.401   0.370  0.3870 -0.7048  0.3674
 1083TIP3   OH2 3212   4.922   6.241   3.712  0.0205 -0.2596  0.0498
 1083TIP3    H1 3213   4.926   6.240   3.617  1.4954  2.5965 -0.0280
 1083TIP3    H2 3214   4.844   6.292   3.734  0.0156 -0.3916  0.3536
 1084TIP3   OH2 3215   4.136   6.584   3.768  0.3551 -0.3521  0.4367
 1084TIP3    H1 3216   4.050   6.550   3.792 -0.3223  0.9477 -0.0615
 1084TIP3    H2 3217   4.196   6.543   3.830 -0.6680 -0.9493  1.0621
 1085TIP3   OH2 3218   5.985   0.919   4.679  0.5253  0.2507  0.2488
 1085TIP3    H1 3219   5.970   0.903   4.586  2.9965 -2.1733  0.1228
 1085TIP3    H2 3220   6.080   0.918   4.688  0.3680  1.4456  2.6871
 1086TIP3   OH2 3221   2.748   6.649   2.795 -0.1522 -0.4051 -0.9740
 1086TIP3    H1 3222   2.798   6.581   2.840 -1.6045 -0.9739 -0.1267
 1086TIP3    H2 3223   2.704   6.603   2.723  0.1306 -0.0217 -1.3958
 1087TIP3   OH2 3224   5.501   4.319   5.744 -0.2738 -0.0871 -0.0474
 1087TIP3    H1 3225   5.452   4.399   5.759  0.9776  0.5013  1.1493
 1087TIP3    H2 3226   5.586   4.334   5.786  1.4800 -0.5499 -3.1040
 1088TIP3   OH2 3227   5.486   1.822   0.282 -0.3862 -0.4844  0.3365
 1088TIP3    H1 3228   5.459   1.876   0.208  1.2335  1.1389  0.8372
 1088TIP3    H2 3229   5.453   1.868   0.359  0.6005 -0.4276  0.7515
 1089TIP3   OH2 3230   1.278   5.790   4.705 -0.8280 -0.2943 -0.3484
 1089TIP3    H1 3231   1.306   5.708   4.745  0.8290  0.8283  0.9235
 1089TIP3    H2 3232   1.260   5.849   4.778 -0.6411  0.8915 -1.2092
 1090TIP3   OH2 3233   5.549   2.585   5.712 -0.4625  0.2708  0.0012
 1090TIP3    H1 3234   5.640   2.598   5.736 -0.0510 -0.8160 -0.8593
 1090TIP3    H2 3235   5.531   2.494   5.735 -1.5959  0.7182  0.9529
 1091TIP3   OH2 3236   4.327   5.381   0.089  0.3502 -0.4377 -0.2761
 1091TIP3    H1 3237   4.403   5.405   0.035  0.5761  0.4159  0.3843
 1091TIP3    H2 3238   4.252   5.420   0.044  0.4167 -0.5277 -0.4658
 1092TIP3   OH2 3239   2.434   6.381   4.334  0.0058  0.5333 -0.1152
 1092TIP3    H1 3240   2.392   6.462   4.306  0.7003  0.5836 -1.0513
 1092TIP3    H2 3241   2.393   6.361   4.418 -2.6863 -0.0239 -1.4664
 1093TIP3   OH2 3242   1.112   3.172   4.485  0.1070  0.0806 -0.2156
 1093TIP3    H1 3243   1.034   3.121   4.465 -0.0845  0.6671 -1.0110
 1093TIP3    H2 3244   1.089   3.221   4.564  0.3804 -1.2173  0.7078
 1094TIP3   OH2 3245   3.544   1.081   1.589 -0.5866  0.3825 -0.0555
 1094TIP3    H1 3246   3.448   1.079   1.594 -0.7723 -1.1664 -2.5204
 1094TIP3    H2 3247   3.572   0.998   1.626 -0.3509  0.0834 -0.8721
 1095TIP3   OH2 3248   2.700   4.532   3.805  0.3496  0.5157  1.4234
 1095TIP3    H1 3249   2.789   4.511   3.780 -0.5774 -1.7016 -0.3218
 1095TIP3    H2 3250   2.687   4.622   3.775  1.0704 -0.1584 -1.0951
 1096TIP3   OH2 3251   1.460   1.870   3.068 -0.1870  0.1476 -0.0521
 1096TIP3    H1 3252   1.434   1.962   3.062 -0.6054  0.0264 -0.1251
 1096TIP3    H2 3253   1.379   1.821   3.051 -0.0050 -0.2321  0.1673
 1097TIP3   OH2 3254   6.662   4.868   5.434  0.0992 -0.5749  0.3026
 1097TIP3    H1 3255   6.709   4.917   5.367  1.2079 -2.0449 -0.0346
 1097TIP3    H2 3256   6.619   4.797   5.387  0.3460 -1.2383  1.0471
 1098TIP3   OH2 3257   0.043   3.728   0.783 -0.2668 -0.3822  0.5610
 1098TIP3    H1 3258  -0.042   3.773   0.779 -0.4773 -0.7629  0.6676
 1098TIP3    H2 3259   0.021   3.636   0.767  0.1739 -0.4288  0.2067
 1099TIP3   OH2 3260   4.766   6.692   5.171 -0.0322  0.3965  0.9326
 1099TIP3    H1 3261   4.844   6.739   5.144  2.1988 -2.3384  2.1062
 1099TIP3    H2 3262   4.753   6.626   5.103 -0.2460 -0.2700  1.5978
 1100TIP3   OH2 3263   4.839   4.282   2.776 -0.1021 -0.0331  0.0395
 1100TIP3    H1 3264   4.748   4.309   2.790 -0.7192 -2.1092  0.3863
 1100TIP3    H2 3265   4.889   4.362   2.785 -1.9608  1.3156 -0.8971
 1101TIP3   OH2 3266   6.233   0.150   3.992 -0.0857 -0.1444 -0.1173
 1101TIP3    H1 3267   6.203   0.061   3.978  2.6739 -0.9827 -1.3510
 1101TIP3    H2 3268   6.242   0.158   4.087 -1.5561 -0.6803  0.1015
 1102TIP3   OH2 3269   2.574   1.758   5.233 -0.5181 -0.3214  0.5382
 1102TIP3    H1 3270   2.614   1.784   5.150 -0.3017  0.0696  0.7669
 1102TIP3    H2 3271   2.611   1.671   5.251 -0.2219 -0.2121  0.4549
 1103TIP3   OH2 3272   5.758   0.245   5.771 -0.3942  0.1096 -0.3341
 1103TIP3    H1 3273   5.773   0.231   5.864 -0.2204  1.5949 -0.1107
 1103TIP3    H2 3274   5.716   0.165   5.741  2.5298 -1.8252  0.2879
 1104TIP3   OH2 3275   5.660   1.736   1.019  0.2152  0.0315  0.3066
 1104TIP3    H1 3276   5.719   1.669   0.984 -0.6451 -0.8371  0.4580
 1104TIP3    H2 3277   5.596   1.686   1.070 -0.3414  0.9980  0.5646
 1105TIP3   OH2 3278   2.246   3.423   1.142  0.0659 -0.5155  0.1653
 1105TIP3    H1 3279   2.285   3.503   1.178 -1.2644  0.4022 -0.3335
 1105TIP3    H2 3280   2.272   3.354   1.203  0.1716  0.5239  1.3421
 1106TIP3   OH2 3281   4.604   1.274   0.576 -0.2578  0.1060 -0.0801
 1106TIP3    H1 3282   4.629   1.326   0.652 -1.0528 -0.5061  0.6051
 1106TIP3    H2 3283   4.552   1.202   0.611 -2.2063  0.8051 -1.3403
 1107TIP3   OH2 3284   1.025   5.315   2.935  0.6478  0.2152  0.2044
 1107TIP3    H1 3285   1.071   5.398   2.951  0.2121  0.2952  1.1023
 1107TIP3    H2 3286   0.934   5.340   2.925  0.3745 -0.2245  1.3859
 1108TIP3   OH2 3287   5.725   3.394   5.728 -0.5173 -0.3801 -0.1189
 1108TIP3    H1 3288   5.797   3.355   5.778 -1.8424 -1.1124  1.2784
 1108TIP3    H2 3289   5.646   3.360   5.769 -1.6887 -0.4542 -2.3020
 1109TIP3   OH2 3290   4.602   0.619   3.090 -0.0287  0.3886  0.3463
 1109TIP3    H1 3291   4.672   0.619   3.025 -0.4240  0.7156 -0.0940
 1109TIP3    H2 3292   4.643   0.589   3.171  0.5769  0.4199  0.0550
 1110TIP3   OH2 3293   3.176   0.723   5.359 -0.4319  0.1891  0.8471
 1110TIP3    H1 3294   3.207   0.700   5.272 -1.0885  1.3988  0.2678
 1110TIP3    H2 3295   3.186   0.643   5.411  0.6573 -0.3340 -0.1372
 1111TIP3   OH2 3296   5.882   5.041   3.234  0.4880 -0.0310 -0.3213
 1111TIP3    H1 3297   5.874   5.033   3.139  0.2740 -0.3402 -0.2796
 1111TIP3    H2 3298   5.844   4.960   3.268  0.5381  0.0910  0.0297
 1112TIP3   OH2 3299   0.105   1.864   0.628  0.3123  0.5859  0.4045
 1112TIP3    H1 3300   0.051   1.902   0.698 -0.8741 -0.1746 -0.0588
 1112TIP3    H2 3301   0.187   1.840   0.671 -0.1135  0.8070  1.3719
 1113TIP3   OH2 3302   4.519   5.732   0.012  0.2076  0.3064  0.2426
 1113TIP3    H1 3303   4.449   5.737   0.077  0.4257 -0.7838  0.5810
 1113TIP3    H2 3304   4.577   5.805   0.033  0.0471  0.2200  1.0176
 1114TIP3   OH2 3305   5.391   6.076   1.482  0.5540  0.0639 -0.6431
 1114TIP3    H1 3306   5.454   6.111   1.546  0.4481  1.7971 -1.4395
 1114TIP3    H2 3307   5.446   6.040   1.412  0.6829 -2.2994  0.5714
 1115TIP3   OH2 3308   6.398   6.219   5.719 -0.1881  0.0158  0.1873
 1115TIP3    H1 3309   6.478   6.180   5.755  0.0367  0.2768 -0.0192
 1115TIP3    H2 3310   6.331   6.204   5.786 -0.1458 -0.8598  0.0460
 1116TIP3   OH2 3311   5.716   0.302   1.130  0.1073 -0.0841 -0.0787
 1116TIP3    H1 3312   5.809   0.294   1.109  0.1195 -1.6805  0.4205
 1116TIP3    H2 3313   5.682   0.367   1.068  1.2270 -0.6886 -1.3656
 1117TIP3   OH2 3314   0.733   0.629   4.189 -0.1054  0.4089 -0.0899
 1117TIP3    H1 3315   0.643   0.594   4.194 -0.4694  1.4552  0.9937
 1117TIP3    H2 3316   0.741   0.685   4.266  1.7971 -0.3692  0.3124
 1118TIP3   OH2 3317   4.390   0.329   4.219 -0.7631 -0.1483  0.0880
 1118TIP3    H1 3318   4.305   0.332   4.262 -1.0235 -0.4909 -0.3929
 1118TIP3    H2 3319   4.451   0.367   4.283 -1.2221 -0.1925  0.5570
 1119TIP3   OH2 3320   4.222   4.248   2.128 -0.2486 -0.0809 -0.0291
 1119TIP3    H1 3321   4.227   4.272   2.036  1.5587 -0.4136 -0.0356
 1119TIP3    H2 3322   4.142   4.196   2.135  0.8729 -2.2366 -1.9320
 1120TIP3   OH2 3323   3.008   4.613   2.443 -0.2814 -0.1677 -0.2704
 1120TIP3    H1 3324   3.098   4.647   2.436 -0.6254  0.6178 -1.0112
 1120TIP3    H2 3325   2.955   4.677   2.396 -1.1777 -0.8733 -0.2298
 1121TIP3   OH2 3326   0.943   4.455   0.922 -0.0004  0.2020 -0.4962
 1121TIP3    H1 3327   0.958   4.384   0.985 -1.2992  1.0472  0.8424
 1121TIP3    H2 3328   0.980   4.423   0.840 -0.6670 -2.0554  0.0262
 1122TIP3   OH2 3329   4.902   4.261   2.062  0.4234  1.0707  0.7201
 1122TIP3    H1 3330   4.930   4.305   2.142  0.0382 -1.2639  2.2172
 1122TIP3    H2 3331   4.813   4.230   2.081  1.2733 -1.7884  0.4204
 1123TIP3   OH2 3332   2.968   1.893   3.671 -0.1026 -0.3781  0.2629
 1123TIP3    H1 3333   2.924   1.811   3.693  0.7607 -1.2934 -1.2747
 1123TIP3    H2 3334   2.916   1.930   3.601  0.2097 -0.2418  0.1009
 1124TIP3   OH2 3335   5.890   6.432   4.625 -0.3963 -0.0218  0.1917
 1124TIP3    H1 3336   5.950   6.386   4.685 -1.1809 -1.4050 -0.0314
 1124TIP3    H2 3337   5.947   6.487   4.572  0.3323  1.2283  2.1653
 1125TIP3   OH2 3338   4.579   4.335   4.518 -0.4962  0.2564  0.3727
 1125TIP3    H1 3339   4.606   4.425   4.501  0.0576  0.2321  1.0228
 1125TIP3    H2 3340   4.514   4.342   4.588  1.1299  0.0575  2.0123
 1126TIP3   OH2 3341   3.461   2.567   2.732  1.0588 -0.3641 -0.1753
 1126TIP3    H1 3342   3.547   2.607   2.726  1.2883 -0.3297  2.3552
 1126TIP3    H2 3343   3.477   2.480   2.768  0.1465 -0.9560 -1.1379
 1127TIP3   OH2 3344   0.687   2.415   4.851 -0.5182 -0.0365  0.5793
 1127TIP3    H1 3345   0.753   2.473   4.812  0.0576 -0.0847  1.4600
 1127TIP3    H2 3346   0.604   2.458   4.832 -0.2763 -0.0893 -0.7541
 1128TIP3   OH2 3347   7.004   6.227   0.449 -0.0168 -0.8550  0.1292
 1128TIP3    H1 3348   7.007   6.178   0.367 -0.1418 -1.0351  0.2323
 1128TIP3    H2 3349   6.918   6.270   0.448  0.2396 -0.3451 -0.1300
 1129TIP3   OH2 3350   6.388   0.386   1.388 -0.1972 -0.6023  0.0252
 1129TIP3    H1 3351   6.344   0.470   1.374  0.2962  0.2457  2.7636
 1129TIP3    H2 3352   6.476   0.399   1.354  0.3416  0.5957  1.7304
 1130TIP3   OH2 3353   6.555   0.104   2.021 -0.8998 -0.4671 -0.1202
 1130TIP3    H1 3354   6.563   0.196   2.045  1.4018 -0.5772 -0.3185
 1130TIP3    H2 3355   6.634   0.062   2.055 -0.5268 -1.8160 -2.4370
 1131TIP3   OH2 3356   0.847   2.611   5.057 -0.9964 -0.2794  0.0235
 1131TIP3    H1 3357   0.851   2.658   5.140 -2.9713  0.7535 -0.4000
 1131TIP3    H2 3358   0.811   2.525   5.080 -0.3886 -0.4421  0.3847
 1132TIP3   OH2 3359   2.445   5.509   1.157 -0.1813  0.1590 -0.2982
 1132TIP3    H1 3360   2.363   5.559   1.152 -0.5570 -0.4305 -0.1217
 1132TIP3    H2 3361   2.507   5.569   1.199  0.6361  2.1115 -3.8578
 1133TIP3   OH2 3362   2.439   3.880   5.142  0.7806  0.0754 -0.6592
 1133TIP3    H1 3363   2.458   3.826   5.066 -0.9787  1.8853 -2.5387
 1133TIP3    H2 3364   2.428   3.968   5.106  0.6306  1.1581  1.8252
 1134TIP3   OH2 3365   2.012   3.770   2.667  0.0390 -0.2118  0.4884
 1134TIP3    H1 3366   2.072   3.799   2.598  0.5088  2.8106  2.0010
 1134TIP3    H2 3367   1.925   3.779   2.629  0.2797  1.6389  0.3117
 1135TIP3   OH2 3368   2.232   0.392   4.381  0.0766 -0.4440  0.2455
 1135TIP3    H1 3369   2.199   0.470   4.336 -4.2424 -1.1229  1.7576
 1135TIP3    H2 3370   2.247   0.421   4.471  3.8475 -0.2538 -0.2869
 1136TIP3   OH2 3371   2.712   5.879   0.524  0.1203 -0.0092 -0.0729
 1136TIP3    H1 3372   2.739   5.800   0.478 -1.1547 -0.1877 -0.5388
 1136TIP3    H2 3373   2.756   5.874   0.609  1.4420 -0.3315 -0.7551
 1137TIP3   OH2 3374   3.842   0.040   1.297  0.3742  0.1801  0.1979
 1137TIP3    H1 3375   3.800   0.120   1.328  0.1929  0.7657 -1.4701
 1137TIP3    H2 3376   3.791   0.014   1.221  1.4809 -0.5514 -0.3171
 1138TIP3   OH2 3377   4.131   6.584   2.235  0.0499  0.3563 -0.0420
 1138TIP3    H1 3378   4.128   6.664   2.287 -1.3255 -0.3457  1.0203
 1138TIP3    H2 3379   4.132   6.513   2.299 -0.4046 -0.5134 -0.9616
 1139TIP3   OH2 3380   3.402   3.946   2.232 -0.0881  0.2002  0.4203
 1139TIP3    H1 3381   3.448   3.977   2.310  0.8475  0.8796 -0.3778
 1139TIP3    H2 3382   3.472   3.918   2.173 -0.7703 -0.0682 -0.2739
 1140TIP3   OH2 3383   3.125   5.917   1.498  0.1984 -0.2533 -0.3638
 1140TIP3    H1 3384   3.031   5.931   1.511 -0.0763 -1.8403 -0.3721
 1140TIP3    H2 3385   3.145   5.840   1.551  1.3040 -0.4579 -1.0512
 1141TIP3   OH2 3386   0.863   0.160   1.891 -0.0006  0.5180  0.0032
 1141TIP3    H1 3387   0.807   0.214   1.947  0.1908  1.6642 -0.8558
 1141TIP3    H2 3388   0.937   0.136   1.947  0.3398  1.8918  0.1815
 1142TIP3   OH2 3389   6.855   4.229   3.723  0.2364 -0.0982  0.1777
 1142TIP3    H1 3390   6.919   4.294   3.751  0.8342  0.5085 -2.3223
 1142TIP3    H2 3391   6.891   4.145   3.752  0.3755  0.4919  1.8184
 1143TIP3   OH2 3392   6.484   5.194   3.510  0.0188  0.3773 -0.4628
 1143TIP3    H1 3393   6.423   5.239   3.451  0.3426  1.7942  0.2554
 1143TIP3    H2 3394   6.460   5.101   3.502 -1.3309  0.7638 -1.2200
 1144TIP3   OH2 3395   5.978   5.237   4.373 -0.2340  0.1502  0.0143
 1144TIP3    H1 3396   6.036   5.166   4.345 -1.2312  0.6591 -3.8624
 1144TIP3    H2 3397   5.903   5.192   4.413  0.8808 -0.7041  1.2286
 1145TIP3   OH2 3398   3.563   1.013   4.282  0.1865 -0.7966  0.6958
 1145TIP3    H1 3399   3.501   0.942   4.262 -0.3232 -0.7206  1.9211
 1145TIP3    H2 3400   3.538   1.084   4.223 -0.0211 -1.2461  0.2354
 1146TIP3   OH2 3401   2.974   4.735   4.616 -0.4742  0.6308 -0.0549
 1146TIP3    H1 3402   3.052   4.681   4.605 -1.3888 -0.8811  0.6252
 1146TIP3    H2 3403   2.951   4.725   4.708 -0.2647  2.8006  0.2863
 1147TIP3   OH2 3404   2.690   5.533   0.817 -0.4896 -0.0727  0.1400
 1147TIP3    H1 3405   2.779   5.550   0.847 -0.9391  1.0153  0.9309
 1147TIP3    H2 3406   2.655   5.472   0.882 -1.2213  1.7141  1.5112
 1148TIP3   OH2 3407   0.564   5.363   1.270  0.0350 -0.2506  0.3325
 1148TIP3    H1 3408   0.634   5.427   1.282  0.5718 -0.5364 -1.0498
 1148TIP3    H2 3409   0.489   5.415   1.243  0.5408 -0.1761 -1.0458
 1149TIP3   OH2 3410   1.457   3.014   4.988  0.0049  0.1013  0.0139
 1149TIP3    H1 3411   1.400   2.956   4.937 -0.1353  0.7352 -0.5590
 1149TIP3    H2 3412   1.501   3.068   4.923 -1.8975  2.5352  0.6126
 1150TIP3   OH2 3413   4.760   2.267   1.553  0.0131 -0.6766 -0.2347
 1150TIP3    H1 3414   4.811   2.195   1.591  0.4781 -0.5601 -0.6229
 1150TIP3    H2 3415   4.767   2.338   1.618  1.7946 -0.0692 -1.0266
 1151TIP3   OH2 3416   3.766   5.628   2.024 -0.0734 -0.0244  0.4027
 1151TIP3    H1 3417   3.815   5.622   1.943 -0.0044 -1.9818  0.5420
 1151TIP3    H2 3418   3.681   5.588   2.005 -0.0635 -0.4998  1.2755
 1152TIP3   OH2 3419   1.560   0.858   4.235 -0.3435 -0.1366 -0.1392
 1152TIP3    H1 3420   1.605   0.783   4.274 -0.4359  0.3954  1.0426
 1152TIP3    H2 3421   1.558   0.839   4.142  2.2734 -0.2158 -0.2402
 1153TIP3   OH2 3422   4.097   1.677   3.212  0.0114  0.0095  0.0207
 1153TIP3    H1 3423   4.127   1.768   3.206  2.8352 -0.9004 -1.5873
 1153TIP3    H2 3424   4.047   1.674   3.294 -0.6701  3.0936 -0.1669
 1154TIP3   OH2 3425   6.271   5.817   4.192 -0.4099  0.3441 -0.4153
 1154TIP3    H1 3426   6.221   5.762   4.253  0.4257 -0.0342 -0.0658
 1154TIP3    H2 3427   6.211   5.888   4.170 -1.8741 -1.1523 -1.5852
 1155TIP3   OH2 3428   5.612   1.175   1.425  0.1628  0.2976 -0.0920
 1155TIP3    H1 3429   5.651   1.110   1.484  1.5921  1.9477  0.8883
 1155TIP3    H2 3430   5.521   1.181   1.453  0.5974  0.3815  1.3957
 1156TIP3   OH2 3431   4.326   1.942   2.211 -0.3349  0.1548  0.6129
 1156TIP3    H1 3432   4.413   1.974   2.233  0.6431 -1.3156 -0.8779
 1156TIP3    H2 3433   4.314   1.866   2.268 -0.2072 -0.2323  0.1320
 1157TIP3   OH2 3434   0.344   6.337   5.029  0.0401 -0.6877  0.3047
 1157TIP3    H1 3435   0.287   6.260   5.031 -1.8997  0.6824  0.8216
 1157TIP3    H2 3436   0.393   6.329   4.947  2.2763 -4.0231  1.7165
 1158TIP3   OH2 3437   7.128   2.623   0.680  0.9256 -0.0674 -0.7047
 1158TIP3    H1 3438   7.043   2.618   0.637  1.2575 -0.2716 -1.3472
 1158TIP3    H2 3439   7.132   2.543   0.734  0.1847  0.5772  0.3387
 1159TIP3   OH2 3440   4.736   2.273   5.173  0.2840  0.1229  0.1065
 1159TIP3    H1 3441   4.737   2.228   5.258 -0.4862 -0.3913 -0.1525
 1159TIP3    H2 3442   4.710   2.363   5.195 -0.5773 -0.1761  0.3436
 1160TIP3   OH2 3443   1.549   5.453   2.290  0.3556  0.8288  0.2818
 1160TIP3    H1 3444   1.578   5.541   2.263  0.5647  0.9052  0.7350
 1160TIP3    H2 3445   1.545   5.458   2.386  2.2129 -0.1972  0.4657
 1161TIP3   OH2 3446   4.962   1.795   5.132  0.5269 -0.0475 -0.1105
 1161TIP3    H1 3447   5.057   1.785   5.130  0.4540 -0.6641 -0.6288
 1161TIP3    H2 3448   4.947   1.883   5.099  0.9640  0.4505  0.9469
 1162TIP3   OH2 3449   4.600   3.164   5.001 -0.3459 -0.0314  0.2646
 1162TIP3    H1 3450   4.671   3.228   5.010 -0.5504  0.3809 -0.8917
 1162TIP3    H2 3451   4.554   3.168   5.085 -1.1412  2.3012 -0.1941
 1163TIP3   OH2 3452   2.202   2.194   4.543  0.0934  0.3037 -0.1167
 1163TIP3    H1 3453   2.152   2.200   4.625  0.7147  0.0732  0.2853
 1163TIP3    H2 3454   2.290   2.224   4.566  0.1720  0.6331 -0.8015
 1164TIP3   OH2 3455   4.123   6.045   1.902  0.2795 -0.2174  0.2810
 1164TIP3    H1 3456   4.103   6.091   1.821  1.2731 -0.0453  0.1144
 1164TIP3    H2 3457   4.065   5.969   1.902 -0.6152  0.4540  0.0355
 1165TIP3   OH2 3458   4.345   4.766   5.870  0.3600 -0.3851 -0.2996
 1165TIP3    H1 3459   4.440   4.767   5.859  0.5990  1.2737  1.4806
 1165TIP3    H2 3460   4.316   4.851   5.837 -0.5782 -0.9676 -1.0584
 1166TIP3   OH2 3461   3.331   5.935   0.809 -0.3317  0.6621 -0.0694
 1166TIP3    H1 3462   3.328   5.998   0.881  0.3127 -0.2995  0.8341
 1166TIP3    H2 3463   3.261   5.872   0.830 -1.3408  1.3359 -1.2497
 1167TIP3   OH2 3464   3.974   0.490   0.435  0.1773  0.2960 -0.0775
 1167TIP3    H1 3465   4.016   0.496   0.349 -0.0342 -0.6490 -0.2566
 1167TIP3    H2 3466   3.930   0.405   0.435  2.0365 -0.7532  1.8014
 1168TIP3   OH2 3467   4.044   6.293   1.123  0.0135 -0.1582  0.2315
 1168TIP3    H1 3468   4.097   6.371   1.140 -0.9209  0.8773 -1.2643
 1168TIP3    H2 3469   3.990   6.282   1.201  0.6357  0.2883  0.7283
 1169TIP3   OH2 3470   2.895   2.509   2.487  0.3472  0.5839  0.1441
 1169TIP3    H1 3471   2.921   2.499   2.579  0.6086  0.5154  0.0627
 1169TIP3    H2 3472   2.855   2.596   2.483  0.1259  0.4974  0.3703
 1170TIP3   OH2 3473   4.450   3.537   0.217 -0.0829 -0.4130 -0.1470
 1170TIP3    H1 3474   4.428   3.475   0.149  0.3052 -1.9490  1.0733
 1170TIP3    H2 3475   4.366   3.561   0.257 -0.1563 -0.9233  0.0114
 1171TIP3   OH2 3476   5.600   2.442   1.110  0.2596 -0.0377  0.0313
 1171TIP3    H1 3477   5.512   2.445   1.149  0.5325  1.5521  0.6030
 1171TIP3    H2 3478   5.646   2.516   1.148  1.5503 -0.2517 -1.0169
 1172TIP3   OH2 3479   2.996   2.786   3.835 -0.2185 -0.1983 -0.1872
 1172TIP3    H1 3480   2.983   2.770   3.742 -1.0069  0.4795 -0.2018
 1172TIP3    H2 3481   2.925   2.845   3.860  1.8949  2.4603  0.0687
 1173TIP3   OH2 3482   1.294   1.666   1.855  0.2877 -0.2984  0.0426
 1173TIP3    H1 3483   1.341   1.660   1.772  0.1665 -0.2864 -0.0274
 1173TIP3    H2 3484   1.360   1.697   1.918  0.6284 -1.2684  0.1717
 1174TIP3   OH2 3485   2.802   1.920   5.371  0.0403 -0.1676 -0.0537
 1174TIP3    H1 3486   2.731   1.889   5.315  1.0700 -1.1776 -0.8538
 1174TIP3    H2 3487   2.882   1.896   5.323  1.0451 -2.6391  2.5828
 1175TIP3   OH2 3488   3.367   4.190   3.139  0.2668 -0.0452  0.3850
 1175TIP3    H1 3489   3.288   4.137   3.136  1.0013 -1.1391 -0.3096
 1175TIP3    H2 3490   3.336   4.280   3.140 -0.9621 -0.4282 -1.0395
 1176TIP3   OH2 3491   4.950   4.103   1.557  0.8913 -0.1662 -0.1803
 1176TIP3    H1 3492   4.961   4.148   1.641  0.9719 -3.4393  1.7024
 1176TIP3    H2 3493   5.038   4.069   1.536  0.5322 -0.7651 -0.7504
 1177TIP3   OH2 3494   2.977   3.406   1.692  0.1910 -0.0477  0.0460
 1177TIP3    H1 3495   2.912   3.445   1.633  0.4880  2.5778  1.2850
 1177TIP3    H2 3496   3.061   3.444   1.664  0.7199 -0.8897  0.4567
 1178TIP3   OH2 3497   5.820   0.009   5.320  0.0037 -0.1761 -0.4153
 1178TIP3    H1 3498   5.810   0.101   5.298 -1.3110 -0.1166  0.3301
 1178TIP3    H2 3499   5.787  -0.038   5.243  0.5884 -0.0383 -0.7572
 1179TIP3   OH2 3500   3.856   0.738   0.485  0.4299  0.3044  0.1734
 1179TIP3    H1 3501   3.892   0.804   0.427  0.1928 -0.4633 -0.8826
 1179TIP3    H2 3502   3.906   0.659   0.466  0.8283  0.1952  1.5349
 1180TIP3   OH2 3503   5.015   3.534   4.285 -0.3334  0.2119  0.3339
 1180TIP3    H1 3504   5.052   3.446   4.285 -1.0482 -0.1031 -0.0954
 1180TIP3    H2 3505   5.022   3.563   4.376 -0.3944 -0.4265  0.5501
 1181TIP3   OH2 3506   0.111   0.474   4.586 -0.4867 -0.3521  0.1988
 1181TIP3    H1 3507   0.108   0.431   4.501  2.0335 -1.3022  0.5230
 1181TIP3    H2 3508   0.026   0.453   4.626 -0.9000 -1.6010 -1.2585
 1182TIP3   OH2 3509   2.134   3.834   3.312 -0.1646 -0.3352  0.1563
 1182TIP3    H1 3510   2.166   3.838   3.222  0.0320  0.5149  0.2572
 1182TIP3    H2 3511   2.047   3.873   3.309 -0.9854 -2.0832 -0.0030
 1183TIP3   OH2 3512   4.104   3.360   1.659  0.0392  0.0746 -0.1973
 1183TIP3    H1 3513   4.175   3.313   1.615  0.8644  0.7905  0.3282
 1183TIP3    H2 3514   4.042   3.292   1.684  0.9487 -0.6806  0.0747
 1184TIP3   OH2 3515   6.596   5.921   3.310 -0.6657  0.0950  0.2285
 1184TIP3    H1 3516   6.687   5.891   3.309 -0.4860  0.5458 -1.9567
 1184TIP3    H2 3517   6.583   5.955   3.399  0.7617 -1.4713  1.0898
 1185TIP3   OH2 3518   3.294   2.810   4.458 -0.0317  0.3053  0.0850
 1185TIP3    H1 3519   3.298   2.906   4.455 -0.8019  0.3656  0.7086
 1185TIP3    H2 3520   3.232   2.791   4.528 -0.9066 -0.6264 -0.8931
 1186TIP3   OH2 3521   0.906   0.422   5.065 -0.5669 -0.2290 -0.6507
 1186TIP3    H1 3522   0.887   0.348   5.008 -2.7206  0.4405 -0.9134
 1186TIP3    H2 3523   0.865   0.497   5.022 -1.2120  0.5176  1.1581
 1187TIP3   OH2 3524   0.832   4.602   2.982  0.0207 -0.4347 -1.0498
 1187TIP3    H1 3525   0.924   4.621   3.003  0.2359 -1.4767 -0.9959
 1187TIP3    H2 3526   0.820   4.510   3.008 -0.9052 -0.4531 -1.5119
 1188TIP3   OH2 3527   4.825   2.092   0.131 -0.4480  0.6279 -0.5876
 1188TIP3    H1 3528   4.746   2.080   0.077  1.0512 -1.2660 -2.5497
 1188TIP3    H2 3529   4.897   2.065   0.074  1.4416  0.3009  1.8035
 1189TIP3   OH2 3530   3.663   3.501   1.770 -0.3849 -0.6201  0.5162
 1189TIP3    H1 3531   3.597   3.545   1.717  0.5672 -0.0519 -0.2299
 1189TIP3    H2 3532   3.659   3.545   1.855  0.8873  1.3267 -0.3560
 1190TIP3   OH2 3533   5.831   4.859   4.306 -0.2196  0.1939  0.7242
 1190TIP3    H1 3534   5.836   4.827   4.216 -1.7110  1.8358  0.0062
 1190TIP3    H2 3535   5.752   4.818   4.342 -0.8112  1.1576  0.5640
 1191TIP3   OH2 3536   6.890   0.334   4.127  0.1009  0.1950  0.3032
 1191TIP3    H1 3537   6.805   0.373   4.109  0.0960  0.4601  0.8778
 1191TIP3    H2 3538   6.940   0.349   4.046 -0.9933 -1.6991 -0.7889
 1192TIP3   OH2 3539   5.501   5.884   0.329  0.1875 -0.1464 -0.6044
 1192TIP3    H1 3540   5.469   5.965   0.288  2.2287  1.5267  0.8460
 1192TIP3    H2 3541   5.424   5.827   0.334 -0.9448  1.0019 -3.2646
 1193TIP3   OH2 3542   3.909   4.342   5.669  0.1492 -0.0362  0.0013
 1193TIP3    H1 3543   3.848   4.270   5.686 -1.0858  1.1270  0.6840
 1193TIP3    H2 3544   3.868   4.418   5.708  2.5856  0.6276  1.4828
 1194TIP3   OH2 3545   4.346   1.482   4.081 -0.0016  0.7014 -0.1410
 1194TIP3    H1 3546   4.360   1.434   4.000 -0.5588 -1.3008  0.8769
 1194TIP3    H2 3547   4.381   1.569   4.064 -0.5670  0.5007 -2.6726
 1195TIP3   OH2 3548   2.809   4.772   4.083  0.0845 -0.2757  0.8862
 1195TIP3    H1 3549   2.885   4.719   4.056 -0.3815  0.0061 -1.1676
 1195TIP3    H2 3550   2.807   4.764   4.178  2.0508 -1.1668  0.9074
 1196TIP3   OH2 3551   5.689   3.103   4.559  0.1940  0.0538  0.5469
 1196TIP3    H1 3552   5.664   3.016   4.529  1.8128 -0.9484  1.8917
 1196TIP3    H2 3553   5.659   3.162   4.490 -2.8856 -1.2839  0.5745
 1197TIP3   OH2 3554   2.682   5.265   3.102  0.3645 -0.0061  0.0160
 1197TIP3    H1 3555   2.663   5.172   3.106  0.0626  0.0085 -0.8342
 1197TIP3    H2 3556   2.766   5.270   3.056  1.1625  0.0732  1.4098
 1198TIP3   OH2 3557   3.166   6.180   3.796 -0.2400 -0.7582  0.1267
 1198TIP3    H1 3558   3.160   6.212   3.706  2.5602 -1.8743 -0.5601
 1198TIP3    H2 3559   3.209   6.251   3.844  0.6029 -1.1621 -0.0245
 1199TIP3   OH2 3560   3.964   2.787   4.246  0.4854 -0.5304  0.0094
 1199TIP3    H1 3561   3.996   2.877   4.249 -0.3405 -0.2479  0.9085
 1199TIP3    H2 3562   3.873   2.793   4.273  1.3644 -2.0438  4.0899
 1200TIP3   OH2 3563   4.425   1.776   2.792 -0.5205  0.1584 -0.4533
 1200TIP3    H1 3564   4.518   1.778   2.816 -0.8791 -1.6938  1.4126
 1200TIP3    H2 3565   4.409   1.861   2.752  1.2116  1.9507  2.3031
 1201TIP3   OH2 3566   5.034   6.014   0.077 -0.1146 -1.0263 -0.0791
 1201TIP3    H1 3567   5.104   6.028   0.141  0.0410  0.7421 -0.5602
 1201TIP3    H2 3568   4.997   6.101   0.064 -2.1457 -1.8519 -0.1692
 1202TIP3   OH2 3569  -0.009   1.500   4.869 -0.0006 -0.0926  0.6340
 1202TIP3    H1 3570   0.060   1.507   4.934  0.8730  0.3600 -0.3161
 1202TIP3    H2 3571   0.004   1.576   4.812  0.1659 -1.2592 -0.9393
 1203TIP3   OH2 3572   6.249   0.575   1.260 -0.4647 -0.1693  0.3849
 1203TIP3    H1 3573   6.312   0.646   1.249 -1.6460  0.6569 -1.5167
 1203TIP3    H2 3574   6.167   0.619   1.284 -0.8466 -1.0454  0.7351
 1204TIP3   OH2 3575   5.946   3.519   1.410 -0.3939 -0.2744 -0.1765
 1204TIP3    H1 3576   6.005   3.493   1.340 -0.8015 -1.2253 -0.1787
 1204TIP3    H2 3577   5.879   3.451   1.412 -2.3004  1.4768 -1.0878
 1205TIP3   OH2 3578   3.695   1.124   4.796  0.4551 -0.2946 -0.9525
 1205TIP3    H1 3579   3.680   1.043   4.844 -1.0647  1.4077  1.7194
 1205TIP3    H2 3580   3.645   1.114   4.715 -0.2729 -1.7627 -0.3602
 1206TIP3   OH2 3581   3.346   2.334   3.093  0.2412  0.5364  0.0358
 1206TIP3    H1 3582   3.301   2.261   3.136 -1.3888  0.1094 -2.1988
 1206TIP3    H2 3583   3.294   2.411   3.117  1.5619  0.9239  1.8339
 1207TIP3   OH2 3584   4.831   5.199   5.274  0.1954 -0.4293 -0.4521
 1207TIP3    H1 3585   4.897   5.163   5.214  1.2135 -1.4601  1.2147
 1207TIP3    H2 3586   4.859   5.169   5.360 -1.6994  0.3132  0.4561
 1208TIP3   OH2 3587   0.734   4.316   5.444  0.1941 -0.6187  0.2007
 1208TIP3    H1 3588   0.731   4.221   5.431  2.2283 -0.4810 -2.0479
 1208TIP3    H2 3589   0.801   4.328   5.511  0.4219 -0.7595  0.0023
 1209TIP3   OH2 3590   3.170   2.176   4.701  0.1319 -0.4772  0.1681
 1209TIP3    H1 3591   3.148   2.269   4.714  2.3446  0.2210 -0.6305
 1209TIP3    H2 3592   3.129   2.154   4.617 -0.0621 -0.1171  0.1641
 1210TIP3   OH2 3593   0.459   2.106   0.175 -0.1643 -0.0229 -0.1988
 1210TIP3    H1 3594   0.544   2.062   0.164 -0.5674 -0.7537 -0.4967
 1210TIP3    H2 3595   0.480   2.199   0.171  0.7405 -0.1750  0.6247
 1211TIP3   OH2 3596   0.286   6.602   3.890  0.2385 -0.0910 -0.5693
 1211TIP3    H1 3597   0.192   6.619   3.886  0.0544 -0.3078  1.5771
 1211TIP3    H2 3598   0.294   6.508   3.902  0.8240 -0.2739 -2.1583
 1212TIP3   OH2 3599   6.946   4.845   0.201  0.2605 -0.0708  0.3077
 1212TIP3    H1 3600   6.873   4.792   0.232  1.8243 -2.2366  0.6035
 1212TIP3    H2 3601   6.964   4.906   0.273  0.5345 -1.4867  1.5001
 1213TIP3   OH2 3602   5.558   5.071   4.163  0.6197 -0.1073  0.3289
 1213TIP3    H1 3603   5.537   5.009   4.093  1.2644  0.7214 -0.6282
 1213TIP3    H2 3604   5.643   5.107   4.138 -0.5100  2.4532 -0.1252
 1214TIP3   OH2 3605   5.524   3.517   4.664 -0.0900 -0.7332 -0.1924
 1214TIP3    H1 3606   5.513   3.612   4.672 -1.1628 -0.7064 -1.5424
 1214TIP3    H2 3607   5.438   3.486   4.635  0.8572 -1.8135 -2.0166
 1215TIP3   OH2 3608   2.534   0.219   2.196  0.2553  0.1789  0.0234
 1215TIP3    H1 3609   2.611   0.200   2.143 -1.0115 -0.7399 -1.6067
 1215TIP3    H2 3610   2.514   0.137   2.241 -1.3509 -0.5063 -1.7891
 1216TIP3   OH2 3611   4.700   2.048   3.596 -0.0752  0.0680  0.9114
 1216TIP3    H1 3612   4.715   2.139   3.572 -3.1013  0.1274 -1.4377
 1216TIP3    H2 3613   4.638   2.052   3.669  0.6800 -0.1315  1.5723
 1217TIP3   OH2 3614   6.840   0.867   4.728  0.2844 -0.1847 -0.6804
 1217TIP3    H1 3615   6.927   0.899   4.750  0.2660  0.4576 -1.4943
 1217TIP3    H2 3616   6.784   0.944   4.731 -0.2028 -0.5412 -0.4514
 1218TIP3   OH2 3617   4.326   5.015   3.460  0.2308 -0.3186  0.3046
 1218TIP3    H1 3618   4.352   4.932   3.421 -0.1238 -0.4302  0.2966
 1218TIP3    H2 3619   4.352   5.008   3.552  2.2654  0.4632 -0.1717
 1219TIP3   OH2 3620   6.764   0.446   2.084  0.4665  0.0526  0.2372
 1219TIP3    H1 3621   6.738   0.436   1.992  2.0456  0.1200 -0.2572
 1219TIP3    H2 3622   6.707   0.515   2.118 -1.7540 -1.5644  0.0051
 1220TIP3   OH2 3623   3.100   4.833   4.402 -0.5070 -0.1023 -0.3155
 1220TIP3    H1 3624   3.045   4.781   4.461 -0.2527 -0.6581 -0.5651
 1220TIP3    H2 3625   3.168   4.773   4.372  0.5585  0.7131  0.3853
 1221TIP3   OH2 3626   5.790   4.826   3.621  0.3424  0.2624 -0.2753
 1221TIP3    H1 3627   5.835   4.880   3.685 -2.7848  1.9520  0.7171
 1221TIP3    H2 3628   5.752   4.889   3.559 -0.4332 -1.0454 -1.1800
 1222TIP3   OH2 3629   6.252   6.480   2.407 -0.5868 -0.1216  0.7613
 1222TIP3    H1 3630   6.159   6.503   2.408 -0.8539 -0.9055 -1.1239
 1222TIP3    H2 3631   6.281   6.501   2.318  0.7794 -0.8471  1.0079
 1223TIP3   OH2 3632   7.065   0.877   5.440 -0.4057 -0.0080 -0.1110
 1223TIP3    H1 3633   7.116   0.896   5.518 -0.2470  1.6087 -0.5678
 1223TIP3    H2 3634   6.974   0.892   5.466 -0.3120  1.0617 -0.3589
 1224TIP3   OH2 3635   1.896   5.479   1.245  0.2855 -0.1323  0.0481
 1224TIP3    H1 3636   1.854   5.396   1.220 -1.1730  0.3186  0.8935
 1224TIP3    H2 3637   1.955   5.456   1.317 -0.7446 -0.3338  0.8535
 1225TIP3   OH2 3638   0.717   1.975   3.819  0.0375  0.0474  0.1723
 1225TIP3    H1 3639   0.644   1.919   3.794  0.2458  0.1970 -0.8290
 1225TIP3    H2 3640   0.684   2.028   3.892  0.3554 -2.4996  2.3240
 1226TIP3   OH2 3641   2.393   5.060   2.823  0.2558 -0.5532 -0.1843
 1226TIP3    H1 3642   2.389   4.968   2.794  0.9155 -0.3655 -0.9132
 1226TIP3    H2 3643   2.403   5.054   2.918  1.2827 -1.2806 -0.3135
 1227TIP3   OH2 3644   4.968   1.809   0.736  0.2333 -0.2475 -0.1136
 1227TIP3    H1 3645   4.946   1.839   0.824 -1.0075  0.8146 -0.7478
 1227TIP3    H2 3646   4.949   1.715   0.737 -0.1636 -0.1631  0.6370
 1228TIP3   OH2 3647   2.983   0.912   5.229 -0.2020 -0.2431  0.5491
 1228TIP3    H1 3648   2.904   0.929   5.280  0.3006  1.2333  0.8728
 1228TIP3    H2 3649   3.029   0.844   5.278 -1.5596 -1.6473 -0.0073
 1229TIP3   OH2 3650   2.145   5.393   5.761  0.1706  0.0163  0.3460
 1229TIP3    H1 3651   2.131   5.397   5.666 -0.3643  1.2622  0.4555
 1229TIP3    H2 3652   2.232   5.355   5.771  0.0700 -0.5086 -0.6254
 1230TIP3   OH2 3653   7.091   6.713   0.316  0.1056  0.1490 -0.0521
 1230TIP3    H1 3654   7.092   6.770   0.239  0.4471  0.1497 -0.0517
 1230TIP3    H2 3655   7.161   6.649   0.299 -0.7957 -0.7567 -0.4097
 1231TIP3   OH2 3656   3.311   2.970   1.003  0.5172 -0.2832  0.3923
 1231TIP3    H1 3657   3.345   3.058   1.021 -0.2586  0.0337  0.3573
 1231TIP3    H2 3658   3.375   2.931   0.943  0.6299  0.4236  0.0429
 1232TIP3   OH2 3659   2.457   4.103   0.345  0.4135  0.4595 -0.2431
 1232TIP3    H1 3660   2.481   4.194   0.325 -0.4559  0.5528 -0.8829
 1232TIP3    H2 3661   2.398   4.110   0.420  0.8343  0.3732  0.0984
 1233TIP3   OH2 3662   1.223   6.664   3.683 -0.1689 -1.0000 -0.0131
 1233TIP3    H1 3663   1.220   6.624   3.770 -0.0444 -0.0802  0.4238
 1233TIP3    H2 3664   1.222   6.758   3.700 -0.3962 -0.8157 -1.0228
 1234TIP3   OH2 3665   3.323   5.904   5.092  0.0879  0.8740  0.1031
 1234TIP3    H1 3666   3.393   5.864   5.143  0.2164 -1.0764 -1.4969
 1234TIP3    H2 3667   3.366   5.972   5.040  0.7723 -0.1443 -0.6830
 1235TIP3   OH2 3668   6.431   0.266   3.110  0.2123  0.0288  0.1294
 1235TIP3    H1 3669   6.429   0.173   3.135 -0.5989  0.0096  0.0278
 1235TIP3    H2 3670   6.465   0.311   3.187  2.0828 -0.4962 -0.3411
 1236TIP3   OH2 3671   6.943   5.154   1.878 -0.0276 -0.3182  0.0532
 1236TIP3    H1 3672   7.023   5.172   1.926  0.4079  1.1222 -1.1224
 1236TIP3    H2 3673   6.947   5.213   1.802 -1.8058 -0.7935 -0.4600
 1237TIP3   OH2 3674   1.540   1.203   4.766 -0.1964 -0.4515  0.3045
 1237TIP3    H1 3675   1.551   1.233   4.857 -0.1548  0.2144  0.0875
 1237TIP3    H2 3676   1.448   1.222   4.746 -0.2437 -0.7326  0.2539
 1238TIP3   OH2 3677   4.103   5.098   2.640  0.2511  0.1110 -0.0448
 1238TIP3    H1 3678   4.156   5.138   2.709  2.0914 -1.4760 -0.4406
 1238TIP3    H2 3679   4.142   5.012   2.627 -1.1936 -0.3385 -1.8130
 1239TIP3   OH2 3680   1.203   1.985   4.822 -0.1264 -0.4214  0.2170
 1239TIP3    H1 3681   1.211   2.080   4.832 -1.2026 -0.4266  1.4217
 1239TIP3    H2 3682   1.283   1.959   4.777  0.3387  1.0110  0.1566
 1240TIP3   OH2 3683   4.166   6.003   4.615 -0.6941 -0.3709  0.1663
 1240TIP3    H1 3684   4.239   5.942   4.626 -1.1120 -0.6158  1.8721
 1240TIP3    H2 3685   4.179   6.041   4.528  2.2537  0.5858  0.9190
 1241TIP3   OH2 3686   6.983   4.522   5.334 -0.5096 -0.1280  0.2433
 1241TIP3    H1 3687   6.919   4.450   5.331  0.2401 -0.7849 -0.5092
 1241TIP3    H2 3688   6.939   4.594   5.288 -0.7502 -0.5465 -0.1967
 1242TIP3   OH2 3689   3.230   3.027   3.944 -0.4286 -0.1962 -0.4049
 1242TIP3    H1 3690   3.313   3.032   3.896 -0.2189 -1.2134 -0.1633
 1242TIP3    H2 3691   3.251   3.060   4.031 -0.3584 -0.1490 -0.4394
 1243TIP3   OH2 3692   0.834   6.761   2.953  0.4387  0.4873  0.4054
 1243TIP3    H1 3693   0.911   6.809   2.983  0.4831  0.9872 -0.4745
 1243TIP3    H2 3694   0.762   6.798   3.004  0.4788  1.4815 -0.2342
 1244TIP3   OH2 3695   0.718   0.338   4.409  0.8484 -0.8404 -0.1041
 1244TIP3    H1 3696   0.756   0.252   4.430  1.5655 -1.1583 -2.3637
 1244TIP3    H2 3697   0.794   0.393   4.388  0.2814 -0.3592 -0.9681
 1245TIP3   OH2 3698   6.576   5.767   0.710 -0.0873  0.1792 -0.4656
 1245TIP3    H1 3699   6.618   5.764   0.624 -0.6291  0.9240 -0.7659
 1245TIP3    H2 3700   6.582   5.678   0.743  1.3138  0.1697 -0.6974
 1246TIP3   OH2 3701   3.679   0.519   0.264  0.2451  0.1071  0.0995
 1246TIP3    H1 3702   3.714   0.468   0.337  0.8134 -0.6655 -0.6953
 1246TIP3    H2 3703   3.666   0.455   0.194 -1.7129  0.5575 -0.0150
 1247TIP3   OH2 3704   5.835   1.243   2.762  0.4097  0.3733  0.3599
 1247TIP3    H1 3705   5.762   1.305   2.760  0.4123  0.4301  1.3090
 1247TIP3    H2 3706   5.794   1.158   2.750  0.3035  0.4853 -0.0814
 1248TIP3   OH2 3707   4.041   3.260   3.630 -1.2029 -0.1986  0.8135
 1248TIP3    H1 3708   4.104   3.228   3.694 -1.1236  1.1602  1.4521
 1248TIP3    H2 3709   3.965   3.204   3.642 -0.2860 -1.6160  0.2988
 1249TIP3   OH2 3710   6.629   5.194   4.124  0.0628  0.6420  0.4758
 1249TIP3    H1 3711   6.583   5.157   4.049 -1.6741  0.1775  1.7010
 1249TIP3    H2 3712   6.702   5.133   4.140 -1.2020 -0.8433  0.8512
 1250TIP3   OH2 3713   1.347   4.012   2.508  0.2769  0.0693  0.3822
 1250TIP3    H1 3714   1.325   4.028   2.416 -1.5439  2.4397  1.1028
 1250TIP3    H2 3715   1.263   3.988   2.548  1.0616 -0.9997  1.4451
 1251TIP3   OH2 3716   5.334   6.328   3.732  0.3574  0.1060 -0.1383
 1251TIP3    H1 3717   5.303   6.263   3.668  1.2812 -0.8905  0.3770
 1251TIP3    H2 3718   5.427   6.309   3.741 -0.0209 -0.8498  2.6546
 1252TIP3   OH2 3719   4.093   2.185   0.983  0.0726 -0.5213 -0.6303
 1252TIP3    H1 3720   4.034   2.238   0.931 -0.3286 -0.2192  0.1244
 1252TIP3    H2 3721   4.155   2.148   0.919 -0.4884 -0.2710 -1.3266
 1253TIP3   OH2 3722   3.862   6.697   3.235  0.2639 -0.1952  0.1921
 1253TIP3    H1 3723   3.809   6.619   3.218 -0.2442  0.5597 -2.0476
 1253TIP3    H2 3724   3.900   6.682   3.321 -1.6980 -1.8382  0.8583
 1254TIP3   OH2 3725   4.182   1.050   4.308  0.1966 -0.5635  0.3310
 1254TIP3    H1 3726   4.198   1.142   4.287  1.8419 -1.1123 -1.0234
 1254TIP3    H2 3727   4.159   1.009   4.225  1.1528 -1.6903  0.5854
 1255TIP3   OH2 3728   0.831   6.125   4.383 -0.3104 -0.5258 -0.2916
 1255TIP3    H1 3729   0.831   6.209   4.337 -1.2026  0.1290  0.8710
 1255TIP3    H2 3730   0.924   6.101   4.388 -0.1450 -0.4865 -2.1287
 1256TIP3   OH2 3731   2.901   1.991   4.661 -0.2856  0.2728  0.6046
 1256TIP3    H1 3732   2.956   2.026   4.731 -0.0333  1.7021 -0.2601
 1256TIP3    H2 3733   2.958   1.991   4.584 -0.9496  0.0064  0.1019
 1257TIP3   OH2 3734   5.186   0.680   5.197 -0.5175  0.0602 -0.2916
 1257TIP3    H1 3735   5.210   0.696   5.288 -0.6582 -0.3088 -0.1887
 1257TIP3    H2 3736   5.197   0.765   5.154 -1.8185  0.6071  0.3715
 1258TIP3   OH2 3737   1.435   0.786   0.915  0.3829  0.0314  0.1805
 1258TIP3    H1 3738   1.419   0.746   0.830 -1.8524 -3.3881  1.9997
 1258TIP3    H2 3739   1.369   0.855   0.923  0.7538  0.5308 -0.8657
 1259TIP3   OH2 3740   0.435   3.435   0.728  0.0852 -0.7080  0.1523
 1259TIP3    H1 3741   0.521   3.478   0.725  0.6906 -1.9467 -1.5516
 1259TIP3    H2 3742   0.383   3.480   0.661 -0.0570 -1.0505  0.0303
 1260TIP3   OH2 3743   2.282   5.648   3.976  0.2716 -0.2033  0.2205
 1260TIP3    H1 3744   2.251   5.601   3.899  1.3083 -1.3229  0.4467
 1260TIP3    H2 3745   2.263   5.740   3.958  0.6533 -0.4220 -1.4422
 1261TIP3   OH2 3746   1.548   0.751   3.966  0.1125 -0.4753  0.0957
 1261TIP3    H1 3747   1.580   0.748   3.876  4.6715 -0.1315  1.4364
 1261TIP3    H2 3748   1.564   0.663   4.000 -1.8880 -0.7029  0.5383
 1262TIP3   OH2 3749   1.439   4.791   3.414  0.5095 -0.0123  0.0860
 1262TIP3    H1 3750   1.344   4.795   3.402  0.5540  1.5597  0.0343
 1262TIP3    H2 3751   1.469   4.880   3.394  1.9325 -0.3566  0.6086
 1263TIP3   OH2 3752   2.680   4.814   4.411  0.7898 -0.5344  0.4051
 1263TIP3    H1 3753   2.688   4.795   4.505  1.7661 -0.8377  0.2766
 1263TIP3    H2 3754   2.683   4.910   4.406  0.3057 -0.4995  0.7117
 1264TIP3   OH2 3755   4.146   3.279   4.147  0.1152  0.1260 -0.0054
 1264TIP3    H1 3756   4.193   3.349   4.100 -0.5996  0.5575 -0.1016
 1264TIP3    H2 3757   4.170   3.291   4.238 -0.2080  0.6755  0.0129
 1265TIP3   OH2 3758   5.116   6.548   0.519  0.0919 -0.7407 -0.4438
 1265TIP3    H1 3759   5.048   6.492   0.557 -0.4490 -0.3761 -0.8625
 1265TIP3    H2 3760   5.147   6.600   0.593 -1.3166  0.3265 -0.5728
 1266TIP3   OH2 3761   3.753   6.260   0.515 -0.2427  0.4083 -0.7397
 1266TIP3    H1 3762   3.714   6.306   0.590 -0.5442 -0.2943 -0.4582
 1266TIP3    H2 3763   3.836   6.305   0.500  0.2030  0.0498  0.5426
 1267TIP3   OH2 3764   7.107   6.276   5.759  0.5483  0.7393 -0.2178
 1267TIP3    H1 3765   7.163   6.352   5.773  1.1096  1.1173 -3.5336
 1267TIP3    H2 3766   7.158   6.220   5.700 -1.2289 -0.5075 -0.6542
 1268TIP3   OH2 3767   1.515   6.653   2.460  0.1926  0.1033  0.0100
 1268TIP3    H1 3768   1.559   6.737   2.448  2.9295 -1.1061  0.6515
 1268TIP3    H2 3769   1.511   6.642   2.555  3.1672 -1.9129  0.0490
 1269TIP3   OH2 3770   6.991   2.077   5.239 -0.2500  0.5579  0.0729
 1269TIP3    H1 3771   6.952   2.004   5.289  0.9361  0.5950  1.0864
 1269TIP3    H2 3772   7.044   2.124   5.303 -0.6036  2.0412 -0.6948
 1270TIP3   OH2 3773   3.580   3.007   4.084  0.2153 -0.7171 -0.5216
 1270TIP3    H1 3774   3.669   3.009   4.049  0.2473 -1.4203 -0.4877
 1270TIP3    H2 3775   3.525   2.982   4.010  0.0030 -0.0436 -0.6063
 1271TIP3   OH2 3776   4.880   2.254   5.848  0.0518  0.4923 -0.8205
 1271TIP3    H1 3777   4.821   2.204   5.792 -1.2169  2.0391 -0.9342
 1271TIP3    H2 3778   4.913   2.190   5.912  1.1303 -1.2072 -2.9342
 1272TIP3   OH2 3779   5.451   0.144   1.324 -0.4330  0.5192 -0.3236
 1272TIP3    H1 3780   5.435   0.158   1.231 -0.1546  0.7557 -0.3372
 1272TIP3    H2 3781   5.408   0.061   1.344  1.4440 -0.7259 -1.1870
 1273TIP3   OH2 3782   5.484   5.186   0.295 -0.0213  0.0119  0.0653
 1273TIP3    H1 3783   5.577   5.199   0.277  0.1649 -0.7522  0.4441
 1273TIP3    H2 3784   5.461   5.107   0.245 -0.4758  0.2194 -0.0582
 1274TIP3   OH2 3785   5.060   6.646   1.823 -0.3722  0.1379  0.3077
 1274TIP3    H1 3786   5.131   6.601   1.778 -0.0530  1.1613 -0.2414
 1274TIP3    H2 3787   5.096   6.668   1.909  0.4429  1.7650 -0.4149
 1275TIP3   OH2 3788   4.312   5.720   3.133  0.4228 -0.0038  0.7180
 1275TIP3    H1 3789   4.340   5.665   3.206 -0.6714 -0.9655  0.4410
 1275TIP3    H2 3790   4.258   5.788   3.172 -0.5555 -0.7977  0.7641
 1276TIP3   OH2 3791   0.545   2.296   1.041 -0.4924  0.0924  0.0910
 1276TIP3    H1 3792   0.598   2.301   1.120 -0.0805  1.0655 -0.2280
 1276TIP3    H2 3793   0.478   2.231   1.061  0.6233 -0.9281  0.6134
 1277TIP3   OH2 3794   0.582   3.668   5.206  0.0838  0.4607 -0.3506
 1277TIP3    H1 3795   0.494   3.705   5.192 -0.3309 -0.0258  0.8711
 1277TIP3    H2 3796   0.607   3.698   5.293  0.4268 -0.7672 -0.0120
 1278TIP3   OH2 3797   4.149   1.546   5.473 -0.1847  0.0377 -0.2803
 1278TIP3    H1 3798   4.143   1.628   5.522 -1.1116  1.1584 -2.1336
 1278TIP3    H2 3799   4.149   1.478   5.540  2.2613  1.5463  1.4207
 1279TIP3   OH2 3800   6.764   4.734   0.851 -0.2038 -0.2530 -0.1229
 1279TIP3    H1 3801   6.691   4.699   0.902  0.0565 -0.1510  0.3340
 1279TIP3    H2 3802   6.809   4.794   0.912  1.6418 -2.0644  0.4245
 1280TIP3   OH2 3803   6.468   2.032   3.465 -0.4280 -0.4168  0.3559
 1280TIP3    H1 3804   6.519   1.983   3.529  0.2307  0.8560  0.8625
 1280TIP3    H2 3805   6.431   2.105   3.515  0.8602  1.1399 -0.8285
 1281TIP3   OH2 3806   0.760   3.438   5.144 -0.5210 -0.1077  0.3973
 1281TIP3    H1 3807   0.801   3.397   5.221  0.1477  0.1680  0.1927
 1281TIP3    H2 3808   0.702   3.504   5.181  0.1923  0.3819  0.6534
 1282TIP3   OH2 3809   5.575   5.240   1.534 -0.4520 -0.4390  0.2891
 1282TIP3    H1 3810   5.545   5.330   1.549 -0.8335 -0.3895 -0.7278
 1282TIP3    H2 3811   5.515   5.186   1.584 -1.3552 -0.2378 -0.5548
 1283TIP3   OH2 3812   1.693   1.484   0.276 -0.1304 -0.0961  0.0718
 1283TIP3    H1 3813   1.698   1.403   0.224 -1.0476  0.5177 -1.0214
 1283TIP3    H2 3814   1.751   1.545   0.230  1.9367 -0.5816  1.8631
 1284TIP3   OH2 3815   4.405   4.293   0.885  0.2681  0.2660 -0.4249
 1284TIP3    H1 3816   4.380   4.343   0.807 -0.1787  2.1093  0.8247
 1284TIP3    H2 3817   4.322   4.273   0.928  0.5849  0.8734  0.4984
 1285TIP3   OH2 3818   1.199   2.313   2.513  0.2633  0.1468  0.1027
 1285TIP3    H1 3819   1.288   2.291   2.539  0.7395  0.9538 -0.7786
 1285TIP3    H2 3820   1.198   2.409   2.511 -0.8101  0.1617  0.7152
 1286TIP3   OH2 3821   0.090   1.632   1.860 -0.4112  0.3053 -0.5916
 1286TIP3    H1 3822   0.006   1.634   1.814 -0.9861  1.3027  0.4531
 1286TIP3    H2 3823   0.076   1.573   1.934 -0.4668  1.1004  0.0520
 1287TIP3   OH2 3824   4.017   5.472   4.228 -0.1660 -0.1438  0.4556
 1287TIP3    H1 3825   4.067   5.491   4.148  0.2938  3.0675  1.3579
 1287TIP3    H2 3826   4.067   5.403   4.271  1.2837  0.1915 -0.5806
 1288TIP3   OH2 3827   0.004   6.449   4.220  0.3054  0.1202 -0.3722
 1288TIP3    H1 3828   0.074   6.383   4.214 -0.5390 -0.8869  0.4063
 1288TIP3    H2 3829   0.003   6.491   4.134  0.6792 -1.0825 -0.9859
 1289TIP3   OH2 3830   6.851   5.311   0.312 -0.7314 -0.0394  0.5062
 1289TIP3    H1 3831   6.823   5.306   0.220  1.4749 -0.1110 -0.2103
 1289TIP3    H2 3832   6.824   5.227   0.350  1.8035 -1.7723 -1.1833
 1290TIP3   OH2 3833   0.094   6.255   4.620  0.2926  0.3567 -0.4457
 1290TIP3    H1 3834   0.149   6.182   4.590  0.0611 -1.1506  2.4534
 1290TIP3    H2 3835   0.007   6.235   4.585  0.2445 -0.8029  0.2605
 1291TIP3   OH2 3836   6.889   6.432   1.036  0.2396  0.2386 -0.0565
 1291TIP3    H1 3837   6.884   6.476   0.951  2.9288 -0.0294 -0.4478
 1291TIP3    H2 3838   6.879   6.339   1.016  0.2289  0.2247  0.0133
 1292TIP3   OH2 3839   2.914   6.388   2.800  0.3105  0.2266 -0.3036
 1292TIP3    H1 3840   2.897   6.321   2.867 -1.5512  0.5909 -0.3419
 1292TIP3    H2 3841   2.977   6.448   2.840  0.0515 -0.1558  0.7057
 1293TIP3   OH2 3842   6.170   4.413   0.731  0.5216  0.8186 -0.5657
 1293TIP3    H1 3843   6.134   4.349   0.792  0.8079  1.3940  0.2386
 1293TIP3    H2 3844   6.121   4.494   0.750  1.0423  1.1617 -0.6574
 1294TIP3   OH2 3845   2.895   4.137   0.424  0.1243  0.0385  0.0513
 1294TIP3    H1 3846   2.931   4.153   0.336  1.4324 -2.7312 -0.0477
 1294TIP3    H2 3847   2.864   4.046   0.421  1.1517 -0.4969  2.7143
 1295TIP3   OH2 3848   2.913   0.457   0.513  0.3129 -0.2612 -0.2452
 1295TIP3    H1 3849   2.853   0.411   0.571 -0.5194  0.6822 -0.3354
 1295TIP3    H2 3850   2.984   0.487   0.570 -0.2294  0.1998  0.1925
 1296TIP3   OH2 3851   2.748   0.471   4.261  0.2729 -0.0484  0.2510
 1296TIP3    H1 3852   2.663   0.438   4.289  0.0242  0.5649  0.2465
 1296TIP3    H2 3853   2.741   0.566   4.271 -0.1213  0.3068 -2.5562
 1297TIP3   OH2 3854   1.466   0.974   2.884 -0.0696  0.3263 -0.4392
 1297TIP3    H1 3855   1.529   1.033   2.843  0.8063  0.5939  1.2165
 1297TIP3    H2 3856   1.437   1.021   2.962  0.4473 -1.3047  0.7731
 1298TIP3   OH2 3857   6.166   3.360   0.103  0.4141  0.5618  0.3367
 1298TIP3    H1 3858   6.177   3.268   0.078  2.0178  0.7262  0.3439
 1298TIP3    H2 3859   6.216   3.409   0.038 -0.0530  1.4124  0.6026
 1299TIP3   OH2 3860   5.222   1.871   4.296  0.5408  0.1798 -0.5887
 1299TIP3    H1 3861   5.136   1.904   4.271  0.6492  2.2430  1.4453
 1299TIP3    H2 3862   5.284   1.932   4.256  0.9611 -0.0202 -0.2539
 1300TIP3   OH2 3863   3.336   5.434   4.023 -0.1705 -0.0824 -0.2145
 1300TIP3    H1 3864   3.316   5.527   4.016 -2.2592 -0.5495 -1.7209
 1300TIP3    H2 3865   3.276   5.402   4.090 -1.9383 -0.8412 -2.0377
 1301TIP3   OH2 3866   5.436   4.311   1.446 -0.3601  0.0458 -0.1045
 1301TIP3    H1 3867   5.453   4.221   1.418  0.1501 -0.3442  1.3656
 1301TIP3    H2 3868   5.347   4.328   1.418 -0.1951 -0.6238 -1.1112
 1302TIP3   OH2 3869   6.034   2.210   5.710  0.3348 -0.0004  0.6557
 1302TIP3    H1 3870   6.069   2.139   5.763  1.1687 -0.0772  0.0269
 1302TIP3    H2 3871   6.055   2.186   5.619 -0.6948  0.3269  0.3087
 1303TIP3   OH2 3872   2.242   2.789   1.910 -0.3747 -0.3270  0.2826
 1303TIP3    H1 3873   2.337   2.797   1.910 -0.4164  0.1841 -0.2107
 1303TIP3    H2 3874   2.215   2.822   1.996 -0.2155  0.9781 -0.1506
 1304TIP3   OH2 3875   4.987   2.357   2.658 -0.6445  0.0555  0.0541
 1304TIP3    H1 3876   4.958   2.422   2.722 -0.6641  0.3393 -0.2462
 1304TIP3    H2 3877   4.972   2.398   2.573  1.1251  0.4446 -0.1084
 1305TIP3   OH2 3878   3.337   0.209   1.408 -0.3117  0.0113 -0.0654
 1305TIP3    H1 3879   3.257   0.173   1.446 -0.2677 -0.2897 -0.2551
 1305TIP3    H2 3880   3.379   0.135   1.365  0.6062 -0.0717  0.9212
 1306TIP3   OH2 3881   0.423   0.126   5.122 -0.3497  0.6159 -0.1271
 1306TIP3    H1 3882   0.471   0.045   5.138 -0.6919  0.5119  0.4189
 1306TIP3    H2 3883   0.490   0.195   5.128 -0.1822  0.4325  0.1632
 1307TIP3   OH2 3884   1.817   4.892   4.773  0.1208 -0.3586  0.0516
 1307TIP3    H1 3885   1.790   4.876   4.683 -0.5980 -2.5523  0.6128
 1307TIP3    H2 3886   1.894   4.836   4.785  1.2184  1.1285  0.3765
 1308TIP3   OH2 3887   3.611   3.524   4.986  0.1237  0.3973  0.1020
 1308TIP3    H1 3888   3.645   3.555   5.070 -0.0732  0.6972  0.0724
 1308TIP3    H2 3889   3.548   3.455   5.010  2.1877 -1.5955  0.0833
 1309TIP3   OH2 3890   1.176   1.019   2.305  0.1188 -0.7819 -0.2977
 1309TIP3    H1 3891   1.259   0.974   2.320  0.7794  0.5918  0.3836
 1309TIP3    H2 3892   1.198   1.093   2.248 -1.3668 -2.6077 -3.4962
 1310TIP3   OH2 3893   3.949   0.599   2.326  0.0472 -0.4433 -0.2680
 1310TIP3    H1 3894   3.987   0.636   2.406 -2.7596  0.9157  0.5829
 1310TIP3    H2 3895   4.017   0.610   2.260  1.9599 -0.3478  1.6117
 1311TIP3   OH2 3896   5.342   6.005   3.902 -0.2174 -0.2258 -0.0902
 1311TIP3    H1 3897   5.384   5.973   3.823 -1.0691  1.4919 -1.3011
 1311TIP3    H2 3898   5.250   5.983   3.891 -0.4506  0.6231  0.0872
 1312TIP3   OH2 3899   6.395   0.539   1.988 -0.1577  0.1388 -0.2042
 1312TIP3    H1 3900   6.433   0.516   1.904  1.6111 -0.3894  0.7031
 1312TIP3    H2 3901   6.336   0.467   2.009  1.9347 -1.4659  0.5167
 1313TIP3   OH2 3902   3.195   5.911   3.866 -0.5353 -0.0330  0.0169
 1313TIP3    H1 3903   3.151   5.850   3.808  2.5714 -1.1113 -1.4298
 1313TIP3    H2 3904   3.170   5.998   3.834 -1.6567 -0.5664 -0.5993
 1314TIP3   OH2 3905   1.658   5.164   4.094 -0.3465 -0.1788 -0.1150
 1314TIP3    H1 3906   1.746   5.150   4.059  0.3293  0.3394  1.2978
 1314TIP3    H2 3907   1.616   5.223   4.032  0.5556  0.1263 -0.4384
 1315TIP3   OH2 3908   6.616   2.840   1.060  0.0048  0.1465  0.4895
 1315TIP3    H1 3909   6.684   2.794   1.010  0.6549  0.0246  1.4516
 1315TIP3    H2 3910   6.571   2.771   1.108 -1.3313  0.1355 -0.7118
 1316TIP3   OH2 3911   0.496   4.449   5.644  0.2688  0.5648 -0.6084
 1316TIP3    H1 3912   0.531   4.527   5.600 -0.9590  1.7255  0.4108
 1316TIP3    H2 3913   0.573   4.409   5.685  0.6661  2.2599  0.3780
 1317TIP3   OH2 3914   3.711   3.206   4.723 -0.0265 -0.1803 -0.0235
 1317TIP3    H1 3915   3.729   3.189   4.816  0.7871 -0.1057 -0.1599
 1317TIP3    H2 3916   3.638   3.267   4.724 -0.8939 -1.1955  0.5401
 1318TIP3   OH2 3917   5.008   3.545   1.056 -0.3375  0.0916  0.0175
 1318TIP3    H1 3918   5.042   3.581   0.974 -1.4562  1.9838  0.3335
 1318TIP3    H2 3919   4.949   3.474   1.029  0.3527 -0.2046 -0.7329
 1319TIP3   OH2 3920   4.528   6.615   1.905  0.1778  0.7860  0.0204
 1319TIP3    H1 3921   4.582   6.630   1.827  2.3083 -1.1988  0.9939
 1319TIP3    H2 3922   4.439   6.605   1.870  1.0425  0.0541 -2.1895
 1320TIP3   OH2 3923   6.038   4.966   5.858 -0.1844  0.3924 -0.1316
 1320TIP3    H1 3924   5.952   4.989   5.822 -0.5869  0.0652  0.6059
 1320TIP3    H2 3925   6.091   4.943   5.781 -1.2613 -1.0611 -0.4606
 1321TIP3   OH2 3926   2.571   1.452   2.140  0.0662 -0.1811 -0.2563
 1321TIP3    H1 3927   2.634   1.435   2.070 -0.2750 -1.7207 -0.2270
 1321TIP3    H2 3928   2.584   1.380   2.202 -1.8634 -0.6734 -0.3619
 1322TIP3   OH2 3929   3.076   5.171   2.763 -0.2168  0.7188  0.4824
 1322TIP3    H1 3930   3.167   5.189   2.741  0.0489 -1.4794 -0.4149
 1322TIP3    H2 3931   3.031   5.168   2.678 -0.3910 -1.6808  0.5848
 1323TIP3   OH2 3932   5.399  -0.012   1.824 -0.2984  0.1245 -0.3518
 1323TIP3    H1 3933   5.396  -0.022   1.919 -2.2300  0.5454 -0.3418
 1323TIP3    H2 3934   5.369   0.077   1.808  1.6785  0.6789 -1.2996
 1324TIP3   OH2 3935   2.505   2.137   5.047  0.2480  0.2965  0.7636
 1324TIP3    H1 3936   2.559   2.199   5.096 -1.9889  1.5347  1.8164
 1324TIP3    H2 3937   2.448   2.098   5.113 -2.3496  1.4421 -0.6397
 1325TIP3   OH2 3938   5.959   2.696   2.006  0.2850 -0.2060  0.3089
 1325TIP3    H1 3939   5.917   2.669   2.088  0.9125 -1.2496  0.3000
 1325TIP3    H2 3940   6.036   2.745   2.033  0.1313  0.0232  0.3347
 1326TIP3   OH2 3941   2.336   2.398   0.178  0.2095 -0.2627  0.0489
 1326TIP3    H1 3942   2.274   2.354   0.237  2.1422  0.7943  3.0397
 1326TIP3    H2 3943   2.286   2.470   0.140 -1.2669 -1.3681 -0.1999
 1327TIP3   OH2 3944   3.814   0.468   1.655  0.5734  0.5621  0.5883
 1327TIP3    H1 3945   3.863   0.475   1.737  0.5883 -2.7284  1.0064
 1327TIP3    H2 3946   3.724   0.489   1.679  0.3720 -1.3716  1.8026
 1328TIP3   OH2 3947   5.368   2.313   4.563  0.3346 -0.3090 -0.3695
 1328TIP3    H1 3948   5.456   2.350   4.570  0.5990 -1.1622  1.2081
 1328TIP3    H2 3949   5.381   2.219   4.556 -0.4518 -0.4392 -0.1896
 1329TIP3   OH2 3950   4.632   6.502   1.100  0.7083 -0.7619 -0.0215
 1329TIP3    H1 3951   4.572   6.520   1.173 -0.2854  0.5182 -1.1024
 1329TIP3    H2 3952   4.684   6.427   1.129 -1.0137 -1.5389  1.1925
 1330TIP3   OH2 3953   2.090   1.801   4.175  0.3566  0.1397 -0.8370
 1330TIP3    H1 3954   2.043   1.724   4.206  2.2800 -0.5450  0.6246
 1330TIP3    H2 3955   2.022   1.862   4.147 -1.4747 -0.4983  1.7959
 1331TIP3   OH2 3956   0.726   2.516   1.873 -0.1032  0.1226  0.2204
 1331TIP3    H1 3957   0.805   2.483   1.915 -1.5483 -2.0164  1.4833
 1331TIP3    H2 3958   0.700   2.592   1.925  1.1711  0.9647 -0.3275
 1332TIP3   OH2 3959   1.022   5.575   1.834  0.5295  0.7499 -0.7546
 1332TIP3    H1 3960   0.942   5.601   1.790 -0.5015  1.1821  1.2383
 1332TIP3    H2 3961   0.995   5.504   1.892  1.9984 -0.3868 -1.3989
 1333TIP3   OH2 3962   2.909   1.708   1.075  0.1672 -0.4083  0.2526
 1333TIP3    H1 3963   2.879   1.640   1.136 -0.1104 -0.4523  0.0683
 1333TIP3    H2 3964   2.862   1.787   1.102 -3.2135 -1.2580 -2.3942
 1334TIP3   OH2 3965   0.732   1.047   1.845  0.4892 -0.1333  0.5112
 1334TIP3    H1 3966   0.732   0.972   1.904 -0.0318  0.3592  1.1579
 1334TIP3    H2 3967   0.692   1.117   1.896 -0.0320  0.2886 -0.4541
 1335TIP3   OH2 3968   1.910   5.704   2.889  0.5545 -0.0016 -0.2771
 1335TIP3    H1 3969   1.913   5.614   2.921  0.7929 -0.1841 -0.7995
 1335TIP3    H2 3970   1.954   5.701   2.804  0.2974  0.5495 -0.4358
 1336TIP3   OH2 3971   2.962   5.090   1.736 -0.0701  0.3672  0.3816
 1336TIP3    H1 3972   3.018   5.167   1.749 -0.9101  1.3631 -1.5497
 1336TIP3    H2 3973   3.010   5.036   1.673 -1.1570  1.1615 -1.1795
 1337TIP3   OH2 3974   2.512   1.231   4.691  0.5114 -0.7200  0.3112
 1337TIP3    H1 3975   2.425   1.199   4.669  0.3945  0.1423 -0.5317
 1337TIP3    H2 3976   2.505   1.326   4.686  1.4707 -0.6370  0.3668
 1338TIP3   OH2 3977   0.100   5.949   4.893  0.0627  0.4741  0.2222
 1338TIP3    H1 3978   0.173   5.914   4.945 -0.0988  1.6405  1.2786
 1338TIP3    H2 3979   0.022   5.933   4.947 -0.0974  1.7439  0.4124
 1339TIP3   OH2 3980   4.409   4.821   3.701  0.1393  0.1165 -0.3379
 1339TIP3    H1 3981   4.363   4.785   3.625  2.6338  0.0496 -1.9226
 1339TIP3    H2 3982   4.463   4.749   3.733  1.1739  0.9028 -0.2422
 1340TIP3   OH2 3983   5.100   1.496   2.190 -0.5190  0.1639 -0.1524
 1340TIP3    H1 3984   5.173   1.444   2.156 -0.8558  0.2120 -0.9628
 1340TIP3    H2 3985   5.027   1.476   2.132 -0.7825  1.1691 -0.1958
 1341TIP3   OH2 3986   4.164   1.753   2.598  0.2320  0.4169  0.1845
 1341TIP3    H1 3987   4.192   1.844   2.603  0.1974  0.3673  2.0362
 1341TIP3    H2 3988   4.188   1.725   2.510  1.2554  1.8949 -0.0375
 1342TIP3   OH2 3989   5.478   0.244   2.461  0.3234 -0.3959  0.5242
 1342TIP3    H1 3990   5.452   0.324   2.414  0.2399 -0.9998 -0.4883
 1342TIP3    H2 3991   5.428   0.174   2.419  0.0656 -0.9316  1.6907
 1343TIP3   OH2 3992   5.900   0.156   3.515  0.1597 -0.2916 -0.0035
 1343TIP3    H1 3993   5.931   0.124   3.600  0.2729  1.5142  0.6836
 1343TIP3    H2 3994   5.861   0.242   3.534  0.9071  0.5318 -1.8788
 1344TIP3   OH2 3995   3.374   4.971   1.291 -0.7164  0.4910 -0.6736
 1344TIP3    H1 3996   3.442   4.986   1.356 -0.6307 -3.1781  0.3072
 1344TIP3    H2 3997   3.418   4.984   1.207  0.8286 -0.4305 -0.0389
 1345TIP3   OH2 3998   5.113   4.912   1.813 -0.0448 -0.1150  0.1252
 1345TIP3    H1 3999   5.134   4.985   1.755  1.6026 -0.3516  0.3662
 1345TIP3    H2 4000   5.181   4.847   1.794  0.2927 -0.3508  2.0275
 1346TIP3   OH2 4001   0.544   6.762   1.206  0.2803  0.6883 -0.1208
 1346TIP3    H1 4002   0.566   6.730   1.118  0.8576 -1.1229  0.6205
 1346TIP3    H2 4003   0.507   6.849   1.192  0.8248  0.6490 -2.1076
 1347TIP3   OH2 4004   5.635   2.302   0.015 -0.1257  0.5488  0.0494
 1347TIP3    H1 4005   5.583   2.381   0.030  0.7061  1.1582 -0.2385
 1347TIP3    H2 4006   5.603   2.240   0.081 -1.6843  0.6672 -0.5446
 1348TIP3   OH2 4007   0.441   2.683   2.239  0.1953 -0.8120 -0.1608
 1348TIP3    H1 4008   0.492   2.763   2.256  1.0652 -1.2307 -0.7030
 1348TIP3    H2 4009   0.350   2.709   2.254  0.5205  0.0985  0.3416
 1349TIP3   OH2 4010   2.048   3.702   1.697  0.3692  0.2008  0.4292
 1349TIP3    H1 4011   2.050   3.643   1.771  0.5164  0.6493  0.7888
 1349TIP3    H2 4012   2.138   3.704   1.665  0.1121 -0.8066 -0.4292
 1350TIP3   OH2 4013   1.832   6.212   5.503 -0.0395 -0.3817 -0.0913
 1350TIP3    H1 4014   1.919   6.253   5.496 -0.3710  0.6304  1.3534
 1350TIP3    H2 4015   1.775   6.269   5.452 -0.1433 -0.1538  0.2796
 1351TIP3   OH2 4016   0.314   2.806   3.909 -0.1183 -0.0139  0.0945
 1351TIP3    H1 4017   0.248   2.742   3.882 -1.4360  0.8879  1.0745
 1351TIP3    H2 4018   0.383   2.754   3.950 -1.1043 -0.8231  0.7574
 1352TIP3   OH2 4019   4.565   0.464   4.909 -0.3071 -0.4888 -0.1788
 1352TIP3    H1 4020   4.519   0.388   4.945 -0.0428 -1.3022 -1.4613
 1352TIP3    H2 4021   4.654   0.457   4.943 -0.6167  0.0221  0.7797
 1353TIP3   OH2 4022   5.717   3.943   2.683 -0.3830 -0.0296 -0.2102
 1353TIP3    H1 4023   5.652   3.881   2.715  0.5654 -1.0213 -0.1286
 1353TIP3    H2 4024   5.801   3.902   2.703  0.2634  0.8327 -1.0473
 1354TIP3   OH2 4025   6.485   0.985   4.435  0.5434  0.0265 -0.0612
 1354TIP3    H1 4026   6.463   0.898   4.402  0.1470  0.9604 -2.4602
 1354TIP3    H2 4027   6.581   0.984   4.441  0.6562 -0.1070 -1.5618
 1355TIP3   OH2 4028   5.908   5.376   1.472  0.2766  0.1136  0.2230
 1355TIP3    H1 4029   5.925   5.422   1.390  1.0672 -0.3852  0.0994
 1355TIP3    H2 4030   5.900   5.445   1.538  0.5353  0.4716 -0.1210
 1356TIP3   OH2 4031   2.861   0.051   0.777 -0.7553 -0.3149 -0.4612
 1356TIP3    H1 4032   2.871  -0.029   0.726 -0.3010 -0.6608  0.1558
 1356TIP3    H2 4033   2.924   0.042   0.848 -2.4495 -0.5559  1.0644
 1357TIP3   OH2 4034   0.094   3.190   3.579 -0.3758  0.2695  0.0555
 1357TIP3    H1 4035   0.143   3.201   3.660 -2.7099  0.0848  1.5758
 1357TIP3    H2 4036   0.151   3.137   3.523  0.8478 -0.5468  1.9937
 1358TIP3   OH2 4037   4.707   3.405   4.397  0.2422 -0.2340  0.5600
 1358TIP3    H1 4038   4.690   3.409   4.491  0.9303  0.5862  0.6649
 1358TIP3    H2 4039   4.745   3.490   4.377 -1.4952  0.2795 -0.7983
 1359TIP3   OH2 4040   1.239   2.129   1.318  0.3472  0.0332  0.0858
 1359TIP3    H1 4041   1.265   2.177   1.239  1.3191  1.8161  1.4172
 1359TIP3    H2 4042   1.307   2.062   1.328 -0.2064 -0.7198 -0.9778
 1360TIP3   OH2 4043   3.830   2.919   5.476 -0.1046 -0.1319 -0.0215
 1360TIP3    H1 4044   3.806   2.995   5.422 -0.4229 -1.2749 -1.5641
 1360TIP3    H2 4045   3.825   2.951   5.566  0.2018  1.7990 -0.6250
 1361TIP3   OH2 4046   4.737   5.849   0.767 -0.0889  0.3254  0.9392
 1361TIP3    H1 4047   4.790   5.809   0.837 -0.8246 -2.4419  0.0504
 1361TIP3    H2 4048   4.692   5.775   0.727  0.4946  1.7581 -2.6655
 1362TIP3   OH2 4049   5.853   1.549   0.915  0.1938  0.7731 -0.1947
 1362TIP3    H1 4050   5.876   1.526   0.825 -0.6418  1.4216 -0.5937
 1362TIP3    H2 4051   5.928   1.598   0.948  0.0840  1.4491 -0.9148
 1363TIP3   OH2 4052   5.322   6.668   5.096 -0.0889 -0.3309  0.3367
 1363TIP3    H1 4053   5.317   6.654   5.002  1.5473 -0.4372  0.2282
 1363TIP3    H2 4054   5.269   6.599   5.135 -0.5376 -0.4606 -0.5012
 1364TIP3   OH2 4055   1.942   0.383   4.561 -0.4029  0.1939  0.7351
 1364TIP3    H1 4056   1.883   0.310   4.540  1.6119 -1.1943 -0.5548
 1364TIP3    H2 4057   1.967   0.418   4.475 -0.5836  1.8057  1.3157
 1365TIP3   OH2 4058   3.945   0.248   5.479 -0.7690 -0.2768 -0.1368
 1365TIP3    H1 4059   3.960   0.341   5.463 -0.5993 -0.3274 -0.2696
 1365TIP3    H2 4060   3.854   0.234   5.451 -0.1502 -0.5862 -2.0972
 1366TIP3   OH2 4061   2.805   2.334   4.909  0.2759  0.4044 -0.1214
 1366TIP3    H1 4062   2.753   2.316   4.987 -0.5757  0.2045 -0.7249
 1366TIP3    H2 4063   2.886   2.371   4.943  0.5265 -1.0212  0.9404
 1367TIP3   OH2 4064   6.190   5.676   1.594  0.2320  0.1112  0.1963
 1367TIP3    H1 4065   6.111   5.682   1.648 -0.1546 -0.4016 -0.2942
 1367TIP3    H2 4066   6.253   5.630   1.649  0.7391  1.9133  1.1840
 1368TIP3   OH2 4067   5.012   6.362   4.678  0.3748 -0.3342 -0.4025
 1368TIP3    H1 4068   4.985   6.453   4.670 -3.1219 -1.1490  0.6160
 1368TIP3    H2 4069   4.992   6.323   4.593 -2.0786 -0.9719  0.3983
 1369TIP3   OH2 4070   4.603   5.289   0.751 -0.3288  0.4832 -0.3159
 1369TIP3    H1 4071   4.655   5.323   0.679 -0.2067 -0.4689 -0.6949
 1369TIP3    H2 4072   4.606   5.194   0.740  1.4995  0.1284  2.1554
 1370TIP3   OH2 4073   0.797   3.156   3.461 -0.2959  0.0753  0.7342
 1370TIP3    H1 4074   0.804   3.243   3.423  0.0414 -0.2453  0.0568
 1370TIP3    H2 4075   0.703   3.145   3.478 -0.6012 -0.1177 -0.8653
 1371TIP3   OH2 4076   0.539   5.980   2.706  0.0030 -0.5199 -0.3396
 1371TIP3    H1 4077   0.627   5.945   2.721 -0.0996 -1.3509 -1.5648
 1371TIP3    H2 4078   0.520   6.032   2.785  1.7872  0.1049 -0.2700
 1372TIP3   OH2 4079   7.157   0.752   4.236  0.6910  0.1881  0.0015
 1372TIP3    H1 4080   7.184   0.660   4.229  0.0107  0.0096 -0.3524
 1372TIP3    H2 4081   7.074   0.749   4.283  0.2680  0.5509 -0.7045
 1373TIP3   OH2 4082   1.190   2.349   1.848  0.4567 -0.5383  0.7466
 1373TIP3    H1 4083   1.226   2.405   1.779  0.2643 -0.1490  0.9571
 1373TIP3    H2 4084   1.245   2.271   1.847  0.2063 -0.7082 -0.1215
 1374TIP3   OH2 4085   1.641   2.785   2.239  0.0237 -0.5803  0.1012
 1374TIP3    H1 4086   1.725   2.763   2.277  0.5755 -0.3326 -0.9369
 1374TIP3    H2 4087   1.635   2.731   2.160 -0.5835 -0.2666 -0.0783
 1375TIP3   OH2 4088   3.597   4.150   0.882 -0.5142  0.8921 -0.0818
 1375TIP3    H1 4089   3.584   4.166   0.788  1.6105  2.2955 -0.2076
 1375TIP3    H2 4090   3.621   4.057   0.888 -0.9335  0.7252 -0.8955
 1376TIP3   OH2 4091   3.331   5.838   4.236  0.1730  0.2606 -0.0671
 1376TIP3    H1 4092   3.413   5.884   4.220 -0.1756  1.4743  1.3834
 1376TIP3    H2 4093   3.263   5.902   4.216 -0.3688 -0.1858  0.3088
 1377TIP3   OH2 4094   3.676   0.595   2.199 -0.0414  0.3328 -0.0931
 1377TIP3    H1 4095   3.765   0.627   2.218  0.1252 -0.9801  1.5820
 1377TIP3    H2 4096   3.640   0.573   2.284 -1.4044 -0.6696 -0.8939
 1378TIP3   OH2 4097   4.861   5.686   5.661  0.0719 -0.3664  0.3290
 1378TIP3    H1 4098   4.837   5.716   5.574  2.1800 -1.0286 -0.5597
 1378TIP3    H2 4099   4.780   5.655   5.700 -1.4090  2.3700 -0.3565
 1379TIP3   OH2 4100   1.905   5.250   2.254  0.0811  0.2318  0.4365
 1379TIP3    H1 4101   1.873   5.222   2.168 -1.2509  0.5531  0.7985
 1379TIP3    H2 4102   1.935   5.169   2.295 -0.6895 -0.1758  0.2299
 1380TIP3   OH2 4103   6.946   3.394   4.177  0.3151  0.4250 -0.2030
 1380TIP3    H1 4104   6.989   3.324   4.128  1.5241  1.5107 -0.7519
 1380TIP3    H2 4105   6.914   3.351   4.256 -1.4604 -1.3186 -1.7825
 1381TIP3   OH2 4106   0.036   1.621   1.357  0.3329 -0.3084  0.1830
 1381TIP3    H1 4107   0.048   1.527   1.365 -1.8465 -0.5532  1.3153
 1381TIP3    H2 4108   0.072   1.643   1.271 -0.6630 -2.4643 -0.8454
 1382TIP3   OH2 4109   4.112   0.712   1.350 -0.1066  0.1715  0.3289
 1382TIP3    H1 4110   4.056   0.659   1.294 -0.1647 -0.5114  1.0102
 1382TIP3    H2 4111   4.070   0.708   1.436  0.9326 -0.2684  0.8308
 1383TIP3   OH2 4112   1.741   5.313   0.389  0.2840 -0.1846  0.0647
 1383TIP3    H1 4113   1.785   5.398   0.393  1.5305 -0.7344 -1.0702
 1383TIP3    H2 4114   1.648   5.334   0.381  0.4495  1.0399  1.1394
 1384TIP3   OH2 4115   1.632   2.186   5.426  0.3722  0.7087  0.3843
 1384TIP3    H1 4116   1.590   2.100   5.428 -0.0881  0.9320  0.4893
 1384TIP3    H2 4117   1.568   2.243   5.383 -0.0068  1.3402  1.7083
 1385TIP3   OH2 4118   6.843   1.462   2.900  0.4341  0.5006 -0.1418
 1385TIP3    H1 4119   6.853   1.443   2.807  2.8102 -0.2627  0.2017
 1385TIP3    H2 4120   6.783   1.395   2.932  0.5637  0.0078 -0.9081
 1386TIP3   OH2 4121   1.082   1.161   2.540  0.4024 -0.4041  0.1745
 1386TIP3    H1 4122   1.157   1.192   2.591  0.9032  1.2972 -1.4718
 1386TIP3    H2 4123   1.115   1.087   2.490  1.0633  0.4074 -0.6259
 1387TIP3   OH2 4124   1.417   4.413   5.242 -0.5865  0.5400 -0.1362
 1387TIP3    H1 4125   1.361   4.418   5.320 -0.0506  0.5784  0.2445
 1387TIP3    H2 4126   1.494   4.464   5.264 -0.8091  1.2796 -1.0203
 1388TIP3   OH2 4127   5.758   4.746   1.031  0.8205 -0.1795 -0.4689
 1388TIP3    H1 4128   5.777   4.817   1.092  0.6466  0.5730 -1.2792
 1388TIP3    H2 4129   5.817   4.761   0.957  0.6012 -0.7234 -0.7612
 1389TIP3   OH2 4130   6.441   0.869   2.387  0.3610  0.0109 -0.7184
 1389TIP3    H1 4131   6.419   0.805   2.320 -2.1878  1.3982 -1.2989
 1389TIP3    H2 4132   6.482   0.941   2.339 -1.2577  0.9057 -0.7997
 1390TIP3   OH2 4133   4.070   3.912   4.923 -0.2296 -0.2791  0.3081
 1390TIP3    H1 4134   4.102   3.825   4.945  0.8805  0.4011  1.5052
 1390TIP3    H2 4135   3.991   3.923   4.977  0.3445 -0.0751  1.1230
 1391TIP3   OH2 4136   6.259   3.653   1.855 -0.7576  0.4027  0.3429
 1391TIP3    H1 4137   6.351   3.634   1.841 -1.0874 -1.8402  0.8248
 1391TIP3    H2 4138   6.221   3.656   1.767 -0.0775  2.6157  0.0535
 1392TIP3   OH2 4139   4.025   1.110   5.794  0.2429 -0.2634 -0.0230
 1392TIP3    H1 4140   4.112   1.125   5.831 -0.3370 -1.3719  1.9512
 1392TIP3    H2 4141   4.023   1.016   5.775 -0.6915 -0.3599  0.4864
 1393TIP3   OH2 4142   5.107   4.563   2.705 -0.5443  0.6312 -0.2984
 1393TIP3    H1 4143   5.023   4.606   2.692 -0.1972  0.9422 -1.7135
 1393TIP3    H2 4144   5.133   4.585   2.794 -1.3871  1.5492 -0.2777
 1394TIP3   OH2 4145   4.408   3.334   4.614 -0.0151 -0.4723  0.1365
 1394TIP3    H1 4146   4.461   3.412   4.628 -0.0496 -0.2463 -0.8579
 1394TIP3    H2 4147   4.471   3.264   4.600  0.0209 -0.4518  0.1976
 1395TIP3   OH2 4148   3.079   4.431   3.001  0.0173 -0.3647  0.0626
 1395TIP3    H1 4149   3.031   4.507   2.968  0.1665 -0.3690 -0.1686
 1395TIP3    H2 4150   3.164   4.466   3.027  0.3444 -0.5702 -0.7033
 1396TIP3   OH2 4151   5.123   6.368   2.278 -0.2780  0.3831  0.1920
 1396TIP3    H1 4152   5.211   6.397   2.252 -0.4344  0.1661 -0.6003
 1396TIP3    H2 4153   5.137   6.319   2.359  0.4047 -0.0744 -0.1920
 1397TIP3   OH2 4154   2.009   5.211   4.431 -0.6651  0.6384  0.4052
 1397TIP3    H1 4155   2.077   5.260   4.477 -0.9916  1.1083  0.3959
 1397TIP3    H2 4156   1.929   5.229   4.481 -0.7242 -0.2047  0.6370
 1398TIP3   OH2 4157   4.832   2.549   1.334  0.2260 -0.0863  0.0491
 1398TIP3    H1 4158   4.758   2.568   1.276  0.1897  0.8990  0.3936
 1398TIP3    H2 4159   4.894   2.501   1.280  0.6863  1.7747 -1.1696
 1399TIP3   OH2 4160   4.786   2.847   1.652 -0.0442  0.5879  0.3924
 1399TIP3    H1 4161   4.800   2.937   1.624  3.1577  0.4172  1.0563
 1399TIP3    H2 4162   4.845   2.795   1.597 -1.9273 -1.1643 -0.0902
 1400TIP3   OH2 4163   5.560   4.583   4.239 -0.2080 -0.3989 -0.4362
 1400TIP3    H1 4164   5.506   4.637   4.182  0.4776  0.9698  0.1776
 1400TIP3    H2 4165   5.498   4.545   4.302 -0.5656  0.5485 -0.2014
 1401TIP3   OH2 4166   5.960   0.030   2.966  0.8264 -0.1321 -0.0332
 1401TIP3    H1 4167   5.986  -0.046   3.017  0.7486 -1.2141 -1.5486
 1401TIP3    H2 4168   5.911   0.085   3.027 -2.6100 -3.1442  0.2079
 1402TIP3   OH2 4169   5.312   1.320   3.055  0.3486  0.5799 -0.1555
 1402TIP3    H1 4170   5.403   1.333   3.079  0.3913 -1.5298  1.1027
 1402TIP3    H2 4171   5.262   1.380   3.110  0.8554  0.0566  0.8976
 1403TIP3   OH2 4172   3.557   2.338   4.977  0.1859  0.2238 -0.0068
 1403TIP3    H1 4173   3.609   2.306   4.904  0.3227  0.6930 -0.1179
 1403TIP3    H2 4174   3.599   2.420   5.003  0.6968 -0.3860  1.2010
 1404TIP3   OH2 4175   2.253   3.403   5.738  0.5601  0.4386  0.3821
 1404TIP3    H1 4176   2.276   3.469   5.804 -1.2363  0.1380  1.3882
 1404TIP3    H2 4177   2.160   3.385   5.754  0.4850 -0.8271 -1.2234
 1405TIP3   OH2 4178   4.162   5.781   3.982 -0.2284 -0.2213 -0.1940
 1405TIP3    H1 4179   4.104   5.717   3.941  1.3471 -2.3762  0.7877
 1405TIP3    H2 4180   4.121   5.798   4.067 -0.4085 -0.2797 -0.2680
 1406TIP3   OH2 4181   2.187   2.018   3.488 -0.4654 -0.1639  0.1133
 1406TIP3    H1 4182   2.255   2.038   3.552 -1.7032 -0.2334  1.5066
 1406TIP3    H2 4183   2.148   2.102   3.467  0.5718 -0.0046 -1.3623
 1407TIP3   OH2 4184   5.668   0.800   3.121  0.1495 -0.2854  0.5648
 1407TIP3    H1 4185   5.688   0.886   3.158  1.2110 -0.0881 -0.3990
 1407TIP3    H2 4186   5.717   0.738   3.174  0.8336 -0.1067  0.1503
 1408TIP3   OH2 4187   3.149   3.063   1.345  0.6947  0.4337  0.3881
 1408TIP3    H1 4188   3.182   3.136   1.291  1.8764 -0.2044  0.2200
 1408TIP3    H2 4189   3.061   3.047   1.311  1.0349  0.7224 -0.6783
 1409TIP3   OH2 4190   3.394   4.765   2.985 -0.4108 -0.1335 -0.4483
 1409TIP3    H1 4191   3.332   4.699   2.954  0.2652 -0.2295 -1.6349
 1409TIP3    H2 4192   3.474   4.748   2.936  0.6005 -0.0442  1.0917
 1410TIP3   OH2 4193   4.836   6.762   1.179 -0.2113 -0.0536  0.3062
 1410TIP3    H1 4194   4.756   6.736   1.133 -0.5252 -0.6491  1.1585
 1410TIP3    H2 4195   4.805   6.821   1.248  0.2678  0.9379 -0.2949
 1411TIP3   OH2 4196   6.633   1.317   4.010  0.5617  0.7152 -0.1233
 1411TIP3    H1 4197   6.673   1.401   4.030  0.7773  0.4664  0.5134
 1411TIP3    H2 4198   6.657   1.260   4.084 -1.0309  0.5944  0.3436
 1412TIP3   OH2 4199   0.555   4.958   0.941  0.4520 -0.2360 -0.1122
 1412TIP3    H1 4200   0.516   4.939   0.855  1.6233  0.1847 -0.7564
 1412TIP3    H2 4201   0.481   4.983   0.996 -0.3519 -0.7690 -0.9247
 1413TIP3   OH2 4202   3.762   5.928   1.712 -0.4251 -0.0942 -0.1111
 1413TIP3    H1 4203   3.720   5.842   1.712 -1.4889  0.3825  2.0936
 1413TIP3    H2 4204   3.817   5.928   1.790 -0.7354  1.3479  0.1356
 1414TIP3   OH2 4205   6.817   5.238   3.343 -0.6059 -0.3969 -0.0363
 1414TIP3    H1 4206   6.822   5.181   3.420  1.0473 -1.2198 -0.7051
 1414TIP3    H2 4207   6.873   5.195   3.278  0.7223  1.9821 -0.5885
 1415TIP3   OH2 4208   1.197   5.037   4.090  0.2737 -0.3608  0.0741
 1415TIP3    H1 4209   1.108   5.054   4.058  1.0909 -0.2167 -2.3562
 1415TIP3    H2 4210   1.248   5.113   4.060  1.6989 -1.6306 -0.8484
 1416TIP3   OH2 4211   4.910   6.257   1.000  0.2770 -0.4965  0.8531
 1416TIP3    H1 4212   4.843   6.209   0.952  0.7361 -0.1901 -0.1140
 1416TIP3    H2 4213   4.956   6.308   0.934  1.0155 -0.1655  1.5958
 1417TIP3   OH2 4214   4.386   0.609   5.214 -0.3553  0.3696 -0.0215
 1417TIP3    H1 4215   4.295   0.589   5.193 -0.4720  0.5366  0.3163
 1417TIP3    H2 4216   4.382   0.650   5.300 -0.1098  1.7144 -0.6293
 1418TIP3   OH2 4217   3.242   5.665   0.518  0.3648  0.1727 -0.0304
 1418TIP3    H1 4218   3.307   5.595   0.513  0.6012  0.4082 -0.3065
 1418TIP3    H2 4219   3.202   5.667   0.431  1.3103  1.2770 -0.4585
 1419TIP3   OH2 4220   6.159   2.635   0.169  0.7587 -0.5826 -0.0666
 1419TIP3    H1 4221   6.170   2.550   0.125 -0.6932 -0.4470 -0.7708
 1419TIP3    H2 4222   6.214   2.695   0.119 -0.1911 -0.6130 -1.2202
 1420TIP3   OH2 4223   5.823   5.627   3.696  0.2452 -0.6470 -0.0996
 1420TIP3    H1 4224   5.784   5.586   3.773  1.6703 -1.3314  0.2797
 1420TIP3    H2 4225   5.902   5.670   3.728  0.9437 -1.0714 -1.2016
 1421TIP3   OH2 4226   0.553   0.757   5.249 -0.4424 -0.0191  0.3742
 1421TIP3    H1 4227   0.498   0.809   5.306 -1.1043  0.1201 -0.3673
 1421TIP3    H2 4228   0.559   0.808   5.168  1.8822  0.6097  0.8736
 1422TIP3   OH2 4229   1.506   2.568   3.280 -0.3824  0.5052 -0.0918
 1422TIP3    H1 4230   1.491   2.478   3.251 -2.2414  0.8133 -0.2106
 1422TIP3    H2 4231   1.557   2.559   3.360 -0.8476 -0.6715  0.0906
 1423TIP3   OH2 4232   5.380   1.572   3.733 -0.1332  0.2888 -0.0533
 1423TIP3    H1 4233   5.358   1.616   3.651 -0.5561  1.8484  0.8502
 1423TIP3    H2 4234   5.362   1.479   3.717 -0.9068  0.6637 -1.4818
 1424TIP3   OH2 4235   3.386   2.337   4.079  0.9018 -0.1365  0.1350
 1424TIP3    H1 4236   3.418   2.400   4.015  0.0211  0.0536 -0.1220
 1424TIP3    H2 4237   3.378   2.255   4.030 -0.8053  0.2591 -0.2888
 1425TIP3   OH2 4238   3.736   0.731   5.746 -0.4068 -0.0195  0.0395
 1425TIP3    H1 4239   3.727   0.794   5.818 -0.9511  0.3605 -0.3483
 1425TIP3    H2 4240   3.678   0.765   5.678  1.7865  0.8937 -1.4936
 1426TIP3   OH2 4241   5.971   5.782   1.778 -0.2306  0.6166 -0.6112
 1426TIP3    H1 4242   5.878   5.783   1.800 -0.4278  2.0249 -1.3966
 1426TIP3    H2 4243   6.004   5.866   1.809  0.9147 -0.0661  0.1079
 1427TIP3   OH2 4244   1.292   2.029   5.274  0.1789  0.3588  0.2967
 1427TIP3    H1 4245   1.197   2.026   5.287 -0.1295  0.1514 -1.7223
 1427TIP3    H2 4246   1.310   2.120   5.252  0.2306  0.1285 -0.6540
 1428TIP3   OH2 4247   2.516   6.132   4.613 -0.6095  0.2781  0.5653
 1428TIP3    H1 4248   2.602   6.156   4.579  0.4288 -2.3157  1.1589
 1428TIP3    H2 4249   2.493   6.203   4.673 -0.6458  2.8835 -2.3176
 1429TIP3   OH2 4250   2.584   6.529   2.617 -0.4533  0.0456 -0.2292
 1429TIP3    H1 4251   2.560   6.540   2.525 -0.6486  0.3796 -0.1410
 1429TIP3    H2 4252   2.500   6.521   2.663 -0.4867  2.3523  0.2331
 1430TIP3   OH2 4253   6.251   1.257   5.007  0.5208 -0.8142 -0.4293
 1430TIP3    H1 4254   6.164   1.294   5.017  1.1508  0.4498  0.7852
 1430TIP3    H2 4255   6.257   1.190   5.075  0.5654 -0.7270 -0.3456
 1431TIP3   OH2 4256   6.382   4.650   2.387  0.4610  0.2903  0.3756
 1431TIP3    H1 4257   6.373   4.665   2.481 -1.1207  1.9168  0.0423
 1431TIP3    H2 4258   6.320   4.579   2.368 -0.0780  0.7374  0.4199
 1432TIP3   OH2 4259   5.206   6.454   2.602  0.2380  0.3111  0.1872
 1432TIP3    H1 4260   5.248   6.536   2.576 -1.0262  1.1019  0.5593
 1432TIP3    H2 4261   5.115   6.477   2.617 -0.1671 -1.1909  0.2303
 1433TIP3   OH2 4262   2.546   4.185   4.245  0.3571 -0.2243 -0.5987
 1433TIP3    H1 4263   2.518   4.128   4.316  0.7363 -0.7954 -0.9034
 1433TIP3    H2 4264   2.572   4.267   4.289  0.0394 -0.3679 -0.1409
 1434TIP3   OH2 4265   2.591   3.198   2.267 -0.2162 -0.1317  0.0406
 1434TIP3    H1 4266   2.665   3.191   2.207  0.2213 -0.4168  0.6029
 1434TIP3    H2 4267   2.544   3.116   2.258 -0.3727 -0.0157 -0.1992
 1435TIP3   OH2 4268   6.566   0.506   4.521 -0.0598  0.3365  0.1188
 1435TIP3    H1 4269   6.504   0.546   4.582 -0.6726 -0.0769 -0.2214
 1435TIP3    H2 4270   6.650   0.547   4.541 -0.5622  1.3593  0.1619
 1436TIP3   OH2 4271   5.912   0.970   5.848  0.2234 -0.2015  0.6472
 1436TIP3    H1 4272   5.950   1.025   5.779  0.5149  0.0475  1.0079
 1436TIP3    H2 4273   5.953   0.885   5.836 -0.2997 -0.3837  0.0246
 1437TIP3   OH2 4274   5.201   5.429   2.403  0.3530  0.1781  0.1446
 1437TIP3    H1 4275   5.231   5.519   2.417  0.5821 -0.0832  1.4345
 1437TIP3    H2 4276   5.282   5.379   2.392  0.2274  0.0961 -0.4932
 1438TIP3   OH2 4277   3.876   5.153   0.209 -0.3786  0.3910 -0.1461
 1438TIP3    H1 4278   3.908   5.155   0.119 -2.0237 -0.2023 -0.7890
 1438TIP3    H2 4279   3.936   5.094   0.254  0.8077  1.1324 -0.6873
 1439TIP3   OH2 4280   0.476   0.382   2.863 -0.5154  0.5164  0.1263
 1439TIP3    H1 4281   0.553   0.429   2.831 -0.2370 -0.1494 -0.1961
 1439TIP3    H2 4282   0.503   0.345   2.947 -0.3738  0.0104 -0.1386
 1440TIP3   OH2 4283   2.545   0.454   0.135  0.1457 -0.4657  0.0499
 1440TIP3    H1 4284   2.567   0.478   0.225 -1.1086 -0.8717  0.4809
 1440TIP3    H2 4285   2.628   0.461   0.088  1.0011 -1.0388  1.4036
 1441TIP3   OH2 4286   1.807   3.880   1.953 -0.2410  0.2150  0.0696
 1441TIP3    H1 4287   1.789   3.928   2.034  1.0993  0.9679 -0.0516
 1441TIP3    H2 4288   1.722   3.844   1.928 -0.5730 -0.6071  2.1434
 1442TIP3   OH2 4289   1.116   1.610   3.160 -0.3910 -0.0185  0.0250
 1442TIP3    H1 4290   1.148   1.549   3.226  2.0192 -0.6948 -1.6356
 1442TIP3    H2 4291   1.039   1.651   3.200 -0.3577 -1.9980  2.3266
 1443TIP3   OH2 4292   1.862   3.680   4.945 -0.4952 -0.1262 -0.5354
 1443TIP3    H1 4293   1.798   3.704   4.879 -0.1272  2.1586 -0.1524
 1443TIP3    H2 4294   1.847   3.742   5.017  1.8129  0.2058 -0.2432
 1444TIP3   OH2 4295   0.620   2.922   3.088 -0.0603 -0.0275 -0.0878
 1444TIP3    H1 4296   0.682   2.958   3.025 -0.4415 -0.3852 -0.6732
 1444TIP3    H2 4297   0.625   2.827   3.075  0.4986 -0.1673  1.0241
 1445TIP3   OH2 4298   5.395   5.060   1.678 -0.1509 -0.5964  0.5177
 1445TIP3    H1 4299   5.311   5.105   1.686  0.5748  0.6703  1.2505
 1445TIP3    H2 4300   5.372   4.967   1.674 -1.5202 -0.3582  1.9729
 1446TIP3   OH2 4301   3.182   4.230   2.372  0.1292 -0.3009  0.0351
 1446TIP3    H1 4302   3.144   4.157   2.322 -0.6386 -0.1062  0.3183
 1446TIP3    H2 4303   3.262   4.253   2.325 -0.4210 -0.3306 -0.9342
 1447TIP3   OH2 4304   6.855   3.522   4.512  0.0364 -0.7934  0.0085
 1447TIP3    H1 4305   6.858   3.428   4.493  0.2428 -0.6535 -0.6645
 1447TIP3    H2 4306   6.945   3.552   4.502 -0.0680 -0.4773 -0.0096
 1448TIP3   OH2 4307   6.934   6.612   1.627 -0.6038  0.1092  0.3297
 1448TIP3    H1 4308   6.964   6.573   1.546 -2.3435  0.0159 -0.3245
 1448TIP3    H2 4309   6.980   6.696   1.634 -0.3977  0.0861 -0.7307
 1449TIP3   OH2 4310   1.982   6.348   3.357 -0.2988 -0.1407  0.5486
 1449TIP3    H1 4311   2.062   6.308   3.323  0.4094 -0.6536  2.7073
 1449TIP3    H2 4312   1.912   6.310   3.304  0.4541 -3.3578  1.6348
 1450TIP3   OH2 4313   1.966   1.350   1.241  0.4826 -0.5156 -0.6847
 1450TIP3    H1 4314   2.008   1.418   1.189  1.9083 -0.9143 -0.1126
 1450TIP3    H2 4315   1.981   1.269   1.192  1.0351 -0.7634 -0.1166
 1451TIP3   OH2 4316   3.094   1.075   0.634 -0.2633 -0.3573 -0.0209
 1451TIP3    H1 4317   3.185   1.067   0.608 -0.7124 -1.2667 -1.3984
 1451TIP3    H2 4318   3.056   1.139   0.574 -0.7254 -0.5799  0.0257
 1452TIP3   OH2 4319   2.503   2.113   0.570  0.2595  0.1401 -0.0226
 1452TIP3    H1 4320   2.562   2.185   0.592  0.9865 -0.3652 -0.2731
 1452TIP3    H2 4321   2.447   2.104   0.647 -0.5238  1.6271 -0.3926
 1453TIP3   OH2 4322   3.933   5.211   5.796 -1.0131 -0.2181  0.3793
 1453TIP3    H1 4323   3.929   5.304   5.774 -0.6563 -0.4197 -0.5473
 1453TIP3    H2 4324   3.858   5.172   5.752 -1.7371 -0.2287  1.5625
 1454TIP3   OH2 4325   3.756   4.126   5.796 -0.0997 -0.2830  0.1029
 1454TIP3    H1 4326   3.800   4.041   5.800 -0.7589 -0.6482 -0.2610
 1454TIP3    H2 4327   3.719   4.138   5.883 -0.2110 -0.4872  0.0855
 1455TIP3   OH2 4328   2.585   4.344   0.768 -0.0320 -0.2087 -0.1776
 1455TIP3    H1 4329   2.622   4.389   0.693  0.0761  1.0262  0.5911
 1455TIP3    H2 4330   2.627   4.384   0.844 -0.5725 -1.0139  0.5798
 1456TIP3   OH2 4331   5.623   1.006   1.641 -0.4064  0.0140 -0.3519
 1456TIP3    H1 4332   5.546   0.962   1.606 -1.1695  0.7089  0.3832
 1456TIP3    H2 4333   5.617   0.994   1.736 -0.8568  1.9352 -0.0765
 1457TIP3   OH2 4334   1.176   0.207   4.160 -0.0444 -0.1856  0.3182
 1457TIP3    H1 4335   1.225   0.221   4.079  0.2884 -2.1902  0.1222
 1457TIP3    H2 4336   1.088   0.184   4.131  0.0187 -0.7046  0.5427
 1458TIP3   OH2 4337   4.156   6.556   1.584  0.0170  0.4701  0.2785
 1458TIP3    H1 4338   4.181   6.623   1.648 -2.1125  1.6372 -0.0103
 1458TIP3    H2 4339   4.234   6.502   1.574  0.3056 -0.1393  4.2584
 1459TIP3   OH2 4340   0.426   5.588   5.286 -0.4594  0.5500 -0.1382
 1459TIP3    H1 4341   0.503   5.645   5.288  1.0964 -1.4464  0.3941
 1459TIP3    H2 4342   0.422   5.557   5.196 -0.4704  0.4687 -0.1100
 1460TIP3   OH2 4343   5.959   0.223   1.063 -0.4808 -0.4976  0.4179
 1460TIP3    H1 4344   5.920   0.161   1.124 -2.2923 -0.2507 -0.4090
 1460TIP3    H2 4345   6.053   0.214   1.075 -0.7606 -1.8905  1.7884
 1461TIP3   OH2 4346   5.881   1.523   4.618  0.0974 -0.1307  0.0350
 1461TIP3    H1 4347   5.886   1.461   4.544  2.0752 -0.1051  0.0828
 1461TIP3    H2 4348   5.956   1.581   4.605 -1.2008  1.7388  0.4984
 1462TIP3   OH2 4349   2.435   5.324   1.979 -0.3391 -0.5132 -0.1274
 1462TIP3    H1 4350   2.423   5.367   2.064  0.5734  1.1881 -0.8073
 1462TIP3    H2 4351   2.432   5.231   1.999 -1.9982 -0.1803  1.4920
 1463TIP3   OH2 4352   0.781   6.705   1.912  0.5210  0.2244  0.5135
 1463TIP3    H1 4353   0.809   6.794   1.931  1.8562 -0.0913  0.1008
 1463TIP3    H2 4354   0.796   6.694   1.819 -0.6938 -0.0860  0.3311
 1464TIP3   OH2 4355   0.559   4.217   1.669  0.2598 -0.3873 -0.0217
 1464TIP3    H1 4356   0.573   4.148   1.734 -0.2067  0.1777  0.6909
 1464TIP3    H2 4357   0.473   4.253   1.691  0.2086 -0.0280 -0.8075
 1465TIP3   OH2 4358   6.372   1.907   4.980 -0.3108 -0.1313 -1.0479
 1465TIP3    H1 4359   6.421   1.892   4.899  0.0117 -0.7828 -0.7362
 1465TIP3    H2 4360   6.374   1.823   5.026 -1.1312  0.0249 -0.7066
 1466TIP3   OH2 4361   3.172   5.839   1.898  0.1711 -0.0167 -0.2394
 1466TIP3    H1 4362   3.227   5.764   1.876 -0.8206 -0.9422  0.3515
 1466TIP3    H2 4363   3.128   5.814   1.979 -2.1859  0.0645 -1.4059
 1467TIP3   OH2 4364   5.178   3.039   0.443 -0.0690  0.0306 -0.3054
 1467TIP3    H1 4365   5.243   2.992   0.494 -1.3384  1.0253  2.4039
 1467TIP3    H2 4366   5.097   2.989   0.455 -0.3286  0.0630 -1.7321
 1468TIP3   OH2 4367   5.287   6.735   2.572  0.1163  0.0748 -0.4519
 1468TIP3    H1 4368   5.287   6.779   2.488 -0.0616 -0.2115 -0.6057
 1468TIP3    H2 4369   5.343   6.788   2.628 -0.6953  0.9077 -0.4145
 1469TIP3   OH2 4370   5.050   4.199   4.338 -0.7086 -0.2749  0.9117
 1469TIP3    H1 4371   5.130   4.149   4.354  0.2664  1.1613  0.7841
 1469TIP3    H2 4372   5.013   4.160   4.259  0.1003 -0.7089  0.7271
 1470TIP3   OH2 4373   3.406   5.621   2.183  0.3265  0.3014 -0.0187
 1470TIP3    H1 4374   3.413   5.530   2.152  0.0004  1.0474 -2.5559
 1470TIP3    H2 4375   3.490   5.639   2.225  1.1813 -0.5985 -1.2699
 1471TIP3   OH2 4376   5.975   4.246   1.987  0.1650 -0.0113  0.3900
 1471TIP3    H1 4377   5.952   4.337   1.968 -2.0043 -0.4619  0.6616
 1471TIP3    H2 4378   5.929   4.195   1.920  1.3496 -0.9363  0.2457
 1472TIP3   OH2 4379   1.158   6.500   3.474 -0.2569 -0.3321 -0.1947
 1472TIP3    H1 4380   1.079   6.541   3.439 -0.2946 -0.8701 -0.7589
 1472TIP3    H2 4381   1.179   6.551   3.553 -3.4602 -2.5436  2.3896
 1473TIP3   OH2 4382   4.123   4.416   3.995  0.4173  0.4328 -0.2954
 1473TIP3    H1 4383   4.183   4.342   4.009  0.0881  0.3495  0.7562
 1473TIP3    H2 4384   4.178   4.494   4.008  0.1386  0.3587  1.5465
 1474TIP3   OH2 4385   2.357   4.935   3.724  0.0889  0.6191 -0.5794
 1474TIP3    H1 4386   2.339   4.999   3.793  0.6552 -0.9760  1.1354
 1474TIP3    H2 4387   2.448   4.950   3.700  1.0529 -1.0771  1.6501
 1475TIP3   OH2 4388   2.599   5.606   3.638 -0.2608  0.0308  0.0734
 1475TIP3    H1 4389   2.635   5.685   3.680  0.4027 -0.7535  1.0497
 1475TIP3    H2 4390   2.673   5.545   3.637 -0.8955 -0.7420 -0.2239
 1476TIP3   OH2 4391   3.363   4.527   1.337  0.2109 -0.0189 -0.1304
 1476TIP3    H1 4392   3.394   4.613   1.365  0.2177  0.3878 -1.3568
 1476TIP3    H2 4393   3.307   4.497   1.409 -0.0804  1.1678  0.1469
 1477TIP3   OH2 4394   0.714   0.785   4.414 -0.1494 -0.3492 -0.2711
 1477TIP3    H1 4395   0.683   0.856   4.470  0.5788 -1.4624  1.5996
 1477TIP3    H2 4396   0.809   0.793   4.415 -0.1252 -0.0812 -1.8208
 1478TIP3   OH2 4397   3.205   2.875   0.273 -0.0553 -0.6352 -0.0188
 1478TIP3    H1 4398   3.145   2.949   0.269  0.6398 -0.0006  1.0331
 1478TIP3    H2 4399   3.150   2.799   0.254 -1.4382 -0.1810  1.8996
 1479TIP3   OH2 4400   2.406   6.154   5.580  0.0821 -0.0436  0.0165
 1479TIP3    H1 4401   2.344   6.116   5.643  1.2779  0.1497  1.3727
 1479TIP3    H2 4402   2.433   6.237   5.619  2.5348 -0.9238  0.4206
 1480TIP3   OH2 4403   5.093   1.708   3.721  0.2966  0.2280  0.0254
 1480TIP3    H1 4404   5.159   1.672   3.781  0.0022  0.7180  0.6490
 1480TIP3    H2 4405   5.023   1.740   3.778  0.9731  2.7171 -0.4016
 1481TIP3   OH2 4406   1.761   4.140   5.058  0.1657  0.2265 -0.3750
 1481TIP3    H1 4407   1.761   4.064   5.001 -2.1793  1.6161 -2.4291
 1481TIP3    H2 4408   1.784   4.106   5.144  0.5047 -2.5281 -1.4602
 1482TIP3   OH2 4409   2.870   3.285   0.534  0.3370  0.2977 -0.2177
 1482TIP3    H1 4410   2.827   3.201   0.555 -0.8297  0.2822 -2.3697
 1482TIP3    H2 4411   2.832   3.347   0.596  0.3615 -0.5414  0.6572
 1483TIP3   OH2 4412   1.898   5.818   0.613 -0.5262 -0.0378  0.3441
 1483TIP3    H1 4413   1.819   5.784   0.655 -1.0728  1.9726  1.0301
 1483TIP3    H2 4414   1.970   5.778   0.662 -1.1270 -0.5336  0.8415
 1484TIP3   OH2 4415   5.900   2.625   1.756  0.1579  0.8894 -0.1278
 1484TIP3    H1 4416   5.987   2.586   1.761  0.1706  0.6676 -1.6783
 1484TIP3    H2 4417   5.872   2.633   1.847  1.2477 -0.2717  0.3310
 1485TIP3   OH2 4418   5.798   1.006   4.881 -0.1718  0.0699  0.0050
 1485TIP3    H1 4419   5.872   0.963   4.838 -1.3716 -1.4997 -0.6034
 1485TIP3    H2 4420   5.727   0.942   4.876 -1.2644  1.0845  1.5596
 1486TIP3   OH2 4421   3.933   4.924   4.958  0.1358  0.1351  0.3729
 1486TIP3    H1 4422   3.896   4.841   4.989  0.0340 -0.4440 -1.2457
 1486TIP3    H2 4423   3.876   4.951   4.887  0.4663  1.3544  0.5513
 1487TIP3   OH2 4424   0.376   6.691   0.245  0.2211 -0.1257 -0.0259
 1487TIP3    H1 4425   0.397   6.599   0.258 -0.9614 -0.4975 -0.6677
 1487TIP3    H2 4426   0.406   6.710   0.156  0.9929  0.2843  0.3067
 1488TIP3   OH2 4427   0.865   0.145   4.946 -0.2099  0.3080  0.4851
 1488TIP3    H1 4428   0.773   0.145   4.919  0.3213 -1.6417 -1.5904
 1488TIP3    H2 4429   0.913   0.166   4.866  1.2343 -0.2951  1.1653
 1489TIP3   OH2 4430   7.028   6.716   5.450  0.4156 -0.7858  0.0046
 1489TIP3    H1 4431   7.100   6.765   5.490  2.2634 -2.3722 -1.1964
 1489TIP3    H2 4432   7.070   6.661   5.383 -1.8880 -1.9860 -0.5735
 1490TIP3   OH2 4433   2.106   2.528   2.181 -0.1323 -0.5474 -0.1704
 1490TIP3    H1 4434   2.113   2.438   2.214  5.2879 -0.7431 -0.9135
 1490TIP3    H2 4435   2.082   2.518   2.089 -1.5075 -1.0071  0.2164
 1491TIP3   OH2 4436   0.397   5.173   1.506  0.6536 -0.1802 -0.2293
 1491TIP3    H1 4437   0.473   5.186   1.449  1.1542 -1.0655  0.2043
 1491TIP3    H2 4438   0.434   5.138   1.587  0.0179  1.5744  0.8798
 1492TIP3   OH2 4439   3.853   1.755   0.616 -0.0777 -0.2241 -0.0977
 1492TIP3    H1 4440   3.843   1.805   0.534 -0.3636  1.4756  0.9172
 1492TIP3    H2 4441   3.947   1.747   0.627 -0.0226  0.0878 -0.2936
 1493TIP3   OH2 4442   0.771   0.932   5.380  0.2428 -0.2439 -0.3993
 1493TIP3    H1 4443   0.682   0.963   5.396  0.2839  0.0174 -0.6622
 1493TIP3    H2 4444   0.761   0.839   5.360  0.0295 -0.2161 -0.4245
 1494TIP3   OH2 4445   4.650   0.219   3.247 -0.0983 -0.6723 -0.3320
 1494TIP3    H1 4446   4.695   0.173   3.176  1.8889  0.5172  0.0633
 1494TIP3    H2 4447   4.582   0.270   3.204  1.3670  0.3865 -1.4959
 1495TIP3   OH2 4448   5.197   1.765   1.643 -0.3843 -0.0017  0.4025
 1495TIP3    H1 4449   5.209   1.687   1.696  0.9972  0.5771  0.9948
 1495TIP3    H2 4450   5.285   1.802   1.635 -0.9504  1.2740 -0.1977
 1496TIP3   OH2 4451   1.925   1.608   4.320  0.1164 -0.1569  0.7304
 1496TIP3    H1 4452   1.842   1.560   4.330 -0.0152 -0.0057  0.3967
 1496TIP3    H2 4453   1.966   1.604   4.406  0.0320 -0.7328  0.7453
 1497TIP3   OH2 4454   6.656   1.414   4.719  0.4792  0.1438 -0.0431
 1497TIP3    H1 4455   6.634   1.399   4.627  2.7370 -1.2758 -0.4322
 1497TIP3    H2 4456   6.743   1.375   4.729  1.4477  2.5960  2.0764
 1498TIP3   OH2 4457   1.395   0.620   3.179 -0.5951 -0.2825 -0.5953
 1498TIP3    H1 4458   1.404   0.655   3.267 -1.0036 -2.3700  0.3385
 1498TIP3    H2 4459   1.475   0.568   3.166 -1.0232 -0.8472 -1.0276
 1499TIP3   OH2 4460   4.905   6.214   5.423 -0.0802 -0.6605  0.0305
 1499TIP3    H1 4461   4.875   6.295   5.382 -1.2239 -1.6759 -1.2666
 1499TIP3    H2 4462   4.977   6.184   5.368 -1.1651 -1.6720 -0.8930
 1500TIP3   OH2 4463   5.181   2.598   3.842 -0.1537 -0.0574 -0.1710
 1500TIP3    H1 4464   5.250   2.660   3.866 -0.1181 -0.8110  1.8608
 1500TIP3    H2 4465   5.099   2.644   3.861 -0.1473 -0.2940  0.4275
 1501TIP3   OH2 4466   6.067   6.466   2.088 -0.2644 -0.3006  0.3022
 1501TIP3    H1 4467   6.160   6.490   2.095 -0.6738  0.9339  2.2963
 1501TIP3    H2 4468   6.026   6.541   2.045 -0.0820 -1.7501 -2.6245
 1502TIP3   OH2 4469   3.658   3.566   0.600  0.3125  0.3613 -0.3349
 1502TIP3    H1 4470   3.721   3.624   0.642 -0.3200  0.9973 -0.2364
 1502TIP3    H2 4471   3.679   3.479   0.633  2.8658  0.0948 -2.3692
 1503TIP3   OH2 4472   2.977   3.907   2.794  0.3193  0.0536  0.0245
 1503TIP3    H1 4473   3.042   3.948   2.739  0.3806 -1.4092 -1.0510
 1503TIP3    H2 4474   2.987   3.813   2.778 -1.4175 -0.2642  0.5229
 1504TIP3   OH2 4475   4.136   5.417   3.181  0.3862  0.5323  0.1329
 1504TIP3    H1 4476   4.200   5.464   3.233  0.2904  2.9919 -1.8257
 1504TIP3    H2 4477   4.158   5.436   3.090 -0.0525 -2.7894 -0.8237
 1505TIP3   OH2 4478   4.026   0.669   3.091 -0.8392  0.3508  0.3376
 1505TIP3    H1 4479   3.990   0.750   3.127 -0.5698  0.9920 -0.7739
 1505TIP3    H2 4480   3.967   0.648   3.018 -0.7030 -0.2573  0.4015
 1506TIP3   OH2 4481   6.277   2.074   4.652  0.3790  0.4575 -0.3126
 1506TIP3    H1 4482   6.290   2.141   4.720 -0.2368  0.0678  0.1992
 1506TIP3    H2 4483   6.348   2.011   4.666  0.6421  0.7172 -0.4547
 1507TIP3   OH2 4484   2.806   4.737   5.627 -0.0255 -0.6552  0.6168
 1507TIP3    H1 4485   2.827   4.809   5.686  0.4310 -0.2628 -0.0010
 1507TIP3    H2 4486   2.712   4.745   5.610  0.4416  1.5106 -1.5838
 1508TIP3   OH2 4487   1.161   5.554   0.762  0.2162  0.4014 -0.1967
 1508TIP3    H1 4488   1.174   5.462   0.741 -0.1782  0.4377 -0.6083
 1508TIP3    H2 4489   1.074   5.557   0.802 -0.1618  0.7279 -1.0261
 1509TIP3   OH2 4490   3.173   2.542   5.201 -0.3292  0.3717 -0.1029
 1509TIP3    H1 4491   3.256   2.548   5.248 -0.9880 -0.0810  1.1800
 1509TIP3    H2 4492   3.111   2.509   5.267 -1.4490  0.3984 -1.1153
 1510TIP3   OH2 4493   1.474   5.045   1.947 -0.1912 -0.3388  0.1866
 1510TIP3    H1 4494   1.392   5.017   1.989  0.2997 -0.2065  1.2670
 1510TIP3    H2 4495   1.446   5.103   1.876 -1.0216  0.0223  0.7926
 1511TIP3   OH2 4496   5.027   6.574   5.374 -0.0674 -0.7465  0.4520
 1511TIP3    H1 4497   5.069   6.534   5.298  0.6149  0.5135  0.1359
 1511TIP3    H2 4498   5.100   6.604   5.428 -0.5480 -1.5529  1.5740
 1512TIP3   OH2 4499   1.018   4.063   0.400 -0.1987 -0.0888 -0.2863
 1512TIP3    H1 4500   0.923   4.065   0.404 -0.3275 -0.2167 -2.4805
 1512TIP3    H2 4501   1.043   4.148   0.364  0.3284 -0.9768 -2.1092
 1513TIP3   OH2 4502   6.815   4.915   4.854  0.3905 -0.2977 -0.1753
 1513TIP3    H1 4503   6.896   4.924   4.805  1.5967  1.4416  1.9312
 1513TIP3    H2 4504   6.770   4.999   4.843 -0.4574 -0.7456 -0.2103
 1514TIP3   OH2 4505   7.121   2.682   1.983 -0.1718  0.1501  0.3571
 1514TIP3    H1 4506   7.194   2.744   1.982 -0.8029  0.9318 -1.7044
 1514TIP3    H2 4507   7.089   2.681   1.893 -0.4198 -2.9378  0.3738
 1515TIP3   OH2 4508   0.548   3.533   2.997 -0.1461 -0.4623  0.1393
 1515TIP3    H1 4509   0.566   3.439   3.007 -0.6424 -0.6362 -0.5341
 1515TIP3    H2 4510   0.590   3.556   2.914 -2.2068 -0.6849 -1.0169
 1516TIP3   OH2 4511   5.320   3.132   3.838 -1.0587 -0.5532  0.0800
 1516TIP3    H1 4512   5.411   3.160   3.844 -0.9425 -0.0924 -2.5493
 1516TIP3    H2 4513   5.269   3.210   3.861 -0.7914 -0.4093  0.1931
 1517TIP3   OH2 4514   0.727   4.997   3.012  0.5526  0.3974 -0.1749
 1517TIP3    H1 4515   0.799   4.966   3.068 -0.5709 -1.2682  0.4192
 1517TIP3    H2 4516   0.665   5.038   3.073  1.4006  2.7483 -0.8045
 1518TIP3   OH2 4517   2.709   2.169   4.200 -0.5038  0.1724  0.4471
 1518TIP3    H1 4518   2.762   2.197   4.274 -1.1891  0.5468  0.8071
 1518TIP3    H2 4519   2.659   2.247   4.175 -0.4695 -0.0196 -0.2468
 1519TIP3   OH2 4520   4.705   4.494   4.931 -0.0671  0.4036 -0.3340
 1519TIP3    H1 4521   4.789   4.449   4.919 -0.7352 -1.1014  0.2806
 1519TIP3    H2 4522   4.690   4.539   4.848 -0.1445 -1.9669 -1.7100
 1520TIP3   OH2 4523   5.539   5.670   4.069  0.1128  0.2076 -0.1448
 1520TIP3    H1 4524   5.540   5.711   4.156  1.1616  0.0553 -0.0716
 1520TIP3    H2 4525   5.447   5.659   4.048 -0.1706  1.4349  0.3978
 1521TIP3   OH2 4526   6.056   5.607   3.552 -0.5968  0.1346  0.2489
 1521TIP3    H1 4527   6.104   5.530   3.580  0.2585  1.0568  1.4333
 1521TIP3    H2 4528   5.973   5.603   3.600  0.2983  0.9893  1.9480
 1522TIP3   OH2 4529   0.996   1.184   0.361 -0.0947 -0.9157  0.2818
 1522TIP3    H1 4530   0.906   1.174   0.392  1.2195 -2.6391  4.1875
 1522TIP3    H2 4531   1.029   1.261   0.408  0.4584 -0.0857 -1.3665
 1523TIP3   OH2 4532   0.371   4.488   2.810 -0.3033 -0.4442  0.5009
 1523TIP3    H1 4533   0.281   4.518   2.797 -0.2134  1.2872  3.1873
 1523TIP3    H2 4534   0.364   4.410   2.865 -0.2076 -1.9144 -1.4522
 1524TIP3   OH2 4535   6.656   2.375   4.484  0.0410 -0.0907 -0.0608
 1524TIP3    H1 4536   6.567   2.386   4.518 -0.1644  0.4491 -0.7453
 1524TIP3    H2 4537   6.705   2.336   4.556 -0.3081  1.2899  0.9625
 1525TIP3   OH2 4538   6.383   3.007   5.250 -0.2810 -0.0199 -0.1816
 1525TIP3    H1 4539   6.320   3.078   5.257 -0.5644 -0.4425  2.3232
 1525TIP3    H2 4540   6.462   3.048   5.214 -1.5322  0.7493 -2.2174
 1526TIP3   OH2 4541   4.442   4.776   0.890  0.1480 -0.1421  0.3213
 1526TIP3    H1 4542   4.481   4.815   0.968  0.5068 -0.7215  0.4329
 1526TIP3    H2 4543   4.516   4.747   0.838 -0.1248 -1.3114  0.5615
 1527TIP3   OH2 4544   0.156   5.387   3.243  0.4716 -0.3450  0.3493
 1527TIP3    H1 4545   0.113   5.329   3.306  1.8779 -0.2683  1.4145
 1527TIP3    H2 4546   0.209   5.329   3.189 -0.3616 -0.3541 -0.4832
 1528TIP3   OH2 4547   3.066   4.595   1.850 -0.1784  0.6426  0.3290
 1528TIP3    H1 4548   3.005   4.532   1.887 -0.0616 -0.5837 -1.4211
 1528TIP3    H2 4549   3.048   4.593   1.756  0.9066  2.0696  0.0574
 1529TIP3   OH2 4550   4.680   0.730   2.577 -0.2579 -0.0506 -0.5733
 1529TIP3    H1 4551   4.745   0.769   2.636  0.3794  0.6935 -1.7275
 1529TIP3    H2 4552   4.713   0.749   2.490 -0.4639 -2.3201 -1.2054
 1530TIP3   OH2 4553   5.863   1.124   2.117  0.0447 -0.0782  0.1786
 1530TIP3    H1 4554   5.892   1.034   2.098  1.7109  0.7252 -1.3677
 1530TIP3    H2 4555   5.929   1.157   2.178  1.2733  1.0704 -1.6892
 1531TIP3   OH2 4556   3.314   3.154   5.386  0.4169  0.3171  0.7492
 1531TIP3    H1 4557   3.346   3.064   5.395  1.6361  0.7520  0.8764
 1531TIP3    H2 4558   3.222   3.148   5.411  0.2201 -1.0734 -0.1867
 1532TIP3   OH2 4559   5.334   0.775   4.121 -0.1866  0.0535 -0.0410
 1532TIP3    H1 4560   5.307   0.835   4.051 -1.3725  0.4245  0.7025
 1532TIP3    H2 4561   5.296   0.691   4.095 -0.7176  0.2148  0.1985
 1533TIP3   OH2 4562   3.780   1.212   5.846  0.0410  0.3640 -0.6387
 1533TIP3    H1 4563   3.742   1.248   5.766  0.1641 -2.2422 -1.9705
 1533TIP3    H2 4564   3.866   1.180   5.820  1.3607  2.0577  1.2791
 1534TIP3   OH2 4565   0.941   3.971   4.062 -0.0853 -0.3016  0.4743
 1534TIP3    H1 4566   0.877   4.012   4.003  0.4533 -2.0082 -1.4220
 1534TIP3    H2 4567   1.008   4.038   4.075 -0.0039  0.0163 -1.2721
 1535TIP3   OH2 4568   1.271   4.089   0.515 -0.4617 -0.4184  0.1480
 1535TIP3    H1 4569   1.180   4.069   0.493 -0.2575 -0.0231 -1.0983
 1535TIP3    H2 4570   1.322   4.046   0.447  0.1899  0.9014 -0.2152
 1536TIP3   OH2 4571   2.420   1.891   3.016 -0.2827  0.0174  0.5694
 1536TIP3    H1 4572   2.416   1.803   3.053 -0.4145 -1.2244 -2.1905
 1536TIP3    H2 4573   2.339   1.933   3.045 -2.2709 -2.2242 -1.3586
 1537TIP3   OH2 4574   7.086   2.056   3.978 -0.9273  0.0769  0.3970
 1537TIP3    H1 4575   7.170   2.059   3.932 -0.9917  0.2472  0.2915
 1537TIP3    H2 4576   7.106   2.013   4.061 -0.7031  0.2712  0.4424
 1538TIP3   OH2 4577   2.297   5.550   1.883  0.2413 -0.6130  0.0907
 1538TIP3    H1 4578   2.289   5.458   1.908 -1.7150 -0.5408 -0.1285
 1538TIP3    H2 4579   2.224   5.593   1.926  1.8188  1.1098  1.1887
 1539TIP3   OH2 4580   6.536   1.658   1.376  0.1329 -0.0453  0.4597
 1539TIP3    H1 4581   6.511   1.566   1.385  0.8233 -0.1701  1.3420
 1539TIP3    H2 4582   6.454   1.707   1.383 -0.0047 -0.4720  2.4872
 1540TIP3   OH2 4583   0.042   0.665   4.987 -0.2425  0.0613  0.3903
 1540TIP3    H1 4584  -0.039   0.669   5.038 -1.1817 -0.8748 -0.9384
 1540TIP3    H2 4585   0.103   0.618   5.042 -0.9947 -0.3027  0.9334
 1541TIP3   OH2 4586   3.485   4.206   4.353  0.2055 -0.2497  0.0362
 1541TIP3    H1 4587   3.573   4.189   4.387  0.1204  2.6295  2.1274
 1541TIP3    H2 4588   3.500   4.256   4.272  0.4393 -1.4550 -0.6864
 1542TIP3   OH2 4589   5.671   6.632   1.404  0.5664 -0.0220  0.7416
 1542TIP3    H1 4590   5.649   6.725   1.407 -0.1467 -0.0896 -1.3632
 1542TIP3    H2 4591   5.765   6.630   1.424  0.8198  1.2602 -0.1555
 1543TIP3   OH2 4592   5.674   0.537   4.873  0.0133 -0.5050  0.2769
 1543TIP3    H1 4593   5.606   0.506   4.933  0.3870 -0.2744  0.8236
 1543TIP3    H2 4594   5.734   0.587   4.928  1.7717 -2.4023  0.1799
 1544TIP3   OH2 4595   1.102   4.161   2.631  0.6070 -0.2123 -0.3451
 1544TIP3    H1 4596   1.179   4.174   2.687  0.9609  1.1678 -1.1055
 1544TIP3    H2 4597   1.077   4.249   2.603 -0.5970 -0.7328 -0.9907
 1545TIP3   OH2 4598   2.665   5.616   1.716 -0.5861  0.0713  0.3668
 1545TIP3    H1 4599   2.655   5.620   1.811 -0.5493 -1.6612  0.4854
 1545TIP3    H2 4600   2.644   5.525   1.693  2.6903 -0.5375 -0.8537
 1546TIP3   OH2 4601   6.984   1.570   3.116  0.7121 -0.0131  0.1397
 1546TIP3    H1 4602   6.921   1.536   3.053  1.6970 -0.2388 -0.7430
 1546TIP3    H2 4603   7.044   1.496   3.133  0.6240  0.1252  1.1291
 1547TIP3   OH2 4604   3.977   0.644   2.799  0.1948  0.0907  0.4791
 1547TIP3    H1 4605   3.909   0.651   2.732 -1.5142  0.8985  2.2027
 1547TIP3    H2 4606   4.048   0.595   2.756 -0.5729  1.0261 -2.0608
 1548TIP3   OH2 4607   6.222   4.477   4.969 -0.1174 -0.8887  0.2481
 1548TIP3    H1 4608   6.311   4.510   4.959 -0.2570 -0.9087 -1.4131
 1548TIP3    H2 4609   6.232   4.382   4.978  0.0120 -1.0310 -1.1114
 1549TIP3   OH2 4610   5.955   6.366   2.767  0.8005  0.2039 -0.0544
 1549TIP3    H1 4611   5.957   6.387   2.674 -0.0292  2.1858  0.3156
 1549TIP3    H2 4612   6.035   6.406   2.803  0.7519  0.0759  0.2045
 1550TIP3   OH2 4613   5.912   5.726   2.346  0.4911 -0.1496  0.4511
 1550TIP3    H1 4614   5.855   5.803   2.351  1.0321  0.2989 -0.0332
 1550TIP3    H2 4615   5.954   5.734   2.260  0.1618 -1.2727  0.1762
 1551TIP3   OH2 4616   4.048   3.501   1.175 -0.2475 -0.0618  0.9814
 1551TIP3    H1 4617   4.111   3.450   1.124  0.6427  1.1266  0.8510
 1551TIP3    H2 4618   4.087   3.506   1.262  0.1377  1.1631  0.7514
 1552TIP3   OH2 4619   0.885   5.729   2.061 -0.2645  0.0379 -0.3934
 1552TIP3    H1 4620   0.839   5.675   1.997  0.3632  0.6358 -1.3780
 1552TIP3    H2 4621   0.977   5.707   2.049 -0.1876 -0.4803  0.9266
 1553TIP3   OH2 4622   2.434   4.504   2.798  0.1871 -0.1785  0.1211
 1553TIP3    H1 4623   2.511   4.496   2.854 -0.3186 -0.5997  0.7523
 1553TIP3    H2 4624   2.360   4.507   2.858 -0.3256 -0.1761 -0.5030
 1554TIP3   OH2 4625   5.553   2.905   4.444 -0.0182  0.5489  0.3650
 1554TIP3    H1 4626   5.459   2.913   4.462 -0.5603  0.2389 -2.0375
 1554TIP3    H2 4627   5.564   2.815   4.412  1.3975  0.0818  2.0009
 1555TIP3   OH2 4628   3.003   0.824   2.665  0.4651  0.1147 -0.2367
 1555TIP3    H1 4629   3.056   0.782   2.733  0.4014 -1.7262 -1.2422
 1555TIP3    H2 4630   3.066   0.873   2.612  0.3761  2.5135  1.7198
 1556TIP3   OH2 4631   4.437   2.618   4.190 -0.0065  0.1942  0.1461
 1556TIP3    H1 4632   4.357   2.660   4.159  0.5272  0.1245 -1.3913
 1556TIP3    H2 4633   4.407   2.535   4.228 -0.6598  0.1227 -0.5093
 1557TIP3   OH2 4634   0.586   3.255   4.732 -0.5732  0.0453 -0.7393
 1557TIP3    H1 4635   0.506   3.221   4.773  0.3331  0.2435  1.3454
 1557TIP3    H2 4636   0.606   3.335   4.782  1.3191 -0.4135 -0.6978
 1558TIP3   OH2 4637   2.460   4.232   5.662 -0.6645 -0.1349  0.2893
 1558TIP3    H1 4638   2.473   4.254   5.570  1.3745 -0.5357  0.4307
 1558TIP3    H2 4639   2.386   4.172   5.662  0.0987 -1.1391 -1.2712
 1559TIP3   OH2 4640   7.209   5.902   1.733 -0.3231 -0.4775 -0.1293
 1559TIP3    H1 4641   7.125   5.876   1.771  0.0625  0.4540  1.4856
 1559TIP3    H2 4642   7.255   5.819   1.718 -0.4618 -0.9103  1.6269
 1560TIP3   OH2 4643   5.750   0.981   5.324  0.0192 -0.0590 -0.1739
 1560TIP3    H1 4644   5.770   0.974   5.417  1.3995 -0.1060 -0.4590
 1560TIP3    H2 4645   5.808   1.051   5.292  1.5269 -1.8209 -1.5076
 1561TIP3   OH2 4646   6.147   3.561   2.475 -0.1200 -0.2734 -0.0350
 1561TIP3    H1 4647   6.207   3.515   2.534  0.4135 -0.1157 -0.4407
 1561TIP3    H2 4648   6.066   3.571   2.525  0.5639  0.5299  0.9574
 1562TIP3   OH2 4649   5.529   2.156   0.231 -0.1286  0.2149  0.2519
 1562TIP3    H1 4650   5.507   2.248   0.250 -1.4686 -0.4037  2.0217
 1562TIP3    H2 4651   5.498   2.109   0.308 -0.6151 -1.8895 -1.1659
 1563TIP3   OH2 4652   1.221   1.885   3.893 -0.4568  0.5250  0.2763
 1563TIP3    H1 4653   1.307   1.850   3.871 -0.6095  0.1121  0.3177
 1563TIP3    H2 4654   1.215   1.968   3.845 -0.8634 -0.4300 -1.4141
 1564TIP3   OH2 4655   5.136   4.006   5.583 -0.9846  0.4306 -0.2390
 1564TIP3    H1 4656   5.139   3.988   5.676  1.0249  1.5258 -0.0478
 1564TIP3    H2 4657   5.062   3.954   5.551 -0.8130 -1.1164  1.6874
 1565TIP3   OH2 4658   6.726   6.725   5.429  0.1182  0.2333  0.4485
 1565TIP3    H1 4659   6.716   6.819   5.414 -0.5601 -0.1275 -1.7444
 1565TIP3    H2 4660   6.819   6.708   5.416 -0.0330  0.3705 -1.0584
 1566TIP3   OH2 4661   5.042   4.059   3.227  0.4127 -0.2700 -0.4655
 1566TIP3    H1 4662   5.059   4.069   3.133  2.6297  0.5675 -0.0450
 1566TIP3    H2 4663   5.086   3.977   3.250 -0.8498 -0.9163 -0.2838
 1567TIP3   OH2 4664   6.660   0.510   0.550  0.4128  0.1980 -0.4327
 1567TIP3    H1 4665   6.700   0.433   0.509  3.3425  0.6585  1.2871
 1567TIP3    H2 4666   6.657   0.575   0.479  0.4868 -0.6079 -1.2012
 1568TIP3   OH2 4667   6.827   3.106   1.863  0.4290 -0.2891 -0.6541
 1568TIP3    H1 4668   6.806   3.034   1.922  0.6117  0.3910  0.2579
 1568TIP3    H2 4669   6.753   3.109   1.802  0.1510 -0.8832 -0.3619
 1569TIP3   OH2 4670   2.484   0.606   5.360 -0.1774 -0.6060  0.3483
 1569TIP3    H1 4671   2.393   0.592   5.334 -0.1874 -0.4724  0.3155
 1569TIP3    H2 4672   2.508   0.690   5.321 -0.7569  0.5203  2.2771
 1570TIP3   OH2 4673   6.219   6.366   0.968  0.7740 -0.2110 -0.0363
 1570TIP3    H1 4674   6.273   6.335   0.895  0.8400  2.0395 -1.0194
 1570TIP3    H2 4675   6.234   6.461   0.971 -1.9368  0.2877  0.6333
 1571TIP3   OH2 4676   1.763   6.603   4.282  0.3045 -0.1664 -0.1557
 1571TIP3    H1 4677   1.731   6.681   4.327 -1.1808 -1.4645  1.1560
 1571TIP3    H2 4678   1.857   6.602   4.298  0.1385  0.6513  0.9619
 1572TIP3   OH2 4679   1.494   3.853   1.073 -0.1383  0.3237  0.1376
 1572TIP3    H1 4680   1.462   3.812   0.993  1.1606 -0.0503 -0.2084
 1572TIP3    H2 4681   1.415   3.869   1.125 -0.8095 -1.3126 -0.3249
 1573TIP3   OH2 4682   1.995   6.657   5.390 -0.9011  0.2442 -0.3819
 1573TIP3    H1 4683   1.953   6.656   5.304  0.2789  0.8693 -0.9779
 1573TIP3    H2 4684   2.040   6.741   5.395  1.3182 -0.8802 -0.2896
 1574TIP3   OH2 4685   5.879   3.260   4.119  0.2025 -0.1050 -0.1619
 1574TIP3    H1 4686   5.784   3.267   4.126 -0.0389 -2.4528 -0.3909
 1574TIP3    H2 4687   5.907   3.227   4.204  0.5610 -1.2584 -0.7091
 1575TIP3   OH2 4688   2.349   2.563   2.361 -0.2817  0.3331  0.4791
 1575TIP3    H1 4689   2.291   2.592   2.432 -0.9385  1.1888 -0.3739
 1575TIP3    H2 4690   2.289   2.542   2.288  0.3320 -1.1526  0.3625
 1576TIP3   OH2 4691   4.824   3.117   1.673 -0.6639 -0.0188 -0.3212
 1576TIP3    H1 4692   4.791   3.206   1.680  0.8793  0.5426  0.0812
 1576TIP3    H2 4693   4.833   3.087   1.764  1.5871  0.5088 -0.3070
 1577TIP3   OH2 4694   7.019   3.898   1.948  0.2921  0.2921 -0.0538
 1577TIP3    H1 4695   7.086   3.859   2.004 -0.2562 -1.1002 -0.3179
 1577TIP3    H2 4696   7.014   3.840   1.872  0.9279  2.0728 -1.5207
 1578TIP3   OH2 4697   1.112   5.737   2.821  0.3079 -0.6547  0.5765
 1578TIP3    H1 4698   1.072   5.809   2.772  0.1784 -1.6228 -0.7761
 1578TIP3    H2 4699   1.206   5.748   2.807  0.2425 -1.3027 -0.4630
 1579TIP3   OH2 4700   4.766   4.026   2.131  0.0751 -0.8007  0.1470
 1579TIP3    H1 4701   4.672   4.040   2.120 -0.4307 -3.8289 -0.1079
 1579TIP3    H2 4702   4.777   3.999   2.222  0.9431  0.6637  0.5297
 1580TIP3   OH2 4703   3.837   4.915   5.363  0.5707  0.1251 -0.2231
 1580TIP3    H1 4704   3.861   4.837   5.413 -0.8907 -0.4320 -0.3205
 1580TIP3    H2 4705   3.913   4.933   5.309  1.6170 -0.1710  1.0741
 1581TIP3   OH2 4706   2.958   0.688   4.794 -0.1329  0.3358 -0.0149
 1581TIP3    H1 4707   2.980   0.725   4.709 -0.8645 -0.7934 -0.7300
 1581TIP3    H2 4708   2.965   0.761   4.855 -0.8110  1.4693 -1.2425
 1582TIP3   OH2 4709   2.158   2.364   3.238 -0.1348  0.6002 -0.2782
 1582TIP3    H1 4710   2.238   2.412   3.218 -0.5213  0.5240 -2.1767
 1582TIP3    H2 4711   2.166   2.281   3.191 -0.5244 -0.2352  1.0398
 1583TIP3   OH2 4712   4.315   2.278   1.327  0.3655  0.4288 -0.2223
 1583TIP3    H1 4713   4.296   2.194   1.285  1.4372 -0.3490  0.7527
 1583TIP3    H2 4714   4.253   2.283   1.400  0.7809  0.1074  0.1640
 1584TIP3   OH2 4715   7.234   5.100   0.503  0.1072 -0.5000 -0.7408
 1584TIP3    H1 4716   7.190   5.122   0.422 -0.4137 -0.3131 -0.4120
 1584TIP3    H2 4717   7.186   5.025   0.538  1.7605 -2.1098 -1.7618
 1585TIP3   OH2 4718   6.609   0.360   2.945  0.1190 -0.2776 -0.0734
 1585TIP3    H1 4719   6.678   0.365   3.011  0.5352 -0.0346 -0.5244
 1585TIP3    H2 4720   6.533   0.325   2.992  0.3953 -0.0528  0.5452
 1586TIP3   OH2 4721   2.300   3.303   0.063 -0.7304 -0.6050 -0.2368
 1586TIP3    H1 4722   2.290   3.362   0.138 -0.9660  2.2269 -2.3383
 1586TIP3    H2 4723   2.222   3.248   0.066 -1.0489 -0.1213  1.2249
 1587TIP3   OH2 4724   6.127   1.429   1.838 -0.2163 -0.0739  0.3673
 1587TIP3    H1 4725   6.121   1.396   1.928  2.5360 -0.5456  0.4828
 1587TIP3    H2 4726   6.119   1.524   1.846  2.9363  0.2083  1.6243
 1588TIP3   OH2 4727   3.431   5.092   2.970 -0.7773  0.3041 -0.4512
 1588TIP3    H1 4728   3.396   5.172   2.931  0.7991  1.6690  0.7677
 1588TIP3    H2 4729   3.368   5.024   2.947 -3.1531  2.2183  0.0335
 1589TIP3   OH2 4730   5.077   0.101   0.125 -0.5324 -0.1910  0.3773
 1589TIP3    H1 4731   5.097   0.179   0.075  2.9472 -0.6499  0.8016
 1589TIP3    H2 4732   4.984   0.084   0.108 -0.7215  2.4542 -1.8294
 1590TIP3   OH2 4733   1.354   2.421   1.619  0.1060  0.0148 -0.2828
 1590TIP3    H1 4734   1.366   2.431   1.524 -1.3779 -0.9835 -0.6084
 1590TIP3    H2 4735   1.392   2.336   1.640 -0.6315 -0.3055 -0.2093
 1591TIP3   OH2 4736   6.936   0.234   3.722 -0.8887  0.0375 -0.0701
 1591TIP3    H1 4737   6.993   0.271   3.790  0.8103  2.3533 -2.5854
 1591TIP3    H2 4738   6.973   0.147   3.705  0.0186  0.3081  0.4542
 1592TIP3   OH2 4739   1.982   1.617   3.235  0.5600 -0.5327  0.0829
 1592TIP3    H1 4740   1.923   1.659   3.298  0.4966 -0.9451  0.3004
 1592TIP3    H2 4741   2.047   1.685   3.215 -0.5327  0.2560 -0.9105
 1593TIP3   OH2 4742   3.353   5.225   0.881  0.4275 -0.7931  0.3128
 1593TIP3    H1 4743   3.439   5.220   0.838  0.6825 -1.7867  0.9114
 1593TIP3    H2 4744   3.355   5.157   0.948 -1.0780 -1.3002 -0.1058
 1594TIP3   OH2 4745   0.400   5.249   4.400  0.7096  0.1617 -0.8332
 1594TIP3    H1 4746   0.374   5.246   4.308 -0.8136 -0.0502 -0.4207
 1594TIP3    H2 4747   0.431   5.160   4.419 -2.7915 -1.0767 -0.1500
 1595TIP3   OH2 4748   4.153   3.671   5.051 -0.7045 -0.4234 -0.1399
 1595TIP3    H1 4749   4.131   3.674   5.144  1.3692 -2.5528  0.4977
 1595TIP3    H2 4750   4.110   3.592   5.018  1.4496 -1.6644 -0.1038
 1596TIP3   OH2 4751   1.599   2.871   0.275 -0.1428  0.6148  0.0308
 1596TIP3    H1 4752   1.518   2.889   0.227 -0.2968  0.8934  0.3936
 1596TIP3    H2 4753   1.576   2.799   0.333 -0.2684  1.0198  0.4853
 1597TIP3   OH2 4754   5.370   2.133   4.955  0.7206 -0.0544  0.2088
 1597TIP3    H1 4755   5.361   2.196   4.883  0.9996 -0.4008 -0.1356
 1597TIP3    H2 4756   5.286   2.136   5.000 -0.1193 -1.1337 -1.1980
 1598TIP3   OH2 4757   0.270   2.677   4.237 -0.4074  0.6171  0.2162
 1598TIP3    H1 4758   0.236   2.614   4.173  0.7876  0.1247  0.0242
 1598TIP3    H2 4759   0.193   2.721   4.272 -1.1611  0.1293 -0.7822
 1599TIP3   OH2 4760   1.472   1.969   5.473  0.5893 -0.1051  0.3243
 1599TIP3    H1 4761   1.464   1.874   5.477 -0.3274 -0.0430  0.1227
 1599TIP3    H2 4762   1.402   1.997   5.413  0.6527  0.7161  0.6194
 1600TIP3   OH2 4763   2.329   5.086   2.479 -0.3138 -0.1439  0.2379
 1600TIP3    H1 4764   2.263   5.022   2.453  0.9953 -0.4883 -2.5847
 1600TIP3    H2 4765   2.404   5.033   2.507  1.0505 -0.0048 -2.8304
 1601TIP3   OH2 4766   0.872   3.765   0.689  0.2177  0.6783  0.1698
 1601TIP3    H1 4767   0.884   3.781   0.595 -1.2863 -0.2431 -0.2109
 1601TIP3    H2 4768   0.959   3.739   0.719  0.5576  0.1864 -1.1480
 1602TIP3   OH2 4769   2.889   2.162   1.086  0.1064 -0.4083  0.8001
 1602TIP3    H1 4770   2.979   2.196   1.087 -0.1192  0.2304  0.1587
 1602TIP3    H2 4771   2.863   2.168   0.994 -0.6176 -0.5315  0.9927
 1603TIP3   OH2 4772   6.312   0.765   4.166 -0.7614  0.2977 -0.0791
 1603TIP3    H1 4773   6.218   0.762   4.184 -1.2461 -3.0697 -2.2718
 1603TIP3    H2 4774   6.319   0.773   4.071  1.0943 -0.5208 -0.0659
 1604TIP3   OH2 4775   5.372   3.912   2.608 -0.2202 -0.1296  0.2540
 1604TIP3    H1 4776   5.306   3.884   2.545 -1.4777 -0.1992  1.5727
 1604TIP3    H2 4777   5.422   3.979   2.561 -1.5497  0.3018 -0.5977
 1605TIP3   OH2 4778   3.288   3.657   5.547  0.4700 -0.0410 -0.0342
 1605TIP3    H1 4779   3.198   3.626   5.554  0.5434 -0.1813  0.3326
 1605TIP3    H2 4780   3.304   3.702   5.630  0.7648 -0.0905 -0.0649
 1606TIP3   OH2 4781   3.240   3.951   3.604 -0.1196  0.2818 -0.3613
 1606TIP3    H1 4782   3.145   3.964   3.596 -0.2705 -0.7250 -0.2980
 1606TIP3    H2 4783   3.277   4.036   3.578 -1.0217  0.5909 -0.7092
 1607TIP3   OH2 4784   2.804   6.266   2.208 -0.1522 -0.4900  0.1879
 1607TIP3    H1 4785   2.799   6.361   2.216 -1.5697 -0.3796 -1.3921
 1607TIP3    H2 4786   2.896   6.245   2.224 -0.1085  0.9335  2.1613
 1608TIP3   OH2 4787   2.970   3.814   3.475 -0.0150  0.1977  0.0330
 1608TIP3    H1 4788   3.010   3.829   3.389  1.2423  0.4629  0.6427
 1608TIP3    H2 4789   2.967   3.900   3.516 -1.2689  0.1905  0.0102
 1609TIP3   OH2 4790   5.222   6.342   4.860 -0.1252  0.7439  0.0726
 1609TIP3    H1 4791   5.143   6.338   4.806 -0.7984  1.0820  1.0128
 1609TIP3    H2 4792   5.244   6.250   4.877  0.0397  0.6349 -0.6800
 1610TIP3   OH2 4793   6.223   5.652   2.639 -0.3612 -0.3381  0.1819
 1610TIP3    H1 4794   6.146   5.621   2.687 -0.9538 -0.6058 -0.9081
 1610TIP3    H2 4795   6.244   5.581   2.579 -0.3410  0.4491 -0.7578
 1611TIP3   OH2 4796   6.615   5.556   2.866 -0.3745 -0.5288 -0.5010
 1611TIP3    H1 4797   6.616   5.627   2.802  2.5884 -2.4366 -2.8688
 1611TIP3    H2 4798   6.609   5.599   2.951  2.4336  2.7123 -1.7267
 1612TIP3   OH2 4799   1.379   1.636   1.366 -0.1505 -0.0485 -0.3820
 1612TIP3    H1 4800   1.425   1.590   1.436 -0.7213  1.0706  0.7632
 1612TIP3    H2 4801   1.338   1.566   1.314  0.3155 -0.8994  0.3711
 1613TIP3   OH2 4802   0.050   1.357   0.472 -0.1108 -0.0633  0.0428
 1613TIP3    H1 4803   0.053   1.357   0.377 -1.6728  0.4720 -0.0236
 1613TIP3    H2 4804   0.128   1.308   0.498  0.1980 -0.4424 -1.5011
 1614TIP3   OH2 4805   2.359   4.339   4.988 -0.1214 -0.2441  0.0086
 1614TIP3    H1 4806   2.343   4.247   5.009 -0.0438 -0.8346 -2.2374
 1614TIP3    H2 4807   2.393   4.338   4.899 -0.1596  1.9891 -0.1020
 1615TIP3   OH2 4808   2.370   6.076   0.677  0.4029 -0.3018 -0.3097
 1615TIP3    H1 4809   2.404   6.083   0.587 -0.7520 -1.7440 -0.8913
 1615TIP3    H2 4810   2.352   5.983   0.688  0.3974 -0.1184  1.3954
 1616TIP3   OH2 4811   6.134   0.357   2.421 -0.3230  0.4769 -0.3346
 1616TIP3    H1 4812   6.209   0.330   2.369 -1.3272 -0.7910 -1.1999
 1616TIP3    H2 4813   6.059   0.348   2.361 -1.8251 -2.8524  1.7661
 1617TIP3   OH2 4814   6.987   5.046   3.189 -0.4140 -0.6510 -1.1229
 1617TIP3    H1 4815   6.999   4.972   3.248 -2.2922 -2.2523 -2.6095
 1617TIP3    H2 4816   7.069   5.051   3.140  1.2073  0.7423  1.4929
 1618TIP3   OH2 4817   4.655   6.611   2.853  0.1505 -0.2497  0.2622
 1618TIP3    H1 4818   4.721   6.677   2.834  0.2181 -0.0578  1.1319
 1618TIP3    H2 4819   4.578   6.639   2.803  0.9539 -0.9515 -1.4700
 1619TIP3   OH2 4820   5.861   4.361   4.937 -0.3448 -0.8080 -0.3597
 1619TIP3    H1 4821   5.836   4.436   4.992 -0.0685 -0.7294 -0.3408
 1619TIP3    H2 4822   5.886   4.293   4.999 -2.2255 -1.5214 -0.3101
 1620TIP3   OH2 4823   1.246   2.426   3.048  0.8394  0.3595 -0.6604
 1620TIP3    H1 4824   1.322   2.381   3.083  0.2615  0.2355  0.4767
 1620TIP3    H2 4825   1.232   2.500   3.107 -1.3831 -1.0227  0.7068
 1621TIP3   OH2 4826   3.732   4.785   1.651 -0.1080 -0.0696 -0.1516
 1621TIP3    H1 4827   3.790   4.709   1.650 -0.1756 -0.1647  1.1355
 1621TIP3    H2 4828   3.779   4.852   1.601  0.7313 -0.4153  0.1568
 1622TIP3   OH2 4829   0.753   6.489   0.628 -0.7989 -0.2466  0.5768
 1622TIP3    H1 4830   0.718   6.521   0.545  1.4722 -0.1990 -0.4477
 1622TIP3    H2 4831   0.736   6.394   0.626 -1.6089 -0.1083  0.5210
 1623TIP3   OH2 4832   0.385   0.777   1.067  0.4909  0.0554 -0.0374
 1623TIP3    H1 4833   0.389   0.841   0.997  1.6119  1.5745  1.3190
 1623TIP3    H2 4834   0.434   0.701   1.034  1.5112  0.9700 -0.6806
 1624TIP3   OH2 4835   2.515   3.166   3.190  0.2388  0.2537 -0.6557
 1624TIP3    H1 4836   2.479   3.161   3.101 -1.1432 -1.7158 -0.0659
 1624TIP3    H2 4837   2.573   3.090   3.197  1.5863  1.2614 -0.3245
 1625TIP3   OH2 4838   0.354   5.029   1.151  0.3376  0.3564 -0.0301
 1625TIP3    H1 4839   0.338   5.114   1.193 -1.0283 -0.7826  1.8823
 1625TIP3    H2 4840   0.304   4.967   1.202  0.2941 -1.4718 -2.1411
 1626TIP3   OH2 4841   4.881   2.671   0.986  0.1732 -0.0589  0.0917
 1626TIP3    H1 4842   4.884   2.766   0.976  0.2190  0.0670  1.1813
 1626TIP3    H2 4843   4.794   2.654   1.023  0.2463 -0.4204  0.0975
 1627TIP3   OH2 4844   2.161   4.765   3.688  0.0580  0.4596 -0.2012
 1627TIP3    H1 4845   2.200   4.690   3.644 -0.8407 -0.2936  0.2462
 1627TIP3    H2 4846   2.233   4.826   3.701  1.4138 -1.4333  1.8270
 1628TIP3   OH2 4847   0.098   4.458   2.165  0.0308  0.1401 -0.3125
 1628TIP3    H1 4848   0.094   4.423   2.254 -1.3433 -0.7175 -0.6720
 1628TIP3    H2 4849   0.161   4.530   2.170 -0.4407  0.4846  1.4839
 1629TIP3   OH2 4850   1.265   6.074   2.625 -0.4193 -1.0024 -0.3451
 1629TIP3    H1 4851   1.262   5.999   2.685 -4.2648 -1.1625 -0.4752
 1629TIP3    H2 4852   1.191   6.129   2.652 -0.8691  0.0937 -3.4137
 1630TIP3   OH2 4853   1.149   3.018   2.585  0.4416 -0.8976 -0.0558
 1630TIP3    H1 4854   1.137   2.979   2.499  0.8064 -1.4765  0.1473
 1630TIP3    H2 4855   1.074   3.076   2.597  0.1865 -1.1193 -0.5970
 1631TIP3   OH2 4856   6.793   1.045   2.006  0.1433  0.1511 -0.3642
 1631TIP3    H1 4857   6.875   1.054   2.055  0.0644  0.9255 -0.3554
 1631TIP3    H2 4858   6.786   0.952   1.986  1.0997  0.1063 -0.4973
 1632TIP3   OH2 4859   0.339   1.091   4.307 -0.4278 -0.0915 -0.1945
 1632TIP3    H1 4860   0.346   1.042   4.225 -2.9325  0.2430 -0.6928
 1632TIP3    H2 4861   0.281   1.164   4.286 -0.6346  0.3560  1.7395
 1633TIP3   OH2 4862   3.625   4.595   4.140  0.3652  0.3361 -0.1907
 1633TIP3    H1 4863   3.638   4.689   4.127  0.4906  0.2557 -0.7027
 1633TIP3    H2 4864   3.711   4.557   4.126  0.0839  0.0325 -1.1950
 1634TIP3   OH2 4865   0.556   1.919   2.415 -0.4759  0.3356 -0.1521
 1634TIP3    H1 4866   0.541   1.972   2.494 -1.4483 -0.5104  0.2685
 1634TIP3    H2 4867   0.489   1.949   2.354 -2.1568 -1.4935  0.6899
 1635TIP3   OH2 4868   7.130   3.557   1.046  0.0467  0.0169  0.2668
 1635TIP3    H1 4869   7.046   3.563   1.000 -0.3437 -1.2075  0.7721
 1635TIP3    H2 4870   7.168   3.475   1.016  0.2750 -0.2709  1.2952
 1636TIP3   OH2 4871   0.215   3.181   3.297 -0.1133 -0.0052  0.1367
 1636TIP3    H1 4872   0.144   3.134   3.253 -0.2393  0.8568 -0.5921
 1636TIP3    H2 4873   0.293   3.161   3.246 -0.1980  0.7120 -0.2816
 1637TIP3   OH2 4874   4.792   0.231   5.865 -0.0596  0.5329 -0.1604
 1637TIP3    H1 4875   4.792   0.327   5.871 -0.3012  0.4937  0.5260
 1637TIP3    H2 4876   4.700   0.208   5.848 -0.2398  0.3600  0.9527
 1638TIP3   OH2 4877   6.652   3.479   3.494  0.2869 -0.1909 -0.2901
 1638TIP3    H1 4878   6.622   3.404   3.443  0.3351 -0.3273 -0.1181
 1638TIP3    H2 4879   6.657   3.550   3.430  0.7033 -0.4497 -0.5532
 1639TIP3   OH2 4880   1.230   2.365   3.950 -0.3753 -0.9732  0.0772
 1639TIP3    H1 4881   1.281   2.430   3.901 -2.4148  0.1200 -0.7022
 1639TIP3    H2 4882   1.254   2.381   4.042 -0.8030  0.9119 -0.0908
 1640TIP3   OH2 4883   3.507   2.846   3.594 -0.5120  0.0136 -0.2496
 1640TIP3    H1 4884   3.499   2.789   3.517 -0.5250 -0.2001 -0.0884
 1640TIP3    H2 4885   3.426   2.834   3.642 -0.4655  0.0783 -0.1539
 1641TIP3   OH2 4886   1.760   5.921   5.315  0.2932  0.0636 -0.0380
 1641TIP3    H1 4887   1.667   5.944   5.324  0.8416  3.5365 -1.4413
 1641TIP3    H2 4888   1.795   5.931   5.403 -0.4654 -0.0916  0.2916
 1642TIP3   OH2 4889   4.242   6.092   3.534  0.4614  0.0712  0.0530
 1642TIP3    H1 4890   4.262   6.094   3.628 -0.1931 -2.7947  0.3615
 1642TIP3    H2 4891   4.152   6.123   3.527  1.0169  1.7926  0.1275
 1643TIP3   OH2 4892   1.268   0.067   0.490  0.1088 -0.1998  0.2241
 1643TIP3    H1 4893   1.251   0.160   0.504  0.9707 -0.0759  0.4922
 1643TIP3    H2 4894   1.331   0.065   0.417 -1.3197 -0.6686 -1.0463
 1644TIP3   OH2 4895   4.690   0.047   1.313  0.3463  0.0152  1.0425
 1644TIP3    H1 4896   4.626   0.100   1.267  0.9432  1.6459  1.9998
 1644TIP3    H2 4897   4.648  -0.038   1.324 -0.4522  0.0857 -0.9753
 1645TIP3   OH2 4898   2.299   2.359   5.187  0.1997  0.1288 -0.0276
 1645TIP3    H1 4899   2.291   2.344   5.092 -1.1938  1.9112 -0.2550
 1645TIP3    H2 4900   2.384   2.403   5.196  0.7997 -0.9522 -0.3072
 1646TIP3   OH2 4901   2.852   4.577   1.653  0.1557 -0.6536 -0.3662
 1646TIP3    H1 4902   2.871   4.671   1.647  1.2078 -0.8683 -0.5178
 1646TIP3    H2 4903   2.769   4.566   1.605 -0.6785  0.3924  0.7651
 1647TIP3   OH2 4904   5.862   1.473   5.113 -1.1134 -0.0560  0.2927
 1647TIP3    H1 4905   5.892   1.561   5.090 -0.3803 -1.0945 -3.3674
 1647TIP3    H2 4906   5.766   1.480   5.113 -1.0583  0.8345  0.5573
 1648TIP3   OH2 4907   2.904   0.315   3.016 -0.1134  0.2103 -0.1862
 1648TIP3    H1 4908   2.823   0.334   3.063  0.0612  0.1783  0.1284
 1648TIP3    H2 4909   2.924   0.396   2.969  0.3978  0.6869  0.8074
 1649TIP3   OH2 4910   4.440   5.879   0.585  0.1043  0.1317 -0.1107
 1649TIP3    H1 4911   4.472   5.802   0.632 -1.5216 -0.6035 -0.1591
 1649TIP3    H2 4912   4.394   5.930   0.652 -1.0579 -0.2532 -0.5917
 1650TIP3   OH2 4913   2.067   4.220   3.261 -0.0109  0.1155 -0.0526
 1650TIP3    H1 4914   2.008   4.146   3.274 -0.0381  0.2541  0.6518
 1650TIP3    H2 4915   2.126   4.217   3.337 -1.0526  1.7880  0.8805
 1651TIP3   OH2 4916   6.164   3.168   5.326  0.1840  0.1975  0.1816
 1651TIP3    H1 4917   6.113   3.237   5.368  0.2660  0.3477  0.0319
 1651TIP3    H2 4918   6.133   3.087   5.368  0.4602  0.3724  0.7356
 1652TIP3   OH2 4919   0.307   6.331   0.576  0.8216 -0.1633 -0.1058
 1652TIP3    H1 4920   0.229   6.292   0.536 -0.3187  2.6785 -0.9361
 1652TIP3    H2 4921   0.284   6.343   0.668 -0.9113  2.9456 -0.7882
 1653TIP3   OH2 4922   1.940   5.903   0.243 -0.4414  0.0390 -0.5358
 1653TIP3    H1 4923   1.857   5.903   0.290 -0.5701  1.5146 -0.7265
 1653TIP3    H2 4924   2.006   5.918   0.311 -0.5600  1.3591 -0.6878
 1654TIP3   OH2 4925   2.746   0.747   4.540 -0.3653  0.4275  0.2279
 1654TIP3    H1 4926   2.745   0.671   4.598 -0.3098  0.2314 -0.0237
 1654TIP3    H2 4927   2.837   0.758   4.515 -0.0890  1.6544  1.6388
 1655TIP3   OH2 4928   2.725   3.895   1.466 -0.2719  0.0668 -0.5339
 1655TIP3    H1 4929   2.702   3.923   1.554  0.5118  0.0828 -0.3248
 1655TIP3    H2 4930   2.820   3.909   1.461  0.0227 -1.8136 -0.7024
 1656TIP3   OH2 4931   3.328   0.089   5.635  0.1294  0.0709  0.2686
 1656TIP3    H1 4932   3.398   0.026   5.655  0.1788 -0.4480 -1.3371
 1656TIP3    H2 4933   3.253   0.034   5.612 -0.2036  0.6185  0.0305
 1657TIP3   OH2 4934   4.509   5.966   4.355 -0.0623 -0.5864  0.2250
 1657TIP3    H1 4935   4.589   5.949   4.304 -0.0199  0.2023  0.0103
 1657TIP3    H2 4936   4.455   5.888   4.341 -0.8941  0.3805 -2.6720
 1658TIP3   OH2 4937   4.922   4.786   3.688 -0.8774 -0.1181 -0.4970
 1658TIP3    H1 4938   4.854   4.718   3.697 -2.2357  1.1930 -0.5200
 1658TIP3    H2 4939   4.929   4.800   3.594 -1.2829  0.4425 -0.4431
 1659TIP3   OH2 4940   5.359   4.314   4.075  0.0933  0.4426  0.2965
 1659TIP3    H1 4941   5.311   4.387   4.113 -1.3470 -0.1572 -0.2669
 1659TIP3    H2 4942   5.356   4.330   3.981  1.1365  0.4563  0.2593
 1660TIP3   OH2 4943   1.013   5.692   0.173  0.1782  0.2268  0.1053
 1660TIP3    H1 4944   0.919   5.708   0.174 -0.0234 -0.8663  0.7853
 1660TIP3    H2 4945   1.052   5.775   0.203 -0.5531  0.7045 -0.2478
 1661TIP3   OH2 4946   4.079   6.138   4.827 -0.4488  0.0091  0.0025
 1661TIP3    H1 4947   4.094   6.085   4.749 -1.1047  0.2483 -0.2940
 1661TIP3    H2 4948   4.163   6.139   4.873 -0.9336 -3.1411  1.1981
 1662TIP3   OH2 4949   0.508   0.683   5.664  0.5947 -0.2958  0.0720
 1662TIP3    H1 4950   0.604   0.684   5.663  0.6107  0.7270 -1.2717
 1662TIP3    H2 4951   0.483   0.751   5.601 -1.0258  0.3997  1.3713
 1663TIP3   OH2 4952   3.551   4.128   0.183 -0.4908  0.0846  0.0293
 1663TIP3    H1 4953   3.639   4.116   0.220 -0.7322  0.9729  0.9385
 1663TIP3    H2 4954   3.497   4.153   0.258 -1.2932  0.5936 -0.7013
 1664TIP3   OH2 4955   2.480   2.683   4.142  0.0111  0.4769  0.0472
 1664TIP3    H1 4956   2.468   2.765   4.190  0.2879  0.6175 -0.1219
 1664TIP3    H2 4957   2.396   2.638   4.150  0.6554 -0.4233  2.3409
 1665TIP3   OH2 4958   0.695   5.641   0.219  0.7026 -0.1795  0.5221
 1665TIP3    H1 4959   0.762   5.582   0.254  0.1562 -0.4424  1.1466
 1665TIP3    H2 4960   0.648   5.672   0.297 -0.5537 -0.7820  0.0205
 1666TIP3   OH2 4961   1.294   3.032   5.828  0.1695 -0.1936 -0.7066
 1666TIP3    H1 4962   1.263   3.073   5.747 -0.1287 -0.4031 -0.6991
 1666TIP3    H2 4963   1.217   3.029   5.885  0.4895  0.3976 -0.2285
 1667TIP3   OH2 4964   6.770   0.243   0.346  0.0069 -0.3876 -0.0062
 1667TIP3    H1 4965   6.791   0.294   0.267 -0.4892  1.2184  0.8390
 1667TIP3    H2 4966   6.813   0.159   0.333  3.2086  1.1573 -0.3161
 1668TIP3   OH2 4967   3.655   2.324   0.085  0.2600 -0.2713 -0.3704
 1668TIP3    H1 4968   3.593   2.379   0.037 -0.2892 -0.1208  0.4768
 1668TIP3    H2 4969   3.725   2.306   0.023 -0.7924 -0.7212 -1.4609
 1669TIP3   OH2 4970   0.832   0.823   0.839  0.1172 -0.4420 -0.3875
 1669TIP3    H1 4971   0.870   0.910   0.849 -1.0428 -0.1143  1.6906
 1669TIP3    H2 4972   0.790   0.805   0.923 -1.5428 -2.1213 -1.4954
 1670TIP3   OH2 4973   6.686   6.342   5.528  0.0916 -0.3867 -0.2818
 1670TIP3    H1 4974   6.763   6.306   5.571  1.7284  1.8801 -1.1660
 1670TIP3    H2 4975   6.683   6.298   5.443  0.9303  0.1511 -0.5932
 1671TIP3   OH2 4976   1.563   4.636   4.392 -0.2402 -0.2607  0.3193
 1671TIP3    H1 4977   1.617   4.680   4.326  0.3275 -1.0402  0.2425
 1671TIP3    H2 4978   1.504   4.703   4.424 -0.4483  0.1550 -0.9079
 1672TIP3   OH2 4979   3.886   6.442   3.768  0.3287  0.6695  0.3395
 1672TIP3    H1 4980   3.848   6.373   3.822  0.9801 -0.6613 -0.8339
 1672TIP3    H2 4981   3.879   6.409   3.678  3.2768  0.7930 -0.0172
 1673TIP3   OH2 4982   2.451   3.516   4.729 -0.2108 -0.1943  0.0397
 1673TIP3    H1 4983   2.467   3.447   4.665  0.8546  0.3161 -0.2649
 1673TIP3    H2 4984   2.356   3.516   4.741 -0.6665  0.7848 -2.7927
 1674TIP3   OH2 4985   2.846   2.627   5.598 -0.6216  0.3180 -0.0126
 1674TIP3    H1 4986   2.771   2.610   5.540 -0.3604  1.0845 -0.5938
 1674TIP3    H2 4987   2.898   2.546   5.594 -1.8798 -0.5882  1.1418
 1675TIP3   OH2 4988   2.029   1.421   3.405  0.2696  0.1872 -0.0074
 1675TIP3    H1 4989   1.990   1.346   3.361 -0.7750  0.9624 -0.4269
 1675TIP3    H2 4990   2.023   1.493   3.342 -0.7439  1.1753  1.1622
 1676TIP3   OH2 4991   3.623   5.632   1.310  0.4892 -0.1685  0.3862
 1676TIP3    H1 4992   3.600   5.721   1.338  0.0864 -0.3754  0.7187
 1676TIP3    H2 4993   3.715   5.623   1.333  1.1256  0.8755 -1.4709
 1677TIP3   OH2 4994   3.876   2.863   4.662  0.2083  0.1708  0.0890
 1677TIP3    H1 4995   3.807   2.902   4.608  0.2109  0.6493  0.4292
 1677TIP3    H2 4996   3.856   2.770   4.663 -0.7073  0.3602  0.5573
 1678TIP3   OH2 4997   3.370   4.574   4.944  0.4594  0.0733  0.6940
 1678TIP3    H1 4998   3.292   4.623   4.968 -0.1545  0.1042 -1.2424
 1678TIP3    H2 4999   3.436   4.641   4.927  0.0184  0.2122 -0.5879
 1679TIP3   OH2 5000   5.149   2.544   4.513  0.3759  0.6131  0.7839
 1679TIP3    H1 5001   5.208   2.469   4.505 -0.1139  0.3335 -0.6337
 1679TIP3    H2 5002   5.206   2.618   4.533  1.3416  0.4801 -1.1997
 1680TIP3   OH2 5003   1.341   3.136   5.198  0.3771  0.2066 -0.6484
 1680TIP3    H1 5004   1.417   3.112   5.145  1.1244 -0.7338  0.8134
 1680TIP3    H2 5005   1.271   3.080   5.166  0.8171 -0.3515 -0.6477
 1681TIP3   OH2 5006   0.568   4.959   1.769  0.2937 -0.2947 -0.2965
 1681TIP3    H1 5007   0.590   4.928   1.681 -0.6419 -0.2117 -0.5626
 1681TIP3    H2 5008   0.575   5.054   1.763  0.1387 -0.2837 -0.3072
 1682TIP3   OH2 5009   3.657   6.553   1.192  0.3953  0.3265 -0.3918
 1682TIP3    H1 5010   3.677   6.541   1.285  1.2106  1.0824 -0.4486
 1682TIP3    H2 5011   3.563   6.534   1.185  0.0600  1.3135  0.8015
 1683TIP3   OH2 5012   2.876   1.475   0.324  0.0354  0.5277 -0.1542
 1683TIP3    H1 5013   2.791   1.516   0.339  0.2520  0.5383  1.2039
 1683TIP3    H2 5014   2.939   1.546   0.336  0.2148  0.7629 -2.2016
 1684TIP3   OH2 5015   6.969   3.384   0.426 -0.2898 -0.5871 -0.1494
 1684TIP3    H1 5016   6.989   3.291   0.436  0.5532 -0.6347 -1.8952
 1684TIP3    H2 5017   7.016   3.410   0.347 -2.2789  0.7989 -0.9603
 1685TIP3   OH2 5018   1.182   4.155   0.990  0.0834  0.2098 -0.0906
 1685TIP3    H1 5019   1.122   4.105   1.045  1.6838 -0.8442  0.7756
 1685TIP3    H2 5020   1.265   4.155   1.038  0.9398  1.1523 -1.4827
 1686TIP3   OH2 5021   6.412   0.966   1.575 -0.4170  0.4180 -0.0762
 1686TIP3    H1 5022   6.362   0.949   1.655  0.1484 -0.2815  0.1517
 1686TIP3    H2 5023   6.357   1.024   1.523 -1.1850  0.1622  0.4328
 1687TIP3   OH2 5024   0.272   2.815   1.481  0.1429 -0.5532 -0.2383
 1687TIP3    H1 5025   0.366   2.813   1.499 -0.1668 -0.7476  1.5003
 1687TIP3    H2 5026   0.232   2.848   1.561 -1.2990 -0.5494 -0.9123
 1688TIP3   OH2 5027   4.081   0.110   4.127  0.4837  0.4411 -0.5509
 1688TIP3    H1 5028   4.122   0.082   4.045  0.2779  1.0174 -0.8562
 1688TIP3    H2 5029   4.096   0.204   4.130 -1.1697  0.7393 -0.8748
 1689TIP3   OH2 5030   1.192   2.676   3.812 -0.1931  0.2535  0.3405
 1689TIP3    H1 5031   1.272   2.623   3.820 -0.3480  0.0195  0.3463
 1689TIP3    H2 5032   1.123   2.620   3.848 -0.4485  0.2453 -0.1605
 1690TIP3   OH2 5033   0.380   4.265   2.998 -0.4964 -0.1376  0.4295
 1690TIP3    H1 5034   0.469   4.230   3.011 -1.2056 -1.6411  1.4484
 1690TIP3    H2 5035   0.332   4.238   3.076 -1.6254  1.4643  0.3186
 1691TIP3   OH2 5036   3.915   2.253   2.079 -0.6659 -0.2022 -0.1506
 1691TIP3    H1 5037   3.944   2.263   1.988 -0.7704  1.0307 -0.0597
 1691TIP3    H2 5038   3.822   2.235   2.073 -0.6517 -0.2306 -0.2939
 1692TIP3   OH2 5039   5.256   0.972   1.083 -0.0586 -0.3004 -0.0023
 1692TIP3    H1 5040   5.263   0.885   1.043 -3.2500 -1.1786  0.9964
 1692TIP3    H2 5041   5.239   1.031   1.010  0.3205 -0.8296 -0.5265
 1693TIP3   OH2 5042   4.056   1.221   1.434 -0.7064 -0.1609 -0.5535
 1693TIP3    H1 5043   3.983   1.248   1.489 -0.4962  0.5790 -0.6205
 1693TIP3    H2 5044   4.022   1.149   1.381 -0.9848 -0.6992  0.3528
 1694TIP3   OH2 5045   5.978   5.008   5.091 -0.6970  0.4100 -0.0694
 1694TIP3    H1 5046   5.975   5.053   5.006 -1.9738 -0.0792 -0.2993
 1694TIP3    H2 5047   6.018   4.923   5.071  0.0589  0.7247  0.0455
 1695TIP3   OH2 5048   2.412   2.361   2.545  0.4934  0.2805  0.5833
 1695TIP3    H1 5049   2.435   2.387   2.456 -0.8245 -1.0296 -0.1879
 1695TIP3    H2 5050   2.461   2.280   2.560  1.1759  0.8116  1.2984
 1696TIP3   OH2 5051   1.406   0.437   3.551 -0.2943  0.8703  0.0441
 1696TIP3    H1 5052   1.415   0.383   3.472  0.2721  0.5995  0.2919
 1696TIP3    H2 5053   1.368   0.378   3.616  0.7674  0.6239  0.4575
 1697TIP3   OH2 5054   3.184   3.309   0.846 -0.1109  0.0450  0.4106
 1697TIP3    H1 5055   3.201   3.358   0.765  1.1598 -1.0450 -0.0245
 1697TIP3    H2 5056   3.267   3.266   0.865 -0.5298 -0.0726  2.0705
 1698TIP3   OH2 5057   5.355   3.653   3.335 -0.3970 -0.2267  0.1836
 1698TIP3    H1 5058   5.357   3.746   3.353  0.6194 -0.2910  0.4455
 1698TIP3    H2 5059   5.284   3.643   3.271 -1.7874  0.4456  1.5484
 1699TIP3   OH2 5060   6.904   2.442   2.761  0.6983 -0.0424  0.2308
 1699TIP3    H1 5061   6.837   2.430   2.829  0.9942 -3.8708  0.0588
 1699TIP3    H2 5062   6.870   2.513   2.708 -1.5979  0.3635  2.0414
 1700TIP3   OH2 5063   4.113   0.652   2.095  0.0394  0.0725  0.7761
 1700TIP3    H1 5064   4.154   0.612   2.018 -2.3254  0.2271 -0.7015
 1700TIP3    H2 5065   4.172   0.722   2.120  0.5728  0.4900 -1.4005
 1701TIP3   OH2 5066   7.028   2.097   4.389  0.1588 -0.1877  0.4974
 1701TIP3    H1 5067   7.112   2.097   4.343 -0.6066 -1.3377 -0.9752
 1701TIP3    H2 5068   6.963   2.108   4.320 -0.9761 -0.8017  1.4395
 1702TIP3   OH2 5069   4.492   5.046   4.704 -0.4321 -0.3319 -0.1922
 1702TIP3    H1 5070   4.412   4.997   4.685 -1.3968  0.9678  0.3356
 1702TIP3    H2 5071   4.551   5.027   4.631 -1.7704 -0.1972 -1.3356
 1703TIP3   OH2 5072   2.881   3.852   0.406 -0.6519 -0.5050 -0.2174
 1703TIP3    H1 5073   2.847   3.771   0.445  0.5742 -0.8417  0.1814
 1703TIP3    H2 5074   2.878   3.836   0.312 -0.9469 -0.7871 -0.1653
 1704TIP3   OH2 5075   5.399   4.394   0.795 -0.2043  0.0318 -0.0286
 1704TIP3    H1 5076   5.306   4.406   0.776 -0.0473 -0.4827 -1.2617
 1704TIP3    H2 5077   5.407   4.413   0.888 -1.4463  0.6160 -0.0143
 1705TIP3   OH2 5078   6.769   1.181   1.776  0.0425  0.2721 -0.5647
 1705TIP3    H1 5079   6.722   1.261   1.798  1.2493  1.2355 -1.3330
 1705TIP3    H2 5080   6.772   1.132   1.857 -0.4741  1.1399 -0.0002
 1706TIP3   OH2 5081   5.359   0.555   1.413  0.0600 -0.5368  0.1779
 1706TIP3    H1 5082   5.433   0.496   1.397 -1.8445 -3.7027  1.8893
 1706TIP3    H2 5083   5.325   0.576   1.326  2.7909  0.9151 -0.6351
 1707TIP3   OH2 5084   3.430   6.412   0.030 -0.0360  0.4769  0.1379
 1707TIP3    H1 5085   3.410   6.318   0.025  0.4446  0.4074 -0.6718
 1707TIP3    H2 5086   3.348   6.455   0.009 -0.0466  0.2205 -0.3742
 1708TIP3   OH2 5087   3.389   6.719   4.739  0.0076 -0.1748 -0.0230
 1708TIP3    H1 5088   3.461   6.767   4.698  2.3204 -0.3932  3.3511
 1708TIP3    H2 5089   3.334   6.787   4.779  0.9666 -0.0939  1.2298
 1709TIP3   OH2 5090   2.631   1.733   2.345  0.6169 -0.2910  0.3495
 1709TIP3    H1 5091   2.695   1.664   2.356  0.7674 -0.0580  0.9721
 1709TIP3    H2 5092   2.546   1.688   2.349  0.7090 -0.9673 -2.9006
 1710TIP3   OH2 5093   5.961   0.082   5.540 -0.1414  0.2552  0.1306
 1710TIP3    H1 5094   5.970   0.141   5.464  1.6192 -0.9898 -0.7037
 1710TIP3    H2 5095   5.888   0.025   5.517  0.7903 -0.5446 -0.9945
 1711TIP3   OH2 5096   3.148   6.441   2.007 -0.4691 -0.0569 -0.0468
 1711TIP3    H1 5097   3.200   6.369   2.042 -0.7641 -0.0433  0.4401
 1711TIP3    H2 5098   3.124   6.493   2.085 -2.3890 -0.8476 -0.0489
 1712TIP3   OH2 5099   3.860   4.787   2.456  0.3426  0.0578 -0.0275
 1712TIP3    H1 5100   3.824   4.716   2.402  0.4552  0.3131 -0.4376
 1712TIP3    H2 5101   3.947   4.802   2.420  1.0889 -0.9032  1.2811
 1713TIP3   OH2 5102   5.633   1.213   4.337  0.0318  0.5180  0.1517
 1713TIP3    H1 5103   5.649   1.258   4.420 -1.3159 -0.9371  1.2739
 1713TIP3    H2 5104   5.543   1.181   4.344  0.5638 -1.4138 -1.0039
 1714TIP3   OH2 5105   2.374   4.527   1.236  1.0893  0.0039  0.3617
 1714TIP3    H1 5106   2.363   4.447   1.286  1.0888  0.1515  0.5988
 1714TIP3    H2 5107   2.315   4.517   1.161  1.3362 -0.3565  0.2167
 1715TIP3   OH2 5108   2.693   0.490   2.877  0.7152 -0.4511 -0.9774
 1715TIP3    H1 5109   2.725   0.545   2.806 -1.5200 -0.1945 -1.8654
 1715TIP3    H2 5110   2.640   0.548   2.931  1.0884 -1.0094  0.0313
 1716TIP3   OH2 5111   4.676   5.273   2.077 -0.1990  0.2768  0.1245
 1716TIP3    H1 5112   4.638   5.334   2.013  1.5496  0.5709 -0.6991
 1716TIP3    H2 5113   4.731   5.215   2.024  0.5976 -0.0346  1.2674
 1717TIP3   OH2 5114   0.795   2.553   4.397  0.3016  0.2504 -0.3639
 1717TIP3    H1 5115   0.844   2.494   4.339 -0.0743 -1.0852  0.6454
 1717TIP3    H2 5116   0.730   2.594   4.341 -0.0313 -0.9963 -0.9119
 1718TIP3   OH2 5117   0.556   1.775   5.138 -0.2193 -0.5115  0.4971
 1718TIP3    H1 5118   0.462   1.778   5.155 -0.5279 -0.3783 -1.0944
 1718TIP3    H2 5119   0.582   1.867   5.130 -0.3011 -0.5737 -0.7042
 1719TIP3   OH2 5120   6.388   4.984   4.293 -0.4746  0.0859 -0.3639
 1719TIP3    H1 5121   6.415   4.959   4.205 -0.0071  0.6698 -0.3949
 1719TIP3    H2 5122   6.297   5.014   4.282 -0.4771 -0.0124 -0.6162
 1720TIP3   OH2 5123   2.695   0.563   0.357  0.4079 -0.1775  0.0349
 1720TIP3    H1 5124   2.762   0.518   0.409 -1.2927 -3.0799 -0.0816
 1720TIP3    H2 5125   2.633   0.596   0.422  0.4755  0.0359 -0.0045
 1721TIP3   OH2 5126   6.056   3.477   4.056  0.1894 -0.0731 -0.0661
 1721TIP3    H1 5127   6.002   3.555   4.039  1.1802  0.6550 -0.0014
 1721TIP3    H2 5128   5.994   3.405   4.062 -0.7213  0.6533 -0.5432
 1722TIP3   OH2 5129   0.800   4.822   4.948  0.1695 -0.3123  0.2270
 1722TIP3    H1 5130   0.850   4.836   4.867  0.6607  0.2981  0.6234
 1722TIP3    H2 5131   0.711   4.848   4.926  0.3006 -0.1430 -0.1144
 1723TIP3   OH2 5132   2.010   0.220   1.709 -0.1077  0.0399 -0.3141
 1723TIP3    H1 5133   1.968   0.180   1.785  0.0950  1.2221  0.4490
 1723TIP3    H2 5134   1.940   0.228   1.644 -0.4271 -0.4026 -0.0310
 1724TIP3   OH2 5135   2.597   4.745   1.701  0.2563  0.1638 -0.4529
 1724TIP3    H1 5136   2.517   4.696   1.679  0.2424 -0.2337  0.4445
 1724TIP3    H2 5137   2.574   4.836   1.684 -0.8725  0.2034  1.0660
 1725TIP3   OH2 5138   0.087   2.171   3.575 -0.0605 -0.0338 -0.3397
 1725TIP3    H1 5139   0.092   2.237   3.506  3.1804 -0.3367 -0.5452
 1725TIP3    H2 5140   0.120   2.091   3.534  1.9446 -0.2204  1.4703
 1726TIP3   OH2 5141   3.014   3.083   0.840  0.2604 -0.3008 -0.1161
 1726TIP3    H1 5142   3.056   3.155   0.792 -0.7194 -0.8421 -1.8810
 1726TIP3    H2 5143   3.070   3.007   0.823 -0.8731 -0.8294 -1.7518
 1727TIP3   OH2 5144   2.809   4.718   2.242 -0.2381  0.3798  0.0871
 1727TIP3    H1 5145   2.714   4.722   2.258 -0.4971  3.0609 -1.4845
 1727TIP3    H2 5146   2.826   4.790   2.181  2.8062 -0.1809  0.1192
 1728TIP3   OH2 5147   7.079   5.978   5.104 -0.0554 -0.5149 -0.0038
 1728TIP3    H1 5148   7.095   5.934   5.187 -0.5498  0.6132  0.7129
 1728TIP3    H2 5149   7.075   6.071   5.126  1.3692 -0.0499 -1.5403
 1729TIP3   OH2 5150   1.570   4.767   2.269  0.3687  0.9522 -0.1262
 1729TIP3    H1 5151   1.647   4.725   2.307  0.1560  1.1631  0.5502
 1729TIP3    H2 5152   1.592   4.860   2.268  0.7832  0.8590 -1.4888
 1730TIP3   OH2 5153   2.445   1.249   2.426  0.6402  0.7197 -0.1432
 1730TIP3    H1 5154   2.410   1.202   2.351 -0.3753  0.6864  0.3282
 1730TIP3    H2 5155   2.504   1.187   2.469 -0.2802  0.0541  0.1754
 1731TIP3   OH2 5156   0.406   0.931   5.783 -0.0436 -0.7549 -0.2719
 1731TIP3    H1 5157   0.390   0.981   5.863  0.5685  0.7549 -1.0569
 1731TIP3    H2 5158   0.488   0.966   5.749 -0.5430 -1.0166 -1.8236
 1732TIP3   OH2 5159   2.851   2.799   1.423  0.2454 -0.0649  0.4662
 1732TIP3    H1 5160   2.935   2.780   1.465  0.3900  1.5105  0.9613
 1732TIP3    H2 5161   2.818   2.876   1.469 -1.0191 -0.0762 -0.3653
 1733TIP3   OH2 5162   5.082   6.640   3.292  0.4626 -0.4204  0.1826
 1733TIP3    H1 5163   4.995   6.644   3.333  0.8466 -2.0624  1.2316
 1733TIP3    H2 5164   5.064   6.622   3.200 -0.3117 -1.5526  0.5337
 1734TIP3   OH2 5165   4.582   1.807   5.911 -0.1782 -0.0162 -0.7136
 1734TIP3    H1 5166   4.529   1.880   5.880  0.1953 -0.1893 -1.7883
 1734TIP3    H2 5167   4.589   1.748   5.836 -1.2137 -1.6192  0.3717
 1735TIP3   OH2 5168   3.404   5.780   5.591  0.0492  0.3284 -0.5108
 1735TIP3    H1 5169   3.321   5.801   5.635  0.4467  0.6513  0.0926
 1735TIP3    H2 5170   3.452   5.863   5.590  0.7598 -0.0701 -0.0066
 1736TIP3   OH2 5171   0.185   6.808   0.855  0.6328  0.0114 -0.2279
 1736TIP3    H1 5172   0.277   6.806   0.832  0.9442  0.1741  0.9269
 1736TIP3    H2 5173   0.146   6.734   0.809  1.3930 -0.2091 -0.5114
 1737TIP3   OH2 5174   4.838   1.201   0.429  0.1220 -0.2232  0.3811
 1737TIP3    H1 5175   4.853   1.116   0.468  2.8989  0.6539  1.4237
 1737TIP3    H2 5176   4.754   1.230   0.467 -1.9995 -3.2095 -1.5854
 1738TIP3   OH2 5177   1.328   2.577   2.058  0.2221 -0.2340 -0.9433
 1738TIP3    H1 5178   1.271   2.654   2.071  0.7567  0.0938 -0.4793
 1738TIP3    H2 5179   1.352   2.580   1.966 -0.2832 -0.2158 -1.0802
 1739TIP3   OH2 5180   5.140   3.786   4.266 -0.2876  0.1280 -0.1646
 1739TIP3    H1 5181   5.171   3.801   4.177 -0.3920  0.5953 -0.1284
 1739TIP3    H2 5182   5.099   3.700   4.264  0.3777 -0.1893 -0.3853
 1740TIP3   OH2 5183   3.552   4.771   4.879 -0.7895  0.4851  0.1904
 1740TIP3    H1 5184   3.581   4.816   4.959  1.4497  0.5796 -0.6205
 1740TIP3    H2 5185   3.519   4.842   4.823  0.5369  0.8421 -0.1635
 1741TIP3   OH2 5186   5.640   2.864   3.409 -0.1948  0.3144 -0.0796
 1741TIP3    H1 5187   5.616   2.802   3.340  0.4482  0.1344 -0.1527
 1741TIP3    H2 5188   5.563   2.867   3.466 -1.0449  1.0735 -1.2177
 1742TIP3   OH2 5189   4.958   5.170   4.975  0.2880 -0.3831  0.0441
 1742TIP3    H1 5190   5.018   5.221   5.029 -0.9198 -2.7586  4.0688
 1742TIP3    H2 5191   5.006   5.088   4.957 -0.7842 -1.2816  1.1491
 1743TIP3   OH2 5192   4.094   1.329   4.868  0.2650 -0.2899 -0.5621
 1743TIP3    H1 5193   4.012   1.369   4.836  0.1044  0.9028  1.2086
 1743TIP3    H2 5194   4.066   1.270   4.938  0.8931 -0.1072 -0.1507
 1744TIP3   OH2 5195   0.295   4.082   4.454 -0.3377 -0.6110 -0.5787
 1744TIP3    H1 5196   0.283   4.139   4.530 -2.1753 -0.9345 -0.5636
 1744TIP3    H2 5197   0.328   4.000   4.490  0.8473 -0.0862 -0.4191
 1745TIP3   OH2 5198   3.864   6.265   5.706  0.2138 -0.2606  0.1748
 1745TIP3    H1 5199   3.783   6.315   5.720 -0.6247 -1.4339 -0.2564
 1745TIP3    H2 5200   3.899   6.251   5.794 -0.1338  0.1395  0.3825
 1746TIP3   OH2 5201   3.786   2.988   5.753 -0.0738  0.0222 -0.2846
 1746TIP3    H1 5202   3.705   2.943   5.728  1.9469 -3.1018 -1.7329
 1746TIP3    H2 5203   3.775   3.007   5.846 -1.6783 -2.2191  0.0520
 1747TIP3   OH2 5204   4.145   2.498   3.987 -0.1925 -0.1440 -0.2696
 1747TIP3    H1 5205   4.151   2.585   4.026  0.2212 -0.1214 -0.3739
 1747TIP3    H2 5206   4.057   2.494   3.950 -0.1185  0.3359 -0.5084
 1748TIP3   OH2 5207   0.770   3.885   0.130  0.0836 -0.3834 -0.6600
 1748TIP3    H1 5208   0.681   3.917   0.115  0.1409  0.0211 -0.1442
 1748TIP3    H2 5209   0.758   3.799   0.170 -0.0687 -0.8149 -1.6029
 1749TIP3   OH2 5210   5.243   0.989   3.434 -0.0900 -0.3474 -0.5879
 1749TIP3    H1 5211   5.270   1.015   3.346 -2.5906 -3.6322 -2.5899
 1749TIP3    H2 5212   5.178   1.055   3.459 -0.7667 -0.3802 -2.1248
 1750TIP3   OH2 5213   3.260   6.472   3.347 -0.4843 -0.2404  0.3329
 1750TIP3    H1 5214   3.335   6.519   3.309 -2.2546  1.1055 -1.7433
 1750TIP3    H2 5215   3.220   6.536   3.406  0.9935 -1.6007  2.9728
 1751TIP3   OH2 5216   2.020   6.616   0.710  0.1645 -0.1488 -0.8379
 1751TIP3    H1 5217   1.980   6.629   0.624  0.9903 -0.1337 -1.2290
 1751TIP3    H2 5218   2.069   6.696   0.726  2.9900 -1.5121 -2.0065
 1752TIP3   OH2 5219   1.357   3.394   5.300  0.1619  0.2784 -0.5133
 1752TIP3    H1 5220   1.339   3.307   5.262 -0.5263 -0.3042  1.0763
 1752TIP3    H2 5221   1.446   3.414   5.270  0.9658 -1.6975  0.3512
 1753TIP3   OH2 5222   7.022   2.039   1.897 -0.0916  0.2579  0.1123
 1753TIP3    H1 5223   7.040   2.091   1.818  0.4797  2.0260  1.3557
 1753TIP3    H2 5224   6.953   2.088   1.942  0.6825  0.1256  1.4724
 1754TIP3   OH2 5225   3.055   4.358   1.993  0.7757 -0.2389  0.0016
 1754TIP3    H1 5226   3.021   4.387   2.078  2.0485 -0.8508  0.7433
 1754TIP3    H2 5227   2.983   4.306   1.956 -0.2299  0.9784  0.1586
 1755TIP3   OH2 5228   0.696   4.286   5.738  0.3103 -0.6652  0.7208
 1755TIP3    H1 5229   0.694   4.190   5.734  1.2995 -0.6511 -0.7317
 1755TIP3    H2 5230   0.786   4.307   5.765  0.7801 -0.1312 -1.1385
 1756TIP3   OH2 5231   0.799   1.804   2.309 -0.0074 -0.1390  0.0819
 1756TIP3    H1 5232   0.743   1.728   2.297  0.9792 -0.7794 -0.6556
 1756TIP3    H2 5233   0.742   1.871   2.348 -1.5829 -0.3565 -1.7051
 1757TIP3   OH2 5234   7.200   1.112   0.711 -0.6159  0.3014  0.3432
 1757TIP3    H1 5235   7.173   1.032   0.666 -0.6042  0.9756 -0.9018
 1757TIP3    H2 5236   7.119   1.161   0.725 -0.5512  0.3581  0.5215
 1758TIP3   OH2 5237   3.570   1.014   4.555  0.3075  0.6451  0.1974
 1758TIP3    H1 5238   3.603   0.988   4.468  1.2301 -0.4951  0.8553
 1758TIP3    H2 5239   3.475   1.014   4.545  0.3940  0.4873 -0.8081
 1759TIP3   OH2 5240   5.668   1.531   3.875 -0.3011 -0.3084 -0.2640
 1759TIP3    H1 5241   5.685   1.484   3.793 -0.0267 -0.9168  0.1353
 1759TIP3    H2 5242   5.573   1.543   3.876 -0.2661  0.0630 -0.8604
 1760TIP3   OH2 5243   5.042   1.484   1.619  0.2187  0.2282 -0.5511
 1760TIP3    H1 5244   5.027   1.447   1.532  2.2269  0.8475 -1.2149
 1760TIP3    H2 5245   5.128   1.452   1.644 -0.0214  0.6609  0.9128
 1761TIP3   OH2 5246   5.126   1.778   2.239  0.1904 -0.3500  0.0245
 1761TIP3    H1 5247   5.119   1.683   2.229 -1.0717 -0.0578 -2.7516
 1761TIP3    H2 5248   5.054   1.801   2.298 -1.6275 -0.8387 -1.9037
 1762TIP3   OH2 5249   0.844   3.021   2.186  0.1448  0.1906  1.0591
 1762TIP3    H1 5250   0.834   3.022   2.090  1.4176 -0.2080  0.9031
 1762TIP3    H2 5251   0.926   3.067   2.202  0.2387 -0.2610  1.9175
 1763TIP3   OH2 5252   6.433   3.449   5.827  0.2425 -0.1868 -0.2161
 1763TIP3    H1 5253   6.350   3.404   5.843  1.0769 -2.6238 -2.0075
 1763TIP3    H2 5254   6.494   3.378   5.806  2.4046  1.6410 -0.4204
 1764TIP3   OH2 5255   0.389   5.584   2.558  0.3651 -0.3483  0.2765
 1764TIP3    H1 5256   0.315   5.525   2.571  1.0555 -1.0647  1.0381
 1764TIP3    H2 5257   0.372   5.626   2.474 -1.0044 -0.3492  0.5240
 1765TIP3   OH2 5258   2.629   2.009   3.907  0.1702 -0.3205 -0.0018
 1765TIP3    H1 5259   2.653   2.100   3.892 -0.6609 -0.5463 -3.8180
 1765TIP3    H2 5260   2.710   1.960   3.890 -0.1580 -0.4236 -1.4013
 1766TIP3   OH2 5261   2.210   6.790  -0.015 -0.0497  0.4743 -0.3785
 1766TIP3    H1 5262   2.130   6.839   0.004  0.4680  1.4738 -0.7072
 1766TIP3    H2 5263   2.190   6.700   0.011 -0.7035  1.0227  1.1045
 1767TIP3   OH2 5264   1.393   4.538   1.450 -0.3305 -0.4415  0.7400
 1767TIP3    H1 5265   1.408   4.632   1.437 -1.7038 -0.2400  0.4582
 1767TIP3    H2 5266   1.302   4.532   1.477 -0.0086 -1.6382  1.6458
 1768TIP3   OH2 5267   2.893   6.355   1.897  0.5556 -0.2156  0.0686
 1768TIP3    H1 5268   2.981   6.391   1.892 -0.1304  1.5473 -0.0626
 1768TIP3    H2 5269   2.888   6.317   1.985  1.1287  0.5692  0.4545
 1769TIP3   OH2 5270   4.976   2.189   2.128 -0.4354 -0.2518 -0.1007
 1769TIP3    H1 5271   4.902   2.229   2.081 -0.0763  0.0187 -0.4436
 1769TIP3    H2 5272   5.028   2.147   2.060 -1.3198 -2.2023  0.3519
 1770TIP3   OH2 5273   0.092   5.761   0.417 -0.6592  0.1158  0.7457
 1770TIP3    H1 5274   0.136   5.826   0.362  0.6051 -0.2804  1.2451
 1770TIP3    H2 5275   0.018   5.808   0.456 -1.4270  0.4713 -1.0639
 1771TIP3   OH2 5276   1.182   0.851   5.110 -0.1675  0.3096  0.3173
 1771TIP3    H1 5277   1.160   0.919   5.173  1.4395  0.3732  0.8730
 1771TIP3    H2 5278   1.133   0.774   5.139 -0.8518  0.8320  0.5627
 1772TIP3   OH2 5279   0.479   0.751   0.494 -0.2119  0.1442 -0.0511
 1772TIP3    H1 5280   0.409   0.694   0.524  0.9881 -1.2244  0.3081
 1772TIP3    H2 5281   0.515   0.706   0.417  2.4881 -1.1288  1.7587
 1773TIP3   OH2 5282   0.572   3.208   2.334 -0.1915  0.1130 -0.1745
 1773TIP3    H1 5283   0.597   3.179   2.246 -0.2401  0.5272 -0.3283
 1773TIP3    H2 5284   0.479   3.230   2.327 -0.8172 -2.1212  0.5822
 1774TIP3   OH2 5285   0.603   1.002   3.463 -0.2144 -0.2583  0.0087
 1774TIP3    H1 5286   0.599   1.090   3.503 -0.7775  0.7960 -2.2196
 1774TIP3    H2 5287   0.693   0.973   3.480  1.0007  2.0856 -1.6828
 1775TIP3   OH2 5288   3.811   2.554   0.318  0.2279 -0.1374 -0.5250
 1775TIP3    H1 5289   3.836   2.529   0.229  2.0690 -0.6352  0.0887
 1775TIP3    H2 5290   3.846   2.642   0.330  2.5373 -1.1171  0.5901
 1776TIP3   OH2 5291   5.226   2.105   5.661 -0.0361 -0.4521  0.2796
 1776TIP3    H1 5292   5.290   2.151   5.607  1.5747 -3.8612 -1.0000
 1776TIP3    H2 5293   5.264   2.107   5.749 -0.8469  1.9798  0.6333
 1777TIP3   OH2 5294   3.331   4.746   2.312 -0.0010 -0.2529 -0.6804
 1777TIP3    H1 5295   3.282   4.727   2.233 -0.6372  1.8582 -0.8607
 1777TIP3    H2 5296   3.415   4.780   2.281 -0.4472  1.0849 -0.5291
 1778TIP3   OH2 5297   1.148   3.591   5.338  0.1874 -0.4433 -0.5169
 1778TIP3    H1 5298   1.227   3.637   5.364  1.6205 -2.0458 -1.8115
 1778TIP3    H2 5299   1.177   3.502   5.319 -2.3351 -1.7874  1.3005
 1779TIP3   OH2 5300   5.604   2.635   2.386 -0.0823  0.2609  0.1918
 1779TIP3    H1 5301   5.607   2.729   2.406 -0.0375  0.3785 -0.3536
 1779TIP3    H2 5302   5.529   2.626   2.328 -0.8034 -0.2283  1.1753
 1780TIP3   OH2 5303   2.001   1.135   1.635  0.2153  0.6161 -0.1812
 1780TIP3    H1 5304   2.067   1.079   1.594  0.4194  0.9540 -0.3183
 1780TIP3    H2 5305   2.037   1.155   1.722 -0.7904 -1.1416  0.6976
 1781TIP3   OH2 5306   4.667   2.250   5.454 -0.2940 -0.4965 -0.2325
 1781TIP3    H1 5307   4.596   2.314   5.463  1.1318  1.1734 -0.4876
 1781TIP3    H2 5308   4.632   2.171   5.495 -2.2771  0.2811 -0.2893
 1782TIP3   OH2 5309   2.522   5.700   0.694 -0.0621 -0.5420  0.0152
 1782TIP3    H1 5310   2.588   5.656   0.748 -0.2854 -0.7216  0.1481
 1782TIP3    H2 5311   2.571   5.736   0.620  0.2515 -0.2531  0.3646
 1783TIP3   OH2 5312   1.044   6.221   2.647  0.0321 -0.2567 -0.7479
 1783TIP3    H1 5313   1.058   6.285   2.577  0.0470  1.0529  0.4137
 1783TIP3    H2 5314   0.962   6.248   2.688  1.0046  0.2334  0.9778
 1784TIP3   OH2 5315   6.614   6.470   4.023  0.4866  0.5405 -0.0856
 1784TIP3    H1 5316   6.667   6.399   4.059  0.8545  1.1908  0.6689
 1784TIP3    H2 5317   6.530   6.463   4.069  0.7005  0.9071  0.3693
 1785TIP3   OH2 5318   5.846   0.604   5.069  0.0433 -0.2288  0.0608
 1785TIP3    H1 5319   5.919   0.559   5.028 -0.7815 -2.0086  0.4669
 1785TIP3    H2 5320   5.886   0.678   5.115  1.4500 -0.5975 -0.5354
 1786TIP3   OH2 5321   2.986   1.250   0.813  0.4390 -0.0528  0.0520
 1786TIP3    H1 5322   3.042   1.185   0.771  1.5777  1.1082 -0.2819
 1786TIP3    H2 5323   2.958   1.308   0.742  0.2182  0.3846  0.4837
 1787TIP3   OH2 5324   1.096   5.369   2.423 -0.4343  0.0645  0.1916
 1787TIP3    H1 5325   1.128   5.395   2.510 -0.9600 -0.2956  0.4988
 1787TIP3    H2 5326   1.029   5.434   2.402  0.8873  1.2022 -0.7341
 1788TIP3   OH2 5327   1.197   2.485   0.279 -0.2640 -0.1584 -0.0473
 1788TIP3    H1 5328   1.142   2.562   0.261 -0.2188 -0.2845 -0.7503
 1788TIP3    H2 5329   1.228   2.458   0.193  2.9057  1.3535  0.4924
 1789TIP3   OH2 5330   4.061   3.987   2.526  0.4279  0.4847  0.0190
 1789TIP3    H1 5331   4.083   3.921   2.460  0.2898 -0.5398  0.9604
 1789TIP3    H2 5332   4.137   4.045   2.529  0.4179  0.5675 -1.0612
 1790TIP3   OH2 5333   3.484   4.000   1.566 -0.7784  0.2533  0.5701
 1790TIP3    H1 5334   3.567   3.987   1.610 -0.7254  0.3264  0.4938
 1790TIP3    H2 5335   3.500   3.973   1.475 -0.8832  0.1120  0.5932
 1791TIP3   OH2 5336   6.191   1.402   0.598  0.2607  0.3419  0.1770
 1791TIP3    H1 5337   6.165   1.313   0.620 -0.6543  0.8282  1.1654
 1791TIP3    H2 5338   6.202   1.401   0.503 -0.3284 -0.6718  0.1056
 1792TIP3   OH2 5339   5.704   4.519   5.110 -0.0930  0.5371  0.4967
 1792TIP3    H1 5340   5.723   4.612   5.125 -0.7104  0.3829  2.4021
 1792TIP3    H2 5341   5.658   4.518   5.026  0.8628  1.8141 -0.0876
 1793TIP3   OH2 5342   6.485   3.209   0.251 -0.0965 -0.1851 -0.2006
 1793TIP3    H1 5343   6.469   3.279   0.188 -0.0059 -0.2437 -0.2893
 1793TIP3    H2 5344   6.560   3.240   0.303  0.3467 -0.4933 -0.6535
 1794TIP3   OH2 5345   1.309   0.726   3.522 -0.0855  0.5728  0.1867
 1794TIP3    H1 5346   1.392   0.685   3.547  0.4979  0.1873 -2.1779
 1794TIP3    H2 5347   1.335   0.796   3.461 -1.4886  0.4046 -0.6379
 1795TIP3   OH2 5348   4.067   2.483   3.080 -0.2070  0.3559 -0.0959
 1795TIP3    H1 5349   4.162   2.491   3.068 -0.1487 -0.6681 -0.3594
 1795TIP3    H2 5350   4.047   2.393   3.057 -0.9183 -0.1209  2.0944
 1796TIP3   OH2 5351   6.886   4.159   2.758  0.3086  0.3447 -0.4529
 1796TIP3    H1 5352   6.949   4.130   2.824 -0.2199 -0.6070 -0.3420
 1796TIP3    H2 5353   6.931   4.149   2.675 -0.2614 -2.0819 -0.5360
 1797TIP3   OH2 5354   4.503   2.195   0.298  0.4223 -0.7523  0.4837
 1797TIP3    H1 5355   4.551   2.253   0.238  0.4209 -1.2480 -0.0063
 1797TIP3    H2 5356   4.558   2.192   0.377 -0.1430  0.8357  0.9892
 1798TIP3   OH2 5357   1.721   2.702   4.886  0.4282 -0.2483 -0.0897
 1798TIP3    H1 5358   1.793   2.749   4.928  1.2253 -1.7160  0.2574
 1798TIP3    H2 5359   1.722   2.615   4.927 -1.5395 -0.3109 -0.0935
 1799TIP3   OH2 5360   0.119   6.110   1.611  0.1095 -0.1936 -0.0952
 1799TIP3    H1 5361   0.069   6.035   1.642  0.2978 -1.0807 -1.8265
 1799TIP3    H2 5362   0.056   6.183   1.612 -1.0236 -1.1071 -1.4615
 1800TIP3   OH2 5363   4.930   3.071   5.149  0.4807  0.4699  0.3810
 1800TIP3    H1 5364   4.862   3.022   5.195 -0.1831  0.6557 -0.3791
 1800TIP3    H2 5365   5.010   3.056   5.200 -0.0027 -0.2571  0.9330
 1801TIP3   OH2 5366   4.522   0.204   1.464 -0.0492  0.0133 -0.0413
 1801TIP3    H1 5367   4.612   0.173   1.457 -0.3118 -1.2243  1.3695
 1801TIP3    H2 5368   4.516   0.277   1.403  2.6360  1.8324  1.6747
 1802TIP3   OH2 5369   5.241   3.008   2.382  0.0419 -0.7257 -0.1025
 1802TIP3    H1 5370   5.248   3.037   2.291  0.7555 -0.4783  0.0257
 1802TIP3    H2 5371   5.255   2.913   2.378  1.8757 -0.4855 -0.0633
 1803TIP3   OH2 5372   4.795   6.465   5.360  0.0353  0.5091  0.5846
 1803TIP3    H1 5373   4.746   6.517   5.424  1.6394  0.3649  1.9827
 1803TIP3    H2 5374   4.880   6.508   5.354  0.8594 -1.0624  0.5904
 1804TIP3   OH2 5375   2.784   5.499   3.303 -0.1315 -0.3162 -0.5192
 1804TIP3    H1 5376   2.731   5.461   3.233 -0.8146  1.6172 -1.1195
 1804TIP3    H2 5377   2.818   5.580   3.266  1.8455 -0.6457  0.4689
 1805TIP3   OH2 5378   4.798   0.395   5.003  0.7455  0.1565  0.3476
 1805TIP3    H1 5379   4.779   0.316   4.953  1.9853  0.2854 -0.3607
 1805TIP3    H2 5380   4.891   0.411   4.988  0.9615  0.6762  2.0282
 1806TIP3   OH2 5381   0.787   3.062   4.734 -0.2353  0.1193  0.0763
 1806TIP3    H1 5382   0.768   2.984   4.787  0.1987  0.7352  1.1629
 1806TIP3    H2 5383   0.713   3.121   4.751  1.2232  1.4498  2.2450
 1807TIP3   OH2 5384   3.436   1.662   3.602 -0.3407  0.5021  0.0495
 1807TIP3    H1 5385   3.378   1.589   3.579 -1.5169  1.1155  0.9939
 1807TIP3    H2 5386   3.522   1.634   3.570 -0.2137 -2.4196  2.4479
 1808TIP3   OH2 5387   5.248   4.973   4.189  0.2805 -0.1123 -0.7588
 1808TIP3    H1 5388   5.269   5.044   4.129  1.7024  1.0660  0.9925
 1808TIP3    H2 5389   5.161   4.995   4.223 -0.6139 -0.8903 -2.4503
 1809TIP3   OH2 5390   6.559   1.200   3.534 -0.0432  0.1977 -0.5199
 1809TIP3    H1 5391   6.477   1.212   3.486 -0.3219  0.1212 -0.0731
 1809TIP3    H2 5392   6.551   1.258   3.610  0.6800  0.8297 -0.9183
 1810TIP3   OH2 5393   3.712   0.303   4.781 -0.9231 -0.0214  0.0999
 1810TIP3    H1 5394   3.693   0.211   4.761  1.4533 -0.3612 -0.9904
 1810TIP3    H2 5395   3.669   0.352   4.711 -1.8953 -0.3118  0.4789
 1811TIP3   OH2 5396   2.951   4.473   4.234 -0.6348  0.0649 -0.1872
 1811TIP3    H1 5397   2.982   4.384   4.220 -1.7164 -0.3322 -0.1291
 1811TIP3    H2 5398   2.967   4.517   4.150 -0.8223 -0.4080 -0.4774
 1812TIP3   OH2 5399   2.857   3.138   1.056  0.4142  0.1349 -0.0067
 1812TIP3    H1 5400   2.878   3.052   1.091 -0.5174 -0.0325  0.1824
 1812TIP3    H2 5401   2.887   3.136   0.965 -0.1987 -0.6313 -0.2025
 1813TIP3   OH2 5402   6.426   3.011   5.738  0.2151 -0.4325  0.0835
 1813TIP3    H1 5403   6.387   3.056   5.664 -0.3993 -1.8290 -0.4821
 1813TIP3    H2 5404   6.358   2.952   5.770  1.0956 -1.2499  0.5352
 1814TIP3   OH2 5405   6.291   4.751   3.069  0.3404  0.3534  0.2428
 1814TIP3    H1 5406   6.314   4.790   2.984 -1.5425 -1.0735 -1.0017
 1814TIP3    H2 5407   6.227   4.811   3.106 -0.4557 -0.0976 -0.3749
 1815TIP3   OH2 5408   1.887   5.599   0.985 -0.2455 -0.2745  0.2696
 1815TIP3    H1 5409   1.892   5.573   1.077 -3.2703  0.0151  0.6011
 1815TIP3    H2 5410   1.855   5.690   0.988  2.2118  0.7365 -1.0681
 1816TIP3   OH2 5411   6.197   2.415   3.443  0.5691 -0.2442  0.1173
 1816TIP3    H1 5412   6.119   2.468   3.425  0.8897  0.7275  1.4186
 1816TIP3    H2 5413   6.225   2.442   3.531  2.2975 -0.6664 -0.2574
 1817TIP3   OH2 5414   4.477   1.051   4.566  0.5169 -0.0998  0.9830
 1817TIP3    H1 5415   4.432   0.982   4.516  2.1095 -0.8234  0.4749
 1817TIP3    H2 5416   4.408   1.113   4.588 -0.8837 -1.5926  1.0062
 1818TIP3   OH2 5417   1.993   4.484   2.018  0.2644 -0.5629 -0.5730
 1818TIP3    H1 5418   2.001   4.419   2.088  0.5320  0.8484  0.7607
 1818TIP3    H2 5419   2.044   4.559   2.048  0.0961  0.2281 -2.1345
 1819TIP3   OH2 5420   0.112   6.046   3.655  0.1338  0.1470  0.0258
 1819TIP3    H1 5421   0.052   5.987   3.610  0.6916  0.0886 -0.6712
 1819TIP3    H2 5422   0.186   6.055   3.595  2.1329 -1.9787  1.9771
 1820TIP3   OH2 5423   0.265   2.316   4.278 -0.0338 -0.1679  0.3705
 1820TIP3    H1 5424   0.305   2.247   4.330 -0.8363 -0.4481  0.6334
 1820TIP3    H2 5425   0.264   2.393   4.336  2.2697  0.5545 -0.4338
 1821TIP3   OH2 5426   2.206   6.221   3.753  0.4043  0.4267 -0.1374
 1821TIP3    H1 5427   2.179   6.166   3.680  0.5412  1.4615 -1.0024
 1821TIP3    H2 5428   2.184   6.310   3.725  2.0993  1.0351  0.2917
 1822TIP3   OH2 5429   2.568   0.408   5.755  0.1309  0.0441 -0.4750
 1822TIP3    H1 5430   2.566   0.504   5.748 -0.3076  0.0298 -0.5874
 1822TIP3    H2 5431   2.624   0.379   5.683 -0.5555  0.1611 -1.0664
 1823TIP3   OH2 5432   2.672   3.390   0.223 -0.5825  0.7200 -0.2336
 1823TIP3    H1 5433   2.598   3.335   0.198 -0.7282  1.2209 -0.9610
 1823TIP3    H2 5434   2.662   3.469   0.169 -0.6468  1.6704  1.1211
 1824TIP3   OH2 5435   2.135   5.239   3.922 -0.6217 -0.3532  0.1336
 1824TIP3    H1 5436   2.061   5.197   3.876  0.8683 -1.5709 -1.2790
 1824TIP3    H2 5437   2.167   5.304   3.860  0.1189 -0.5584  0.2937
 1825TIP3   OH2 5438   6.866   6.443   0.768 -0.5352 -0.6666 -0.4497
 1825TIP3    H1 5439   6.815   6.450   0.687  0.0678 -0.5647 -0.8221
 1825TIP3    H2 5440   6.957   6.436   0.739 -0.4085 -1.8276  0.1787
 1826TIP3   OH2 5441   2.954   4.917   3.697 -0.1790 -0.3544 -0.5282
 1826TIP3    H1 5442   2.924   4.967   3.773  1.0684 -2.0482  1.1696
 1826TIP3    H2 5443   3.042   4.952   3.679  0.0920 -0.9106 -0.2910
 1827TIP3   OH2 5444   3.696   5.825   5.489 -0.1306 -0.2367  0.0362
 1827TIP3    H1 5445   3.748   5.858   5.562  0.7309  0.1037 -0.7109
 1827TIP3    H2 5446   3.761   5.791   5.427 -0.7188  1.0097 -1.3220
 1828TIP3   OH2 5447   4.611   1.116   4.302 -0.2615  0.3015  0.0403
 1828TIP3    H1 5448   4.618   1.193   4.245  1.8364  1.0247  1.1777
 1828TIP3    H2 5449   4.563   1.147   4.378  2.2744  1.1563  1.4070
 1829TIP3   OH2 5450   2.657   3.541   0.930  0.2453  0.2796  0.5310
 1829TIP3    H1 5451   2.590   3.496   0.983 -0.7928  1.4887  0.2943
 1829TIP3    H2 5452   2.656   3.495   0.847  0.2048 -0.1485  0.7633
 1830TIP3   OH2 5453   6.919   0.026   0.355  0.0010 -0.1189  0.1301
 1830TIP3    H1 5454   6.964  -0.055   0.379  1.8108  0.5024 -0.9151
 1830TIP3    H2 5455   6.989   0.082   0.320 -1.3231  1.6233  0.1578
 1831TIP3   OH2 5456   4.245   4.805   0.714 -0.0232  0.1764 -0.3575
 1831TIP3    H1 5457   4.250   4.872   0.646 -2.6576 -0.0876 -0.9086
 1831TIP3    H2 5458   4.325   4.818   0.766  1.0515  1.7116 -2.2536
 1832TIP3   OH2 5459   2.780   1.838   5.635  0.0628  0.0247  0.1526
 1832TIP3    H1 5460   2.846   1.773   5.654 -1.2007 -1.4139 -0.1677
 1832TIP3    H2 5461   2.791   1.858   5.542  1.0530  1.0151  0.4592
 1833TIP3   OH2 5462   3.783   4.516   2.028 -0.0940  0.2614  0.6082
 1833TIP3    H1 5463   3.719   4.465   1.979 -0.5810  0.0976  1.3980
 1833TIP3    H2 5464   3.867   4.490   1.991 -0.4119 -0.2796  0.2455
 1834TIP3   OH2 5465   7.238   1.838   5.286 -0.5323 -0.0519  0.2057
 1834TIP3    H1 5466   7.199   1.753   5.266 -0.4114 -0.0283 -0.1494
 1834TIP3    H2 5467   7.170   1.886   5.334 -0.7971 -0.1540 -0.0654
 1835TIP3   OH2 5468   0.610   3.890   4.065  0.1233  0.1820 -1.4129
 1835TIP3    H1 5469   0.607   3.984   4.048 -0.9249  0.6255  0.9077
 1835TIP3    H2 5470   0.665   3.881   4.143 -0.9367 -0.9690 -0.7689
 1836TIP3   OH2 5471   3.805   2.521   3.194  0.1782  0.4107 -0.0236
 1836TIP3    H1 5472   3.896   2.526   3.164  0.2910 -0.5506  0.1219
 1836TIP3    H2 5473   3.754   2.561   3.123  0.7391  1.2993  0.0596
 1837TIP3   OH2 5474   4.117   5.966   5.454  0.7737  0.0275 -0.1511
 1837TIP3    H1 5475   4.172   5.895   5.487 -0.7661 -1.3771 -0.4756
 1837TIP3    H2 5476   4.139   5.972   5.361  1.7713  0.8270  0.1200
 1838TIP3   OH2 5477   3.547   3.820   0.221 -0.3127 -0.4016 -0.1373
 1838TIP3    H1 5478   3.531   3.742   0.274  0.6010 -0.9516 -0.6513
 1838TIP3    H2 5479   3.588   3.787   0.141 -0.2478  0.5718 -0.5232
 1839TIP3   OH2 5480   6.612   1.571   0.324 -0.1294  0.1293 -0.5065
 1839TIP3    H1 5481   6.633   1.625   0.400 -0.0352 -1.3964  0.5891
 1839TIP3    H2 5482   6.694   1.566   0.275  0.1127  0.1731 -0.1091
 1840TIP3   OH2 5483   3.667   3.884   0.902  0.3557 -0.0135 -0.0165
 1840TIP3    H1 5484   3.712   3.851   0.980 -1.2622 -1.7475  0.2463
 1840TIP3    H2 5485   3.580   3.909   0.933 -0.4608 -1.1110 -1.3062
 1841TIP3   OH2 5486   3.559   3.333   2.517 -0.1627 -0.0271  0.1791
 1841TIP3    H1 5487   3.469   3.358   2.497 -0.4401 -0.4127  0.9289
 1841TIP3    H2 5488   3.576   3.257   2.461 -0.0597  0.4843 -0.4868
 1842TIP3   OH2 5489   5.834   0.266   0.826  0.2488 -0.2120 -0.3708
 1842TIP3    H1 5490   5.800   0.351   0.853 -1.1809 -0.9742  0.3528
 1842TIP3    H2 5491   5.888   0.237   0.900 -0.9530 -0.8239  0.2932
 1843TIP3   OH2 5492   6.222   4.982   1.398  0.4669 -0.2689 -0.0794
 1843TIP3    H1 5493   6.220   4.908   1.459 -0.3804 -0.9332 -0.8906
 1843TIP3    H2 5494   6.144   5.033   1.418  0.3932 -0.2716 -0.3538
 1844TIP3   OH2 5495   4.726   5.609   0.210 -0.6862  0.0664 -0.0655
 1844TIP3    H1 5496   4.735   5.620   0.115  0.9064  1.4227  0.1732
 1844TIP3    H2 5497   4.651   5.551   0.221 -1.2009  0.2476 -2.1345
 1845TIP3   OH2 5498   5.289   0.862   3.859  0.4322  0.5751 -0.1881
 1845TIP3    H1 5499   5.287   0.795   3.791 -0.4738 -0.0570  0.4488
 1845TIP3    H2 5500   5.210   0.914   3.844 -0.5619 -0.4588  1.2353
 1846TIP3   OH2 5501   7.110   4.107   1.701  0.0995  0.0894  0.3351
 1846TIP3    H1 5502   7.086   4.182   1.647  1.7546  0.8871  0.6288
 1846TIP3    H2 5503   7.059   4.117   1.781 -0.0496  0.6288  0.1734
 1847TIP3   OH2 5504   2.216   4.469   2.972  0.3114  0.7612  0.0896
 1847TIP3    H1 5505   2.130   4.472   3.014  1.3390  1.6381  2.2476
 1847TIP3    H2 5506   2.275   4.435   3.039  1.6040 -0.4303 -1.5415
 1848TIP3   OH2 5507   2.699   6.442   3.383  0.0806 -0.1103  0.0824
 1848TIP3    H1 5508   2.644   6.375   3.425  1.2662 -0.2515  1.4752
 1848TIP3    H2 5509   2.667   6.525   3.418 -0.4715 -0.0228 -0.5863
 1849TIP3   OH2 5510   5.842   4.473   5.433  0.4236 -0.0745  0.3131
 1849TIP3    H1 5511   5.793   4.550   5.406 -0.6863 -0.8389  0.0628
 1849TIP3    H2 5512   5.898   4.452   5.358 -0.4186 -0.4167 -0.2274
 1850TIP3   OH2 5513   2.156   0.121   2.290  0.6348  0.0375  0.7623
 1850TIP3    H1 5514   2.098   0.054   2.254 -0.6709  0.6732  1.5806
 1850TIP3    H2 5515   2.211   0.075   2.353  1.3339 -0.6508 -0.3214
 1851TIP3   OH2 5516   6.446   5.955   0.962 -0.3450 -0.5018  0.1213
 1851TIP3    H1 5517   6.379   5.984   0.901  0.2947  0.6115 -0.0802
 1851TIP3    H2 5518   6.460   5.863   0.940 -0.1262 -0.1277 -1.4278
 1852TIP3   OH2 5519   3.728   2.749   4.028  0.1890 -0.1880  0.7757
 1852TIP3    H1 5520   3.781   2.812   4.077 -1.1773  0.7400  1.1103
 1852TIP3    H2 5521   3.734   2.668   4.079  1.5977 -0.2446  0.5777
 1853TIP3   OH2 5522   2.266   2.150   4.266  0.1680  0.5251 -0.6359
 1853TIP3    H1 5523   2.252   2.164   4.360 -1.4294  0.6346 -0.8566
 1853TIP3    H2 5524   2.178   2.144   4.230  0.7506  1.0415 -2.2213
 1854TIP3   OH2 5525   5.728   2.053   2.076  0.0426  0.2352  0.2884
 1854TIP3    H1 5526   5.707   2.068   2.168  1.5432  1.0333  0.5356
 1854TIP3    H2 5527   5.798   1.988   2.077 -0.4457 -0.3188 -0.3473
 1855TIP3   OH2 5528   2.847   0.082   3.583  0.0589 -0.2299  0.4271
 1855TIP3    H1 5529   2.838  -0.013   3.569  1.6213 -0.1856 -1.3144
 1855TIP3    H2 5530   2.912   0.090   3.652  0.9588 -0.4648 -0.3633
 1856TIP3   OH2 5531   1.356   0.696   4.883  0.4550  0.2471 -0.2365
 1856TIP3    H1 5532   1.331   0.745   4.804  1.7195  0.1184 -0.7301
 1856TIP3    H2 5533   1.280   0.639   4.901  0.0666  0.4378 -1.2240
 1857TIP3   OH2 5534   0.548   1.151   4.528 -0.1150 -0.3372 -0.2214
 1857TIP3    H1 5535   0.526   1.083   4.464  0.0181  0.0151 -0.6363
 1857TIP3    H2 5536   0.467   1.202   4.538 -0.6119 -1.2948  1.0187
 1858TIP3   OH2 5537   3.447   1.012   0.335  0.5988 -0.5955 -0.0670
 1858TIP3    H1 5538   3.415   1.098   0.360  0.2155 -0.7840  0.0912
 1858TIP3    H2 5539   3.377   0.951   0.360  0.0014 -0.7550 -1.9489
 1859TIP3   OH2 5540   0.428   2.566   5.372 -0.1892  0.2354  0.0382
 1859TIP3    H1 5541   0.477   2.646   5.357 -0.5315  0.4561  0.0912
 1859TIP3    H2 5542   0.368   2.587   5.444  0.8431 -0.5421  1.1642
 1860TIP3   OH2 5543   0.741   6.159   3.852  0.0320  0.2841 -0.1965
 1860TIP3    H1 5544   0.762   6.167   3.945 -1.3030 -1.0468  0.2718
 1860TIP3    H2 5545   0.803   6.094   3.819 -0.6568 -0.6390  0.2416
 1861TIP3   OH2 5546   0.464   2.879   2.552  0.1143 -0.3471  0.1308
 1861TIP3    H1 5547   0.491   2.906   2.464  0.6088  3.0418  1.1653
 1861TIP3    H2 5548   0.546   2.855   2.595  0.0318 -0.8112  0.0298
 1862TIP3   OH2 5549   5.174   6.275   2.892 -0.7411 -0.1889  0.2844
 1862TIP3    H1 5550   5.118   6.343   2.856 -0.4760  1.0281  2.0503
 1862TIP3    H2 5551   5.262   6.297   2.863 -0.5408  0.7392  1.5073
 1863TIP3   OH2 5552   2.019   5.690   4.490  0.0135 -0.4564 -0.5320
 1863TIP3    H1 5553   1.981   5.772   4.522  0.2126 -0.0433 -1.3414
 1863TIP3    H2 5554   2.043   5.708   4.399  1.5985 -0.8940 -0.2265
 1864TIP3   OH2 5555   6.899   3.656   4.149 -0.8310 -0.4933 -0.2620
 1864TIP3    H1 5556   6.953   3.578   4.164 -0.2504 -0.2832 -1.2041
 1864TIP3    H2 5557   6.826   3.625   4.095 -1.8642 -0.8435  1.2705
 1865TIP3   OH2 5558   3.106   1.888   0.525 -0.2983  0.1194  0.1990
 1865TIP3    H1 5559   3.126   1.888   0.618 -2.2884 -0.5503  0.6723
 1865TIP3    H2 5560   3.187   1.919   0.483  1.6867 -2.3029  1.8955
 1866TIP3   OH2 5561   0.946   5.891   0.838 -0.2081  0.4479 -0.0761
 1866TIP3    H1 5562   0.961   5.839   0.917  1.1506  0.7982 -0.0784
 1866TIP3    H2 5563   0.907   5.829   0.776  0.6909 -0.3867  0.1716
 1867TIP3   OH2 5564   4.983   6.613   3.030  0.3161 -0.6761  0.3244
 1867TIP3    H1 5565   4.934   6.535   3.003 -0.8224 -0.1936  0.8965
 1867TIP3    H2 5566   5.029   6.641   2.952 -0.0876 -1.3268 -0.1586
 1868TIP3   OH2 5567   6.634   3.064   4.641  0.0469 -0.1915 -0.2774
 1868TIP3    H1 5568   6.617   3.148   4.682  1.3484 -0.0284 -0.0246
 1868TIP3    H2 5569   6.629   3.000   4.712  0.4014 -0.1475 -0.2092
 1869TIP3   OH2 5570   6.287   2.491   5.792 -0.3023 -0.0183  0.6323
 1869TIP3    H1 5571   6.192   2.488   5.801 -0.2494 -0.5692  1.0900
 1869TIP3    H2 5572   6.313   2.400   5.779  0.1757  0.1052  0.6950
 1870TIP3   OH2 5573   0.011   3.465   4.256 -0.2651  1.3035  0.0905
 1870TIP3    H1 5574   0.019   3.504   4.169 -0.6358  0.0350 -0.5430
 1870TIP3    H2 5575   0.088   3.408   4.263  0.2147  2.0420  0.9553
 1871TIP3   OH2 5576   1.503   2.180   1.210 -0.4639  0.0751  0.4542
 1871TIP3    H1 5577   1.461   2.165   1.125 -0.3072 -0.0655  0.4011
 1871TIP3    H2 5578   1.596   2.187   1.190 -0.4643  0.4182  0.5700
 1872TIP3   OH2 5579   1.645   4.955   0.566  0.3429  0.2190  0.2065
 1872TIP3    H1 5580   1.573   4.924   0.620 -0.9064  0.0272 -1.4838
 1872TIP3    H2 5581   1.650   4.893   0.494 -0.6873  2.5279 -2.0343
 1873TIP3   OH2 5582   4.269   4.657   4.094 -0.1232  0.1216  0.0999
 1873TIP3    H1 5583   4.317   4.734   4.065 -0.6815  0.8825  1.1679
 1873TIP3    H2 5584   4.262   4.666   4.189 -1.6688 -0.3671  0.0701
 1874TIP3   OH2 5585   0.860   6.806   2.673 -0.6596 -0.2520 -0.6659
 1874TIP3    H1 5586   0.914   6.727   2.683 -0.2795  0.0483 -0.3035
 1874TIP3    H2 5587   0.811   6.812   2.755 -0.6860 -0.1097 -0.6922
 1875TIP3   OH2 5588   2.090   3.727   4.420  0.5534 -0.0569  0.3230
 1875TIP3    H1 5589   2.083   3.632   4.429  0.8746 -0.2908 -1.5496
 1875TIP3    H2 5590   2.006   3.754   4.382  1.3852  0.0361 -1.5473
 1876TIP3   OH2 5591   6.767   0.620   4.651 -0.6995 -0.4926  0.1821
 1876TIP3    H1 5592   6.840   0.561   4.673 -0.2976 -0.2975 -0.5784
 1876TIP3    H2 5593   6.800   0.708   4.674 -1.2336 -0.5371  1.1571
 1877TIP3   OH2 5594   7.039   1.974   1.538  0.4260 -0.6026  0.6611
 1877TIP3    H1 5595   6.954   1.964   1.582  0.8058  0.0775  1.5901
 1877TIP3    H2 5596   7.090   2.029   1.597  0.9553  0.3994 -0.6729
 1878TIP3   OH2 5597   4.854   0.209   2.166  0.1899  0.7325  0.7384
 1878TIP3    H1 5598   4.793   0.265   2.117 -0.3562  0.1500  0.7471
 1878TIP3    H2 5599   4.805   0.183   2.244 -0.5999 -1.9509 -0.5331
 1879TIP3   OH2 5600   1.154   6.294   2.373 -0.2542  0.1365  0.4293
 1879TIP3    H1 5601   1.196   6.298   2.287 -0.2569  0.8530  0.4538
 1879TIP3    H2 5602   1.104   6.213   2.372  0.2342 -0.1649 -0.0204
 1880TIP3   OH2 5603   6.266   0.048   2.058 -0.2154 -0.0477 -0.2431
 1880TIP3    H1 5604   6.355   0.048   2.021 -0.7142  0.1986 -1.4988
 1880TIP3    H2 5605   6.240  -0.044   2.057  0.0561 -0.1325  0.2194
 1881TIP3   OH2 5606   3.534   2.408   3.532 -0.2606 -0.1769  0.4771
 1881TIP3    H1 5607   3.453   2.435   3.489 -0.2988  0.2083  0.7857
 1881TIP3    H2 5608   3.580   2.356   3.466 -0.8321 -0.5370  0.3537
 1882TIP3   OH2 5609   7.019   6.482   5.202 -0.3381 -1.1907  0.3679
 1882TIP3    H1 5610   7.037   6.473   5.295 -0.7045  0.1073  0.5869
 1882TIP3    H2 5611   7.062   6.407   5.161 -1.0263 -2.3178  1.6795
 1883TIP3   OH2 5612   0.489   2.578   4.745 -0.1919 -0.3156 -0.5047
 1883TIP3    H1 5613   0.475   2.650   4.683  0.0516  0.3507  0.1927
 1883TIP3    H2 5614   0.493   2.499   4.691 -2.5298 -0.0794 -1.1043
 1884TIP3   OH2 5615   2.537   2.118   2.603  0.0331 -0.2080  0.0420
 1884TIP3    H1 5616   2.541   2.048   2.667 -2.2001 -0.2614  0.1841
 1884TIP3    H2 5617   2.577   2.081   2.524  1.4801 -0.6230  0.9210
 1885TIP3   OH2 5618   3.387   0.383   1.620 -0.6904  0.0103 -0.4285
 1885TIP3    H1 5619   3.461   0.331   1.652  0.6466  2.1964  0.2039
 1885TIP3    H2 5620   3.371   0.350   1.532  0.9498 -0.6250 -0.5157
 1886TIP3   OH2 5621   0.275   2.777   0.886  0.1457 -0.1735  0.0819
 1886TIP3    H1 5622   0.329   2.700   0.871 -0.7612 -1.3585  2.4002
 1886TIP3    H2 5623   0.283   2.795   0.980 -0.9520  1.5803 -0.1000
 1887TIP3   OH2 5624   7.080   4.163   4.758 -0.0431  0.7503 -0.3871
 1887TIP3    H1 5625   7.059   4.256   4.751 -1.5543  0.4831  0.3115
 1887TIP3    H2 5626   7.039   4.123   4.681 -0.3107  0.5060 -0.1180
 1888TIP3   OH2 5627   2.913   6.162   3.690  0.4792 -0.2690 -0.0843
 1888TIP3    H1 5628   2.826   6.179   3.727 -0.9334 -3.3017 -1.6277
 1888TIP3    H2 5629   2.972   6.163   3.765 -0.9781  1.1397  1.1298
 1889TIP3   OH2 5630   0.375   3.262   0.428  0.2381  0.3684  0.0347
 1889TIP3    H1 5631   0.317   3.326   0.470 -1.9883  0.0016 -2.1786
 1889TIP3    H2 5632   0.331   3.178   0.442  0.9753 -0.1181 -0.5186
 1890TIP3   OH2 5633   4.043   1.040   0.516 -0.2589 -0.4208  0.0915
 1890TIP3    H1 5634   4.075   1.025   0.605  1.2726  0.8884 -0.1836
 1890TIP3    H2 5635   3.952   1.068   0.527 -0.3657 -1.1293  1.1574
 1891TIP3   OH2 5636   4.080   2.115   1.423 -0.3729 -0.0432 -0.1909
 1891TIP3    H1 5637   4.142   2.061   1.372  0.8866 -0.4400  1.6568
 1891TIP3    H2 5638   4.044   2.177   1.360 -1.1695 -2.4048 -2.2207
 1892TIP3   OH2 5639   4.381   0.756   2.916  0.0767 -0.0530 -0.0380
 1892TIP3    H1 5640   4.304   0.721   2.962  0.5523 -2.6628 -1.0097
 1892TIP3    H2 5641   4.454   0.705   2.951  0.8695  0.0874 -1.4091
 1893TIP3   OH2 5642   1.880   6.160   0.047 -0.1857 -0.0567  0.1236
 1893TIP3    H1 5643   1.896   6.103   0.122  1.3065  1.8433  1.3577
 1893TIP3    H2 5644   1.797   6.130   0.010  0.4457 -2.8408  0.8080
 1894TIP3   OH2 5645   0.813   6.720   4.812 -0.1036  0.0594 -0.1094
 1894TIP3    H1 5646   0.776   6.796   4.857 -2.0235 -0.3964 -0.8008
 1894TIP3    H2 5647   0.736   6.671   4.782  1.0992 -0.9096 -1.7537
 1895TIP3   OH2 5648   4.578   0.621   2.283 -0.5148  0.4326 -0.2307
 1895TIP3    H1 5649   4.560   0.539   2.328 -0.7127  1.0212  0.7952
 1895TIP3    H2 5650   4.500   0.675   2.297  0.3367  1.4794  0.7240
 1896TIP3   OH2 5651   3.183  -0.003   0.245 -0.2960  0.2452  0.2858
 1896TIP3    H1 5652   3.251   0.056   0.214 -0.4004 -0.5237 -1.5505
 1896TIP3    H2 5653   3.112   0.054   0.273 -0.1907  1.0035 -0.9537
 1897TIP3   OH2 5654   2.910   2.383   5.503  0.1723 -0.2233  0.4246
 1897TIP3    H1 5655   2.849   2.312   5.481  0.2758  0.2481 -1.6096
 1897TIP3    H2 5656   2.996   2.345   5.488  0.2789 -0.0612  0.6285
 1898TIP3   OH2 5657   2.001   6.289   4.269  0.9240  0.0208  0.3512
 1898TIP3    H1 5658   2.074   6.286   4.330  2.2405 -1.1427 -1.1917
 1898TIP3    H2 5659   2.041   6.278   4.183 -1.0692 -0.5575 -0.5623
 1899TIP3   OH2 5660   6.749   6.521   3.416  0.5540 -0.1051 -0.0358
 1899TIP3    H1 5661   6.665   6.564   3.406  1.5702  1.8685 -0.5946
 1899TIP3    H2 5662   6.793   6.533   3.331  0.9600 -2.1752 -0.1821
 1900TIP3   OH2 5663   3.043   6.646   2.870 -0.3525  0.4862  0.3522
 1900TIP3    H1 5664   3.030   6.723   2.816 -0.2434  0.7943  0.7606
 1900TIP3    H2 5665   3.085   6.679   2.950 -0.8319  0.0878  0.7753
 1901TIP3   OH2 5666   6.523   1.242   1.123 -0.1693  0.3454  0.5283
 1901TIP3    H1 5667   6.492   1.272   1.208 -0.3851  1.5527  0.0574
 1901TIP3    H2 5668   6.617   1.228   1.135 -0.2946 -0.0175  1.0954
 1902TIP3   OH2 5669   5.436   5.084   0.681  0.4293 -0.1615  0.2375
 1902TIP3    H1 5670   5.415   5.064   0.772 -3.5518  1.2608 -0.1520
 1902TIP3    H2 5671   5.491   5.163   0.685  0.4220 -0.2013  1.3878
 1903TIP3   OH2 5672   1.481   2.038   0.373  0.2983  0.3342 -0.7048
 1903TIP3    H1 5673   1.506   1.964   0.428 -2.1148 -1.1419 -1.3894
 1903TIP3    H2 5674   1.453   1.997   0.291 -1.1248  2.0007 -1.1081
 1904TIP3   OH2 5675   0.556   3.444   1.312 -0.0942 -0.1348 -0.6744
 1904TIP3    H1 5676   0.614   3.438   1.236 -0.8323  0.4890 -1.3066
 1904TIP3    H2 5677   0.468   3.448   1.274 -0.7098 -2.5451  0.2941
 1905TIP3   OH2 5678   5.445   3.161   5.421 -0.1057 -0.3930  0.2690
 1905TIP3    H1 5679   5.528   3.209   5.428 -1.0819  1.8354 -1.9912
 1905TIP3    H2 5680   5.457   3.104   5.345 -1.2329  1.4945 -1.4342
 1906TIP3   OH2 5681   3.069   4.433   5.277  0.5314 -0.1310 -0.7973
 1906TIP3    H1 5682   3.032   4.464   5.360 -1.7198 -2.7335 -0.7029
 1906TIP3    H2 5683   3.151   4.390   5.302 -0.2406 -1.1034  0.1768
 1907TIP3   OH2 5684   6.688   1.041   5.580  0.0378 -0.0906 -0.2248
 1907TIP3    H1 5685   6.636   0.991   5.645  0.0432 -0.9622 -0.8712
 1907TIP3    H2 5686   6.651   1.015   5.496  0.3674  0.6557 -0.6041
 1908TIP3   OH2 5687   3.898   2.475   4.459 -0.1054 -0.6310 -0.0487
 1908TIP3    H1 5688   3.886   2.428   4.541  1.3673  0.4362  0.8327
 1908TIP3    H2 5689   3.979   2.525   4.472 -1.0828  1.3706 -1.2838
 1909TIP3   OH2 5690   5.826   6.763   3.579  0.1748 -0.2366 -0.2258
 1909TIP3    H1 5691   5.880   6.757   3.500 -0.7803 -3.3130 -0.7544
 1909TIP3    H2 5692   5.737   6.780   3.546  0.1682  1.1314  0.4136
 1910TIP3   OH2 5693   1.256   0.415   0.246  0.1014  0.2936  0.2515
 1910TIP3    H1 5694   1.330   0.473   0.228  0.7514 -0.6960 -0.3049
 1910TIP3    H2 5695   1.194   0.433   0.175  1.3521 -1.4087 -1.3563
 1911TIP3   OH2 5696   0.951   3.902   3.758 -0.3988 -0.3162 -0.0853
 1911TIP3    H1 5697   0.903   3.961   3.817  0.8426  2.4025 -1.6475
 1911TIP3    H2 5698   1.042   3.910   3.785 -0.1709 -1.4027 -0.4760
 1912TIP3   OH2 5699   4.522   0.764   4.626 -0.5203  0.0841  0.3198
 1912TIP3    H1 5700   4.455   0.782   4.560 -2.5085 -0.4352  2.0978
 1912TIP3    H2 5701   4.600   0.809   4.594 -1.6500  0.5857 -1.9079
 1913TIP3   OH2 5702   1.394   4.102   5.832  0.0300  0.0459 -0.0252
 1913TIP3    H1 5703   1.346   4.123   5.912  0.8051  1.0246  0.2062
 1913TIP3    H2 5704   1.436   4.184   5.807  0.5319 -0.4725 -0.9328
 1914TIP3   OH2 5705   4.576   1.113   1.652  0.2384 -0.1697  0.3150
 1914TIP3    H1 5706   4.642   1.169   1.613  1.7332 -1.3586  1.0336
 1914TIP3    H2 5707   4.507   1.106   1.585  1.2303  0.4101 -0.7976
 1915TIP3   OH2 5708   1.855   5.474   4.382 -0.3801  0.0919  0.3418
 1915TIP3    H1 5709   1.838   5.540   4.315 -1.8906  0.9194  1.4690
 1915TIP3    H2 5710   1.925   5.511   4.435  1.0388 -0.7033 -0.9054
 1916TIP3   OH2 5711   3.202   6.300   0.548  0.1411 -0.2786  0.1194
 1916TIP3    H1 5712   3.287   6.256   0.542  1.0198  1.2054  1.0975
 1916TIP3    H2 5713   3.140   6.230   0.567  0.9039 -1.5840 -1.8585
 1917TIP3   OH2 5714   0.986   1.536   1.614 -0.2992 -0.3829 -0.3070
 1917TIP3    H1 5715   0.927   1.570   1.547 -0.5006 -1.1477 -0.5306
 1917TIP3    H2 5716   1.054   1.603   1.623 -1.3416  0.6542  0.1670
 1918TIP3   OH2 5717   3.043   3.075   0.174  0.4398 -0.0409 -0.0286
 1918TIP3    H1 5718   2.990   3.151   0.198 -0.0044  0.0722 -1.2951
 1918TIP3    H2 5719   3.017   3.055   0.084  1.4715 -0.9086 -0.1558
 1919TIP3   OH2 5720   4.410   3.357   5.473 -0.0705  0.1764  0.4253
 1919TIP3    H1 5721   4.446   3.276   5.509  1.1348 -0.1084 -1.2868
 1919TIP3    H2 5722   4.465   3.426   5.511 -2.5871  0.5532  3.8074
 1920TIP3   OH2 5723   0.444   5.505   5.011 -0.3971  0.6003  0.2733
 1920TIP3    H1 5724   0.401   5.484   4.928  0.9366 -2.2500  0.1875
 1920TIP3    H2 5725   0.518   5.560   4.987 -0.5491  0.5683 -0.2898
 1921TIP3   OH2 5726   0.683   4.171   4.260  0.5035 -0.0024  0.3016
 1921TIP3    H1 5727   0.723   4.183   4.174  1.6093  0.5250  0.8658
 1921TIP3    H2 5728   0.590   4.190   4.247  0.4708 -0.8988 -0.9695
 1922TIP3   OH2 5729   1.512   1.694   2.016 -0.9930 -0.1376  0.3073
 1922TIP3    H1 5730   1.552   1.609   1.998 -0.3467  0.0011  1.0473
 1922TIP3    H2 5731   1.458   1.679   2.093 -1.7146 -0.1160 -0.1815
 1923TIP3   OH2 5732   0.079   1.555   0.649 -0.1558  0.3990 -0.1247
 1923TIP3    H1 5733   0.061   1.497   0.575 -0.9663  0.4652  0.0142
 1923TIP3    H2 5734  -0.004   1.599   0.666 -0.1308 -0.0278  1.1872
 1924TIP3   OH2 5735   1.825   3.787   3.839 -0.6051 -0.2749 -0.2481
 1924TIP3    H1 5736   1.828   3.870   3.792  0.9024 -0.0632  0.1629
 1924TIP3    H2 5737   1.826   3.720   3.770  0.1753  0.0431 -0.5584
 1925TIP3   OH2 5738   2.298   0.096   2.541  0.1882 -0.4519  0.2198
 1925TIP3    H1 5739   2.323   0.030   2.605  0.2994  0.6274  1.3286
 1925TIP3    H2 5740   2.381   0.131   2.508  0.1355 -1.2427 -0.7949
 1926TIP3   OH2 5741   2.716   1.419   1.901  0.4326 -0.3726 -0.2391
 1926TIP3    H1 5742   2.692   1.500   1.858  0.0496  1.2040  2.6732
 1926TIP3    H2 5743   2.811   1.422   1.908  0.7997 -1.9460 -3.1748
 1927TIP3   OH2 5744   3.668   1.913   5.051 -0.8864 -0.1526 -0.1368
 1927TIP3    H1 5745   3.576   1.890   5.035 -0.5246 -0.9279 -1.2171
 1927TIP3    H2 5746   3.698   1.948   4.967 -0.3323  0.5621  0.3620
 1928TIP3   OH2 5747   5.240   3.803   1.720  0.0287 -0.7918  0.4815
 1928TIP3    H1 5748   5.313   3.775   1.665  0.3818  1.6344 -0.4052
 1928TIP3    H2 5749   5.280   3.862   1.784 -0.9231 -0.7981  1.1023
 1929TIP3   OH2 5750   3.126   4.657   1.188 -0.1413 -0.3607 -0.4301
 1929TIP3    H1 5751   3.193   4.589   1.188  1.3796  1.0564 -1.6215
 1929TIP3    H2 5752   3.105   4.670   1.280  0.1916 -1.7690 -0.1182
 1930TIP3   OH2 5753   0.613   4.995   2.505 -0.2615  0.1200 -0.0075
 1930TIP3    H1 5754   0.542   5.048   2.541 -2.2224 -2.4030  0.1131
 1930TIP3    H2 5755   0.659   4.960   2.582  1.4158  1.9380 -0.0784
 1931TIP3   OH2 5756   4.150   3.656   0.059  0.9170 -0.5474 -0.0814
 1931TIP3    H1 5757   4.115   3.567   0.053  1.1163 -0.6522  0.2744
 1931TIP3    H2 5758   4.125   3.697  -0.024 -0.1037 -0.5927  0.1843
 1932TIP3   OH2 5759   4.332   3.764   3.880 -0.6674 -0.4236  0.3501
 1932TIP3    H1 5760   4.372   3.832   3.936  2.1116 -1.4564 -0.1991
 1932TIP3    H2 5761   4.302   3.811   3.803  0.3468  0.3565  0.4024
 1933TIP3   OH2 5762   3.736   4.698   3.865  0.2513 -0.1552  0.8458
 1933TIP3    H1 5763   3.776   4.761   3.925 -1.5158 -1.2368  3.3492
 1933TIP3    H2 5764   3.668   4.748   3.820  1.6100  0.6758 -0.3864
 1934TIP3   OH2 5765   1.945   0.933   4.478 -0.3137  0.4074 -0.2429
 1934TIP3    H1 5766   1.981   0.912   4.392 -0.2057  0.7757 -0.2915
 1934TIP3    H2 5767   1.990   1.014   4.504 -0.6752  0.5502 -0.0454
 1935TIP3   OH2 5768   6.613   6.321   0.197  0.5226  0.2624 -0.0692
 1935TIP3    H1 5769   6.657   6.277   0.269  0.8451 -0.5184 -0.7229
 1935TIP3    H2 5770   6.650   6.409   0.196 -0.3588  0.6804  1.4552
 1936TIP3   OH2 5771   4.903   3.027   3.032  0.3023  0.9973 -0.1723
 1936TIP3    H1 5772   4.979   3.025   2.975  0.5328 -1.6201  0.0890
 1936TIP3    H2 5773   4.904   3.115   3.071  2.7070  1.3043 -0.7713
 1937TIP3   OH2 5774   0.626   1.175   2.930 -0.0413 -0.5065  0.1215
 1937TIP3    H1 5775   0.533   1.195   2.930 -0.0740 -0.6500  0.3902
 1937TIP3    H2 5776   0.630   1.081   2.948  0.2356 -0.0048  3.2308
 1938TIP3   OH2 5777   0.761   2.616   0.070 -0.0862  0.1636 -0.1133
 1938TIP3    H1 5778   0.797   2.562   0.140 -1.4380  1.5057  1.7125
 1938TIP3    H2 5779   0.671   2.634   0.097 -1.0285 -0.1038 -2.7329
 1939TIP3   OH2 5780   6.600   6.586   0.877 -0.2418  0.3977 -0.1586
 1939TIP3    H1 5781   6.611   6.558   0.786  0.4479 -0.1037  0.0691
 1939TIP3    H2 5782   6.583   6.504   0.925  0.8302  0.4694  0.3736
 1940TIP3   OH2 5783   1.328   1.626   4.157  0.2991  0.2040  0.0717
 1940TIP3    H1 5784   1.356   1.676   4.234 -2.2809 -0.4232  1.5537
 1940TIP3    H2 5785   1.326   1.535   4.187  0.4666 -0.2199 -1.1509
 1941TIP3   OH2 5786   6.459   1.618   4.818  0.0558  0.5267 -0.2194
 1941TIP3    H1 5787   6.544   1.576   4.825 -1.1276 -2.2907 -1.0181
 1941TIP3    H2 5788   6.405   1.554   4.771 -2.5731  2.0607  0.4904
 1942TIP3   OH2 5789   3.316   1.803   4.402  0.0553 -0.5335  0.0247
 1942TIP3    H1 5790   3.395   1.765   4.441  0.0784 -0.2691  0.2369
 1942TIP3    H2 5791   3.327   1.789   4.308  1.6841  1.9330 -0.2382
 1943TIP3   OH2 5792   4.517   5.467   0.313 -0.0455 -0.0894 -0.6169
 1943TIP3    H1 5793   4.478   5.418   0.240  0.0889 -0.5289 -0.4006
 1943TIP3    H2 5794   4.470   5.550   0.315 -1.7022 -1.0160  0.3157
 1944TIP3   OH2 5795   2.942   2.287   2.276  0.4716 -0.2525 -0.3700
 1944TIP3    H1 5796   3.037   2.290   2.289  0.5416 -1.8276 -0.4082
 1944TIP3    H2 5797   2.907   2.346   2.344  1.4435  0.0143 -0.0841
 1945TIP3   OH2 5798   2.146   3.905   3.804 -0.6464 -0.0509 -0.4209
 1945TIP3    H1 5799   2.104   3.966   3.744 -0.2231 -0.2309 -0.9096
 1945TIP3    H2 5800   2.123   3.937   3.892  1.2101  2.0060 -0.6032
 1946TIP3   OH2 5801   6.638   6.667   0.593  0.0056 -1.0187 -0.0738
 1946TIP3    H1 5802   6.613   6.757   0.573  0.4872 -0.5309  1.4325
 1946TIP3    H2 5803   6.580   6.614   0.537  0.0904  0.2031 -1.3952
 1947TIP3   OH2 5804   4.625   3.811   5.590  0.2091  0.8272  0.0951
 1947TIP3    H1 5805   4.690   3.797   5.659 -0.4335  0.7093  0.6831
 1947TIP3    H2 5806   4.609   3.724   5.553  1.2278  1.0060 -0.8484
 1948TIP3   OH2 5807   6.068   5.119   4.775  0.3865 -0.2945  0.0557
 1948TIP3    H1 5808   6.134   5.161   4.719  0.1033 -0.6269 -0.5332
 1948TIP3    H2 5809   6.071   5.027   4.751 -0.0734 -0.3641  0.2513
 1949TIP3   OH2 5810   4.867   5.921   2.470 -0.4133 -0.1340 -0.1960
 1949TIP3    H1 5811   4.780   5.938   2.433 -1.0705 -2.1401  0.2776
 1949TIP3    H2 5812   4.861   5.953   2.560 -0.5663 -0.0133 -0.2470
 1950TIP3   OH2 5813   3.657   1.310   3.661 -0.2079  0.9629  0.0763
 1950TIP3    H1 5814   3.589   1.248   3.635 -1.6955  0.7991  3.6927
 1950TIP3    H2 5815   3.733   1.255   3.682  0.2074  0.9111 -1.4250
 1951TIP3   OH2 5816   0.453   6.756   4.263  0.2533 -0.2675  0.1423
 1951TIP3    H1 5817   0.368   6.800   4.262  0.7222  0.7379 -2.4473
 1951TIP3    H2 5818   0.464   6.722   4.174  1.0528 -3.5211  1.3179
 1952TIP3   OH2 5819   7.153   4.895   2.315 -0.6848  0.0556  0.0077
 1952TIP3    H1 5820   7.157   4.941   2.399  0.7698 -0.3773  0.2007
 1952TIP3    H2 5821   7.223   4.934   2.263  0.6384 -1.8804  0.1975
 1953TIP3   OH2 5822   1.579   4.893   3.859  0.4099 -0.6469  0.1624
 1953TIP3    H1 5823   1.593   4.849   3.775  1.7673  0.6822 -0.3574
 1953TIP3    H2 5824   1.589   4.986   3.839 -0.8416 -0.1865  1.5150
 1954TIP3   OH2 5825   1.812   4.908   1.171 -0.1840 -0.2444 -0.1240
 1954TIP3    H1 5826   1.720   4.903   1.147 -0.1108 -0.2552 -0.4007
 1954TIP3    H2 5827   1.842   4.817   1.172  0.6790 -0.1189 -3.3576
 1955TIP3   OH2 5828   3.579   1.993   4.139 -0.0990  0.0897  0.0906
 1955TIP3    H1 5829   3.640   1.949   4.080 -1.1029 -1.4200  0.1255
 1955TIP3    H2 5830   3.499   2.005   4.087 -0.2059  0.9087  0.4270
 1956TIP3   OH2 5831   5.153   3.447   2.407  0.1677 -0.4693  0.0692
 1956TIP3    H1 5832   5.088   3.403   2.352  1.2037  1.3968 -2.8611
 1956TIP3    H2 5833   5.237   3.412   2.379  0.7251  0.2412  0.7895
 1957TIP3   OH2 5834   4.719   6.383   3.847  0.1209  0.9165  0.0644
 1957TIP3    H1 5835   4.748   6.365   3.936  2.8584  0.5183 -0.8082
 1957TIP3    H2 5836   4.730   6.478   3.837  0.7841  0.8281 -0.1222
 1958TIP3   OH2 5837   3.379   4.173   2.559  0.4040 -0.0469 -0.2932
 1958TIP3    H1 5838   3.460   4.175   2.508  0.6371 -0.8066  0.0359
 1958TIP3    H2 5839   3.347   4.264   2.556  1.4233  0.3335 -0.1831
 1959TIP3   OH2 5840   1.665   3.512   0.979  0.1176 -0.1878  0.0727
 1959TIP3    H1 5841   1.752   3.541   0.953  0.1039 -0.2260 -0.0165
 1959TIP3    H2 5842   1.612   3.519   0.899  0.0780 -0.3126  0.0877
 1960TIP3   OH2 5843   2.583   1.754   3.838  0.1235  0.1611  0.1280
 1960TIP3    H1 5844   2.579   1.835   3.889 -1.3677 -0.4459  1.0392
 1960TIP3    H2 5845   2.512   1.700   3.873 -0.4584 -0.5968 -2.0779
 1961TIP3   OH2 5846   4.199   6.621   3.171 -0.0444  0.2629 -0.0867
 1961TIP3    H1 5847   4.162   6.678   3.238 -0.4418  2.3569 -1.9690
 1961TIP3    H2 5848   4.290   6.607   3.199 -0.5376  0.0361  1.4937
 1962TIP3   OH2 5849   5.755   1.213   0.949  0.2602 -0.2215  0.2369
 1962TIP3    H1 5850   5.688   1.265   0.905  0.4605  1.3573  1.6858
 1962TIP3    H2 5851   5.719   1.196   1.036  0.8101 -1.3228  0.2665
 1963TIP3   OH2 5852   6.859   1.193   2.348  0.2621 -0.2561  0.3431
 1963TIP3    H1 5853   6.870   1.103   2.377 -0.4411 -0.8198 -1.0252
 1963TIP3    H2 5854   6.911   1.199   2.268 -0.4961  0.2339 -0.1325
 1964TIP3   OH2 5855   5.422   0.151   2.829  0.6427  0.0574  0.3701
 1964TIP3    H1 5856   5.326   0.147   2.836  0.4658  2.4300  0.2423
 1964TIP3    H2 5857   5.439   0.151   2.735  0.7142  0.1086  0.3824
 1965TIP3   OH2 5858   4.009   0.423   3.913 -0.2982  0.5066  0.2559
 1965TIP3    H1 5859   4.098   0.414   3.879 -0.2381  0.7587  0.3485
 1965TIP3    H2 5860   3.980   0.510   3.885  0.2659  1.3206  2.0345
 1966TIP3   OH2 5861   1.308   1.591  -0.024 -0.0231  0.7342 -0.1923
 1966TIP3    H1 5862   1.248   1.663  -0.004 -1.3356 -0.2216 -0.5730
 1966TIP3    H2 5863   1.342   1.565   0.062 -0.0846  1.3367  0.0217
 1967TIP3   OH2 5864   5.923   1.498   0.658 -0.0611 -0.0987  0.2087
 1967TIP3    H1 5865   6.009   1.467   0.630  0.2698  1.6113 -0.8212
 1967TIP3    H2 5866   5.861   1.444   0.609  0.5072  1.3255 -2.2709
 1968TIP3   OH2 5867   6.012   3.009   1.184 -0.1761  0.3722  0.4713
 1968TIP3    H1 5868   5.969   2.946   1.243 -0.4659  0.1173 -0.0107
 1968TIP3    H2 5869   5.996   2.974   1.096 -3.1145  2.7588 -0.0981
 1969TIP3   OH2 5870   4.815   3.946   0.175 -0.0553  0.2713  0.4129
 1969TIP3    H1 5871   4.815   3.986   0.088  0.2160 -0.1671  0.2051
 1969TIP3    H2 5872   4.726   3.957   0.207 -0.0430  0.8215  0.2577
 1970TIP3   OH2 5873   0.675   2.095   4.702 -0.3937 -0.1148 -0.2572
 1970TIP3    H1 5874   0.697   2.125   4.791 -0.1996 -1.5228  0.1971
 1970TIP3    H2 5875   0.665   2.176   4.652 -1.5665  0.7628  1.2812
 1971TIP3   OH2 5876   1.611   2.574   5.494  0.6247 -0.8083 -0.2222
 1971TIP3    H1 5877   1.517   2.554   5.486  0.3275 -0.0816  1.1100
 1971TIP3    H2 5878   1.632   2.622   5.414 -0.5337  0.4338  0.1858
 1972TIP3   OH2 5879   4.431   4.448   2.187  0.3665  0.0838  0.0675
 1972TIP3    H1 5880   4.372   4.374   2.176  0.9491 -0.7254  1.9379
 1972TIP3    H2 5881   4.434   4.461   2.282  1.1161  1.8261 -0.1691
 1973TIP3   OH2 5882   3.706   6.125   4.772 -0.4274 -0.1256  0.2522
 1973TIP3    H1 5883   3.774   6.098   4.834  0.7122 -0.6491 -1.1595
 1973TIP3    H2 5884   3.738   6.208   4.737  0.5368 -1.2889 -1.8259
 1974TIP3   OH2 5885   3.321   5.489   5.548 -0.0273 -0.5307 -0.2183
 1974TIP3    H1 5886   3.361   5.575   5.562  0.2015 -0.2151 -2.3873
 1974TIP3    H2 5887   3.239   5.508   5.501 -0.3400 -1.4529 -0.0609
 1975TIP3   OH2 5888   7.221   1.362   0.195  0.2392  0.1415  0.2894
 1975TIP3    H1 5889   7.178   1.445   0.175  1.1398  0.3212 -1.0327
 1975TIP3    H2 5890   7.172   1.297   0.145 -0.8440 -0.2604  1.7906
 1976TIP3   OH2 5891   3.721   0.589   1.264 -0.7242  0.0140  0.2041
 1976TIP3    H1 5892   3.639   0.541   1.277 -1.1707  0.8330  0.4738
 1976TIP3    H2 5893   3.698   0.680   1.280  0.4097  0.1791  1.0635
 1977TIP3   OH2 5894   4.602   2.586   0.082  0.6025  0.5645  0.2182
 1977TIP3    H1 5895   4.672   2.583   0.016  0.8690  0.3937  0.5088
 1977TIP3    H2 5896   4.646   2.612   0.163  0.5526 -0.7364  0.6857
 1978TIP3   OH2 5897   1.555   5.969   3.893 -0.4998 -0.6135  0.1201
 1978TIP3    H1 5898   1.649   5.952   3.892 -0.3637 -0.0845  1.4580
 1978TIP3    H2 5899   1.515   5.885   3.868  0.3349 -0.2321 -2.8044
 1979TIP3   OH2 5900   2.256   3.523   2.090  0.4681  0.1545 -0.0569
 1979TIP3    H1 5901   2.224   3.449   2.142  1.2614 -1.3269 -1.5773
 1979TIP3    H2 5902   2.176   3.568   2.063 -0.2444 -1.5409 -1.0061
 1980TIP3   OH2 5903   1.511   6.356   3.361 -0.6687  0.1397  0.1834
 1980TIP3    H1 5904   1.601   6.387   3.370 -0.2473 -0.8797 -0.2719
 1980TIP3    H2 5905   1.467   6.424   3.311  0.5123 -0.4187 -1.7452
 1981TIP3   OH2 5906   5.976   1.151   5.615 -0.2859  0.0036 -0.2989
 1981TIP3    H1 5907   6.071   1.145   5.615 -0.1468  1.3740  1.7041
 1981TIP3    H2 5908   5.957   1.242   5.636 -2.0000 -0.6400  1.2876
 1982TIP3   OH2 5909   5.356   4.262   1.940  0.1834  0.5206  0.0504
 1982TIP3    H1 5910   5.336   4.173   1.910  2.6899 -0.2278  0.3719
 1982TIP3    H2 5911   5.422   4.294   1.879  0.6762  1.4440  1.0310
 1983TIP3   OH2 5912   0.454   0.707   3.243 -0.1924  0.3722  0.3191
 1983TIP3    H1 5913   0.399   0.751   3.308 -0.5159 -1.1773  1.1416
 1983TIP3    H2 5914   0.393   0.680   3.174  0.1842  2.2252 -0.8080
 1984TIP3   OH2 5915   5.423   5.552   1.179 -0.0328 -0.4581  0.3482
 1984TIP3    H1 5916   5.335   5.590   1.183 -1.1767 -2.9441  0.3867
 1984TIP3    H2 5917   5.466   5.584   1.258 -1.3188 -0.1469  0.9572
 1985TIP3   OH2 5918   1.407   2.100   2.205 -0.9676  0.4220 -1.1629
 1985TIP3    H1 5919   1.347   2.174   2.205  0.5892  1.7469 -0.2093
 1985TIP3    H2 5920   1.491   2.137   2.233 -0.4474 -1.9292  0.6646
 1986TIP3   OH2 5921   7.049   1.547   4.273  0.0391 -0.6295  0.0540
 1986TIP3    H1 5922   6.980   1.508   4.327 -1.4604  0.8900 -0.6863
 1986TIP3    H2 5923   7.110   1.586   4.336 -1.9220  1.5217  0.7653
 1987TIP3   OH2 5924   5.008   4.621   5.706  0.0919  0.7630  0.0618
 1987TIP3    H1 5925   5.064   4.581   5.640 -0.2060 -0.2656  0.4174
 1987TIP3    H2 5926   5.029   4.714   5.702 -0.0437  0.7625 -1.6024
 1988TIP3   OH2 5927   6.938   5.308   0.772  0.3255  0.1583  0.4612
 1988TIP3    H1 5928   6.939   5.237   0.708  0.7091 -0.4865  1.1672
 1988TIP3    H2 5929   7.030   5.333   0.782  0.2441  0.4167  0.5829
 1989TIP3   OH2 5930   5.966   4.833  -0.006  0.1142 -0.6089  0.1329
 1989TIP3    H1 5931   5.926   4.840   0.080  0.4551 -3.4824  0.6339
 1989TIP3    H2 5932   5.918   4.763  -0.049  0.5019  0.2119 -1.7239
 1990TIP3   OH2 5933   5.071   5.135   2.160  0.0859 -0.1807 -0.0245
 1990TIP3    H1 5934   5.148   5.130   2.216  1.7421  1.1888 -2.0210
 1990TIP3    H2 5935   5.023   5.212   2.193  2.1381  1.9068 -1.6348
 1991TIP3   OH2 5936   1.401   2.603   4.510  0.2881  0.0733  0.0735
 1991TIP3    H1 5937   1.469   2.656   4.469  0.1193  0.5885  0.4454
 1991TIP3    H2 5938   1.319   2.639   4.476  0.1722  0.0478  0.3246
 1992TIP3   OH2 5939   6.432   1.334   2.302  0.4457 -0.3902 -0.0594
 1992TIP3    H1 5940   6.366   1.265   2.303 -0.3436  0.3177 -0.9920
 1992TIP3    H2 5941   6.480   1.320   2.220  0.1227  0.2878 -0.3735
 1993TIP3   OH2 5942   1.410   0.914   2.020  0.6507 -0.2532 -0.0261
 1993TIP3    H1 5943   1.393   0.845   1.957  0.1406 -0.0012 -0.1704
 1993TIP3    H2 5944   1.337   0.975   2.010  1.0252  0.2423  0.1854
 1994TIP3   OH2 5945   4.357   1.790   1.417 -0.3342  0.8114 -0.5637
 1994TIP3    H1 5946   4.330   1.727   1.351  0.9760 -0.2589 -0.1327
 1994TIP3    H2 5947   4.311   1.763   1.496  1.0252 -0.3165 -0.1120
 1995TIP3   OH2 5948   0.400   1.561   1.390 -0.0218 -0.3431 -0.4515
 1995TIP3    H1 5949   0.386   1.495   1.458  0.1353  0.4221  0.3520
 1995TIP3    H2 5950   0.494   1.579   1.393 -0.0425 -0.1701 -0.7463
 1996TIP3   OH2 5951   5.763   3.545   4.199  0.0485 -0.2152 -0.4181
 1996TIP3    H1 5952   5.839   3.600   4.220  0.9907 -1.6597  0.1380
 1996TIP3    H2 5953   5.769   3.530   4.105  1.4759 -1.6744 -0.1508
 1997TIP3   OH2 5954   0.898   2.371   0.491 -0.0507 -0.2779  0.4893
 1997TIP3    H1 5955   0.823   2.312   0.501  0.2040 -0.8027 -0.6102
 1997TIP3    H2 5956   0.973   2.322   0.524 -0.1897  0.2964  1.7141
 1998TIP3   OH2 5957   0.960   1.506   2.946 -0.2945  0.4303  0.2145
 1998TIP3    H1 5958   0.950   1.589   2.900 -0.5906  0.0379 -0.4570
 1998TIP3    H2 5959   0.958   1.529   3.039 -0.0873  1.1992  0.0365
 1999TIP3   OH2 5960   6.125   5.427   0.561 -0.2958  0.1710  0.2589
 1999TIP3    H1 5961   6.051   5.426   0.500  0.1297 -1.2452 -0.2873
 1999TIP3    H2 5962   6.149   5.335   0.571  2.1683  0.6568 -0.5425
 2000TIP3   OH2 5963   2.892   2.131   1.747 -0.6751  0.0778  0.4735
 2000TIP3    H1 5964   2.921   2.190   1.817  1.8335  1.0126 -1.1940
 2000TIP3    H2 5965   2.852   2.189   1.682 -0.3219 -0.3487 -0.1392
 2001TIP3   OH2 5966   2.534   5.962   1.880 -0.0737 -0.4768  0.4483
 2001TIP3    H1 5967   2.526   6.027   1.950 -0.1364 -0.3503  0.3233
 2001TIP3    H2 5968   2.534   5.878   1.926  1.8242 -0.3421  0.7666
 2002TIP3   OH2 5969   0.582   4.104   3.103 -0.6346 -0.0650 -0.0525
 2002TIP3    H1 5970   0.581   4.012   3.075  0.4777 -0.3985  0.9285
 2002TIP3    H2 5971   0.669   4.136   3.076 -0.6852  0.4430  0.3772
 2003TIP3   OH2 5972   6.484   5.266   0.123  0.4780 -0.0400  0.1497
 2003TIP3    H1 5973   6.426   5.229   0.056  0.3221  1.3197 -0.4972
 2003TIP3    H2 5974   6.572   5.255   0.088  0.3515  1.4238 -0.7123
 2004TIP3   OH2 5975   4.203   0.541   4.759 -0.7334 -0.1682 -0.1446
 2004TIP3    H1 5976   4.282   0.578   4.799 -1.3715 -0.5923  1.5577
 2004TIP3    H2 5977   4.135   0.606   4.776 -1.5965 -1.4885  1.8326
 2005TIP3   OH2 5978   2.735   6.239   4.241 -0.0912  0.4009  0.1947
 2005TIP3    H1 5979   2.650   6.241   4.283 -0.2571 -1.2251 -0.0125
 2005TIP3    H2 5980   2.784   6.310   4.284 -1.0067  0.3169  1.4514
 2006TIP3   OH2 5981   3.010   1.990   4.955  0.1215 -0.0438 -0.0100
 2006TIP3    H1 5982   3.040   2.080   4.967 -1.3361  0.5738 -0.6761
 2006TIP3    H2 5983   3.090   1.938   4.956  1.0724  1.3319 -0.3135
 2007TIP3   OH2 5984   4.199   3.687   3.255  0.3926  0.3732  0.0718
 2007TIP3    H1 5985   4.248   3.606   3.240  1.0133  0.6661  0.4393
 2007TIP3    H2 5986   4.267   3.754   3.266  0.0407  0.3997  2.9316
 2008TIP3   OH2 5987   7.094   5.785   2.110 -0.0019  0.0005  0.0320
 2008TIP3    H1 5988   7.093   5.695   2.143  2.8055 -0.9958 -2.2056
 2008TIP3    H2 5989   7.018   5.789   2.051  0.3269 -1.2032 -0.5149
 2009TIP3   OH2 5990   7.063   0.287   5.604  0.2956 -0.0945  0.2450
 2009TIP3    H1 5991   7.039   0.258   5.516  0.6106 -2.4791  0.8783
 2009TIP3    H2 5992   6.981   0.318   5.643  0.0281  0.3269 -0.6398
 2010TIP3   OH2 5993   4.575  -0.001   2.422  0.3087  0.3754 -0.2889
 2010TIP3    H1 5994   4.633   0.073   2.436  0.8351 -0.0545 -0.1286
 2010TIP3    H2 5995   4.542   0.009   2.333  0.0991  0.9860 -0.1441
 2011TIP3   OH2 5996   4.315   6.490   0.156  0.4054 -0.3860  0.1755
 2011TIP3    H1 5997   4.261   6.419   0.121 -1.3497  1.1797 -0.5294
 2011TIP3    H2 5998   4.366   6.521   0.081 -1.4911  1.3374 -0.4941
 2012TIP3   OH2 5999   6.992   3.827   5.801 -0.0515  0.2602  0.1222
 2012TIP3    H1 6000   7.077   3.785   5.792 -0.3163 -0.7795  1.9144
 2012TIP3    H2 6001   6.960   3.798   5.886 -1.5698  1.7946  0.1322
 2013TIP3   OH2 6002   3.981   3.367   2.652 -0.1721 -0.0447  0.1040
 2013TIP3    H1 6003   3.945   3.279   2.642 -2.7284  0.8300  0.6732
 2013TIP3    H2 6004   3.916   3.424   2.609  1.1877  1.6018  0.1318
 2014TIP3   OH2 6005   0.641   4.408   3.622  0.1326  0.2368  0.5138
 2014TIP3    H1 6006   0.616   4.418   3.714  0.7381  0.5572  0.6477
 2014TIP3    H2 6007   0.718   4.464   3.612  0.4922 -0.3418 -0.0133
 2015TIP3   OH2 6008   3.613   4.198   3.027 -0.0230 -0.6418 -0.5805
 2015TIP3    H1 6009   3.618   4.198   2.931  2.0737  2.8038 -0.6388
 2015TIP3    H2 6010   3.524   4.227   3.046  0.0068  0.1543 -1.5594
 2016TIP3   OH2 6011   6.269   2.918   0.109 -0.3672  0.4449 -0.8128
 2016TIP3    H1 6012   6.221   2.914   0.192 -0.6271  1.4479 -0.9018
 2016TIP3    H2 6013   6.287   3.011   0.096 -0.8871  0.3837 -2.2003
 2017TIP3   OH2 6014   0.419   2.532   0.935 -0.2190 -0.0795  0.2441
 2017TIP3    H1 6015   0.431   2.449   0.981  0.0977  0.2256  0.7214
 2017TIP3    H2 6016   0.495   2.585   0.961  0.9033 -0.4853 -1.9194
 2018TIP3   OH2 6017   4.891   3.922   4.378  0.2603  0.9251 -0.0517
 2018TIP3    H1 6018   4.890   3.973   4.297  1.3569 -0.4794 -1.0080
 2018TIP3    H2 6019   4.983   3.910   4.398  0.0249 -0.2287  0.4252
 2019TIP3   OH2 6020   6.418   5.015   3.230 -0.0676  0.0807  0.4891
 2019TIP3    H1 6021   6.446   4.928   3.261 -0.5460 -0.2070  0.1259
 2019TIP3    H2 6022   6.331   5.000   3.192  0.5518  0.4004 -1.1154
 2020TIP3   OH2 6023   5.019   4.968   0.269 -0.0060 -0.3954 -0.2938
 2020TIP3    H1 6024   5.096   5.016   0.300 -0.1242  0.3168 -1.0756
 2020TIP3    H2 6025   5.002   5.004   0.182 -2.2869  0.7223  0.5338
 2021TIP3   OH2 6026   3.624   0.449   5.354  0.3692 -0.1286 -0.1690
 2021TIP3    H1 6027   3.560   0.377   5.349  0.5850 -0.2597 -1.2018
 2021TIP3    H2 6028   3.638   0.461   5.448  0.9390 -1.9787  0.0284
 2022TIP3   OH2 6029   3.900   5.863   5.657  0.1944  0.2835  0.0842
 2022TIP3    H1 6030   3.912   5.887   5.749 -0.4640  0.3574  0.1560
 2022TIP3    H2 6031   3.959   5.788   5.644  0.7937  0.6982  0.3807
 2023TIP3   OH2 6032   0.995   6.507   5.118  0.1056  0.2508 -0.2025
 2023TIP3    H1 6033   1.043   6.541   5.042  1.3896 -0.6893  0.1595
 2023TIP3    H2 6034   1.063   6.493   5.184 -1.0170  1.2018  1.1949
 2024TIP3   OH2 6035   6.161   5.374   2.832 -0.0164  0.1793 -0.1312
 2024TIP3    H1 6036   6.113   5.304   2.877  0.0886 -1.1214 -1.9413
 2024TIP3    H2 6037   6.099   5.448   2.832 -0.1008  0.1661  1.8708
 2025TIP3   OH2 6038   2.649   2.396   5.767  0.1106 -0.1818  0.2543
 2025TIP3    H1 6039   2.669   2.476   5.816 -1.2443  0.6795 -0.5191
 2025TIP3    H2 6040   2.722   2.337   5.786  0.6910  0.8993  1.5716
 2026TIP3   OH2 6041   7.209   6.035   2.127  0.9185  0.5185 -0.0057
 2026TIP3    H1 6042   7.253   6.029   2.211 -0.6073 -1.5190  0.7321
 2026TIP3    H2 6043   7.152   5.958   2.123 -1.4251  2.1591 -1.5259
 2027TIP3   OH2 6044   7.161   5.924   5.667  0.2541 -0.7449  0.5199
 2027TIP3    H1 6045   7.215   5.948   5.591  0.4579  1.3467  1.2597
 2027TIP3    H2 6046   7.216   5.943   5.743 -0.6516 -0.9239  1.2318
 2028TIP3   OH2 6047   7.023   3.422   1.957  0.9210 -0.1505  0.4661
 2028TIP3    H1 6048   6.999   3.400   2.048 -0.1101  2.1345  0.8091
 2028TIP3    H2 6049   7.029   3.337   1.913 -1.2548 -1.2001  2.0162
 2029TIP3   OH2 6050   2.945   6.749   5.578 -0.0509 -0.0439  0.2307
 2029TIP3    H1 6051   2.874   6.771   5.638  0.3968  0.1976  0.6924
 2029TIP3    H2 6052   2.960   6.656   5.590  0.0980  0.0207  0.5775
 2030TIP3   OH2 6053   4.242   0.138   3.588  0.1825  0.1264  0.2990
 2030TIP3    H1 6054   4.148   0.142   3.568 -0.2134 -2.4281  1.2134
 2030TIP3    H2 6055   4.285   0.160   3.506 -1.0704  4.0747  0.5013
 2031TIP3   OH2 6056   3.926   2.047   1.675  0.5405 -0.3143  0.3222
 2031TIP3    H1 6057   3.889   2.134   1.692 -2.2018 -0.7938 -2.4070
 2031TIP3    H2 6058   3.994   2.062   1.610 -0.6485 -0.2416 -0.9505
 2032TIP3   OH2 6059   4.468   5.814   4.119  0.3835  0.3059 -0.0553
 2032TIP3    H1 6060   4.532   5.792   4.051  0.3069 -0.2780  0.0575
 2032TIP3    H2 6061   4.398   5.749   4.108  0.1734  0.4674  0.3109
 2033TIP3   OH2 6062   1.657   0.788   5.745  0.3654 -0.2244 -0.4750
 2033TIP3    H1 6063   1.735   0.828   5.785  0.3191 -1.5122  0.9905
 2033TIP3    H2 6064   1.688   0.757   5.660  1.5154 -0.8077  0.1206
 2034TIP3   OH2 6065   5.971   0.368   4.516 -0.4859 -0.2563  0.7286
 2034TIP3    H1 6066   5.932   0.287   4.550  0.3868 -0.3096  1.6563
 2034TIP3    H2 6067   5.960   0.431   4.586  0.4428 -0.0794  0.7289
 2035TIP3   OH2 6068   4.204   5.629   5.359  0.7135 -0.1574  0.3172
 2035TIP3    H1 6069   4.262   5.665   5.293 -0.2417 -1.2784 -1.1874
 2035TIP3    H2 6070   4.176   5.545   5.324 -2.1402  0.4947  0.7427
 2036TIP3   OH2 6071   0.842   4.607   1.260  0.1991 -0.0034 -0.3621
 2036TIP3    H1 6072   0.787   4.646   1.192 -1.7805 -1.6859  0.1835
 2036TIP3    H2 6073   0.854   4.677   1.325 -0.8738  0.5514 -0.7541
 2037TIP3   OH2 6074   1.330   3.207   1.690 -0.0921  0.1447  0.3352
 2037TIP3    H1 6075   1.319   3.270   1.619  0.0389 -0.0146  0.1728
 2037TIP3    H2 6076   1.401   3.242   1.743  0.6397 -0.3450 -0.2884
 2038TIP3   OH2 6077   2.862   6.404   3.095  0.0432  0.5734 -0.2128
 2038TIP3    H1 6078   2.909   6.384   3.176 -1.0916 -1.1588  0.0746
 2038TIP3    H2 6079   2.876   6.326   3.040 -1.3332  0.6161 -0.6446
 2039TIP3   OH2 6080   0.606   6.490   2.546 -0.2281 -0.8376 -0.2956
 2039TIP3    H1 6081   0.679   6.437   2.515 -0.5557 -1.8735  0.6184
 2039TIP3    H2 6082   0.584   6.452   2.631  0.9387  2.1388  1.4815
 2040TIP3   OH2 6083   0.896   1.694   3.287  0.3092 -0.2123  0.1698
 2040TIP3    H1 6084   0.909   1.787   3.270 -0.7722 -0.2800 -1.1753
 2040TIP3    H2 6085   0.921   1.682   3.379  1.2776  1.2305  0.1166
 2041TIP3   OH2 6086   3.784   6.315   1.254 -0.5066  0.2368 -0.1557
 2041TIP3    H1 6087   3.712   6.344   1.198 -0.4773  0.6258  0.0032
 2041TIP3    H2 6088   3.811   6.394   1.301 -0.9365 -0.2091  0.8546
 2042TIP3   OH2 6089   2.661   2.626   2.050 -0.2687  0.1707 -0.3130
 2042TIP3    H1 6090   2.648   2.675   2.131 -1.4912 -2.7169  1.4137
 2042TIP3    H2 6091   2.662   2.692   1.981 -2.5651  2.5381  1.7211
 2043TIP3   OH2 6092   7.190   5.888   4.416 -0.2132  0.0769  0.1163
 2043TIP3    H1 6093   7.243   5.866   4.493 -0.0388 -0.2953 -0.1059
 2043TIP3    H2 6094   7.123   5.820   4.413 -0.5640  0.4101  0.2568
 2044TIP3   OH2 6095   6.537   2.107   1.283 -0.5929 -0.3475 -0.2017
 2044TIP3    H1 6096   6.556   2.070   1.197  1.1256  0.4786 -0.2304
 2044TIP3    H2 6097   6.619   2.097   1.332 -0.8836  1.0408  0.6293
 2045TIP3   OH2 6098   6.457   1.026   4.066  0.0388  0.1292  0.2545
 2045TIP3    H1 6099   6.423   1.114   4.053  0.7512  0.1701 -1.7701
 2045TIP3    H2 6100   6.383   0.968   4.049 -0.2665  0.3284  0.9203
 2046TIP3   OH2 6101   0.599   6.560   5.207  0.1655 -0.1405  0.0309
 2046TIP3    H1 6102   0.540   6.621   5.164  0.9007  0.6375  0.0927
 2046TIP3    H2 6103   0.546   6.519   5.275 -0.4325  0.1699 -0.2430
 2047TIP3   OH2 6104   4.728   0.241   2.406 -0.3823  0.0326  0.2549
 2047TIP3    H1 6105   4.668   0.311   2.378  0.2771  0.3596 -0.3906
 2047TIP3    H2 6106   4.738   0.254   2.500 -2.7464 -1.1584  0.7483
 2048TIP3   OH2 6107   3.876   0.088   5.732 -0.4470 -0.6056  0.2008
 2048TIP3    H1 6108   3.921   0.155   5.680 -0.9899  0.8311  1.5323
 2048TIP3    H2 6109   3.880   0.010   5.677  2.4830 -0.2191 -0.3240
 2049TIP3   OH2 6110   7.162   3.809   2.192  0.8313  0.2196  0.4690
 2049TIP3    H1 6111   7.225   3.799   2.263 -0.1294 -2.7008  1.0576
 2049TIP3    H2 6112   7.173   3.731   2.138 -1.2217  0.3358 -0.2369
 2050TIP3   OH2 6113   5.877   1.282   2.338 -0.5631 -0.1746  0.2203
 2050TIP3    H1 6114   5.814   1.246   2.400 -0.9621 -0.7577 -0.4916
 2050TIP3    H2 6115   5.891   1.372   2.366 -3.4443  0.7201 -0.8944
 2051TIP3   OH2 6116   5.384   4.307   4.966 -0.0890 -0.4263  0.2973
 2051TIP3    H1 6117   5.370   4.288   4.874 -0.1791  1.1871 -0.0370
 2051TIP3    H2 6118   5.384   4.220   5.008  0.1844 -1.1976 -1.2209
 2052TIP3   OH2 6119   6.951   3.856   0.366 -0.2710 -0.2390  0.3102
 2052TIP3    H1 6120   7.018   3.891   0.308 -1.8607 -1.2379 -2.3054
 2052TIP3    H2 6121   6.988   3.775   0.400 -0.2928 -1.0933 -1.5794
 2053TIP3   OH2 6122   4.123   5.773   4.902 -0.1207  0.9789  0.0415
 2053TIP3    H1 6123   4.173   5.693   4.884 -0.5682  0.2692  1.7106
 2053TIP3    H2 6124   4.062   5.781   4.829  0.3876  0.1603 -0.4874
 2054TIP3   OH2 6125   2.806   0.051   3.958 -0.1330 -0.0864  0.3206
 2054TIP3    H1 6126   2.730   0.110   3.957  0.4692  0.7158 -1.2093
 2054TIP3    H2 6127   2.772  -0.032   3.925 -0.2683  0.4017 -0.8036
 2055TIP3   OH2 6128   5.453   0.566   5.043 -0.1563 -0.2436  0.6312
 2055TIP3    H1 6129   5.375   0.620   5.029 -1.0158 -1.8135 -1.0353
 2055TIP3    H2 6130   5.423   0.495   5.099  0.2777 -0.4737  0.5780
 2056TIP3   OH2 6131   0.175   4.132   4.050  0.5580  0.3762  0.3966
 2056TIP3    H1 6132   0.178   4.036   4.043 -0.2386  0.4605 -3.4994
 2056TIP3    H2 6133   0.098   4.149   4.105  0.5445 -1.1980  0.9165
 2057TIP3   OH2 6134   4.645   3.186   2.367  0.1259 -0.0243 -0.5099
 2057TIP3    H1 6135   4.649   3.093   2.346  0.5190  0.1647 -1.3104
 2057TIP3    H2 6136   4.681   3.230   2.290  0.8059  0.7452  0.2245
 2058TIP3   OH2 6137   0.269   0.027   2.347  0.2396  0.1690 -0.1282
 2058TIP3    H1 6138   0.231   0.109   2.316  2.2513  1.0812 -0.3237
 2058TIP3    H2 6139   0.363   0.043   2.350  0.7173 -2.1952 -0.3078
 2059TIP3   OH2 6140   5.072   5.740   4.659 -0.2924 -0.4286  0.9765
 2059TIP3    H1 6141   5.120   5.822   4.670  0.5807 -0.6446 -0.8959
 2059TIP3    H2 6142   4.980   5.767   4.651  0.0880  0.4979 -0.6737
 2060TIP3   OH2 6143   4.484   6.570   3.205 -0.1832  0.4901  0.1240
 2060TIP3    H1 6144   4.471   6.527   3.120  1.0887 -0.6635  0.4755
 2060TIP3    H2 6145   4.497   6.662   3.184  0.5342  0.1566 -0.9805
 2061TIP3   OH2 6146   6.694   4.556   0.012 -0.2162 -0.1574  0.1726
 2061TIP3    H1 6147   6.633   4.593   0.076 -1.5839 -0.2752 -0.9878
 2061TIP3    H2 6148   6.760   4.624  -0.000 -1.2192  0.8269  0.0412
 2062TIP3   OH2 6149   0.523   0.801   1.296 -0.0069  0.0656  0.4035
 2062TIP3    H1 6150   0.477   0.790   1.213  0.7528  0.8752 -0.1473
 2062TIP3    H2 6151   0.509   0.893   1.319  1.2588  0.3166  0.2516
 2063TIP3   OH2 6152   5.151   4.436   2.015 -0.5506  0.7692  0.3380
 2063TIP3    H1 6153   5.218   4.384   1.971  0.0287  1.5849  0.2488
 2063TIP3    H2 6154   5.098   4.371   2.061  2.0828  0.2561  2.9440
 2064TIP3   OH2 6155   6.814   5.619   3.698  0.2186  0.6270 -0.2490
 2064TIP3    H1 6156   6.745   5.575   3.746  1.0821 -1.9593 -1.1869
 2064TIP3    H2 6157   6.796   5.597   3.606  1.8177  0.5287 -0.5651
 2065TIP3   OH2 6158   4.163   5.030   2.202 -0.4435  0.2945  0.0703
 2065TIP3    H1 6159   4.112   5.102   2.240  0.0397  0.8821 -0.3795
 2065TIP3    H2 6160   4.253   5.061   2.203 -0.3623  0.1394 -1.1141
 2066TIP3   OH2 6161   5.167   0.398   1.996 -0.5838 -0.0617  0.0274
 2066TIP3    H1 6162   5.084   0.414   1.951 -0.8717 -0.3845  0.4356
 2066TIP3    H2 6163   5.188   0.482   2.037 -0.3007  0.2453 -0.7278
 2067TIP3   OH2 6164   6.268   5.588   1.338 -0.2981 -0.4401 -0.5128
 2067TIP3    H1 6165   6.181   5.585   1.298 -0.5369 -1.3909  0.0549
 2067TIP3    H2 6166   6.253   5.616   1.428  0.0029 -0.4816 -0.4462
 2068TIP3   OH2 6167   4.286   5.308   2.102  0.1272  0.2688  0.0678
 2068TIP3    H1 6168   4.337   5.380   2.066 -0.1540 -0.1978 -1.2944
 2068TIP3    H2 6169   4.348   5.262   2.159  0.6330  0.8892  0.0356
 2069TIP3   OH2 6170   4.327   5.737   2.234  0.4241  0.4446 -0.0231
 2069TIP3    H1 6171   4.317   5.829   2.210  0.2086  0.3071 -0.4715
 2069TIP3    H2 6172   4.249   5.695   2.197 -0.2358  0.3256  1.4499
 2070TIP3   OH2 6173   0.761   4.822   0.220 -0.7261 -0.1264 -0.2777
 2070TIP3    H1 6174   0.765   4.728   0.237  1.1642  0.2662  2.0721
 2070TIP3    H2 6175   0.715   4.859   0.296 -0.6557  0.9192 -0.7203
 2071TIP3   OH2 6176   0.936   5.982   3.777  0.1999 -0.0829 -0.1409
 2071TIP3    H1 6177   1.026   6.016   3.786 -0.0020 -0.1158  3.0778
 2071TIP3    H2 6178   0.930   5.913   3.842 -1.7895 -1.0636 -1.2717
 2072TIP3   OH2 6179   4.754   5.859   1.569  0.1402  0.0093  0.2450
 2072TIP3    H1 6180   4.691   5.898   1.509  0.2022 -1.3903 -0.7950
 2072TIP3    H2 6181   4.810   5.931   1.596  0.2614  0.6712 -1.6015
 2073TIP3   OH2 6182   5.678   3.269   5.472 -0.1415  0.2517 -0.2457
 2073TIP3    H1 6183   5.755   3.284   5.417 -0.2691  0.7524 -0.2931
 2073TIP3    H2 6184   5.697   3.314   5.554 -0.2873  0.1870 -0.1753
 2074TIP3   OH2 6185   5.390   2.435   3.100  0.3166  0.4669 -0.3305
 2074TIP3    H1 6186   5.416   2.351   3.063  0.0811  0.6003 -0.8038
 2074TIP3    H2 6187   5.419   2.499   3.035  0.1327  0.7229 -0.1588
 2075TIP3   OH2 6188   5.940   0.518   2.612 -0.5032 -0.0848 -0.0551
 2075TIP3    H1 6189   5.966   0.473   2.693 -0.5683  1.8409  1.1163
 2075TIP3    H2 6190   5.980   0.467   2.542 -0.7950 -2.0649  1.1421
 2076TIP3   OH2 6191   4.891   5.780   1.311  0.0904  0.2550 -0.7602
 2076TIP3    H1 6192   4.969   5.832   1.331  1.0049 -1.1214 -0.6907
 2076TIP3    H2 6193   4.841   5.779   1.393  1.2730 -1.0043 -0.0267
 2077TIP3   OH2 6194   7.079   6.686   0.818 -0.5955  0.0762  0.4381
 2077TIP3    H1 6195   7.142   6.625   0.779  1.7411  1.8283  1.2535
 2077TIP3    H2 6196   7.004   6.683   0.760  0.4076 -1.7730 -0.8676
 2078TIP3   OH2 6197   1.952   2.558   3.811 -0.1580 -0.2730  0.5308
 2078TIP3    H1 6198   2.016   2.513   3.866 -0.1199 -1.2321 -0.2719
 2078TIP3    H2 6199   1.953   2.648   3.841  3.0583  0.2320 -0.7706
 2079TIP3   OH2 6200   5.082   0.420   2.699 -0.0577 -0.1174  0.3606
 2079TIP3    H1 6201   5.056   0.450   2.611  0.2234  0.0551  0.3363
 2079TIP3    H2 6202   5.175   0.440   2.704 -0.6466  2.7973  1.8647
 2080TIP3   OH2 6203   1.621   5.728   2.191 -0.6545 -0.2070 -0.2342
 2080TIP3    H1 6204   1.689   5.789   2.219 -1.3007  1.1276 -1.4315
 2080TIP3    H2 6205   1.539   5.766   2.223 -1.0882 -0.3144 -1.1791
 2081TIP3   OH2 6206   7.096   0.395   4.709 -0.4978  0.0174  0.1864
 2081TIP3    H1 6207   7.080   0.486   4.734 -2.3886  0.1180 -1.1360
 2081TIP3    H2 6208   7.008   0.359   4.693  0.3221 -1.1836 -2.1395
 2082TIP3   OH2 6209   0.083   0.101   3.986 -0.2873 -0.5174  0.3253
 2082TIP3    H1 6210   0.172   0.082   3.957 -0.3973  1.4602 -1.5724
 2082TIP3    H2 6211   0.086   0.191   4.016 -1.4138 -0.8258  1.4794
 2083TIP3   OH2 6212   6.097   3.701   3.257  0.5275 -0.0777  0.2796
 2083TIP3    H1 6213   6.146   3.647   3.319 -1.2643 -0.2653  1.6255
 2083TIP3    H2 6214   6.011   3.713   3.298 -1.2671 -1.3108 -2.7090
 2084TIP3   OH2 6215   6.822   3.035   1.388  0.1587 -0.2020 -0.5895
 2084TIP3    H1 6216   6.805   3.113   1.441  0.1642 -0.3983 -0.2917
 2084TIP3    H2 6217   6.736   2.994   1.376  0.5334 -2.3015  2.6504
 2085TIP3   OH2 6218   1.252   1.331   1.727  0.4284  0.5394 -0.3036
 2085TIP3    H1 6219   1.261   1.392   1.800  1.7530  0.4493 -0.3627
 2085TIP3    H2 6220   1.158   1.330   1.708  0.2575  1.7646  0.3648
 2086TIP3   OH2 6221   3.191   4.582   0.327  0.1917 -0.2575  0.0930
 2086TIP3    H1 6222   3.209   4.654   0.267 -1.7098  0.1482 -0.0420
 2086TIP3    H2 6223   3.101   4.556   0.307  0.6315 -2.2974  0.5316
 2087TIP3   OH2 6224   5.601   3.111   2.766 -0.1997  1.1792 -0.4041
 2087TIP3    H1 6225   5.598   3.128   2.672  0.6590  0.4205 -0.5852
 2087TIP3    H2 6226   5.618   3.196   2.806 -0.0677  1.4196 -0.9686
 2088TIP3   OH2 6227   6.693   2.335   3.527  0.1517 -0.2227  0.2634
 2088TIP3    H1 6228   6.654   2.369   3.446 -0.5491 -1.5266  0.0273
 2088TIP3    H2 6229   6.618   2.311   3.581  0.5945  1.3586  1.6603
 2089TIP3   OH2 6230   2.104   0.074   3.250  0.0173  0.2911  0.5502
 2089TIP3    H1 6231   2.094   0.054   3.343  0.1943 -1.7858  0.1709
 2089TIP3    H2 6232   2.015   0.083   3.217 -0.1987 -1.7625  0.4225
 2090TIP3   OH2 6233   1.667   2.972   3.638 -0.4601 -0.1452 -0.8820
 2090TIP3    H1 6234   1.626   2.886   3.629  0.6997 -1.1356  2.0452
 2090TIP3    H2 6235   1.760   2.956   3.620 -0.0049  0.1154  1.0304
 2091TIP3   OH2 6236   1.674   5.778   0.760  0.4697  0.8370 -0.2883
 2091TIP3    H1 6237   1.621   5.704   0.790  0.5707 -0.2009 -2.4285
 2091TIP3    H2 6238   1.729   5.800   0.835 -1.7635  0.8609  1.4537
 2092TIP3   OH2 6239   0.567   2.704   4.288  0.6876  0.9336 -0.4360
 2092TIP3    H1 6240   0.624   2.695   4.211  0.0371  1.3529 -0.9786
 2092TIP3    H2 6241   0.487   2.657   4.264  1.2828 -0.8422  0.8500
 2093TIP3   OH2 6242   6.719   2.604   0.870  0.4264 -0.1049  0.0574
 2093TIP3    H1 6243   6.702   2.551   0.948 -1.3284 -0.7076 -0.6868
 2093TIP3    H2 6244   6.780   2.672   0.900 -0.7546  0.1237  2.1555
 2094TIP3   OH2 6245   0.497   6.331   4.780  0.6557  0.3251 -0.0062
 2094TIP3    H1 6246   0.427   6.345   4.716  0.6839 -2.4032 -0.7669
 2094TIP3    H2 6247   0.562   6.398   4.759 -1.0968  2.0808 -0.1298
 2095TIP3   OH2 6248   5.806   4.370   1.750  0.2319  0.4069 -0.0594
 2095TIP3    H1 6249   5.843   4.450   1.712 -0.8422  0.2815 -1.4548
 2095TIP3    H2 6250   5.766   4.399   1.831  0.2838  1.2059 -0.3062
 2096TIP3   OH2 6251   4.206   2.092   3.750 -0.0682  0.6979 -0.4712
 2096TIP3    H1 6252   4.190   2.095   3.844  0.2260  0.4427 -0.4130
 2096TIP3    H2 6253   4.180   2.179   3.719 -0.6215  0.6175 -0.2305
 2097TIP3   OH2 6254   7.016   1.009   1.574  0.2083 -0.3028 -0.3482
 2097TIP3    H1 6255   6.928   1.046   1.565  1.0894  2.6680  1.5651
 2097TIP3    H2 6256   7.008   0.946   1.646  0.1560  2.6458  2.4858
 2098TIP3   OH2 6257   5.521   1.019   5.192 -0.4374 -0.2268 -0.1773
 2098TIP3    H1 6258   5.504   1.090   5.253  0.6164  0.4333 -0.6315
 2098TIP3    H2 6259   5.608   0.986   5.216  0.1170  0.2281 -1.4810
 2099TIP3   OH2 6260   7.188   3.289   0.984  0.3782  0.2305 -1.0128
 2099TIP3    H1 6261   7.188   3.240   1.066  0.8550  1.9325  0.0628
 2099TIP3    H2 6262   7.175   3.223   0.916 -2.9382 -0.9517  0.5772
 2100TIP3   OH2 6263   2.526   1.445   5.176 -0.7571 -0.3894  0.0824
 2100TIP3    H1 6264   2.485   1.398   5.249 -0.7680 -1.7159 -0.7558
 2100TIP3    H2 6265   2.616   1.460   5.205 -1.0632  0.1109  0.8172
 2101TIP3   OH2 6266   5.248   5.168   1.321 -0.2194  0.0821 -0.3558
 2101TIP3    H1 6267   5.267   5.074   1.325  0.6933  0.2345 -0.7732
 2101TIP3    H2 6268   5.167   5.174   1.271  1.0412 -0.3684 -2.5888
 2102TIP3   OH2 6269   3.833   4.194   1.459  0.1713  0.3654 -0.3096
 2102TIP3    H1 6270   3.924   4.222   1.450  0.1623  0.7140  0.6260
 2102TIP3    H2 6271   3.795   4.207   1.372  0.2990  2.8185 -0.0485
 2103TIP3   OH2 6272   4.052   1.586   5.203 -0.6084 -0.0534  0.1256
 2103TIP3    H1 6273   4.002   1.510   5.174  0.6131 -1.2708  1.1040
 2103TIP3    H2 6274   4.057   1.577   5.298  0.2401  0.8345  0.1816
 2104TIP3   OH2 6275   5.582   2.720   3.161 -0.3329  0.2175  0.7454
 2104TIP3    H1 6276   5.495   2.739   3.128 -0.9396  0.4651  2.3619
 2104TIP3    H2 6277   5.640   2.779   3.113 -0.9716 -0.2867 -0.6894
 2105TIP3   OH2 6278   6.787   5.949   2.561  0.3012  0.4133 -0.3986
 2105TIP3    H1 6279   6.855   6.017   2.553  1.7254 -0.5718  2.1752
 2105TIP3    H2 6280   6.704   5.997   2.553  1.2627  2.3849  0.6859
 2106TIP3   OH2 6281   5.614   5.452   5.297 -0.1315  0.6437  0.3655
 2106TIP3    H1 6282   5.643   5.426   5.210 -0.9301  2.1182 -0.3975
 2106TIP3    H2 6283   5.666   5.399   5.357  0.8770  0.0254 -0.9949
 2107TIP3   OH2 6284   6.087   0.354   5.477  0.0688 -0.1307  0.2323
 2107TIP3    H1 6285   6.063   0.443   5.505  0.1890  0.8388 -2.4292
 2107TIP3    H2 6286   6.081   0.301   5.557 -0.3990  2.1722  1.8324
 2108TIP3   OH2 6287   4.306   3.892   1.394  0.4413 -0.7808  0.5938
 2108TIP3    H1 6288   4.368   3.942   1.446 -0.7271 -0.5899  1.8736
 2108TIP3    H2 6289   4.274   3.824   1.454 -0.7316 -0.7305  0.0502
 2109TIP3   OH2 6290   4.981   0.501   2.454 -0.0280  0.2034 -0.0588
 2109TIP3    H1 6291   5.010   0.590   2.434 -1.0227  0.2954 -1.2822
 2109TIP3    H2 6292   4.942   0.470   2.372  1.4346 -1.8504 -0.0635
 2110TIP3   OH2 6293   6.977   6.142   4.019 -0.1877  0.3922  0.0584
 2110TIP3    H1 6294   6.988   6.154   3.925  0.3905 -0.2121  0.0377
 2110TIP3    H2 6295   7.039   6.203   4.059  1.8963 -1.5145 -0.0271
 2111TIP3   OH2 6296   0.902   6.058   3.234 -1.1466 -0.3023 -0.3095
 2111TIP3    H1 6297   0.926   6.133   3.289 -1.0373 -1.1706  0.8618
 2111TIP3    H2 6298   0.845   6.005   3.289  0.3611 -2.0980 -0.3654
 2112TIP3   OH2 6299   5.351   0.406   0.863 -0.0637  0.0609  0.0616
 2112TIP3    H1 6300   5.351   0.452   0.779 -1.0367 -0.4588 -0.2298
 2112TIP3    H2 6301   5.442   0.411   0.892 -0.1079  2.1383  0.0317
 2113TIP3   OH2 6302   4.236   2.263   2.142 -0.1446  0.3145  0.3135
 2113TIP3    H1 6303   4.191   2.199   2.197  1.4761 -0.6007  0.6508
 2113TIP3    H2 6304   4.198   2.251   2.055 -0.5929 -0.3958  0.5977
 2114TIP3   OH2 6305   1.263  -0.031   2.144 -0.1067  0.0896 -1.0386
 2114TIP3    H1 6306   1.338   0.007   2.099  0.5306  0.0418 -0.0486
 2114TIP3    H2 6307   1.204   0.043   2.159  0.5328  0.4662 -0.2967
 2115TIP3   OH2 6308   6.281   1.097   1.154 -0.2232  0.7932  0.5576
 2115TIP3    H1 6309   6.219   1.157   1.112  1.0623  1.6097 -0.2692
 2115TIP3    H2 6310   6.274   1.116   1.247 -0.5120  1.5832  0.3798
 2116TIP3   OH2 6311   7.073   1.692   0.098 -0.0189  0.1576 -0.2577
 2116TIP3    H1 6312   7.082   1.760   0.164 -2.4318  0.1575  0.1441
 2116TIP3    H2 6313   7.073   1.739   0.015 -0.1190  0.4821 -0.0757
 2117TIP3   OH2 6314   0.850   0.856   3.499  0.7550 -0.0167  0.3953
 2117TIP3    H1 6315   0.899   0.793   3.550 -1.2339 -0.8348  1.4143
 2117TIP3    H2 6316   0.795   0.803   3.442  0.9188  0.8595 -0.6077
 2118TIP3   OH2 6317   2.798   0.356   3.501 -0.2301 -0.6093 -0.1177
 2118TIP3    H1 6318   2.822   0.275   3.545 -0.0470 -0.6331 -0.2589
 2118TIP3    H2 6319   2.881   0.403   3.491 -0.3073 -0.4923 -0.2113
 2119TIP3   OH2 6320   0.491   1.054   5.396 -0.0398  0.1551 -0.1813
 2119TIP3    H1 6321   0.498   1.116   5.323 -0.0665  0.1957 -0.1497
 2119TIP3    H2 6322   0.482   1.109   5.473  0.5497  0.1188 -0.0829
 2120TIP3   OH2 6323   0.407   6.575   1.741  0.0774 -0.1275  0.2242
 2120TIP3    H1 6324   0.433   6.483   1.738  1.1241  0.0300  2.4313
 2120TIP3    H2 6325   0.313   6.573   1.761  0.3416 -0.7700  1.5528
 2121TIP3   OH2 6326   0.816   1.097   3.103 -0.3147 -0.0898  0.0862
 2121TIP3    H1 6327   0.751   1.139   3.047 -1.1057 -1.8153 -0.3594
 2121TIP3    H2 6328   0.817   1.150   3.183 -1.1905  0.8117 -0.4783
 2122TIP3   OH2 6329   1.345   0.511   4.606  0.0098  0.0863  0.2120
 2122TIP3    H1 6330   1.385   0.439   4.559  0.2741  0.6514 -0.4496
 2122TIP3    H2 6331   1.352   0.487   4.698 -0.0278 -0.7837 -0.0114
 2123TIP3   OH2 6332   3.640   4.693   0.516  0.1673  0.1341  0.1872
 2123TIP3    H1 6333   3.565   4.684   0.457  0.1765 -1.3733  0.3823
 2123TIP3    H2 6334   3.710   4.644   0.473  0.6801  0.4855  0.6114
 2124TIP3   OH2 6335   6.934   4.886   1.011 -0.1894  0.2193  0.0613
 2124TIP3    H1 6336   6.894   4.916   1.093  1.6352 -0.2398  1.1916
 2124TIP3    H2 6337   6.966   4.967   0.970 -0.3366  0.3735  0.2478
 2125TIP3   OH2 6338   3.088   0.642   1.032  0.3908 -0.2765 -0.3456
 2125TIP3    H1 6339   3.151   0.640   1.104  0.6971  0.0280 -0.5987
 2125TIP3    H2 6340   3.135   0.604   0.958  0.8669  1.4541 -0.9787
 2126TIP3   OH2 6341   6.689   1.945   4.610 -0.3551 -0.3315 -0.3923
 2126TIP3    H1 6342   6.711   1.858   4.575  0.3628 -0.1138 -0.5003
 2126TIP3    H2 6343   6.761   1.965   4.670 -1.1214 -0.3191  0.5532
 2127TIP3   OH2 6344   3.653   6.236   2.391 -0.6732 -0.4397  0.1170
 2127TIP3    H1 6345   3.623   6.235   2.300 -1.0845  0.0118  0.2456
 2127TIP3    H2 6346   3.718   6.166   2.395 -0.5427 -0.3678 -0.5625
 2128TIP3   OH2 6347   3.270   5.765   4.516 -0.9775  0.0772 -0.9920
 2128TIP3    H1 6348   3.292   5.852   4.551  0.0655 -0.5312 -0.0581
 2128TIP3    H2 6349   3.294   5.770   4.423 -0.2173  0.5736 -0.7805
 2129TIP3   OH2 6350   2.458   3.024   0.002 -0.2767  0.8786  0.0885
 2129TIP3    H1 6351   2.367   3.040   0.028 -0.3908  2.1984 -0.9649
 2129TIP3    H2 6352   2.509   3.040   0.081 -0.9365  0.2574  0.6560
 2130TIP3   OH2 6353   5.094   1.413   4.869  0.0289 -0.1046 -0.2081
 2130TIP3    H1 6354   5.041   1.484   4.907 -0.0355 -0.5766  0.6241
 2130TIP3    H2 6355   5.170   1.457   4.831 -0.2046  0.4433 -0.0519
 2131TIP3   OH2 6356   5.785   4.303   2.460  0.1192 -0.1121  0.1423
 2131TIP3    H1 6357   5.783   4.389   2.418 -1.2961 -0.2690 -0.1630
 2131TIP3    H2 6358   5.820   4.244   2.394 -0.3928 -0.0362 -0.2017
 2132TIP3   OH2 6359   2.493   1.461   0.063  0.1172  0.3507 -0.6247
 2132TIP3    H1 6360   2.422   1.455   0.127  0.6349 -0.1619 -0.0827
 2132TIP3    H2 6361   2.560   1.401   0.096 -1.3605 -3.6212 -4.0028
 2133TIP3   OH2 6362   4.882   3.240   4.659 -0.1911  0.0458 -0.0944
 2133TIP3    H1 6363   4.877   3.318   4.714 -0.3927  0.2423 -0.3833
 2133TIP3    H2 6364   4.948   3.262   4.593 -0.0355 -0.1423 -0.0014
 2134TIP3   OH2 6365   6.072   5.577   4.152 -0.2938 -0.5302 -0.4832
 2134TIP3    H1 6366   6.031   5.564   4.237  0.6076  0.6977  0.1803
 2134TIP3    H2 6367   6.145   5.515   4.150  1.1705  1.0701  0.7075
 2135TIP3   OH2 6368   2.182   5.117   4.786  0.0369 -0.8438 -0.1620
 2135TIP3    H1 6369   2.105   5.164   4.753 -0.4160 -1.9222 -0.7039
 2135TIP3    H2 6370   2.244   5.118   4.714  0.8954  0.7612  0.5676
 2136TIP3   OH2 6371   1.471   6.090   4.433 -0.4779  0.3024 -0.7321
 2136TIP3    H1 6372   1.393   6.050   4.394 -0.0659 -0.4787 -0.7846
 2136TIP3    H2 6373   1.510   6.141   4.362  0.6019 -1.5999 -1.5963
 2137TIP3   OH2 6374   5.319   1.927   2.100 -0.0286  0.1122 -0.0050
 2137TIP3    H1 6375   5.271   1.862   2.150  1.1741 -0.6379  0.2154
 2137TIP3    H2 6376   5.308   2.009   2.149 -0.0193 -0.3168  0.7129
 2138TIP3   OH2 6377   2.915   1.860   1.812 -0.1735 -0.4320  0.0636
 2138TIP3    H1 6378   2.923   1.858   1.907  0.8915 -1.1016 -0.0233
 2138TIP3    H2 6379   2.913   1.953   1.790  1.7542 -0.2171  0.6019
 2139TIP3   OH2 6380   6.131   3.068   3.880  0.2845 -0.1006 -0.2741
 2139TIP3    H1 6381   6.174   3.097   3.800  0.3167 -2.8914 -1.3828
 2139TIP3    H2 6382   6.203   3.041   3.937  0.2018  0.4721  0.1065
 2140TIP3   OH2 6383   0.828   5.897   0.500 -0.0241  0.4329  0.2158
 2140TIP3    H1 6384   0.863   5.951   0.429 -0.3011  2.2823  1.4135
 2140TIP3    H2 6385   0.879   5.816   0.496  2.2104  1.7588 -0.0926
 2141TIP3   OH2 6386   5.201   5.179   0.353 -0.0056  0.2097  0.6548
 2141TIP3    H1 6387   5.284   5.132   0.363 -0.1611  0.0036  1.0006
 2141TIP3    H2 6388   5.208   5.222   0.268 -0.1148 -0.9440  0.0386
 2142TIP3   OH2 6389   1.303   3.477   2.369  0.4878  0.0217  0.8731
 2142TIP3    H1 6390   1.265   3.564   2.367  0.2488 -0.0626  1.4674
 2142TIP3    H2 6391   1.293   3.443   2.280  0.6478  0.6222  0.6238
 2143TIP3   OH2 6392   4.598   2.581   5.676 -0.6256 -0.0353  0.2901
 2143TIP3    H1 6393   4.513   2.567   5.717 -0.3746 -0.7469  0.6010
 2143TIP3    H2 6394   4.651   2.506   5.706  0.1487  0.4806  0.2350
 2144TIP3   OH2 6395   2.193   6.015   5.717 -0.1941 -0.3657  0.3257
 2144TIP3    H1 6396   2.106   6.044   5.743 -0.3725 -1.0990  0.5827
 2144TIP3    H2 6397   2.177   5.935   5.667  0.2854 -0.0846 -0.2859
 2145TIP3   OH2 6398   5.504   0.746   4.515  0.1023 -0.0390  0.2544
 2145TIP3    H1 6399   5.522   0.828   4.561  4.6011 -0.6968  0.1359
 2145TIP3    H2 6400   5.493   0.772   4.424 -0.9791  0.6098  0.5571
 2146TIP3   OH2 6401   3.187   6.476   1.404 -0.1015 -0.2192 -0.2894
 2146TIP3    H1 6402   3.262   6.506   1.456  0.9258 -1.2841 -1.0856
 2146TIP3    H2 6403   3.151   6.402   1.454  1.1352 -1.5054 -1.2109
 2147TIP3   OH2 6404   5.945   2.877   5.212 -0.2501  0.2801  0.2115
 2147TIP3    H1 6405   5.941   2.962   5.169 -3.6142  0.9164  1.4932
 2147TIP3    H2 6406   6.002   2.891   5.288  1.3208  0.5930 -0.9677
 2148TIP3   OH2 6407   1.311   4.686   5.247 -0.2400  0.4343  0.0222
 2148TIP3    H1 6408   1.307   4.591   5.249 -1.9316  0.4662 -0.3466
 2148TIP3    H2 6409   1.301   4.709   5.155  3.2896  0.9426 -0.3832
 2149TIP3   OH2 6410   5.034   4.306   0.488 -0.2971 -0.3608  0.0413
 2149TIP3    H1 6411   4.947   4.344   0.473  0.0296 -0.0184 -1.1239
 2149TIP3    H2 6412   5.079   4.317   0.404  0.4201 -1.7320  0.2264
 2150TIP3   OH2 6413   5.565   2.426   1.705  0.1694  0.1174 -0.5591
 2150TIP3    H1 6414   5.622   2.362   1.663  0.8123  0.9129 -0.9267
 2150TIP3    H2 6415   5.477   2.403   1.675  0.5091  0.0569 -1.5478
 2151TIP3   OH2 6416   6.712   4.935   5.692 -0.0059  0.1192  0.1814
 2151TIP3    H1 6417   6.690   4.894   5.609  1.6695 -1.1692  0.3211
 2151TIP3    H2 6418   6.790   4.988   5.672  1.0066 -0.9737  1.0893
 2152TIP3   OH2 6419   1.774   5.338   1.710 -0.6667 -0.2540  0.1266
 2152TIP3    H1 6420   1.743   5.392   1.637 -0.2622 -0.1348  0.0410
 2152TIP3    H2 6421   1.754   5.248   1.684  1.3120 -0.4066 -1.0789
 2153TIP3   OH2 6422   2.488   5.125   5.358  0.6566 -0.1851 -0.3234
 2153TIP3    H1 6423   2.500   5.153   5.449  0.3669 -0.1223 -0.3048
 2153TIP3    H2 6424   2.554   5.176   5.310  0.2085  0.4592 -0.2726
 2154TIP3   OH2 6425   4.315   0.299   5.283  0.4596  0.1900 -0.4157
 2154TIP3    H1 6426   4.360   0.338   5.207  0.5807  0.8651 -0.0061
 2154TIP3    H2 6427   4.229   0.274   5.249 -0.2099  2.2352 -0.3366
 2155TIP3   OH2 6428   0.959   4.457   2.469 -0.3284 -0.5294 -0.1132
 2155TIP3    H1 6429   1.015   4.518   2.516 -1.4939 -1.2123  2.3002
 2155TIP3    H2 6430   0.994   4.457   2.379  2.5171  0.2342  0.8845
 2156TIP3   OH2 6431   4.880   2.088   1.196 -0.2147 -0.1672 -0.0583
 2156TIP3    H1 6432   4.799   2.134   1.217 -1.2152 -0.6577 -2.4582
 2156TIP3    H2 6433   4.899   2.036   1.274 -1.9659  0.3162  0.7402
 2157TIP3   OH2 6434   6.824   0.303   1.487  0.7448 -0.8300 -0.2309
 2157TIP3    H1 6435   6.746   0.354   1.465  1.8266  2.0639  1.9779
 2157TIP3    H2 6436   6.863   0.282   1.402 -0.9107  0.1395 -1.3006
 2158TIP3   OH2 6437   1.545   1.565   2.388 -0.3501  0.3367 -0.2467
 2158TIP3    H1 6438   1.478   1.617   2.344  0.4293  1.1858 -0.4621
 2158TIP3    H2 6439   1.579   1.622   2.457  1.3172  0.5758 -1.2148
 2159TIP3   OH2 6440   4.629   6.049   1.427  0.2250 -0.1484  0.1920
 2159TIP3    H1 6441   4.586   6.122   1.472 -0.7413 -0.1990 -0.6147
 2159TIP3    H2 6442   4.632   6.075   1.335  0.0530 -1.0313 -0.0707
 2160TIP3   OH2 6443   0.647   1.625   2.845  0.2263 -0.0174 -0.0763
 2160TIP3    H1 6444   0.678   1.537   2.824 -0.9756 -0.5570  0.3201
 2160TIP3    H2 6445   0.642   1.670   2.760  1.0975 -0.2277 -0.2503
 2161TIP3   OH2 6446   4.742   4.538   5.720 -0.2328  0.4783 -0.2440
 2161TIP3    H1 6447   4.834   4.559   5.731  0.0553 -0.4327 -0.7926
 2161TIP3    H2 6448   4.730   4.528   5.626 -0.6446 -0.4064 -0.1166
 2162TIP3   OH2 6449   4.853   4.877   2.247  0.1519 -0.5293 -0.3756
 2162TIP3    H1 6450   4.838   4.784   2.228  0.5574 -0.2797 -2.1513
 2162TIP3    H2 6451   4.927   4.900   2.190 -0.3641  1.0314 -0.4409
 2163TIP3   OH2 6452   1.948   0.089   1.938  0.0736  0.0715  0.3855
 2163TIP3    H1 6453   1.877   0.083   2.001  1.3460 -0.1545  1.8821
 2163TIP3    H2 6454   1.997   0.007   1.950  0.8611  0.4388 -0.2301
 2164TIP3   OH2 6455   5.711   5.495   0.406 -0.6378  0.5581  0.7906
 2164TIP3    H1 6456   5.752   5.447   0.477 -1.8905 -0.3052  0.9699
 2164TIP3    H2 6457   5.704   5.432   0.334 -1.6765  0.6366  0.7952
 2165TIP3   OH2 6458   6.755   1.501   2.282  0.2891 -0.2311  0.1963
 2165TIP3    H1 6459   6.671   1.510   2.237  0.7838  0.4127 -0.6318
 2165TIP3    H2 6460   6.817   1.548   2.227  1.5959 -2.3353 -0.2728
 2166TIP3   OH2 6461   6.392   0.698   4.666  0.5585 -0.9720 -0.0904
 2166TIP3    H1 6462   6.394   0.721   4.573 -0.9604 -0.7509 -0.0952
 2166TIP3    H2 6463   6.424   0.776   4.711  0.6025 -0.8116 -0.3989
 2167TIP3   OH2 6464   1.105   3.795   3.163  0.1021  0.9157 -0.1717
 2167TIP3    H1 6465   1.060   3.742   3.097 -0.2682  0.5091  0.3951
 2167TIP3    H2 6466   1.138   3.731   3.226  2.1089  1.1320 -0.9287
 2168TIP3   OH2 6467   3.855   0.528   4.306 -0.4052  0.7113 -0.1119
 2168TIP3    H1 6468   3.786   0.472   4.271  1.2541 -0.5848 -1.4812
 2168TIP3    H2 6469   3.814   0.613   4.317 -2.8237 -0.5452  1.3211
 2169TIP3   OH2 6470   4.123   2.890   0.313  0.1754 -0.6953  0.1439
 2169TIP3    H1 6471   4.123   2.845   0.398 -1.7407 -0.2111  0.4583
 2169TIP3    H2 6472   4.114   2.819   0.249  4.0167 -1.3093  0.0591
 2170TIP3   OH2 6473   2.461   1.814   1.527  0.0165  0.1051  0.1806
 2170TIP3    H1 6474   2.393   1.876   1.554  1.1000  0.6907  1.7453
 2170TIP3    H2 6475   2.541   1.849   1.565  1.2184 -0.5686 -1.6062
 2171TIP3   OH2 6476   7.216   2.899   0.494  0.0067  0.1827  0.1342
 2171TIP3    H1 6477   7.180   2.837   0.557  0.1858 -1.0868 -0.9511
 2171TIP3    H2 6478   7.156   2.973   0.495 -0.5092 -0.2371  1.0917
 2172TIP3   OH2 6479   6.755   2.736   1.655 -0.1979 -0.1323  0.4073
 2172TIP3    H1 6480   6.817   2.796   1.613 -1.2913 -0.3474 -1.6233
 2172TIP3    H2 6481   6.669   2.771   1.632 -0.8535 -1.1989  1.1636
 2173TIP3   OH2 6482   6.566   4.030   3.580 -0.5893  0.4632 -0.0642
 2173TIP3    H1 6483   6.571   4.125   3.594  2.9619  0.8524 -2.5560
 2173TIP3    H2 6484   6.573   4.020   3.485  2.4360 -2.2720  0.2615
 2174TIP3   OH2 6485   0.762   2.740   1.700  0.0175  0.5448 -0.1673
 2174TIP3    H1 6486   0.853   2.767   1.709  0.3610 -1.1183  3.4800
 2174TIP3    H2 6487   0.760   2.651   1.736 -2.9498  0.3332 -0.6039
 2175TIP3   OH2 6488   0.308   4.339   1.747 -0.0823 -0.3037 -0.8762
 2175TIP3    H1 6489   0.255   4.269   1.785  1.2698 -0.4882  0.8049
 2175TIP3    H2 6490   0.257   4.419   1.762  0.2361 -0.4164  1.1213
 2176TIP3   OH2 6491   1.983   6.586   1.680  0.5522 -0.1767  0.6249
 2176TIP3    H1 6492   1.925   6.532   1.734 -0.2813  1.7294  1.7017
 2176TIP3    H2 6493   1.998   6.533   1.601 -1.8709 -1.1295  0.7274
 2177TIP3   OH2 6494   3.543   3.107   2.307 -0.5690  0.0598  0.1086
 2177TIP3    H1 6495   3.559   3.033   2.249  0.4834  1.0717 -0.9560
 2177TIP3    H2 6496   3.471   3.079   2.363 -1.7012 -0.9256 -1.7464
 2178TIP3   OH2 6497   6.542   4.684   2.982  0.0410  0.5466  0.1029
 2178TIP3    H1 6498   6.457   4.722   3.003  0.3691  0.3480  1.9482
 2178TIP3    H2 6499   6.523   4.591   2.967 -0.3185  0.8426 -1.3717
 2179TIP3   OH2 6500   0.768   1.933   2.816 -0.1060 -0.1254 -0.8479
 2179TIP3    H1 6501   0.760   1.892   2.902  0.9371 -0.3615 -0.8452
 2179TIP3    H2 6502   0.753   2.026   2.832  2.2561  0.1779  0.0289
 2180TIP3   OH2 6503   2.711   0.959   3.792  0.3201 -0.0643  0.2683
 2180TIP3    H1 6504   2.646   1.019   3.828 -0.1453  0.3983 -1.3016
 2180TIP3    H2 6505   2.722   0.986   3.701  2.7360 -0.1120  0.4655
 2181TIP3   OH2 6506   0.292   6.008   2.055 -0.1920  0.3432  0.0352
 2181TIP3    H1 6507   0.203   5.975   2.047  0.0908 -0.1136 -1.5962
 2181TIP3    H2 6508   0.337   5.941   2.107 -0.3214 -0.4869 -0.8690
 2182TIP3   OH2 6509   3.877   3.333   4.132  0.1842 -0.5279  0.4650
 2182TIP3    H1 6510   3.894   3.423   4.102  1.7311  0.1776  3.0487
 2182TIP3    H2 6511   3.963   3.290   4.128  0.2783 -0.6620  2.7326
 2183TIP3   OH2 6512   3.820   5.900   3.053 -0.4204 -0.2675 -0.3891
 2183TIP3    H1 6513   3.914   5.901   3.036 -0.0394 -1.1292  1.4006
 2183TIP3    H2 6514   3.786   5.976   3.007  0.9156 -0.7023 -2.2098
 2184TIP3   OH2 6515   2.127   5.761   4.999  0.4676  0.0210  0.1275
 2184TIP3    H1 6516   2.092   5.782   4.912 -0.4469 -1.5712  0.0601
 2184TIP3    H2 6517   2.187   5.833   5.019 -0.3543  1.1436 -1.2141
 2185TIP3   OH2 6518   1.361   1.387   2.434  0.3115  0.0697 -0.3572
 2185TIP3    H1 6519   1.443   1.436   2.427  0.3966 -0.1329 -0.8536
 2185TIP3    H2 6520   1.372   1.314   2.374  0.7915 -1.4504  1.4789
 2186TIP3   OH2 6521   6.966   3.742   0.792  0.1032  0.1624  0.4813
 2186TIP3    H1 6522   6.914   3.712   0.867 -1.4784 -1.5276 -1.2024
 2186TIP3    H2 6523   6.982   3.663   0.740  2.8239  0.9590 -0.0464
 2187TIP3   OH2 6524   0.971   5.414   4.139 -0.3232 -0.3016  0.2979
 2187TIP3    H1 6525   1.025   5.458   4.073 -0.0199 -0.9831  0.0836
 2187TIP3    H2 6526   0.895   5.471   4.149  0.3960  0.6442  0.5622
 2188TIP3   OH2 6527   4.146   2.815   5.074 -0.4319 -0.2520 -0.2878
 2188TIP3    H1 6528   4.186   2.771   5.000 -0.4196  0.3291 -0.6327
 2188TIP3    H2 6529   4.215   2.819   5.140 -0.2793 -0.2880 -0.4445
 2189TIP3   OH2 6530   5.609   0.471   0.947  0.1943 -0.1107  0.2176
 2189TIP3    H1 6531   5.671   0.533   0.908  1.0123 -0.3042  1.1705
 2189TIP3    H2 6532   5.555   0.525   1.004 -1.5825  0.3221 -1.7648
 2190TIP3   OH2 6533   3.290   4.370   4.753  0.1654  0.3999  0.0566
 2190TIP3    H1 6534   3.200   4.354   4.782  0.1563  0.0686 -0.1494
 2190TIP3    H2 6535   3.329   4.422   4.823  0.9861 -2.6382  2.0556
 2191TIP3   OH2 6536   1.593   0.844   3.627  0.4309 -0.1633 -0.3266
 2191TIP3    H1 6537   1.659   0.802   3.571  0.5996  0.2954 -0.4749
 2191TIP3    H2 6538   1.598   0.937   3.605 -1.6488 -0.3328 -1.8192
 2192TIP3   OH2 6539   1.281   4.776   4.988  0.1957  0.1185 -0.7242
 2192TIP3    H1 6540   1.215   4.826   5.037 -0.6342 -0.6442 -1.0332
 2192TIP3    H2 6541   1.231   4.734   4.918  0.7037 -1.8052  0.0113
 2193TIP3   OH2 6542   3.016   6.083   0.654 -0.1561 -0.2846 -0.0897
 2193TIP3    H1 6543   3.013   6.064   0.560 -0.8440  0.7832 -0.2978
 2193TIP3    H2 6544   3.056   6.005   0.692 -0.8138 -1.1851 -1.1533
 2194TIP3   OH2 6545   0.870   1.269   3.356  0.0239  0.2487 -0.4352
 2194TIP3    H1 6546   0.930   1.203   3.390  0.0819 -0.2721 -1.4909
 2194TIP3    H2 6547   0.801   1.276   3.422 -0.0381 -0.9498 -0.3534
 2195TIP3   OH2 6548   4.549   2.908   1.316 -0.6334  0.3471  0.1696
 2195TIP3    H1 6549   4.459   2.927   1.292 -1.0956 -0.1157  1.4199
 2195TIP3    H2 6550   4.568   2.824   1.275 -0.8465  0.3482  0.0712
 2196TIP3   OH2 6551   5.791   3.565   3.928 -0.5467 -0.3684  0.2986
 2196TIP3    H1 6552   5.718   3.586   3.871 -0.1756  1.6326  0.4737
 2196TIP3    H2 6553   5.849   3.511   3.875 -0.6334  0.7143 -0.9251
 2197TIP3   OH2 6554   3.248   1.887   1.712  0.4707 -0.1389 -0.5003
 2197TIP3    H1 6555   3.156   1.861   1.702  0.0544  0.3823  1.4878
 2197TIP3    H2 6556   3.250   1.979   1.685  0.7354 -0.5442 -1.9305
 2198TIP3   OH2 6557   4.474   0.364   3.075  0.7424 -0.7498  0.0743
 2198TIP3    H1 6558   4.412   0.435   3.092  0.0339 -1.8534  2.4890
 2198TIP3    H2 6559   4.529   0.397   3.004 -2.1960  0.5026 -1.7807
 2199TIP3   OH2 6560   5.214   2.485   3.582 -0.1202 -0.1519  0.0362
 2199TIP3    H1 6561   5.207   2.546   3.655  0.7342 -1.2932  1.1182
 2199TIP3    H2 6562   5.123   2.463   3.561 -0.3888 -1.5983  2.3630
 2200TIP3   OH2 6563   3.019   4.589   3.979  0.3122 -0.2141  0.2163
 2200TIP3    H1 6564   3.111   4.614   3.971  0.1248 -0.1601 -2.9730
 2200TIP3    H2 6565   3.007   4.517   3.916 -2.0285  0.5066 -0.2800
 2201TIP3   OH2 6566   2.088   3.308   1.808  0.4584  0.6019 -0.0206
 2201TIP3    H1 6567   2.081   3.371   1.736  0.3004  1.7498  0.9686
 2201TIP3    H2 6568   2.006   3.317   1.856  0.2241 -0.7364 -0.1437
 2202TIP3   OH2 6569   0.108   2.036   3.818 -0.7848 -0.2009 -0.7259
 2202TIP3    H1 6570   0.159   1.965   3.781  0.9203  1.4333 -1.7115
 2202TIP3    H2 6571   0.080   2.088   3.743 -0.8361  0.8801  0.0126
 2203TIP3   OH2 6572   2.459   4.824   4.983 -0.2624 -0.1704  0.0950
 2203TIP3    H1 6573   2.553   4.828   4.971 -0.3023 -1.0249 -0.5853
 2203TIP3    H2 6574   2.446   4.756   5.050 -0.3817  0.2608  0.5202
 2204TIP3   OH2 6575   6.193   4.861   0.913  0.2341  0.3009 -0.1709
 2204TIP3    H1 6576   6.278   4.817   0.902  0.5051  0.5418  0.8621
 2204TIP3    H2 6577   6.182   4.868   1.008 -0.9933  0.1901 -0.2926
 2205TIP3   OH2 6578   1.701   6.454   0.578 -0.1933  0.2969 -0.0056
 2205TIP3    H1 6579   1.778   6.414   0.620 -0.9778 -1.2554  0.0195
 2205TIP3    H2 6580   1.628   6.397   0.602 -1.0822  0.7877 -1.4110
 2206TIP3   OH2 6581   3.191   1.355   4.116  0.3024 -0.0595 -0.1288
 2206TIP3    H1 6582   3.217   1.430   4.170  0.7908 -0.7690  0.6391
 2206TIP3    H2 6583   3.108   1.327   4.153  1.4811 -1.6596  1.4731
 2207TIP3   OH2 6584   0.534   2.342   5.493 -0.0892 -0.5617 -0.3755
 2207TIP3    H1 6585   0.483   2.416   5.460  0.0699 -0.1537  0.2721
 2207TIP3    H2 6586   0.569   2.373   5.576  0.9331 -0.9604 -0.6466
 2208TIP3   OH2 6587   3.160   2.154   0.079 -0.1791  0.5947  0.0509
 2208TIP3    H1 6588   3.204   2.106   0.009 -3.5856 -1.6282 -0.8350
 2208TIP3    H2 6589   3.076   2.181   0.040 -0.9672  1.8845  2.4384
 2209TIP3   OH2 6590   3.298   4.889   3.650 -0.0050  0.1248 -0.6590
 2209TIP3    H1 6591   3.284   4.948   3.576  0.6457 -1.1802 -1.8662
 2209TIP3    H2 6592   3.315   4.804   3.610 -0.1745 -0.7321  1.0191
 2210TIP3   OH2 6593   2.903   1.502   4.964  0.3509  0.5567 -0.4282
 2210TIP3    H1 6594   2.916   1.597   4.972  0.1992  0.5809 -0.4573
 2210TIP3    H2 6595   2.824   1.494   4.909 -0.4450  0.4286  0.7089
 2211TIP3   OH2 6596   3.579   1.790   0.348  0.1275  0.2367  0.0574
 2211TIP3    H1 6597   3.614   1.723   0.288  1.3269 -0.7639  1.7858
 2211TIP3    H2 6598   3.501   1.749   0.386 -0.1337  0.5202 -0.1729
 2212TIP3   OH2 6599   5.680   5.321   3.701  0.2838 -0.2613 -0.3261
 2212TIP3    H1 6600   5.689   5.362   3.787 -0.5784  1.7886 -1.1421
 2212TIP3    H2 6601   5.770   5.303   3.674  0.6648  0.6392  0.3016
 2213TIP3   OH2 6602   1.853   5.958   5.582 -0.0499  0.1959 -0.2009
 2213TIP3    H1 6603   1.760   5.957   5.605 -0.5093 -1.7560 -1.8399
 2213TIP3    H2 6604   1.871   6.049   5.562 -1.3076  0.8031  1.2138
 2214TIP3   OH2 6605   6.723   2.739   3.256 -0.1210 -0.0026  0.1859
 2214TIP3    H1 6606   6.634   2.716   3.281 -0.2013 -1.4997 -1.3191
 2214TIP3    H2 6607   6.759   2.781   3.334 -1.5326 -1.0593  1.4775
 2215TIP3   OH2 6608   6.670   5.489   1.084 -0.1753  0.5923 -0.4567
 2215TIP3    H1 6609   6.704   5.423   1.024  0.8760  0.7423 -0.0565
 2215TIP3    H2 6610   6.706   5.572   1.051 -0.9388  0.8833 -0.5682
 2216TIP3   OH2 6611   0.268   2.864   2.977  0.5163 -0.1276  0.0600
 2216TIP3    H1 6612   0.241   2.929   3.042 -1.0804 -0.0830 -0.5943
 2216TIP3    H2 6613   0.278   2.783   3.027  0.5586  0.1860  0.5705
 2217TIP3   OH2 6614   5.159   1.774   1.159  0.0556 -0.4148 -0.0033
 2217TIP3    H1 6615   5.142   1.698   1.215  1.9850 -0.0467  1.1878
 2217TIP3    H2 6616   5.227   1.823   1.206  0.2763  0.9949 -1.7085
 2218TIP3   OH2 6617   0.597   6.048   0.249  0.6023  0.4415 -0.3605
 2218TIP3    H1 6618   0.538   5.993   0.302  1.2685  0.1647  0.1195
 2218TIP3    H2 6619   0.540   6.092   0.187 -0.1911  0.6197  0.4656
 2219TIP3   OH2 6620   3.925   4.707   5.545  0.2952 -0.0850  0.3031
 2219TIP3    H1 6621   4.012   4.716   5.507  0.1464  0.7543  0.1227
 2219TIP3    H2 6622   3.932   4.749   5.631 -0.5163  2.3106 -0.6938
 2220TIP3   OH2 6623   2.240   2.361   1.833 -0.0203 -0.3372 -0.1949
 2220TIP3    H1 6624   2.310   2.376   1.897 -0.0490 -1.5239  0.1404
 2220TIP3    H2 6625   2.188   2.289   1.870 -1.2091  0.2789 -0.6192
 2221TIP3   OH2 6626   0.294   6.334   3.397  0.3485  0.2440  0.4135
 2221TIP3    H1 6627   0.253   6.326   3.311 -0.2776 -1.4881  0.8201
 2221TIP3    H2 6628   0.374   6.283   3.390  0.2176 -0.0345  0.8945
 2222TIP3   OH2 6629   2.271   5.344   4.522  0.2330 -0.4993  0.2019
 2222TIP3    H1 6630   2.325   5.286   4.575  1.0839  0.3171  0.2707
 2222TIP3    H2 6631   2.260   5.422   4.577  0.1442 -0.1168 -0.3549
 2223TIP3   OH2 6632   0.425   5.820   0.153  0.1259  0.5946 -0.5065
 2223TIP3    H1 6633   0.439   5.771   0.234 -0.7797  0.9477 -0.1272
 2223TIP3    H2 6634   0.353   5.880   0.173  1.9057  2.9099 -0.5724
 2224TIP3   OH2 6635   3.529   5.533   0.776  0.0693 -0.3806 -0.2915
 2224TIP3    H1 6636   3.464   5.564   0.839 -1.0899 -1.5358 -0.8774
 2224TIP3    H2 6637   3.583   5.472   0.826  0.1617 -0.0805 -0.0202
 2225TIP3   OH2 6638   6.235   2.498   0.982 -0.1670  0.1678 -0.5455
 2225TIP3    H1 6639   6.309   2.440   1.000 -0.6010 -0.7637 -1.6025
 2225TIP3    H2 6640   6.162   2.439   0.968 -0.9802  1.0576 -0.1250
 2226TIP3   OH2 6641   4.639   5.511   5.721  0.3858  0.0843  0.1498
 2226TIP3    H1 6642   4.684   5.519   5.805  0.3087 -1.3480  0.3530
 2226TIP3    H2 6643   4.631   5.416   5.707 -1.0010  0.3028 -0.7201
 2227TIP3   OH2 6644   6.070   4.363   5.308  0.4462 -0.2785  0.1926
 2227TIP3    H1 6645   6.127   4.427   5.352  1.4149  0.2424 -1.7441
 2227TIP3    H2 6646   6.086   4.281   5.355  1.7986  0.1520  0.5287
 2228TIP3   OH2 6647   5.574   0.845   4.875 -0.3940 -0.4864 -0.2512
 2228TIP3    H1 6648   5.584   0.750   4.869 -0.1851 -0.3547 -3.8251
 2228TIP3    H2 6649   5.483   0.857   4.904 -0.8901 -1.8004 -1.1431
 2229TIP3   OH2 6650   1.385   0.207   3.133  0.3211 -0.0223 -0.4943
 2229TIP3    H1 6651   1.370   0.278   3.071 -0.8282 -1.1275 -1.5596
 2229TIP3    H2 6652   1.438   0.246   3.203 -0.2894  1.8515 -1.0248
 2230TIP3   OH2 6653   6.862   2.187   5.860  0.4153  0.7760  0.5266
 2230TIP3    H1 6654   6.868   2.131   5.783  2.6350  0.5985  0.7750
 2230TIP3    H2 6655   6.906   2.137   5.929  0.3311  1.8359  1.3681
 2231TIP3   OH2 6656   2.105   1.820   0.275 -0.1719 -0.3601  0.1793
 2231TIP3    H1 6657   2.128   1.906   0.309 -0.5310 -0.0355 -0.3730
 2231TIP3    H2 6658   2.166   1.805   0.203  0.1996 -0.7795  0.5795
 2232TIP3   OH2 6659   5.957   6.090   5.881 -0.7451 -0.3066 -0.1288
 2232TIP3    H1 6660   6.036   6.143   5.867 -1.0466  0.6217  1.4417
 2232TIP3    H2 6661   5.929   6.066   5.793 -0.8169  2.5122 -0.9813
 2233TIP3   OH2 6662   1.819   1.349   3.759 -0.4483 -0.3452 -0.0693
 2233TIP3    H1 6663   1.912   1.355   3.783 -0.3955 -0.5418 -0.2189
 2233TIP3    H2 6664   1.794   1.439   3.737 -0.2075 -0.3394 -0.3313
 2234TIP3   OH2 6665   1.860   0.254   2.462 -0.0133  0.7926 -0.0213
 2234TIP3    H1 6666   1.773   0.284   2.436 -0.4840  0.5007  1.1680
 2234TIP3    H2 6667   1.857   0.159   2.454 -0.2580  0.6725  1.3104
 2235TIP3   OH2 6668   2.950   3.473   1.970  0.1736 -0.0416 -0.0465
 2235TIP3    H1 6669   2.977   3.466   1.879 -0.2918 -0.8249 -0.1287
 2235TIP3    H2 6670   2.896   3.552   1.974  2.1703  1.4004  0.0592
 2236TIP3   OH2 6671   2.685   1.747   2.054  0.1558 -0.0569  0.0182
 2236TIP3    H1 6672   2.645   1.670   2.093  0.3237 -0.0124  0.2823
 2236TIP3    H2 6673   2.753   1.773   2.117 -1.0785  1.3750  0.8199
 2237TIP3   OH2 6674   0.262   2.260   3.037 -0.0592 -0.2120  0.0767
 2237TIP3    H1 6675   0.348   2.220   3.026  0.9421  1.6426  0.6793
 2237TIP3    H2 6676   0.249   2.311   2.957 -0.9915 -1.1349 -0.3741
 2238TIP3   OH2 6677   1.315   3.095   5.542  0.2670 -0.1363 -0.4006
 2238TIP3    H1 6678   1.378   3.149   5.589  0.5092 -1.8629  1.3697
 2238TIP3    H2 6679   1.365   3.057   5.469  0.6685  0.2743 -0.3438
 2239TIP3   OH2 6680   6.737   6.086   0.348 -0.3054 -0.2490  0.0717
 2239TIP3    H1 6681   6.816   6.063   0.299  0.3164 -0.3568  1.1065
 2239TIP3    H2 6682   6.675   6.015   0.328 -0.4785  0.2919 -1.4460
 2240TIP3   OH2 6683   3.409   0.709   3.650 -0.5071  0.3314  0.1989
 2240TIP3    H1 6684   3.382   0.702   3.558  0.3653 -1.9756  0.0592
 2240TIP3    H2 6685   3.498   0.746   3.646 -0.4943  0.2932  0.1323
 2241TIP3   OH2 6686   1.045   3.783   0.355 -0.3366 -0.5771  0.2516
 2241TIP3    H1 6687   0.961   3.786   0.308 -1.1433  0.5792  1.6643
 2241TIP3    H2 6688   1.079   3.872   0.348 -1.4884  0.2518  3.4624
 2242TIP3   OH2 6689   5.281   1.253   3.973 -0.4840 -0.5420 -0.1010
 2242TIP3    H1 6690   5.226   1.203   4.032 -1.3861 -0.5010 -0.8873
 2242TIP3    H2 6691   5.281   1.342   4.009  1.0898 -1.0553  1.2746
 2243TIP3   OH2 6692   2.816   5.874   2.007  0.6688  0.7239  0.2485
 2243TIP3    H1 6693   2.746   5.927   2.044  0.3784  0.4073  0.1561
 2243TIP3    H2 6694   2.785   5.784   2.016  0.6595  0.6363 -0.6422
 2244TIP3   OH2 6695   1.038   2.463   3.350  0.1528 -0.4332 -0.3407
 2244TIP3    H1 6696   1.113   2.515   3.381 -1.0402 -0.0243  2.0962
 2244TIP3    H2 6697   0.969   2.527   3.336 -0.0511 -0.9169 -1.6642
 2245TIP3   OH2 6698   4.258   1.860   5.424  0.1407  0.1805  0.3920
 2245TIP3    H1 6699   4.215   1.826   5.502 -0.8832  0.7026  0.0729
 2245TIP3    H2 6700   4.192   1.852   5.355  0.1399  2.0266  0.1268
 2246TIP3   OH2 6701   4.922   1.857   1.032 -0.0237  0.0229 -0.0994
 2246TIP3    H1 6702   4.981   1.810   1.090  0.4246 -0.1090 -0.6544
 2246TIP3    H2 6703   4.912   1.943   1.071  0.2577 -0.0730  0.1799
 2247TIP3   OH2 6704   2.315   4.566   5.488 -0.0599 -0.9242 -0.2003
 2247TIP3    H1 6705   2.340   4.474   5.476  0.1434 -0.8385 -0.4446
 2247TIP3    H2 6706   2.220   4.563   5.499  0.1916 -1.4271  2.4539
 2248TIP3   OH2 6707   6.031   0.766   5.716  0.5677  0.4095  0.1241
 2248TIP3    H1 6708   6.120   0.749   5.750  0.7485 -0.4871 -0.7577
 2248TIP3    H2 6709   5.988   0.681   5.720  0.3960  0.4149 -1.2957
 2249TIP3   OH2 6710   3.670   0.034   3.229 -0.0643 -0.1161 -0.1826
 2249TIP3    H1 6711   3.669   0.101   3.160  0.4678  2.1296  1.8568
 2249TIP3    H2 6712   3.578   0.011   3.241 -0.3704  0.9975 -0.2557
 2250TIP3   OH2 6713   1.634   2.710   3.095 -0.1229  0.0869 -0.7082
 2250TIP3    H1 6714   1.571   2.676   3.158 -0.9368  0.7957 -1.1240
 2250TIP3    H2 6715   1.719   2.702   3.140 -0.5873 -0.1827  0.1466
 2251TIP3   OH2 6716   2.622   5.952   4.838 -0.5668 -0.3836 -0.6175
 2251TIP3    H1 6717   2.713   5.925   4.842 -0.6025 -0.5337 -0.8520
 2251TIP3    H2 6718   2.614   6.001   4.756 -0.8847 -1.0687 -1.0051
 2252TIP3   OH2 6719   0.936   2.304   2.230 -0.0447 -0.7606 -0.3475
 2252TIP3    H1 6720   0.866   2.240   2.222 -0.3829 -0.5610  0.8381
 2252TIP3    H2 6721   0.914   2.354   2.308  1.4865 -0.7823  0.1292
 2253TIP3   OH2 6722   0.464   4.436   4.849  0.4991  0.8366 -0.1256
 2253TIP3    H1 6723   0.476   4.405   4.939 -2.6491 -1.7128 -0.4091
 2253TIP3    H2 6724   0.395   4.502   4.855 -1.8209 -1.3768 -0.8341
 2254TIP3   OH2 6725   6.421   1.698   1.711 -0.2525  0.5723  0.1168
 2254TIP3    H1 6726   6.327   1.683   1.699 -0.5164  2.2787 -0.0965
 2254TIP3    H2 6727   6.445   1.759   1.641  0.7904  1.0616  0.8775
 2255TIP3   OH2 6728   0.463   5.814   2.181 -0.4517 -0.0841 -0.0552
 2255TIP3    H1 6729   0.518   5.799   2.258 -0.1603 -2.0546 -0.5918
 2255TIP3    H2 6730   0.505   5.764   2.112 -2.1286 -0.4694 -0.8391
 2256TIP3   OH2 6731   6.459   3.935   4.485 -0.1093 -0.1985 -0.4610
 2256TIP3    H1 6732   6.547   3.898   4.488 -0.1780 -0.5122 -1.6919
 2256TIP3    H2 6733   6.405   3.866   4.447 -0.5081  0.6611 -1.5235
 2257TIP3   OH2 6734   4.688   4.016   3.970 -0.2166  0.0255  0.6590
 2257TIP3    H1 6735   4.623   4.083   3.949  1.5781  1.9582  0.9605
 2257TIP3    H2 6736   4.749   4.018   3.897  1.1611  0.4545  1.7828
 2258TIP3   OH2 6737   2.114   2.949   1.452  0.5978  0.1641 -0.7163
 2258TIP3    H1 6738   2.206   2.951   1.478  0.8397 -0.1276 -1.5152
 2258TIP3    H2 6739   2.085   2.861   1.474  0.2386  0.5380  0.3863
 2259TIP3   OH2 6740   2.870   0.288   0.123  0.6230 -0.3099  0.1668
 2259TIP3    H1 6741   2.924   0.237   0.063  1.4607  0.3647  0.3318
 2259TIP3    H2 6742   2.900   0.262   0.210  0.0630 -0.5865  0.2825
 2260TIP3   OH2 6743   6.162   2.934   5.877  0.2619 -0.2221  0.1389
 2260TIP3    H1 6744   6.106   2.895   5.945 -0.2886  1.6730  0.8371
 2260TIP3    H2 6745   6.101   2.962   5.809  0.5725  0.1511  0.0130
 2261TIP3   OH2 6746   1.664   0.103   1.806 -0.4926  0.0715 -0.5736
 2261TIP3    H1 6747   1.759   0.108   1.818 -0.6548  0.0750  0.8696
 2261TIP3    H2 6748   1.643   0.011   1.824 -0.6366 -0.2291 -2.1136
 2262TIP3   OH2 6749   3.108   1.470   1.485 -0.6794  0.3535 -0.6149
 2262TIP3    H1 6750   3.165   1.434   1.553 -0.9301 -0.4165 -0.8041
 2262TIP3    H2 6751   3.123   1.413   1.409 -0.2706  1.3043 -1.2618
 2263TIP3   OH2 6752   3.950   6.057   0.738 -0.2093 -0.3013 -0.0419
 2263TIP3    H1 6753   3.986   5.971   0.758 -1.6292 -0.6160  1.4448
 2263TIP3    H2 6754   3.873   6.039   0.684  0.4161  0.1768 -1.1193
 2264TIP3   OH2 6755   0.770   1.750   5.340 -0.3267  0.8344 -0.0593
 2264TIP3    H1 6756   0.800   1.800   5.264 -0.0670 -0.1403 -0.6115
 2264TIP3    H2 6757   0.729   1.672   5.302  1.0794 -0.3732  0.8148
 2265TIP3   OH2 6758   4.435   3.931   1.042  0.0646 -0.2350 -0.5118
 2265TIP3    H1 6759   4.378   3.870   1.089  2.1008 -2.0673 -0.2536
 2265TIP3    H2 6760   4.455   4.000   1.106 -0.5045 -0.4647 -0.0827
 2266TIP3   OH2 6761   1.365   6.319   2.682 -0.6932 -0.7125  0.2289
 2266TIP3    H1 6762   1.460   6.328   2.695 -0.6421  1.0600 -1.0099
 2266TIP3    H2 6763   1.352   6.225   2.667  1.2085 -0.7482 -1.7202
 2267TIP3   OH2 6764   2.536   5.935   4.092  0.7066 -0.4657 -0.0356
 2267TIP3    H1 6765   2.565   5.954   4.002 -0.6093 -2.5422 -0.9831
 2267TIP3    H2 6766   2.482   6.011   4.116 -1.1881 -1.0233 -2.1357
 2268TIP3   OH2 6767   2.580   1.924   2.797  0.2190 -0.5010 -0.0086
 2268TIP3    H1 6768   2.568   1.835   2.766 -1.8625 -0.6440  1.0592
 2268TIP3    H2 6769   2.521   1.932   2.872  0.3653  1.7591 -0.0638
 2269TIP3   OH2 6770   6.039   4.612   0.833  0.0159  0.4772  0.7721
 2269TIP3    H1 6771   6.052   4.600   0.927  0.6754 -1.6907  0.4778
 2269TIP3    H2 6772   6.008   4.702   0.824  0.8442  1.0564  2.9621
 2270TIP3   OH2 6773   2.769   4.715   0.508  0.6346 -0.5339  0.1366
 2270TIP3    H1 6774   2.690   4.732   0.456  0.9102  1.4028  0.2801
 2270TIP3    H2 6775   2.750   4.755   0.593  1.3272 -1.1016  0.5604
 2271TIP3   OH2 6776   3.720   2.900   4.285 -0.0538 -0.5309  0.1243
 2271TIP3    H1 6777   3.695   2.923   4.374 -1.6686 -0.9828 -0.1935
 2271TIP3    H2 6778   3.647   2.928   4.230  0.6214 -0.8586 -0.9868
 2272TIP3   OH2 6779   2.946   2.196   3.688  0.1829 -0.3605 -0.2870
 2272TIP3    H1 6780   2.914   2.143   3.761 -0.7005 -1.7397 -1.6187
 2272TIP3    H2 6781   2.877   2.260   3.672 -0.9374 -1.8174 -1.6231
 2273TIP3   OH2 6782   3.958   6.129   2.226  0.1660  0.4645 -0.1470
 2273TIP3    H1 6783   3.895   6.090   2.165 -0.2946  0.5831  0.2452
 2273TIP3    H2 6784   3.920   6.113   2.313  0.1594  1.4524  0.0454
 2274TIP3   OH2 6785   6.318   3.296   0.604 -0.0487  0.3160  0.5292
 2274TIP3    H1 6786   6.412   3.281   0.611 -0.0267  0.8758  1.5498
 2274TIP3    H2 6787   6.286   3.223   0.550  1.3356  1.6265 -2.2770
 2275TIP3   OH2 6788   1.498   2.885   0.678  0.5472 -0.2283 -0.7847
 2275TIP3    H1 6789   1.525   2.798   0.707 -0.1528 -0.2199 -0.0836
 2275TIP3    H2 6790   1.410   2.873   0.644 -0.6407  0.6326  1.7612
 2276TIP3   OH2 6791   1.336   0.027   2.907 -0.2791 -0.1342  0.3390
 2276TIP3    H1 6792   1.334   0.101   2.847 -0.4994 -1.7031 -1.7255
 2276TIP3    H2 6793   1.324   0.065   2.994 -3.1589  2.0051 -0.8488
 2277TIP3   OH2 6794   1.236   3.996   2.259  0.4514 -0.2472  0.1930
 2277TIP3    H1 6795   1.147   4.028   2.242  0.2886 -1.8589 -2.6038
 2277TIP3    H2 6796   1.289   4.036   2.191  1.8044  0.1999  1.4542
 2278TIP3   OH2 6797   1.793   2.173   3.788  0.2395 -0.3200  0.4019
 2278TIP3    H1 6798   1.794   2.077   3.787 -2.3337 -0.4074 -1.6043
 2278TIP3    H2 6799   1.726   2.198   3.725  1.8453  2.8714 -0.2645
 2279TIP3   OH2 6800   2.496   5.061   1.998  0.0229 -0.5459  0.0673
 2279TIP3    H1 6801   2.548   5.070   1.919 -0.5142  0.0323 -0.2260
 2279TIP3    H2 6802   2.528   4.980   2.039  1.5889  0.1412  0.2332
 2280TIP3   OH2 6803   5.567   1.343   3.208  0.2311 -0.2270  0.2244
 2280TIP3    H1 6804   5.650   1.322   3.252 -0.5678 -2.7061  0.7112
 2280TIP3    H2 6805   5.500   1.319   3.271 -0.9098  2.3737  0.0883
 2281TIP3   OH2 6806   1.804   4.307   0.141  0.0551  0.6372 -0.3285
 2281TIP3    H1 6807   1.722   4.356   0.132 -0.5611 -0.4152 -0.6482
 2281TIP3    H2 6808   1.780   4.217   0.122  0.8693 -0.0443  1.6566
 2282TIP3   OH2 6809   0.351   5.758   1.788  0.3270 -0.1237  0.1314
 2282TIP3    H1 6810   0.280   5.750   1.852  0.7194 -1.6601  0.4206
 2282TIP3    H2 6811   0.430   5.763   1.842  0.4989  1.0019 -0.2024
 2283TIP3   OH2 6812   1.989   6.382   1.900  0.3069  0.4257  0.0733
 2283TIP3    H1 6813   1.960   6.452   1.958 -0.9561  0.1653 -0.2104
 2283TIP3    H2 6814   2.023   6.315   1.959  0.5162  0.8318  0.4133
 2284TIP3   OH2 6815   2.089   4.744   5.158  0.1236 -0.1967 -0.3292
 2284TIP3    H1 6816   2.047   4.686   5.094  0.5928  0.8385 -1.6130
 2284TIP3    H2 6817   2.109   4.823   5.109 -0.4575  1.0634  1.3767
 2285TIP3   OH2 6818   4.136   6.057   5.185  0.2543 -0.2219  0.0938
 2285TIP3    H1 6819   4.163   6.110   5.110 -0.3285  1.9785  1.3477
 2285TIP3    H2 6820   4.073   6.113   5.232 -0.5834 -2.1496  1.3825
 2286TIP3   OH2 6821   4.237   4.910   3.129 -0.0901 -0.1497 -0.0183
 2286TIP3    H1 6822   4.163   4.970   3.115 -0.4226 -0.3982  0.6240
 2286TIP3    H2 6823   4.315   4.965   3.120 -0.3044 -0.0584 -1.6288
 2287TIP3   OH2 6824   4.420   3.141   1.014  0.3829 -0.7301  0.2168
 2287TIP3    H1 6825   4.462   3.191   0.944 -0.3466 -1.3363 -0.6598
 2287TIP3    H2 6826   4.414   3.052   0.980 -0.1493 -0.9909  0.9795
 2288TIP3   OH2 6827   6.247   5.583   3.833  0.0000  0.0365 -0.6978
 2288TIP3    H1 6828   6.308   5.528   3.785 -0.5127 -1.0474 -0.1363
 2288TIP3    H2 6829   6.246   5.547   3.921  1.3125  2.3039  0.3263
 2289TIP3   OH2 6830   5.032   6.630   1.013  0.1114  0.5003  0.1949
 2289TIP3    H1 6831   5.095   6.589   1.073  1.5442  1.8282 -0.3372
 2289TIP3    H2 6832   4.959   6.654   1.069 -0.3190 -1.7788  0.6990
 2290TIP3   OH2 6833   1.618   0.271   1.302 -0.6198 -0.3017  0.0945
 2290TIP3    H1 6834   1.670   0.265   1.382 -3.1173 -0.4443  1.8169
 2290TIP3    H2 6835   1.641   0.356   1.265 -1.9867  1.4843  2.9853
 2291TIP3   OH2 6836   2.472   5.482   1.517 -0.2899  0.1115 -0.6206
 2291TIP3    H1 6837   2.496   5.414   1.580 -1.1087  0.0129 -0.4117
 2291TIP3    H2 6838   2.548   5.488   1.458  0.6108  0.4003  0.5307
 2292TIP3   OH2 6839   7.034   2.019   3.701  0.0614  0.0143 -0.4638
 2292TIP3    H1 6840   7.020   2.056   3.788  1.7204 -0.9940  0.2797
 2292TIP3    H2 6841   6.996   1.931   3.705  1.8241 -0.7893 -0.0572
 2293TIP3   OH2 6842   0.596   0.488   3.523 -0.7870  0.1341  0.4111
 2293TIP3    H1 6843   0.620   0.506   3.614 -0.1480  2.2357 -0.1021
 2293TIP3    H2 6844   0.676   0.506   3.473 -0.9042 -1.7352 -0.5328
 2294TIP3   OH2 6845  -0.027   2.202   2.309 -0.3548 -0.3406 -0.3557
 2294TIP3    H1 6846   0.048   2.146   2.293 -0.0184  0.3063 -1.1054
 2294TIP3    H2 6847  -0.004   2.286   2.269 -1.2407  0.0357 -0.1116
 2295TIP3   OH2 6848   1.694   1.852   0.194 -0.0558 -0.3637 -0.7062
 2295TIP3    H1 6849   1.743   1.934   0.195  1.0632 -1.0226 -0.5092
 2295TIP3    H2 6850   1.611   1.874   0.238  1.0345  0.1889  1.1818
 2296TIP3   OH2 6851   4.306   2.048   0.889 -0.3614 -0.1254 -0.3427
 2296TIP3    H1 6852   4.386   2.091   0.860 -0.1349 -0.9593 -1.0061
 2296TIP3    H2 6853   4.333   1.958   0.908 -1.0519 -0.2930 -0.1202
 2297TIP3   OH2 6854   6.065   2.865   0.299 -0.3668  0.5632  0.0795
 2297TIP3    H1 6855   6.094   2.774   0.310 -0.7500  0.5492  1.0618
 2297TIP3    H2 6856   6.003   2.879   0.370  0.7720  2.0387  0.8417
 2298TIP3   OH2 6857   5.260   4.035   3.791  0.2494  0.0731  0.3276
 2298TIP3    H1 6858   5.193   3.988   3.840 -0.2305 -0.3400 -0.6831
 2298TIP3    H2 6859   5.215   4.063   3.711  1.2968 -0.2694 -0.4011
 2299TIP3   OH2 6860   0.713   3.954   1.487 -0.0776  0.2146 -0.0908
 2299TIP3    H1 6861   0.652   3.895   1.443  1.0033 -1.0292  0.0132
 2299TIP3    H2 6862   0.687   4.042   1.459 -1.8370 -0.2863 -0.1223
 2300TIP3   OH2 6863   0.954   4.242   5.778  0.1414  0.5117  0.1935
 2300TIP3    H1 6864   0.946   4.195   5.861 -1.4250  0.8556  0.2537
 2300TIP3    H2 6865   0.998   4.180   5.720 -0.7685 -0.5796  0.6375
 2301TIP3   OH2 6866   2.534   2.533   5.512 -0.0951  0.6370 -0.1650
 2301TIP3    H1 6867   2.497   2.590   5.579  1.2533  0.5931  0.6455
 2301TIP3    H2 6868   2.596   2.476   5.559 -0.7355 -0.8990 -1.0911
 2302TIP3   OH2 6869   3.159   0.881   3.372  0.1789 -0.4549 -0.4417
 2302TIP3    H1 6870   3.211   0.812   3.413  1.5026  0.3560 -0.7014
 2302TIP3    H2 6871   3.222   0.951   3.352 -1.0267  0.6220 -0.6543
 2303TIP3   OH2 6872   1.862   2.171   2.487  0.7756 -0.4310  0.0704
 2303TIP3    H1 6873   1.795   2.172   2.418  0.6965 -0.1700  0.1499
 2303TIP3    H2 6874   1.813   2.153   2.567  0.8374 -0.4947  0.0942
 2304TIP3   OH2 6875   4.609   2.821   5.557 -0.4615  0.0227 -0.0258
 2304TIP3    H1 6876   4.694   2.851   5.590 -0.4270 -0.2460  0.1265
 2304TIP3    H2 6877   4.601   2.731   5.588 -0.4341 -0.2277 -0.7385
 2305TIP3   OH2 6878   5.395   4.296   5.300 -0.6352 -0.0964  0.4081
 2305TIP3    H1 6879   5.387   4.230   5.368 -2.5251 -3.1102 -2.4719
 2305TIP3    H2 6880   5.476   4.275   5.255 -1.2228 -0.5090 -0.4955
 2306TIP3   OH2 6881   2.175   6.403   1.529  0.2790  0.2610 -0.2554
 2306TIP3    H1 6882   2.133   6.318   1.539  0.7712 -0.3569 -2.9128
 2306TIP3    H2 6883   2.192   6.432   1.619  0.5534 -2.6475  0.7113
 2307TIP3   OH2 6884   3.354   6.018   4.538 -0.2812 -0.2861  0.0270
 2307TIP3    H1 6885   3.437   6.018   4.586 -1.2596  0.9053  1.8164
 2307TIP3    H2 6886   3.363   6.090   4.476  0.2686 -0.5957 -0.2603
 2308TIP3   OH2 6887   3.461   3.637   0.398  0.7506  0.7375  0.0868
 2308TIP3    H1 6888   3.402   3.565   0.373  0.1035  0.7971  1.3697
 2308TIP3    H2 6889   3.526   3.597   0.455  1.9477  0.6963 -1.2362
 2309TIP3   OH2 6890   1.211   0.959   4.041  0.4458 -0.0585  0.5135
 2309TIP3    H1 6891   1.222   1.053   4.055  0.2941  0.3284 -1.6994
 2309TIP3    H2 6892   1.220   0.946   3.947  2.2774 -2.5366  0.9138
 2310TIP3   OH2 6893   2.736   3.848   0.693 -0.0327 -0.4851  0.0487
 2310TIP3    H1 6894   2.667   3.810   0.640 -1.9913  1.6345  0.9131
 2310TIP3    H2 6895   2.754   3.933   0.652  1.3119 -0.5364  0.4775
 2311TIP3   OH2 6896   6.856   2.694   2.123 -0.2366  0.4321  0.2046
 2311TIP3    H1 6897   6.864   2.650   2.038 -1.7903 -1.5466  0.9872
 2311TIP3    H2 6898   6.803   2.772   2.105 -0.0656  0.3443 -0.7341
 2312TIP3   OH2 6899   5.056   1.278   1.019  0.1711  0.1122  0.1374
 2312TIP3    H1 6900   5.011   1.358   0.992 -0.2786  0.4290  1.7056
 2312TIP3    H2 6901   5.149   1.299   1.014  0.0810  0.3285 -0.6224
 2313TIP3   OH2 6902   7.095   5.085   0.287 -0.3423  0.3300 -0.3866
 2313TIP3    H1 6903   7.050   5.158   0.244 -2.7531 -1.8987 -1.9773
 2313TIP3    H2 6904   7.160   5.055   0.223 -0.5715  0.0220 -0.4798
 2314TIP3   OH2 6905   3.416   0.765   1.464 -0.2014  0.0332  0.1256
 2314TIP3    H1 6906   3.507   0.783   1.488 -0.4770  1.8884 -0.0666
 2314TIP3    H2 6907   3.421   0.692   1.402  1.1316 -0.1018  0.3762
 2315TIP3   OH2 6908   1.993   6.172   5.846  0.0426  0.0640  0.0317
 2315TIP3    H1 6909   1.967   6.262   5.860 -1.2598 -0.3469  0.3771
 2315TIP3    H2 6910   1.915   6.120   5.867  0.9599 -1.1875  0.4886
 2316TIP3   OH2 6911   4.252   1.676   1.153 -0.1424 -0.4506  0.7381
 2316TIP3    H1 6912   4.201   1.608   1.197  1.5257 -1.1066  1.7505
 2316TIP3    H2 6913   4.188   1.745   1.133 -1.8200 -2.1374 -0.0306
 2317TIP3   OH2 6914   4.261   0.644   1.074 -0.4596 -0.0617  0.6648
 2317TIP3    H1 6915   4.317   0.576   1.037 -1.0517 -0.6130  0.7600
 2317TIP3    H2 6916   4.186   0.596   1.111 -2.3708  0.7869 -1.8134
 2318TIP3   OH2 6917   5.010   3.375   2.941 -0.4040  0.3261  0.6844
 2318TIP3    H1 6918   5.100   3.408   2.934 -0.8645  1.8643  1.5234
 2318TIP3    H2 6919   5.011   3.320   3.019 -0.2692  0.6614  0.9242
 2319TIP3   OH2 6920   6.379   1.131   0.177 -0.2241 -0.1119  0.2193
 2319TIP3    H1 6921   6.376   1.062   0.112 -0.5335  0.1888 -0.0898
 2319TIP3    H2 6922   6.347   1.090   0.257 -0.1864 -0.3859  0.0948
 2320TIP3   OH2 6923   1.428   5.407   5.537 -0.2847  0.5300 -0.0977
 2320TIP3    H1 6924   1.429   5.312   5.544 -2.5753  0.3134 -1.5895
 2320TIP3    H2 6925   1.520   5.432   5.534  0.3708 -1.5611  0.8169
 2321TIP3   OH2 6926   3.103   3.196   3.336  0.2268  0.3740 -0.0587
 2321TIP3    H1 6927   3.154   3.271   3.305  0.8103 -0.6533 -1.7416
 2321TIP3    H2 6928   3.029   3.234   3.383  1.4140  1.9452  0.6282
 2322TIP3   OH2 6929   3.977   0.839   0.976 -0.7322  0.1407  0.3705
 2322TIP3    H1 6930   3.921   0.828   0.898 -0.1412  1.9564 -0.3749
 2322TIP3    H2 6931   3.978   0.753   1.017 -2.9970 -0.2944 -0.3157
 2323TIP3   OH2 6932   4.405   4.270   0.071 -0.3224 -0.3574  0.0818
 2323TIP3    H1 6933   4.341   4.278   0.142  0.0146 -1.0408  0.4768
 2323TIP3    H2 6934   4.371   4.198   0.018 -1.3178  1.0404 -1.2672
 2324TIP3   OH2 6935   5.051   1.458   5.328 -0.0341  0.4308 -0.6451
 2324TIP3    H1 6936   5.008   1.400   5.266 -0.2474  1.2468 -1.2792
 2324TIP3    H2 6937   5.118   1.503   5.276  0.8368  0.0021  0.0721
 2325TIP3   OH2 6938   6.199   0.938   1.804  0.5111  0.1281  0.1235
 2325TIP3    H1 6939   6.150   0.867   1.763 -0.5864 -0.2026  1.8963
 2325TIP3    H2 6940   6.163   1.018   1.765  1.0354 -0.2191 -1.1262
 2326TIP3   OH2 6941   0.422   3.110   3.153 -0.0867  0.4083 -0.7701
 2326TIP3    H1 6942   0.481   3.036   3.165 -0.1941  0.6782  2.0792
 2326TIP3    H2 6943   0.440   3.142   3.065  2.5673 -0.7414 -0.7166
 2327TIP3   OH2 6944   1.518   3.820   2.414  0.2188  0.1098  0.4016
 2327TIP3    H1 6945   1.484   3.804   2.326  0.9324  0.1720  0.1050
 2327TIP3    H2 6946   1.461   3.888   2.449  0.1170  0.3121 -0.1357
 2328TIP3   OH2 6947   1.134   1.052   1.630 -0.8898  0.0796 -0.2862
 2328TIP3    H1 6948   1.081   1.129   1.614 -1.2608  0.1686  1.2815
 2328TIP3    H2 6949   1.072   0.980   1.635 -0.5256 -0.3989 -1.9991
 2329TIP3   OH2 6950   0.717   3.033   0.440  0.0097 -0.3554 -0.4585
 2329TIP3    H1 6951   0.721   3.020   0.345  0.9564 -0.1209 -0.4593
 2329TIP3    H2 6952   0.775   3.107   0.456  1.5507 -1.7307  0.5468
 2330TIP3   OH2 6953   3.759   3.061   3.362  0.3279  0.4795  0.0788
 2330TIP3    H1 6954   3.829   3.007   3.398  0.9109 -0.6392 -2.5197
 2330TIP3    H2 6955   3.741   3.126   3.430 -1.0836 -3.4043  3.8791
 2331TIP3   OH2 6956   5.619   2.184   2.333 -0.0035 -0.0159 -0.5117
 2331TIP3    H1 6957   5.568   2.140   2.401 -0.3469  0.7783 -0.2464
 2331TIP3    H2 6958   5.553   2.222   2.274  0.2256  1.8159  0.3401
 2332TIP3   OH2 6959   0.306   1.604   3.595 -0.3579 -0.1516 -0.4735
 2332TIP3    H1 6960   0.286   1.693   3.621  0.8756 -0.2034  0.7700
 2332TIP3    H2 6961   0.362   1.613   3.519  0.6194  0.1873  0.2702
 2333TIP3   OH2 6962   1.828   1.538   3.032 -0.7900 -0.4790  0.2965
 2333TIP3    H1 6963   1.777   1.459   3.048 -0.1862 -0.6512  1.4072
 2333TIP3    H2 6964   1.862   1.564   3.117 -0.6487  0.7641 -0.1081
 2334TIP3   OH2 6965   3.874   2.730   0.750 -0.1181 -0.3161 -0.0225
 2334TIP3    H1 6966   3.952   2.674   0.755  0.3826  0.3939  0.2088
 2334TIP3    H2 6967   3.885   2.794   0.820  0.1357  1.1070 -1.3183
 2335TIP3   OH2 6968   1.319   4.366   4.496 -0.3447  0.1897 -0.1124
 2335TIP3    H1 6969   1.409   4.369   4.464 -0.5002  1.7045 -0.4800
 2335TIP3    H2 6970   1.315   4.435   4.562 -1.0799 -0.2923  0.3649
 2336TIP3   OH2 6971   6.705   4.727   3.923 -0.4157  0.3914  0.5400
 2336TIP3    H1 6972   6.668   4.670   3.991 -0.3016  0.5171  0.7090
 2336TIP3    H2 6973   6.688   4.681   3.841 -0.9665  0.4546  0.6146
 2337TIP3   OH2 6974   5.041   2.648   2.931 -0.2151  0.1337  0.2426
 2337TIP3    H1 6975   4.986   2.726   2.946  0.2022  0.6431 -0.7818
 2337TIP3    H2 6976   5.116   2.660   2.989  0.6886  1.3769 -1.1097
 2338TIP3   OH2 6977   6.281   5.653   4.478 -1.2079  0.2937  0.0026
 2338TIP3    H1 6978   6.208   5.594   4.460 -2.1650  1.5866 -0.5179
 2338TIP3    H2 6979   6.263   5.688   4.566 -1.8278  1.4120 -0.5383
 2339TIP3   OH2 6980   6.069   6.291   0.610 -0.2674  0.3360 -0.1593
 2339TIP3    H1 6981   6.096   6.202   0.584 -0.9551  0.1843 -0.3820
 2339TIP3    H2 6982   6.101   6.301   0.699 -0.7343 -0.3864  0.1031
 2340TIP3   OH2 6983   6.533   5.878   2.826  0.5942  0.8731 -0.0413
 2340TIP3    H1 6984   6.562   5.822   2.755 -1.3887  1.1840 -1.1741
 2340TIP3    H2 6985   6.503   5.958   2.783  2.3148  2.4218  1.4405
 2341TIP3   OH2 6986   3.554   6.391   3.718 -0.7639  0.0053 -0.4106
 2341TIP3    H1 6987   3.601   6.314   3.752 -0.0864  0.4310 -0.3681
 2341TIP3    H2 6988   3.552   6.378   3.623  0.7555  0.6820 -0.5745
 2342TIP3   OH2 6989   0.860   3.352   5.386  0.3175 -0.2318 -0.2703
 2342TIP3    H1 6990   0.899   3.386   5.467 -1.2409  1.7508 -0.2695
 2342TIP3    H2 6991   0.775   3.319   5.412 -0.2294  0.4883 -1.0808
 2343TIP3   OH2 6992   0.858   4.991   0.661 -0.2306  0.2251 -0.4126
 2343TIP3    H1 6993   0.907   4.954   0.587 -0.3212  0.6255 -0.6769
 2343TIP3    H2 6994   0.859   4.922   0.727  1.1676  0.4145 -0.1927
 2344TIP3   OH2 6995   3.678   4.913   5.119 -0.7548 -0.0704  0.2131
 2344TIP3    H1 6996   3.679   5.009   5.122 -0.1780 -0.0843  1.1439
 2344TIP3    H2 6997   3.748   4.887   5.179 -1.2815 -1.0883  0.4090
 2345TIP3   OH2 6998   2.521   4.580   4.325  0.9465 -0.6332  0.4772
 2345TIP3    H1 6999   2.556   4.668   4.342 -0.8399 -0.0831  1.5212
 2345TIP3    H2 7000   2.540   4.565   4.233  0.4162  1.2758 -0.0017
 2346TIP3   OH2 7001   5.133   0.331   5.311  0.5566  0.2726 -0.0160
 2346TIP3    H1 7002   5.218   0.357   5.275  1.3921 -1.6958  0.4244
 2346TIP3    H2 7003   5.146   0.332   5.406  0.4609 -1.1627  0.0257
 2347TIP3   OH2 7004   0.313   4.919   5.121 -0.1849 -0.0041 -0.1298
 2347TIP3    H1 7005   0.237   4.972   5.098  0.3672 -0.2189 -2.7642
 2347TIP3    H2 7006   0.276   4.836   5.152 -1.0156  1.1749  2.2357
 2348TIP3   OH2 7007   5.382   2.477   5.427  0.4548 -0.2844 -0.4276
 2348TIP3    H1 7008   5.347   2.409   5.486 -1.7112  0.6605 -0.4988
 2348TIP3    H2 7009   5.367   2.558   5.475 -0.0292  0.3819 -1.6708
 2349TIP3   OH2 7010   6.106   2.660   5.458  0.2150 -0.1337  0.0311
 2349TIP3    H1 7011   6.157   2.588   5.497  1.1445  0.1888 -0.5411
 2349TIP3    H2 7012   6.069   2.622   5.379  0.9956  0.0949 -0.4576
 2350TIP3   OH2 7013   0.629   4.654   5.846 -0.5503  0.6349  0.0106
 2350TIP3    H1 7014   0.544   4.659   5.803 -0.2379 -0.2897 -0.7589
 2350TIP3    H2 7015   0.689   4.625   5.777 -0.2690 -2.2351  1.3177
 2351TIP3   OH2 7016   0.410   4.632   1.814  0.6233  0.2510  0.6198
 2351TIP3    H1 7017   0.484   4.667   1.764  0.3347 -0.5199 -0.3796
 2351TIP3    H2 7018   0.447   4.557   1.861  0.6604  0.3710  0.7848
 2352TIP3   OH2 7019   7.065   6.248   1.419  0.3868 -0.0063  0.1011
 2352TIP3    H1 7020   7.023   6.331   1.397 -2.1995 -1.2939 -0.1774
 2352TIP3    H2 7021   7.122   6.229   1.345 -0.4210  0.6305 -0.7062
 2353TIP3   OH2 7022   0.631   2.762   5.393  0.3774  0.0913 -0.0634
 2353TIP3    H1 7023   0.667   2.689   5.343  1.1044 -0.7055  1.5512
 2353TIP3    H2 7024   0.659   2.840   5.346  2.2554 -0.5909 -0.1500
 2354TIP3   OH2 7025   6.936   4.006   0.717  0.3184  0.1663  0.4338
 2354TIP3    H1 7026   7.029   4.027   0.723 -0.1131  2.0328  1.1210
 2354TIP3    H2 7027   6.933   3.910   0.719  2.1509  0.0911  1.4471
 2355TIP3   OH2 7028   5.740   2.020   0.563  0.9167  0.1449 -0.3892
 2355TIP3    H1 7029   5.776   1.992   0.479  0.8855  0.8490 -0.6525
 2355TIP3    H2 7030   5.797   1.981   0.629  0.4440 -1.1107 -0.6957
 2356TIP3   OH2 7031   3.583   1.047   5.082 -0.0456  0.4267  0.8960
 2356TIP3    H1 7032   3.612   1.070   5.170  3.7119 -0.7321  0.1444
 2356TIP3    H2 7033   3.575   0.951   5.083 -0.8570  0.4723  0.2063
 2357TIP3   OH2 7034   5.599   0.794   3.456  0.0490 -0.1527 -0.1231
 2357TIP3    H1 7035   5.683   0.836   3.439 -0.1152 -0.7681 -2.8148
 2357TIP3    H2 7036   5.616   0.700   3.444 -0.7223 -0.4262  0.7757
 2358TIP3   OH2 7037   0.432   1.973   0.964  0.4059 -0.7599  0.3223
 2358TIP3    H1 7038   0.371   2.041   0.993  0.4078  1.0599 -3.4320
 2358TIP3    H2 7039   0.376   1.899   0.942  0.2085 -1.2820  2.3507
 2359TIP3   OH2 7040   0.375   4.884   0.330 -0.0304 -0.3060  0.0617
 2359TIP3    H1 7041   0.342   4.948   0.392 -1.0227 -0.1220 -0.6317
 2359TIP3    H2 7042   0.391   4.934   0.250 -0.7599 -0.9036 -0.4671
 2360TIP3   OH2 7043   7.067   0.684   2.624  0.1718 -0.2780 -0.2349
 2360TIP3    H1 7044   7.038   0.637   2.702 -0.1840  1.1365  0.5244
 2360TIP3    H2 7045   6.993   0.678   2.564 -0.2379  0.0857  0.2198
 2361TIP3   OH2 7046   3.262   3.925   1.767 -0.1337  0.3941 -0.4317
 2361TIP3    H1 7047   3.317   3.896   1.693  0.1294  0.1349 -0.1384
 2361TIP3    H2 7048   3.212   3.999   1.732  2.0178  2.1344 -0.1145
 2362TIP3   OH2 7049   2.630   6.681   3.504  0.3207  0.1576 -0.1109
 2362TIP3    H1 7050   2.656   6.668   3.595  0.3907 -1.0346 -0.2850
 2362TIP3    H2 7051   2.686   6.752   3.473  1.5628 -0.6290  0.2591
 2363TIP3   OH2 7052   5.883   3.647   2.567  0.1643 -0.0677  0.4952
 2363TIP3    H1 7053   5.920   3.727   2.606  2.2663 -1.0114  0.5861
 2363TIP3    H2 7054   5.864   3.672   2.476  0.7773  0.5685  0.5256
 2364TIP3   OH2 7055   6.946   2.184   0.514 -0.0554  0.0041  0.1228
 2364TIP3    H1 7056   7.037   2.160   0.499 -0.2932 -0.2794 -0.9773
 2364TIP3    H2 7057   6.896   2.108   0.482 -0.7129  0.6614 -0.4387
 2365TIP3   OH2 7058   3.360   5.227   5.526  0.2212  1.0119 -0.0766
 2365TIP3    H1 7059   3.276   5.185   5.508  0.3116  0.7325  0.1469
 2365TIP3    H2 7060   3.343   5.321   5.516 -0.6726  1.1254  2.0662
 2366TIP3   OH2 7061   5.671   0.209   4.062  0.2595  0.3048  0.2870
 2366TIP3    H1 7062   5.765   0.223   4.068  0.3967 -0.7887  0.8985
 2366TIP3    H2 7063   5.633   0.294   4.085  1.0852  0.8861 -0.4249
 2367TIP3   OH2 7064   0.879   1.795   1.183 -0.4325  0.0546  0.3968
 2367TIP3    H1 7065   0.853   1.875   1.139  2.1658  1.5036  1.2735
 2367TIP3    H2 7066   0.921   1.824   1.264  0.6665 -2.1866  0.7262
 2368TIP3   OH2 7067   7.184   5.572   4.206  0.1997  0.2762  0.1856
 2368TIP3    H1 7068   7.145   5.573   4.293 -1.1578  0.1870 -0.4018
 2368TIP3    H2 7069   7.118   5.611   4.149 -0.0549 -2.0339 -1.2448
 2369TIP3   OH2 7070   4.418   1.562   4.761  0.7351 -0.2835  0.6867
 2369TIP3    H1 7071   4.458   1.644   4.734 -1.1608  0.2270 -0.8175
 2369TIP3    H2 7072   4.375   1.583   4.844 -0.8957  0.6951 -0.3535
 2370TIP3   OH2 7073   7.015   1.181   5.630  0.3829 -0.6871 -0.1908
 2370TIP3    H1 7074   6.962   1.129   5.691 -0.4885 -1.3100 -1.4303
 2370TIP3    H2 7075   7.102   1.140   5.633 -0.2849 -2.2893 -1.1518
 2371TIP3   OH2 7076   5.792   4.215   5.460 -0.6956  0.5153 -0.2146
 2371TIP3    H1 7077   5.836   4.300   5.466  0.3776 -0.1042  1.4861
 2371TIP3    H2 7078   5.727   4.217   5.530 -0.3024 -0.2447  0.1869
 2372TIP3   OH2 7079   6.451   6.717   2.779 -0.3225 -0.1441  0.0020
 2372TIP3    H1 7080   6.400   6.779   2.726 -0.8459 -0.4475  0.1503
 2372TIP3    H2 7081   6.465   6.642   2.721 -0.0115 -0.0468 -0.0502
 2373TIP3   OH2 7082   5.286   5.402   1.487 -0.0672  0.3668  0.2837
 2373TIP3    H1 7083   5.256   5.330   1.432  0.1610  2.1273 -2.3947
 2373TIP3    H2 7084   5.218   5.413   1.553 -0.9118 -1.2232 -0.2813
 2374TIP3   OH2 7085   6.406   6.332   5.223 -0.7644  0.0062 -0.0733
 2374TIP3    H1 7086   6.444   6.403   5.275 -2.0729  1.8164 -1.4598
 2374TIP3    H2 7087   6.311   6.346   5.229 -0.9844 -0.4560 -1.9065
 2375TIP3   OH2 7088   5.687   5.804   2.190  0.0121  0.0927 -0.3849
 2375TIP3    H1 7089   5.625   5.851   2.134 -0.3854 -0.9139 -0.8109
 2375TIP3    H2 7090   5.702   5.864   2.264 -0.5361  0.8527 -0.8709
 2376TIP3   OH2 7091   6.438   1.051   1.899  0.2289 -0.0953 -0.1942
 2376TIP3    H1 7092   6.429   1.146   1.895 -2.7540  0.0351  3.5268
 2376TIP3    H2 7093   6.354   1.017   1.867  0.3706 -1.3272  0.6640
 2377TIP3   OH2 7094   0.461   1.325   0.175 -0.1236  0.2040  0.0984
 2377TIP3    H1 7095   0.486   1.410   0.212  0.1983  0.8554 -1.5126
 2377TIP3    H2 7096   0.509   1.261   0.227 -2.1782  0.7721  2.9119
 2378TIP3   OH2 7097   1.619   1.300   2.873 -0.1614  0.6168  0.1505
 2378TIP3    H1 7098   1.691   1.285   2.813  1.0876 -0.2841  1.7819
 2378TIP3    H2 7099   1.548   1.333   2.818  1.1106  0.4507 -1.6797
 2379TIP3   OH2 7100   4.344   2.783   1.574  0.1246 -0.2558 -0.2672
 2379TIP3    H1 7101   4.387   2.704   1.541  1.7033 -0.3596  1.8652
 2379TIP3    H2 7102   4.410   2.852   1.564 -0.2367  0.2066  0.4367
 2380TIP3   OH2 7103   5.371   3.672   3.753 -0.3513  0.0893 -0.4513
 2380TIP3    H1 7104   5.447   3.616   3.733 -0.7621 -0.8359  0.4814
 2380TIP3    H2 7105   5.410   3.752   3.790  0.1682 -1.1823  1.9580
 2381TIP3   OH2 7106   0.022   5.041   5.391 -0.6663 -0.0056  0.1029
 2381TIP3    H1 7107  -0.016   5.023   5.305  1.4483 -0.5225 -0.8053
 2381TIP3    H2 7108   0.004   4.962   5.442  3.1496 -2.4868 -1.8766
 2382TIP3   OH2 7109   3.822   4.215   2.343 -0.2624 -0.4959  0.2712
 2382TIP3    H1 7110   3.824   4.308   2.322 -0.3183 -0.2641  1.2565
 2382TIP3    H2 7111   3.908   4.197   2.382  0.4576 -1.2766 -1.5469
 2383TIP3   OH2 7112   2.080   3.492   4.188 -0.0395 -1.1926 -0.3171
 2383TIP3    H1 7113   2.161   3.520   4.146 -0.8031 -0.2334 -1.2367
 2383TIP3    H2 7114   2.101   3.484   4.281  0.5265  1.4787 -0.1444
 2384TIP3   OH2 7115   1.033   1.081   3.452  0.0210  0.0656  0.3106
 2384TIP3    H1 7116   0.975   1.007   3.471 -0.3907  0.0821 -0.7739
 2384TIP3    H2 7117   1.120   1.050   3.475 -0.3222 -0.2375  1.2425
 2385TIP3   OH2 7118   4.351   3.990   0.770 -0.3349  0.0705  0.3730
 2385TIP3    H1 7119   4.373   3.947   0.853  0.7106 -2.0670 -0.9408
 2385TIP3    H2 7120   4.407   4.068   0.767  0.1106 -0.2057  1.3487
 2386TIP3   OH2 7121   0.542   0.638   0.862 -0.1364  0.0081  0.2273
 2386TIP3    H1 7122   0.610   0.667   0.924  1.8070  1.6539 -2.4564
 2386TIP3    H2 7123   0.506   0.719   0.826 -2.2529 -0.8859  0.2206
 2387TIP3   OH2 7124   5.504   4.927   0.474 -0.4489 -0.4684 -0.2073
 2387TIP3    H1 7125   5.488   4.991   0.544  1.6265 -1.0976  0.9204
 2387TIP3    H2 7126   5.563   4.972   0.413 -0.4107 -0.7109 -0.3518
 2388TIP3   OH2 7127   5.266   1.284   4.650 -0.2676  0.4454 -0.2889
 2388TIP3    H1 7128   5.202   1.220   4.680  0.2713  0.4309  0.8749
 2388TIP3    H2 7129   5.335   1.282   4.716  1.8036 -0.7670 -2.3361
 2389TIP3   OH2 7130   4.875   1.056   4.224 -0.5005  0.0684 -0.8110
 2389TIP3    H1 7131   4.837   1.058   4.136 -1.9797 -0.2020 -0.1952
 2389TIP3    H2 7132   4.807   1.090   4.282 -0.1278 -1.1631  0.4254
 2390TIP3   OH2 7133   6.659   0.676   0.318 -0.0919 -0.0704  0.8908
 2390TIP3    H1 7134   6.641   0.648   0.229 -0.9086 -0.7632  1.2626
 2390TIP3    H2 7135   6.618   0.762   0.326  1.5463  0.8236  0.0569
 2391TIP3   OH2 7136   2.257   4.448   4.103 -0.2270 -0.9028  0.0898
 2391TIP3    H1 7137   2.171   4.472   4.068  0.2435 -1.7258 -1.7847
 2391TIP3    H2 7138   2.291   4.384   4.040  1.2699 -1.4912  1.4262
 2392TIP3   OH2 7139   6.306   6.793   0.341 -0.0239  0.4920 -0.3083
 2392TIP3    H1 7140   6.386   6.811   0.389  0.0553  1.9382 -0.9472
 2392TIP3    H2 7141   6.320   6.707   0.302  0.2337 -0.3505  1.5276
 2393TIP3   OH2 7142   3.837   3.961   0.428 -0.3022 -0.0737 -0.0246
 2393TIP3    H1 7143   3.821   4.034   0.368  0.2558  0.2952  0.2673
 2393TIP3    H2 7144   3.749   3.934   0.456 -0.5577 -0.0646 -0.7736
 2394TIP3   OH2 7145   4.926   2.930   0.472 -0.5197 -0.2734  0.0707
 2394TIP3    H1 7146   4.887   2.868   0.534 -0.3591 -0.3808  0.0645
 2394TIP3    H2 7147   4.865   2.933   0.399 -0.1466 -1.0116 -0.2772
 2395TIP3   OH2 7148   4.095   5.582   4.553 -0.1538  0.5904 -0.3554
 2395TIP3    H1 7149   4.040   5.657   4.575 -0.3992  0.4846 -0.6055
 2395TIP3    H2 7150   4.153   5.572   4.629  0.0840  1.2141 -0.4454
 2396TIP3   OH2 7151   7.110   1.224   3.287  0.1268  0.1579  0.4691
 2396TIP3    H1 7152   7.189   1.278   3.292  0.9245 -0.9250 -0.0722
 2396TIP3    H2 7153   7.056   1.267   3.220 -0.0030  1.2189  1.2399
 2397TIP3   OH2 7154   2.587   3.851   0.250  0.0050  0.4244 -0.5403
 2397TIP3    H1 7155   2.621   3.822   0.335 -0.3251 -0.0996 -0.5843
 2397TIP3    H2 7156   2.542   3.934   0.269  0.2472  0.4947 -0.2688
 2398TIP3   OH2 7157   1.144   1.273   0.140 -0.6557  0.1162  0.4315
 2398TIP3    H1 7158   1.135   1.368   0.141 -2.7880 -0.0335 -0.8376
 2398TIP3    H2 7159   1.092   1.243   0.215  0.7350 -0.0435  1.3711
 2399TIP3   OH2 7160   4.096   3.075   2.577 -0.3662 -0.4442 -0.2292
 2399TIP3    H1 7161   4.106   2.981   2.563  0.2425 -0.4583  0.2864
 2399TIP3    H2 7162   4.077   3.084   2.670 -0.3088 -0.0447 -0.2521
 2400TIP3   OH2 7163   2.704   0.834   1.655  0.2307  0.4226  0.1511
 2400TIP3    H1 7164   2.702   0.888   1.733 -1.3380 -2.0839  2.0397
 2400TIP3    H2 7165   2.795   0.807   1.645  0.7761  2.2370 -0.0488
 2401TIP3   OH2 7166   4.201   3.330   4.801  1.1657  0.4872 -0.1173
 2401TIP3    H1 7167   4.128   3.354   4.745  0.5082 -1.8919 -0.3815
 2401TIP3    H2 7168   4.274   3.317   4.740  0.3503 -2.4938 -0.5886
 2402TIP3   OH2 7169   0.433   6.058   2.360  0.1343 -0.8747  0.5390
 2402TIP3    H1 7170   0.443   6.015   2.275  0.2633 -0.7145  0.4728
 2402TIP3    H2 7171   0.384   6.138   2.341 -1.5294 -1.7650  0.8935
 2403TIP3   OH2 7172   0.959   1.913   4.109  0.1719  0.6069  0.0002
 2403TIP3    H1 7173   0.984   1.969   4.035 -0.0345  1.0568  0.2737
 2403TIP3    H2 7174   1.004   1.951   4.184  0.1393  0.3254  0.1622
 2404TIP3   OH2 7175   0.200   2.471   2.786  0.1600 -0.2155 -0.7441
 2404TIP3    H1 7176   0.269   2.535   2.769  0.0829  1.0670  2.8939
 2404TIP3    H2 7177   0.122   2.507   2.742  0.2167  2.0920  0.8819
 2405TIP3   OH2 7178   7.016   5.457   1.573 -0.2607 -0.0697 -0.4200
 2405TIP3    H1 7179   7.004   5.538   1.523  0.8574 -0.3958 -1.2768
 2405TIP3    H2 7180   6.929   5.435   1.605 -0.7341  1.0077 -0.9117
 2406TIP3   OH2 7181   1.060   5.411   4.824  0.0556 -0.2144 -0.6932
 2406TIP3    H1 7182   1.087   5.399   4.915 -0.1278  0.7793 -0.4944
 2406TIP3    H2 7183   1.117   5.353   4.774  1.2677  0.4149 -0.0934
 2407TIP3   OH2 7184   3.704   5.973   0.284 -0.2325 -0.1850  0.3406
 2407TIP3    H1 7185   3.756   5.896   0.304  1.0345  1.0331  2.0938
 2407TIP3    H2 7186   3.736   6.002   0.198 -0.4293 -1.3328 -0.1363
 2408TIP3   OH2 7187   6.641   6.363   4.673 -0.4040  0.0708  0.1261
 2408TIP3    H1 7188   6.641   6.387   4.765 -0.8623 -1.0603  0.4372
 2408TIP3    H2 7189   6.725   6.396   4.640 -0.7113  1.4480  0.6647
 2409TIP3   OH2 7190   1.625   4.621   0.852  0.0443 -0.2654 -0.3874
 2409TIP3    H1 7191   1.713   4.585   0.850 -0.4534 -1.5262 -0.2137
 2409TIP3    H2 7192   1.633   4.700   0.906  0.9405 -0.6962  0.1365
 2410TIP3   OH2 7193   0.537   6.385   2.805  0.4452 -0.4442  0.0440
 2410TIP3    H1 7194   0.463   6.428   2.849  1.2138  2.4020 -1.1958
 2410TIP3    H2 7195   0.614   6.426   2.843  1.3018 -1.4466 -0.5693
 2411TIP3   OH2 7196   2.750   2.748   4.148 -0.3980 -0.6212  0.2911
 2411TIP3    H1 7197   2.744   2.760   4.243 -0.0421 -0.7879  0.3366
 2411TIP3    H2 7198   2.690   2.675   4.130  2.6206 -3.5346  0.9996
 2412TIP3   OH2 7199   5.788   6.566   5.040  0.3992 -0.0631  0.4436
 2412TIP3    H1 7200   5.724   6.536   5.105  1.2831 -0.4056  1.1837
 2412TIP3    H2 7201   5.746   6.553   4.956 -0.8289  0.4970  0.9524
 2413TIP3   OH2 7202   1.890   1.527   4.049  0.5115  0.1532  0.1534
 2413TIP3    H1 7203   1.834   1.584   3.996  0.6663  1.3558  1.2422
 2413TIP3    H2 7204   1.857   1.537   4.138  0.8069 -1.1648  0.4255
 2414TIP3   OH2 7205   2.012   4.600   4.449 -0.5134 -0.3077  0.4117
 2414TIP3    H1 7206   1.959   4.636   4.378 -0.3739 -1.8686 -0.5365
 2414TIP3    H2 7207   2.094   4.573   4.408 -0.3243 -1.0164  1.2071
 2415TIP3   OH2 7208   6.597   1.960   1.034 -0.1844 -0.8519  0.2315
 2415TIP3    H1 7209   6.598   1.920   0.947  2.6757 -2.4697  0.9020
 2415TIP3    H2 7210   6.674   2.017   1.035 -1.9133  1.6874  0.7265
 2416TIP3   OH2 7211   4.403   6.260   4.189 -0.5507 -0.2062 -0.9756
 2416TIP3    H1 7212   4.478   6.298   4.144 -0.7414 -0.7859 -1.7991
 2416TIP3    H2 7213   4.354   6.336   4.221 -0.5111  0.2292 -1.9029
 2417TIP3   OH2 7214   6.505   4.331   3.167  0.0098 -0.0803  0.2543
 2417TIP3    H1 7215   6.556   4.406   3.196  1.3741 -0.1327 -1.8419
 2417TIP3    H2 7216   6.486   4.348   3.075 -1.6406 -1.2440  0.3368
 2418TIP3   OH2 7217   3.497   6.422   0.969 -0.0917  0.0917  0.1142
 2418TIP3    H1 7218   3.568   6.468   0.924 -0.5594  0.7653  0.0590
 2418TIP3    H2 7219   3.435   6.399   0.901  0.1308 -0.6118  0.1454
 2419TIP3   OH2 7220   0.376   2.682   2.732  0.3764 -0.4658  0.2367
 2419TIP3    H1 7221   0.387   2.734   2.811  1.8885 -1.1190  0.4909
 2419TIP3    H2 7222   0.406   2.739   2.661  0.1831 -0.3134  0.2760
 2420TIP3   OH2 7223   7.121   1.913   4.997  0.0115 -0.1983  0.5485
 2420TIP3    H1 7224   7.132   1.950   5.084  0.6742  0.1263  0.3330
 2420TIP3    H2 7225   7.200   1.938   4.950 -1.1084  1.1866 -0.7198
 2421TIP3   OH2 7226  -0.004   2.855   0.967  0.0358  0.2802 -0.1202
 2421TIP3    H1 7227   0.027   2.848   1.057 -1.6515 -0.6349  0.4378
 2421TIP3    H2 7228   0.061   2.808   0.915  0.2358 -0.5382  0.8365
 2422TIP3   OH2 7229   4.329   1.772   0.890 -0.2563  0.3406  0.0812
 2422TIP3    H1 7230   4.303   1.744   0.978 -0.3914  1.0393  0.2680
 2422TIP3    H2 7231   4.383   1.700   0.857 -0.4650 -0.0687  0.6094
 2423TIP3   OH2 7232   1.322   1.781   5.107 -0.9549 -0.6485 -0.5268
 2423TIP3    H1 7233   1.370   1.830   5.173 -1.2978  1.2676 -1.6261
 2423TIP3    H2 7234   1.235   1.767   5.146 -0.8704 -0.3255 -0.2210
 2424TIP3   OH2 7235   7.108   6.688   1.088  0.3712  0.3002  0.1471
 2424TIP3    H1 7236   7.098   6.782   1.101  1.7105  0.5878 -0.6996
 2424TIP3    H2 7237   7.094   6.675   0.994 -1.0796 -0.5517  0.4527
 2425TIP3   OH2 7238   2.932   1.118   3.420 -0.0842  0.0738 -0.0711
 2425TIP3    H1 7239   2.923   1.075   3.505 -1.3377  0.4589  0.0073
 2425TIP3    H2 7240   3.025   1.108   3.398  0.2321 -0.1603  1.2684
 2426TIP3   OH2 7241   0.302   3.871   4.016 -0.3414 -0.2327 -0.1403
 2426TIP3    H1 7242   0.396   3.856   4.029 -0.9486 -2.7384  2.2160
 2426TIP3    H2 7243   0.298   3.927   3.939  3.0241 -1.0907 -1.1310
 2427TIP3   OH2 7244   4.269   0.143   1.072 -0.1224  0.3597  0.2457
 2427TIP3    H1 7245   4.243   0.059   1.033 -0.7894  0.1762  1.0531
 2427TIP3    H2 7246   4.285   0.123   1.164  0.2530  1.0170  0.3276
 2428TIP3   OH2 7247   0.286   4.152   3.543 -0.1439  0.1274 -0.8211
 2428TIP3    H1 7248   0.285   4.166   3.449 -0.0164  0.2069 -0.8103
 2428TIP3    H2 7249   0.301   4.239   3.580  1.4018 -0.1330 -0.7749
 2429TIP3   OH2 7250   3.215   0.715   2.107  0.6146 -0.4721  0.3680
 2429TIP3    H1 7251   3.292   0.727   2.052  1.7410 -0.5233  1.8759
 2429TIP3    H2 7252   3.250   0.700   2.194 -1.1095 -0.8248  1.0369
 2430TIP3   OH2 7253   0.876   4.033   2.720  0.1092 -0.1570 -0.0856
 2430TIP3    H1 7254   0.935   3.982   2.776  0.0368 -3.0886 -2.4645
 2430TIP3    H2 7255   0.934   4.086   2.665  0.2455  0.9041  1.0231
 2431TIP3   OH2 7256   4.289   0.771   5.743  0.3681 -0.2964  0.0522
 2431TIP3    H1 7257   4.329   0.836   5.801  0.2866 -0.0824 -0.1306
 2431TIP3    H2 7258   4.338   0.779   5.661  0.0081 -0.0965 -0.1438
 2432TIP3   OH2 7259   2.933   6.410   2.480 -0.2982  0.3806  0.3984
 2432TIP3    H1 7260   2.910   6.430   2.571  1.0681  1.5693  0.5243
 2432TIP3    H2 7261   2.999   6.340   2.487 -2.5398 -1.9271  0.1095
 2433TIP3   OH2 7262   6.766   4.465   1.395  0.2565  0.2882  0.6168
 2433TIP3    H1 7263   6.745   4.555   1.371  1.6956  0.4417 -0.1952
 2433TIP3    H2 7264   6.711   4.411   1.337  1.5666  0.6680 -1.0552
 2434TIP3   OH2 7265   1.126   3.993   1.358  0.3701  0.0371 -0.1738
 2434TIP3    H1 7266   1.045   3.959   1.319  0.1368 -0.1582  0.4615
 2434TIP3    H2 7267   1.107   4.085   1.375  0.7473  0.3153 -1.2312
 2435TIP3   OH2 7268   1.389   0.283   4.383 -0.1808  0.0318  0.0671
 2435TIP3    H1 7269   1.468   0.303   4.432 -0.7093  0.7238  0.6670
 2435TIP3    H2 7270   1.374   0.361   4.329  0.5863 -0.8523 -1.4967
 2436TIP3   OH2 7271   6.770   0.732   4.971 -0.5697  0.3761  0.5884
 2436TIP3    H1 7272   6.743   0.805   4.915  1.4215  0.2203 -0.6699
 2436TIP3    H2 7273   6.697   0.720   5.031 -1.3607  2.7722  0.2090
 2437TIP3   OH2 7274   6.189   0.174   3.304 -0.0935 -0.3860  0.1239
 2437TIP3    H1 7275   6.216   0.084   3.288 -0.2645 -0.7283  1.6007
 2437TIP3    H2 7276   6.193   0.184   3.400  0.7730  1.4428 -0.0535
 2438TIP3   OH2 7277   6.989   4.751   3.873 -0.6653 -0.1453  0.2313
 2438TIP3    H1 7278   6.899   4.725   3.893 -0.7825  0.3741  0.3838
 2438TIP3    H2 7279   7.020   4.792   3.954 -0.6084  0.5307 -0.1320
 2439TIP3   OH2 7280   0.947   2.383   1.650  0.6013  0.1909 -0.0334
 2439TIP3    H1 7281   0.957   2.319   1.579  0.2024  1.1965 -1.0152
 2439TIP3    H2 7282   0.962   2.332   1.730 -0.1403 -1.2236 -0.7650
 2440TIP3   OH2 7283   4.326   4.365   5.118 -0.3146 -0.0841  0.7005
 2440TIP3    H1 7284   4.316   4.317   5.036 -3.0072  1.1006  0.2515
 2440TIP3    H2 7285   4.275   4.315   5.182  0.2823 -0.0107  1.2508
 2441TIP3   OH2 7286   3.917   5.068   4.323  0.2949  0.5665  0.1005
 2441TIP3    H1 7287   3.930   4.983   4.366  0.2046  0.5117  0.0193
 2441TIP3    H2 7288   3.882   5.124   4.392 -0.3009  0.3482 -0.0200
 2442TIP3   OH2 7289   4.908   6.523   2.619  0.6181 -0.1843 -0.1141
 2442TIP3    H1 7290   4.829   6.521   2.566  0.7222 -1.0706 -0.2567
 2442TIP3    H2 7291   4.885   6.477   2.699  0.9380 -0.3161 -0.0932
 2443TIP3   OH2 7292   4.693   6.118   0.869 -0.0838 -0.4737  1.0723
 2443TIP3    H1 7293   4.721   6.173   0.796  0.9883 -0.0698  1.7681
 2443TIP3    H2 7294   4.717   6.029   0.843 -2.2201 -0.7300 -0.2520
 2444TIP3   OH2 7295   4.745   2.338   0.235 -0.5380  0.3304  0.0006
 2444TIP3    H1 7296   4.786   2.384   0.308 -0.7775  1.8553 -0.7943
 2444TIP3    H2 7297   4.801   2.261   0.220  0.3717  0.8238  0.7899
 2445TIP3   OH2 7298   0.020   5.413   4.769  0.0035  0.1212  0.5549
 2445TIP3    H1 7299  -0.022   5.486   4.724  1.0091  1.0497  1.0637
 2445TIP3    H2 7300   0.099   5.451   4.808  1.9751 -1.7401 -1.3015
 2446TIP3   OH2 7301   6.408   2.254   1.601  0.2517 -0.1233 -0.3289
 2446TIP3    H1 7302   6.373   2.302   1.526 -0.6456  1.1665  0.8773
 2446TIP3    H2 7303   6.491   2.298   1.620  0.1188  0.0386 -0.1151
 2447TIP3   OH2 7304   2.323   3.724   0.266  0.2447 -0.3580 -0.1207
 2447TIP3    H1 7305   2.409   3.762   0.286  1.4083 -1.8631 -2.0182
 2447TIP3    H2 7306   2.337   3.630   0.267 -1.7442 -0.6955  0.8550
 2448TIP3   OH2 7307   6.438   5.621   0.990 -0.7728  0.2169  0.3760
 2448TIP3    H1 7308   6.428   5.604   0.896 -3.4653 -0.7590  0.7556
 2448TIP3    H2 7309   6.486   5.545   1.023  1.2225  1.1080 -0.3243
 2449TIP3   OH2 7310   0.536   3.094   3.558  0.3527  0.1585 -0.1297
 2449TIP3    H1 7311   0.475   3.168   3.562  0.2645  0.0897 -0.2079
 2449TIP3    H2 7312   0.516   3.042   3.636  1.7872  1.2861  1.0786
 2450TIP3   OH2 7313   4.249   0.518   1.833  0.8652  0.5531 -0.9273
 2450TIP3    H1 7314   4.313   0.517   1.905 -0.3819 -0.8063  0.2193
 2450TIP3    H2 7315   4.290   0.464   1.765  0.7823 -0.6808 -0.0294
 2451TIP3   OH2 7316   4.351   2.169   1.648  0.6792  0.0861 -0.3997
 2451TIP3    H1 7317   4.443   2.141   1.643  0.5808 -0.3909  0.3868
 2451TIP3    H2 7318   4.314   2.140   1.564  0.7825 -1.4546  0.0479
 2452TIP3   OH2 7319   6.275   0.239   0.123 -0.4697  0.5583 -0.2624
 2452TIP3    H1 7320   6.236   0.316   0.164 -2.6216 -0.7439  0.3198
 2452TIP3    H2 7321   6.241   0.240   0.033  0.4942  0.9362 -0.6269
 2453TIP3   OH2 7322   2.303   1.754   5.169  0.0444  0.0906 -0.3284
 2453TIP3    H1 7323   2.286   1.684   5.107  1.5028 -0.7733  0.2099
 2453TIP3    H2 7324   2.391   1.785   5.147  1.1638 -1.1308  2.0711
 2454TIP3   OH2 7325   1.264   3.486   3.023  0.0654  0.0319  0.0120
 2454TIP3    H1 7326   1.353   3.505   2.994  0.1592  0.8670  0.8429
 2454TIP3    H2 7327   1.274   3.423   3.095  0.0648  1.0685  0.9341
 2455TIP3   OH2 7328   5.068   1.196   3.570 -0.3365  0.3598  0.0520
 2455TIP3    H1 7329   5.110   1.264   3.623 -0.8508  0.2870  0.5590
 2455TIP3    H2 7330   5.029   1.243   3.497 -1.4126  0.7225  0.8439
 2456TIP3   OH2 7331   7.120   6.575   4.786 -0.3970  0.1524 -0.0378
 2456TIP3    H1 7332   7.026   6.589   4.800 -0.7710 -2.8008  1.0041
 2456TIP3    H2 7333   7.127   6.558   4.692 -0.7528  1.1435 -0.2596
 2457TIP3   OH2 7334   4.512   2.876   3.982  0.0700  0.0357 -0.4038
 2457TIP3    H1 7335   4.506   2.880   3.887 -0.0076  1.0980 -0.3673
 2457TIP3    H2 7336   4.450   2.942   4.013 -1.0385 -1.3459  0.4371
 2458TIP3   OH2 7337   1.881   6.577   2.072 -0.0947  0.5422 -0.5514
 2458TIP3    H1 7338   1.909   6.627   2.149  2.6549 -1.7751  0.1098
 2458TIP3    H2 7339   1.817   6.514   2.106 -0.4098  0.8475 -0.5739
 2459TIP3   OH2 7340   0.282   1.199   0.521 -0.0841 -0.1438 -0.0364
 2459TIP3    H1 7341   0.366   1.169   0.557  1.0608  0.4864 -2.0342
 2459TIP3    H2 7342   0.251   1.124   0.469  0.1599  0.2618 -0.7730
 2460TIP3   OH2 7343   3.432   0.748   4.257 -0.4530  0.6110 -0.5863
 2460TIP3    H1 7344   3.338   0.731   4.246 -0.4053  0.0805 -0.2292
 2460TIP3    H2 7345   3.468   0.743   4.168 -0.8142  1.1692 -0.7694
 2461TIP3   OH2 7346   1.264   1.137   5.117 -1.1928  0.2322  0.5233
 2461TIP3    H1 7347   1.202   1.170   5.052 -0.1478 -1.7156 -1.6173
 2461TIP3    H2 7348   1.263   1.202   5.187 -3.0927  1.9599 -0.9930
 2462TIP3   OH2 7349   4.708   4.215   3.120 -0.0918 -0.6472 -0.0299
 2462TIP3    H1 7350   4.629   4.168   3.096 -0.5669  0.7321 -1.2912
 2462TIP3    H2 7351   4.712   4.208   3.216 -2.6712  0.6414  0.2608
 2463TIP3   OH2 7352   5.694   6.009   4.560 -0.0184  0.3618 -0.1891
 2463TIP3    H1 7353   5.628   6.046   4.618  1.2217  0.6149  1.1043
 2463TIP3    H2 7354   5.720   5.927   4.601 -0.5363 -0.4679 -1.4477
 2464TIP3   OH2 7355   1.810   1.768   2.462  0.1129  0.2770 -0.2366
 2464TIP3    H1 7356   1.833   1.737   2.374 -0.0176 -0.8630  0.1114
 2464TIP3    H2 7357   1.858   1.850   2.472 -0.6906  0.9729 -1.7671
 2465TIP3   OH2 7358   2.288   2.392   5.519 -0.6082  0.7448  0.3577
 2465TIP3    H1 7359   2.290   2.304   5.481 -0.6967  0.5588  0.7784
 2465TIP3    H2 7360   2.375   2.428   5.499  0.3307 -0.3217  2.2298
 2466TIP3   OH2 7361   1.836   1.196   5.155 -0.0982  0.5050 -0.3893
 2466TIP3    H1 7362   1.838   1.246   5.237 -0.5666  2.0579 -1.2910
 2466TIP3    H2 7363   1.924   1.209   5.118 -0.2456  0.7339 -0.6612
 2467TIP3   OH2 7364   4.147   4.892   1.939 -0.6460  0.3831  0.1625
 2467TIP3    H1 7365   4.089   4.935   2.003 -2.0776 -0.3871 -0.5591
 2467TIP3    H2 7366   4.194   4.826   1.990 -1.4158  0.1018  0.5306
 2468TIP3   OH2 7367   2.887   6.382   5.613  0.2266 -0.4462 -0.5492
 2468TIP3    H1 7368   2.969   6.374   5.662 -0.5064 -0.2389  0.7583
 2468TIP3    H2 7369   2.902   6.331   5.533  1.6022 -0.4490 -0.3149
 2469TIP3   OH2 7370   4.920   4.815   3.380  0.1982 -0.3443  0.2080
 2469TIP3    H1 7371   4.887   4.861   3.303  2.2428  0.7197 -0.0903
 2469TIP3    H2 7372   5.013   4.803   3.363  0.2384 -2.2791  1.4620
 2470TIP3   OH2 7373   5.120   5.795   5.733  0.0921 -0.0593  0.0726
 2470TIP3    H1 7374   5.121   5.886   5.702 -0.8802  0.6509  1.9768
 2470TIP3    H2 7375   5.033   5.762   5.709  0.7518 -0.8055 -1.3882
 2471TIP3   OH2 7376   7.120   2.018   2.555 -0.1777  0.3531 -0.0673
 2471TIP3    H1 7377   7.106   1.984   2.643  0.5206  0.1817 -0.0207
 2471TIP3    H2 7378   7.141   1.942   2.502  0.3193  0.5738 -0.1897
 2472TIP3   OH2 7379   0.205   5.892   3.417  0.1974  0.0372  0.3852
 2472TIP3    H1 7380   0.145   5.834   3.371  0.2396 -0.1466  0.5631
 2472TIP3    H2 7381   0.269   5.918   3.351 -0.8674  1.3437 -0.1829
 2473TIP3   OH2 7382   5.706   0.074   1.460 -0.1734  0.2643 -0.2021
 2473TIP3    H1 7383   5.648   0.096   1.388 -0.4475  0.4507  0.0749
 2473TIP3    H2 7384   5.685   0.137   1.529  1.0936  1.0218 -0.4731
 2474TIP3   OH2 7385   5.604   2.077   1.621 -0.1561 -0.0732  0.1757
 2474TIP3    H1 7386   5.693   2.042   1.619 -0.2345 -0.3322  0.9256
 2474TIP3    H2 7387   5.584   2.086   1.714 -0.5265  0.9873  0.0116
 2475TIP3   OH2 7388   6.820   6.240   3.318 -0.1431  0.1403 -0.5302
 2475TIP3    H1 7389   6.754   6.309   3.318 -0.9666 -0.6269 -0.6282
 2475TIP3    H2 7390   6.775   6.164   3.355  0.8982 -0.2027  0.0595
 2476TIP3   OH2 7391   3.839   4.257   4.916  0.1441  0.2095  0.7952
 2476TIP3    H1 7392   3.758   4.206   4.913 -0.0621  0.5689 -0.1121
 2476TIP3    H2 7393   3.877   4.237   5.001 -1.1546  0.4413  1.4502
 2477TIP3   OH2 7394   1.657   2.352   4.690 -0.7227 -0.0133 -0.3452
 2477TIP3    H1 7395   1.724   2.363   4.757 -0.1124 -0.8039 -0.8062
 2477TIP3    H2 7396   1.669   2.425   4.630 -0.8310  0.3187  0.0386
 2478TIP3   OH2 7397   2.373   0.874   1.656 -0.1633 -0.0793 -0.2754
 2478TIP3    H1 7398   2.300   0.837   1.706 -0.9322  0.5857 -0.8788
 2478TIP3    H2 7399   2.375   0.966   1.681  0.9208 -0.2284  0.2478
 2479TIP3   OH2 7400   2.920   6.788   5.278  0.1993 -0.4006  0.0167
 2479TIP3    H1 7401   2.951   6.709   5.235 -0.3987 -1.4978  1.5067
 2479TIP3    H2 7402   2.935   6.772   5.372 -1.2859  0.6133  0.4724
 2480TIP3   OH2 7403   2.813   1.387   2.950  0.4333  0.3265  0.2586
 2480TIP3    H1 7404   2.904   1.413   2.965  0.1980  1.2735  0.1669
 2480TIP3    H2 7405   2.764   1.469   2.959 -0.2419  0.1014 -1.1286
 2481TIP3   OH2 7406   1.861   0.093   3.724  0.0718  0.3084 -0.4797
 2481TIP3    H1 7407   1.833   0.045   3.801 -2.5141  1.6481 -0.4909
 2481TIP3    H2 7408   1.925   0.035   3.682  0.0870 -1.2930  1.5852
 2482TIP3   OH2 7409   6.874   5.863   3.835 -0.0801  0.5520  0.2991
 2482TIP3    H1 7410   6.967   5.853   3.857 -0.4668 -2.5474  1.0194
 2482TIP3    H2 7411   6.851   5.781   3.790 -2.3203  1.5447 -0.5238
 2483TIP3   OH2 7412   0.743   2.168   5.711 -0.3838  0.3152 -0.5531
 2483TIP3    H1 7413   0.724   2.135   5.623 -0.7531  1.1932 -0.8153
 2483TIP3    H2 7414   0.720   2.261   5.707  0.7928  0.6506  0.1066
 2484TIP3   OH2 7415   6.462   0.665   2.597 -0.0430  0.4130 -0.2686
 2484TIP3    H1 7416   6.371   0.644   2.573  0.7434 -0.2162 -3.0322
 2484TIP3    H2 7417   6.480   0.747   2.550  1.0378  0.1255 -0.3758
 2485TIP3   OH2 7418   4.815   3.371   0.967  0.4443 -0.1706  0.3092
 2485TIP3    H1 7419   4.722   3.393   0.964  0.3633 -0.4624  0.6287
 2485TIP3    H2 7420   4.841   3.362   0.875  0.2944  0.4733  0.1996
 2486TIP3   OH2 7421   2.753   0.747   5.695  0.2411 -0.4901 -0.2485
 2486TIP3    H1 7422   2.795   0.701   5.767 -1.0003 -1.2399  0.0290
 2486TIP3    H2 7423   2.659   0.732   5.708 -0.0274 -0.4281 -1.8741
 2487TIP3   OH2 7424   2.002   4.464   3.157 -0.7658 -0.4397 -0.3737
 2487TIP3    H1 7425   1.919   4.489   3.198 -0.8428  0.3739 -0.9990
 2487TIP3    H2 7426   2.022   4.378   3.194 -0.6778  0.3857  1.6008
 2488TIP3   OH2 7427   3.720   3.466   0.961  0.2987  0.3630  0.1156
 2488TIP3    H1 7428   3.769   3.383   0.964  0.6174  0.4052 -2.4470
 2488TIP3    H2 7429   3.788   3.533   0.954 -0.0312  0.5174 -2.0396
 2489TIP3   OH2 7430   0.317   1.326   3.970  0.3215  0.0332 -0.0223
 2489TIP3    H1 7431   0.378   1.380   4.020  0.5187  0.0954 -0.3226
 2489TIP3    H2 7432   0.231   1.360   3.990  0.5227  1.4365 -1.3427
 2490TIP3   OH2 7433   4.303   0.111   0.606 -0.4046 -0.2258 -0.0039
 2490TIP3    H1 7434   4.271   0.034   0.561 -0.9430  0.4593 -0.8218
 2490TIP3    H2 7435   4.379   0.139   0.555 -0.6576  0.2061 -0.1507
 2491TIP3   OH2 7436   3.245   3.298   2.436 -0.2771  0.5073 -0.4597
 2491TIP3    H1 7437   3.246   3.218   2.488  1.4461  0.3904 -0.6307
 2491TIP3    H2 7438   3.204   3.273   2.354  1.1751 -0.4879 -0.9076
 2492TIP3   OH2 7439   5.940   1.875   2.147  0.2025  0.1074  0.3801
 2492TIP3    H1 7440   5.892   1.807   2.194  2.1626  0.2367  2.7482
 2492TIP3    H2 7441   6.010   1.901   2.206  1.0760  2.4159 -1.4872
 2493TIP3   OH2 7442   0.845   4.693   1.836  0.5012  0.0261 -0.6152
 2493TIP3    H1 7443   0.802   4.716   1.754  2.2521  0.1933 -1.5493
 2493TIP3    H2 7444   0.814   4.605   1.857 -0.3541  0.1875 -1.1706
 2494TIP3   OH2 7445   2.921   3.291   0.266  0.0826  0.3961  0.0485
 2494TIP3    H1 7446   2.834   3.306   0.229 -0.1184  0.1947  0.4311
 2494TIP3    H2 7447   2.905   3.283   0.360  0.6687  1.6955  0.2883
 2495TIP3   OH2 7448   2.796   0.576   2.626  0.3087 -0.1455  0.2708
 2495TIP3    H1 7449   2.891   0.560   2.630  0.5750  1.4532  1.0286
 2495TIP3    H2 7450   2.779   0.598   2.535  0.5171 -1.1453 -0.0294
 2496TIP3   OH2 7451   2.293   4.565   3.557  0.2212  0.6400  0.0988
 2496TIP3    H1 7452   2.330   4.490   3.604  2.8697  2.0674  0.4558
 2496TIP3    H2 7453   2.343   4.569   3.476 -0.7409  1.3119 -0.4764
 2497TIP3   OH2 7454   0.019   5.032   5.713 -0.0054 -0.5906  0.2808
 2497TIP3    H1 7455  -0.017   4.975   5.780  0.3280 -0.3910  0.6361
 2497TIP3    H2 7456   0.104   4.993   5.690  0.0864 -0.4097  0.3049
 2498TIP3   OH2 7457   5.323   4.576   2.527  0.2324  0.0045  0.0991
 2498TIP3    H1 7458   5.248   4.547   2.578  0.6764 -0.7893  0.3179
 2498TIP3    H2 7459   5.316   4.672   2.526 -1.4360 -0.0768 -0.8825
 2499TIP3   OH2 7460   5.492   0.996   4.604 -0.3705  0.1826  0.2736
 2499TIP3    H1 7461   5.525   1.055   4.537  2.3224 -1.3221  0.1311
 2499TIP3    H2 7462   5.494   1.047   4.684  1.0737  0.5867  0.0079
 2500TIP3   OH2 7463   6.157   5.133   4.030  0.1376 -0.1665  0.0333
 2500TIP3    H1 7464   6.204   5.213   4.005  2.0186 -0.7319  1.4942
 2500TIP3    H2 7465   6.106   5.110   3.953  1.3366  1.1775 -1.2293
 2501TIP3   OH2 7466   1.143   4.597   2.629  0.0445 -0.1562 -0.0952
 2501TIP3    H1 7467   1.198   4.623   2.702 -0.3942 -0.7001  0.4365
 2501TIP3    H2 7468   1.066   4.654   2.636 -0.6459 -1.1559  0.7191
 2502TIP3   OH2 7469   0.792   2.999   5.017  1.0316  0.0385 -0.1809
 2502TIP3    H1 7470   0.780   2.997   5.112  1.4734 -1.1573 -0.1407
 2502TIP3    H2 7471   0.724   2.941   4.983  1.1781  0.0910 -0.5679
 2503TIP3   OH2 7472   4.316   5.289   4.046  0.0890  0.4055  0.2766
 2503TIP3    H1 7473   4.340   5.239   4.125  1.3123  0.6318  0.0705
 2503TIP3    H2 7474   4.223   5.271   4.033  0.3469 -1.2821  0.5926
 2504TIP3   OH2 7475   5.998   4.085   3.381 -0.1793 -0.5876  0.0747
 2504TIP3    H1 7476   6.090   4.058   3.377 -0.7814 -3.0134  0.7998
 2504TIP3    H2 7477   5.949   4.003   3.393 -2.3810  0.7058  0.5753
 2505TIP3   OH2 7478   4.351   4.663   2.012 -0.0326  0.1105 -0.9077
 2505TIP3    H1 7479   4.417   4.727   2.038 -1.5047  0.4549  2.5333
 2505TIP3    H2 7480   4.370   4.585   2.064 -1.8704  0.0005 -0.3033
 2506TIP3   OH2 7481   4.367   6.382   0.822  0.0910 -0.1532 -0.2348
 2506TIP3    H1 7482   4.372   6.453   0.886  0.1113 -0.2372 -0.1424
 2506TIP3    H2 7483   4.280   6.345   0.835  0.2979 -0.5262  0.1267
 2507TIP3   OH2 7484   6.166   2.817   5.059 -0.8311  0.1162 -0.3872
 2507TIP3    H1 7485   6.208   2.748   5.007  1.8734 -0.3512  2.1786
 2507TIP3    H2 7486   6.125   2.770   5.132  1.5797  1.0689  1.7384
 2508TIP3   OH2 7487   2.388   1.072   2.221 -0.2072 -0.0245 -0.0456
 2508TIP3    H1 7488   2.410   0.981   2.241  0.7940  0.3102  0.4399
 2508TIP3    H2 7489   2.416   1.084   2.130  1.0188  0.1772  0.3285
 2509TIP3   OH2 7490   0.836   0.075   0.396  0.0100  0.1744  0.0022
 2509TIP3    H1 7491   0.749   0.045   0.425 -0.5996  0.2652 -1.6381
 2509TIP3    H2 7492   0.882  -0.005   0.372 -0.0918  0.2300 -0.3742
 2510TIP3   OH2 7493   5.545   6.505   1.038  0.2774 -0.2496 -0.3791
 2510TIP3    H1 7494   5.639   6.489   1.028  0.8248  1.8124  0.8115
 2510TIP3    H2 7495   5.538   6.600   1.046 -1.7833 -0.4382  0.7280
 2511TIP3   OH2 7496   0.428   3.030   5.582 -0.3053  0.6578  0.3089
 2511TIP3    H1 7497   0.344   2.997   5.549 -0.9136 -0.3143  2.6363
 2511TIP3    H2 7498   0.407   3.113   5.623  0.1656  1.1243 -0.3729
 2512TIP3   OH2 7499   3.897   6.235   3.168 -0.3239 -0.0709 -0.5410
 2512TIP3    H1 7500   3.821   6.219   3.113  0.3217 -3.6719 -0.5823
 2512TIP3    H2 7501   3.888   6.174   3.241  1.8120  0.4481  0.2392
 2513TIP3   OH2 7502   6.109   0.353   3.110  0.0060 -0.0711 -0.1120
 2513TIP3    H1 7503   6.151   0.292   3.170 -0.5057  0.3921  0.7208
 2513TIP3    H2 7504   6.017   0.324   3.106  0.4362 -1.4184 -2.3423
 2514TIP3   OH2 7505   1.383   5.229   0.775  0.5179  0.1290 -0.0032
 2514TIP3    H1 7506   1.464   5.210   0.727  0.6330  1.3315 -0.3311
 2514TIP3    H2 7507   1.412   5.265   0.858  0.3117 -1.5130  0.8165
 2515TIP3   OH2 7508   4.371   4.901   4.039 -0.4727  0.3213 -0.6168
 2515TIP3    H1 7509   4.422   4.975   4.008 -0.9526  1.3256  0.8749
 2515TIP3    H2 7510   4.303   4.940   4.094 -1.6228 -1.1245 -0.9225
 2516TIP3   OH2 7511   1.108   4.727   5.439 -0.2851 -0.0296  0.0755
 2516TIP3    H1 7512   1.106   4.635   5.466 -1.2022  0.1135  0.5414
 2516TIP3    H2 7513   1.199   4.743   5.414  0.7856 -0.1115  3.3936
 2517TIP3   OH2 7514   5.411   6.062   5.777 -0.2244 -0.3676 -0.5467
 2517TIP3    H1 7515   5.450   6.018   5.853  1.0302  1.0820 -0.2958
 2517TIP3    H2 7516   5.476   6.128   5.752 -1.3659  0.3119 -1.8299
 2518TIP3   OH2 7517   5.117   4.049   1.230 -0.1258 -0.2697 -0.2351
 2518TIP3    H1 7518   5.208   4.022   1.245  0.8574  2.2436 -1.1682
 2518TIP3    H2 7519   5.102   4.033   1.137  0.6753  2.6268 -0.9514
 2519TIP3   OH2 7520   6.512   4.774   3.312 -0.1636  0.1286  0.1938
 2519TIP3    H1 7521   6.469   4.693   3.283 -1.7749  0.7636  0.7159
 2519TIP3    H2 7522   6.603   4.749   3.324 -0.3914 -1.3240 -0.7922
 2520TIP3   OH2 7523   5.628   3.770   5.549  0.1576 -0.2524  0.1103
 2520TIP3    H1 7524   5.538   3.756   5.520  0.6198  0.5118 -1.8575
 2520TIP3    H2 7525   5.654   3.852   5.507  2.7967 -2.0330 -2.1613
 2521TIP3   OH2 7526   1.339   5.171   5.131 -0.1253 -0.3422  0.3068
 2521TIP3    H1 7527   1.309   5.098   5.184  2.0291 -1.1162  0.5603
 2521TIP3    H2 7528   1.431   5.152   5.113 -0.0546  1.2738 -1.3988
 2522TIP3   OH2 7529   6.116   6.669   5.221 -0.7434 -0.4560 -0.5335
 2522TIP3    H1 7530   6.186   6.673   5.156 -1.8153  0.3497 -1.6842
 2522TIP3    H2 7531   6.151   6.715   5.297  1.2508 -3.0337  0.2551
 2523TIP3   OH2 7532   2.292   4.053   4.958  0.4644 -0.4462  0.3663
 2523TIP3    H1 7533   2.202   4.063   4.990  0.7372 -1.3156  1.4659
 2523TIP3    H2 7534   2.285   4.068   4.864 -0.7558 -0.0618  0.4874
 2524TIP3   OH2 7535   1.579   3.360   4.156  0.3754 -0.0033  0.4345
 2524TIP3    H1 7536   1.671   3.351   4.132  0.7085  0.9926  1.2435
 2524TIP3    H2 7537   1.531   3.322   4.083  1.4414 -1.5329  0.5014
 2525TIP3   OH2 7538   2.848   1.137   2.859 -0.3708  0.1172  0.2032
 2525TIP3    H1 7539   2.856   1.220   2.907 -2.3185  0.9774 -0.8555
 2525TIP3    H2 7540   2.770   1.148   2.805  0.0431 -1.9628 -0.9093
 2526TIP3   OH2 7541   3.251   4.392   3.944  0.1643  0.1437 -0.3522
 2526TIP3    H1 7542   3.305   4.461   3.906  2.1187 -2.1081 -1.9681
 2526TIP3    H2 7543   3.305   4.354   4.013 -1.4833  1.1007  1.5569
 2527TIP3   OH2 7544   3.317   0.787   0.791 -0.0348 -0.0302 -0.3968
 2527TIP3    H1 7545   3.245   0.724   0.782 -0.1303 -0.0106  0.1776
 2527TIP3    H2 7546   3.284   0.851   0.854  0.9304 -0.6738  0.7912
 2528TIP3   OH2 7547   1.990   1.924   1.305 -0.2807 -0.3000  0.0902
 2528TIP3    H1 7548   1.927   1.995   1.318 -1.8439 -0.8805 -3.1793
 2528TIP3    H2 7549   1.998   1.882   1.391  0.0806  3.2174  1.9535
 2529TIP3   OH2 7550   4.644   4.741   2.933 -0.7185  0.1037 -0.2620
 2529TIP3    H1 7551   4.568   4.686   2.952 -0.2922 -0.0853  1.0072
 2529TIP3    H2 7552   4.712   4.709   2.992  0.2608  0.4741 -1.1558
 2530TIP3   OH2 7553   3.311   3.115   4.911 -0.3631 -0.1177  0.3068
 2530TIP3    H1 7554   3.262   3.188   4.949  0.5079 -0.0827  1.4090
 2530TIP3    H2 7555   3.332   3.059   4.985 -0.0267 -0.9050 -0.3674
 2531TIP3   OH2 7556   1.434   3.178   3.654  0.0309  0.3269 -0.0417
 2531TIP3    H1 7557   1.509   3.134   3.616  0.2475  0.2364  0.4851
 2531TIP3    H2 7558   1.449   3.271   3.637  0.6712  0.3783  0.7754
 2532TIP3   OH2 7559   3.099   5.029   5.442 -0.4444 -0.0531  0.0382
 2532TIP3    H1 7560   3.110   4.934   5.443  3.2998  0.1326 -2.3080
 2532TIP3    H2 7561   3.061   5.051   5.527  0.4744 -3.4794  1.4728
 2533TIP3   OH2 7562   3.226   1.070   2.856  0.4613 -0.0547 -0.5272
 2533TIP3    H1 7563   3.162   1.032   2.915  0.5372 -1.9234 -1.5824
 2533TIP3    H2 7564   3.289   1.113   2.914 -0.2154 -0.6048  0.6583
 2534TIP3   OH2 7565   7.052   2.963   0.141  0.0661  0.2157  0.8687
 2534TIP3    H1 7566   6.960   2.986   0.128 -0.1606 -1.2361 -0.3066
 2534TIP3    H2 7567   7.050   2.874   0.176  1.0081  0.7367  2.3725
 2535TIP3   OH2 7568   3.713   5.308   1.712 -0.9515 -0.2270 -0.0838
 2535TIP3    H1 7569   3.758   5.387   1.681 -1.1765 -0.0511  0.0321
 2535TIP3    H2 7570   3.766   5.235   1.679 -0.5865 -0.0223  0.0526
 2536TIP3   OH2 7571   5.188   4.615   2.222  0.0293  0.4686  0.2729
 2536TIP3    H1 7572   5.145   4.682   2.170  0.7479 -0.4394 -1.6021
 2536TIP3    H2 7573   5.167   4.533   2.177 -0.6831 -0.5796  2.3929
 2537TIP3   OH2 7574   6.533   3.654   5.528 -0.3358  0.2945  0.4291
 2537TIP3    H1 7575   6.481   3.723   5.569  0.5501  1.2090  0.0533
 2537TIP3    H2 7576   6.623   3.687   5.531 -0.1208 -0.0454 -1.3530
 2538TIP3   OH2 7577   1.568   6.791   0.341  0.5838 -0.1996  0.1314
 2538TIP3    H1 7578   1.594   6.772   0.431 -2.5753 -0.4387  1.1002
 2538TIP3    H2 7579   1.551   6.705   0.302 -1.4511 -0.0102  0.4936
 2539TIP3   OH2 7580   7.034   4.413   3.823 -0.2432  0.3349 -0.4451
 2539TIP3    H1 7581   7.031   4.503   3.792  1.4570 -0.1464 -2.2387
 2539TIP3    H2 7582   7.118   4.406   3.868 -1.2363  0.1357  1.4462
 2540TIP3   OH2 7583   6.504   3.265   3.761 -0.0138 -0.1715 -0.2992
 2540TIP3    H1 7584   6.560   3.292   3.689 -0.1171  0.9181 -0.0006
 2540TIP3    H2 7585   6.465   3.347   3.792 -0.3183 -0.6805  0.6962
 2541TIP3   OH2 7586   7.185   3.568   3.765 -0.1447  0.3739 -0.0495
 2541TIP3    H1 7587   7.137   3.626   3.825  0.0316 -1.2962  1.8256
 2541TIP3    H2 7588   7.214   3.625   3.694 -1.4882  2.2028  0.7824
 2542TIP3   OH2 7589   6.854   6.420   4.531 -0.7640 -0.2371 -0.4527
 2542TIP3    H1 7590   6.844   6.418   4.436 -3.1992 -1.7476 -0.2443
 2542TIP3    H2 7591   6.934   6.471   4.546  0.6628 -1.3924 -3.3699
 2543TIP3   OH2 7592   4.500   4.733   0.521  0.1260  0.1613 -0.2445
 2543TIP3    H1 7593   4.537   4.821   0.534  0.1156 -0.0704  1.6225
 2543TIP3    H2 7594   4.575   4.679   0.498  0.1857  0.5880 -1.0801
 2544TIP3   OH2 7595   0.520   0.104   2.342  0.2376  0.3251  0.0118
 2544TIP3    H1 7596   0.483   0.184   2.378 -0.7447 -0.4911  0.8772
 2544TIP3    H2 7597   0.613   0.109   2.362  0.0478  0.8757  0.7737
 2545TIP3   OH2 7598   5.375   2.254   1.257 -0.3277  0.1980  0.1731
 2545TIP3    H1 7599   5.363   2.347   1.235 -0.7137  0.5745  1.8360
 2545TIP3    H2 7600   5.289   2.215   1.242  0.1729 -0.2372 -1.8850
 2546TIP3   OH2 7601   2.770   6.644   4.550 -0.4694 -0.4995 -0.1525
 2546TIP3    H1 7602   2.780   6.739   4.541 -0.7464 -0.4863 -0.3293
 2546TIP3    H2 7603   2.776   6.628   4.644  2.8394 -0.6724 -0.2794
 2547TIP3   OH2 7604   5.416   6.023   4.668  0.0221  0.2482  0.4012
 2547TIP3    H1 7605   5.384   6.102   4.625 -0.8836 -0.2084  0.2107
 2547TIP3    H2 7606   5.357   6.009   4.742 -0.8723 -1.1561 -0.5274
 2548TIP3   OH2 7607   6.320   0.369   0.559  0.0227  0.9148  0.0689
 2548TIP3    H1 7608   6.407   0.329   0.552 -1.1547 -2.3594  2.1207
 2548TIP3    H2 7609   6.326   0.426   0.635  0.9610  2.6738 -1.2515
 2549TIP3   OH2 7610   6.016   5.616   2.829  0.0206  0.3395 -0.0532
 2549TIP3    H1 7611   6.030   5.677   2.901 -0.5241  0.2244  0.1525
 2549TIP3    H2 7612   5.940   5.650   2.782 -1.4899 -1.1814  1.1674
 2550TIP3   OH2 7613   1.324   1.103   0.907 -0.1272  0.3346  0.3983
 2550TIP3    H1 7614   1.352   1.151   0.830  1.0589  1.6421  1.5793
 2550TIP3    H2 7615   1.244   1.148   0.936 -0.3213  0.1196  0.2089
 2551TIP3   OH2 7616   6.635   1.314   2.090 -0.3451  0.3543 -0.0471
 2551TIP3    H1 7617   6.617   1.353   2.005  1.0113 -0.7851 -0.8921
 2551TIP3    H2 7618   6.622   1.220   2.077 -0.7769  0.2186  1.2011
 2552TIP3   OH2 7619   3.929   1.230   2.476 -0.3960  0.0668 -0.3756
 2552TIP3    H1 7620   3.874   1.236   2.554 -0.5323 -0.4579 -0.4311
 2552TIP3    H2 7621   4.017   1.215   2.509 -0.0554  2.0370 -0.2289
 2553TIP3   OH2 7622   1.164   6.722   0.026 -0.1987 -0.4191 -0.4149
 2553TIP3    H1 7623   1.138   6.682   0.109 -2.5796  0.2658 -0.7585
 2553TIP3    H2 7624   1.248   6.763   0.044 -0.8273  0.0051  1.7761
 2554TIP3   OH2 7625   6.646   0.969   3.891  0.1278  0.0165 -0.0006
 2554TIP3    H1 7626   6.572   0.931   3.842  0.1822 -1.0379  0.7090
 2554TIP3    H2 7627   6.609   0.992   3.976  0.6377 -0.6683  0.4186
 2555TIP3   OH2 7628   4.563   0.904   1.817  0.1630 -0.4954  0.3942
 2555TIP3    H1 7629   4.479   0.869   1.788  0.7745 -2.3550  0.7462
 2555TIP3    H2 7630   4.593   0.958   1.745  0.0209 -2.1963 -0.9983
 2556TIP3   OH2 7631   4.393   5.228   3.302 -0.0045  0.0168 -0.3047
 2556TIP3    H1 7632   4.391   5.166   3.375 -1.2200 -1.1555 -1.2758
 2556TIP3    H2 7633   4.451   5.188   3.238 -0.7854 -0.1247 -0.9349
 2557TIP3   OH2 7634   1.401   2.374   5.788 -0.1601  0.1943  0.0782
 2557TIP3    H1 7635   1.334   2.311   5.761 -0.9641  0.6825  0.8475
 2557TIP3    H2 7636   1.456   2.386   5.711 -0.1405 -1.2459 -0.1578
 2558TIP3   OH2 7637   6.928   0.764   0.062 -0.1217 -0.3433  0.1967
 2558TIP3    H1 7638   6.932   0.843   0.009 -1.1107 -1.5570 -1.7962
 2558TIP3    H2 7639   6.838   0.761   0.095 -0.0091 -0.4948  0.4928
 2559TIP3   OH2 7640   0.979   1.244   5.435  0.2896 -0.2890  0.7494
 2559TIP3    H1 7641   0.887   1.252   5.462 -0.7076 -1.4744 -1.9013
 2559TIP3    H2 7642   1.020   1.191   5.503 -1.3503 -0.9226  1.3002
 2560TIP3   OH2 7643   1.577   0.661   1.946 -0.2380  0.2329  0.1783
 2560TIP3    H1 7644   1.482   0.661   1.937 -0.4208  1.0516  1.6581
 2560TIP3    H2 7645   1.608   0.718   1.876 -0.9220  0.6358  0.1941
 2561TIP3   OH2 7646   6.535   6.526   5.397 -0.3146 -0.3336  0.2422
 2561TIP3    H1 7647   6.604   6.591   5.386 -1.9046  1.9415  2.6780
 2561TIP3    H2 7648   6.574   6.457   5.450  0.1214  1.0130  1.7431
 2562TIP3   OH2 7649   2.720   2.189   2.859 -0.6837 -0.2236  0.3443
 2562TIP3    H1 7650   2.673   2.109   2.836 -1.3230 -0.0237  0.9258
 2562TIP3    H2 7651   2.694   2.207   2.950  0.0653  0.2112  0.4815
 2563TIP3   OH2 7652   0.720   0.083   1.382  0.0819 -0.2206 -0.0806
 2563TIP3    H1 7653   0.677   0.100   1.465 -0.8988 -0.6272 -0.4854
 2563TIP3    H2 7654   0.669   0.133   1.318  0.9971  0.3202 -0.4069
 2564TIP3   OH2 7655   4.511   6.230   1.772  0.2241 -0.3142 -0.3876
 2564TIP3    H1 7656   4.505   6.138   1.796  0.6044  0.0320  1.1382
 2564TIP3    H2 7657   4.579   6.265   1.829 -1.0491  1.2710  0.2439
 2565TIP3   OH2 7658   4.992   0.032   1.980  0.0312 -0.1601 -0.7759
 2565TIP3    H1 7659   4.976   0.083   2.060  0.7835 -1.1749  0.0386
 2565TIP3    H2 7660   5.029   0.096   1.918  0.1868  0.4605 -0.0597
 2566TIP3   OH2 7661   1.093   0.601   1.445 -0.3402 -0.0308 -0.2140
 2566TIP3    H1 7662   1.185   0.580   1.430  0.7664  2.5740  2.0538
 2566TIP3    H2 7663   1.063   0.535   1.507  0.7681  0.4475  0.8733
 2567TIP3   OH2 7664   0.757   6.359   5.057  0.2811 -0.4927  0.3918
 2567TIP3    H1 7665   0.671   6.399   5.067 -0.3479 -1.6158 -0.2718
 2567TIP3    H2 7666   0.819   6.424   5.092 -0.8187  0.3648  0.7850
 2568TIP3   OH2 7667   1.841   5.597   1.914 -0.3816 -0.5383 -0.3693
 2568TIP3    H1 7668   1.752   5.626   1.893  0.7643  2.8137 -1.3339
 2568TIP3    H2 7669   1.877   5.569   1.830  0.6061  1.8786 -0.8302
 2569TIP3   OH2 7670   6.631   2.963   2.269 -0.3682  0.0100 -0.1256
 2569TIP3    H1 7671   6.692   2.980   2.341  0.7203  0.7133 -1.1617
 2569TIP3    H2 7672   6.562   2.910   2.308  0.8590 -0.7424  1.1329
 2570TIP3   OH2 7673   7.063   0.581   3.613  0.1303  0.8008  0.1557
 2570TIP3    H1 7674   6.985   0.573   3.557  0.0988 -0.6830  0.3707
 2570TIP3    H2 7675   7.028   0.606   3.699 -0.2501 -0.9691  0.5435
 2571TIP3   OH2 7676   3.229   2.429   4.354 -0.4498 -0.0410 -0.2182
 2571TIP3    H1 7677   3.264   2.502   4.303 -0.2302  0.2565  0.3463
 2571TIP3    H2 7678   3.285   2.355   4.332  0.4094  0.3728  0.4966
 2572TIP3   OH2 7679   4.119   2.478   2.544  0.0937  0.2760 -0.0334
 2572TIP3    H1 7680   4.070   2.558   2.523  1.2513  0.8052 -0.8682
 2572TIP3    H2 7681   4.052   2.411   2.555 -0.8206  0.5385 -3.0233
 2573TIP3   OH2 7682   1.290   2.295   4.448 -0.0187 -0.3148  0.0432
 2573TIP3    H1 7683   1.360   2.357   4.428  1.1018 -1.3849  0.4705
 2573TIP3    H2 7684   1.303   2.224   4.385 -0.0675 -0.9978  0.7874
 2574TIP3   OH2 7685   3.194   0.480   1.966 -0.1297  0.2292  0.0291
 2574TIP3    H1 7686   3.157   0.499   1.879 -0.3969  0.2992  0.1570
 2574TIP3    H2 7687   3.191   0.564   2.012 -0.2784  0.1212  0.2135
 2575TIP3   OH2 7688   4.349   3.265   2.295 -0.1997 -0.0735 -0.5001
 2575TIP3    H1 7689   4.389   3.178   2.291 -0.9600 -0.5572  1.3404
 2575TIP3    H2 7690   4.361   3.292   2.386  0.4408  1.9835 -1.1385
 2576TIP3   OH2 7691   4.296   2.933   2.815 -0.2179 -0.3602  0.3312
 2576TIP3    H1 7692   4.231   2.886   2.763 -1.1130  2.0280 -0.8562
 2576TIP3    H2 7693   4.246   2.973   2.887  0.6317 -1.6885  1.7146
 2577TIP3   OH2 7694   1.071   2.705   1.006 -0.1501 -0.1040  0.0951
 2577TIP3    H1 7695   1.166   2.711   0.996 -0.1759  3.7261  0.5828
 2577TIP3    H2 7696   1.039   2.684   0.919  1.0504  2.2074 -0.9988
 2578TIP3   OH2 7697   0.255   5.579   4.204  0.2476 -0.1504 -0.1894
 2578TIP3    H1 7698   0.259   5.637   4.128  0.3108 -0.4270 -0.4016
 2578TIP3    H2 7699   0.162   5.571   4.224  0.3320  1.6089  1.0863
 2579TIP3   OH2 7700   0.822   2.667   2.288 -0.6911  0.3414 -0.2629
 2579TIP3    H1 7701   0.883   2.669   2.214 -0.4761 -0.4251 -0.1132
 2579TIP3    H2 7702   0.843   2.586   2.334 -1.1786  0.5541  0.3421
 2580TIP3   OH2 7703   4.156   5.006   4.181 -0.3714 -0.4488  0.6679
 2580TIP3    H1 7704   4.221   5.022   4.249 -2.0063  0.2736  2.1449
 2580TIP3    H2 7705   4.073   5.030   4.221 -1.6508 -1.9242 -0.9289
 2581TIP3   OH2 7706   1.704   4.933   5.353  0.1605  0.1387  0.1577
 2581TIP3    H1 7707   1.757   4.857   5.329 -0.4542 -0.0961 -0.4949
 2581TIP3    H2 7708   1.762   5.008   5.340  0.3074 -0.1077 -0.6381
 2582TIP3   OH2 7709   2.939   5.002   2.937 -0.2143  0.2705 -0.0029
 2582TIP3    H1 7710   2.981   5.039   2.860 -0.3779  0.5899  0.0562
 2582TIP3    H2 7711   3.009   4.995   3.002  0.6622 -2.9070 -1.1159
 2583TIP3   OH2 7712   2.519   5.491   5.240  0.2497  0.6573  0.1267
 2583TIP3    H1 7713   2.523   5.587   5.233 -1.4620  0.8390  1.1506
 2583TIP3    H2 7714   2.497   5.462   5.152  1.8533  1.0862 -0.4621
 2584TIP3   OH2 7715   2.637   4.365   1.284 -0.0371 -0.1135 -0.1319
 2584TIP3    H1 7716   2.542   4.359   1.285 -0.2171  1.9798  1.3848
 2584TIP3    H2 7717   2.667   4.281   1.319 -1.2217 -1.3248 -1.8677
 2585TIP3   OH2 7718   5.258   5.672   3.948  0.1747 -0.0680 -0.0688
 2585TIP3    H1 7719   5.265   5.708   3.860 -2.9997  1.3894  0.1212
 2585TIP3    H2 7720   5.211   5.589   3.937 -0.7112  0.3741  0.2363
 2586TIP3   OH2 7721   2.190   3.852   5.235  0.2498  0.0308  0.0480
 2586TIP3    H1 7722   2.272   3.852   5.186 -0.0949  1.8737 -0.5875
 2586TIP3    H2 7723   2.217   3.856   5.327  0.8812  0.6936 -0.1566
 2587TIP3   OH2 7724   0.764   0.028   3.197  0.0038  0.2398  0.1882
 2587TIP3    H1 7725   0.854   0.058   3.185 -0.2339  0.4872 -1.0061
 2587TIP3    H2 7726   0.710   0.104   3.177 -0.4800  0.3138  1.6206
 2588TIP3   OH2 7727   4.993   3.794   3.463  0.4997  0.3103 -0.2648
 2588TIP3    H1 7728   4.974   3.783   3.370 -0.2379 -0.1053 -0.0658
 2588TIP3    H2 7729   4.919   3.754   3.508  0.1809  1.6784  0.4969
 2589TIP3   OH2 7730   2.926   4.510   5.522  0.4499  0.0104 -0.1134
 2589TIP3    H1 7731   2.928   4.453   5.599 -0.4852 -1.5365 -1.1906
 2589TIP3    H2 7732   2.890   4.592   5.554  2.0451  0.1342  1.5278
 2590TIP3   OH2 7733   2.201   6.488   5.135  0.0711  0.2115  0.0636
 2590TIP3    H1 7734   2.174   6.579   5.123 -2.3012 -0.6839 -2.0997
 2590TIP3    H2 7735   2.121   6.440   5.154  0.8194 -1.8079 -1.4355
 2591TIP3   OH2 7736   0.926   0.982   4.189 -0.0879  0.4648 -0.2278
 2591TIP3    H1 7737   0.984   1.034   4.134  1.0224  0.3582  0.8156
 2591TIP3    H2 7738   0.874   1.047   4.238 -0.3481  0.5638 -0.6321
 2592TIP3   OH2 7739   3.611   4.144   5.510  0.3332 -0.1319  0.4143
 2592TIP3    H1 7740   3.548   4.215   5.517 -0.3304 -0.6232 -0.3358
 2592TIP3    H2 7741   3.637   4.125   5.600 -0.9862 -0.2684  0.7898
 2593TIP3   OH2 7742   5.474   1.442   2.507  0.5137 -0.4246 -0.2996
 2593TIP3    H1 7743   5.390   1.412   2.542  0.5647 -0.2196 -0.0021
 2593TIP3    H2 7744   5.540   1.387   2.551  0.5976  0.0267  0.1455
 2594TIP3   OH2 7745   0.619   3.375   4.485  0.2676 -0.4844 -0.3239
 2594TIP3    H1 7746   0.710   3.401   4.492 -0.0742  0.7387 -0.0526
 2594TIP3    H2 7747   0.597   3.342   4.573  0.3309 -0.3401 -0.2529
 2595TIP3   OH2 7748   1.771   6.278   4.982 -0.1979 -0.3131  0.1652
 2595TIP3    H1 7749   1.678   6.253   4.975  0.2084 -1.9646  0.2821
 2595TIP3    H2 7750   1.817   6.210   4.934  1.0622 -0.2333  1.2221
 2596TIP3   OH2 7751   5.269   6.615   4.838  0.3669  0.3218  0.5746
 2596TIP3    H1 7752   5.247   6.523   4.853 -0.9674  0.4255 -0.4831
 2596TIP3    H2 7753   5.349   6.612   4.785  0.9197 -0.1806  1.4092
 2597TIP3   OH2 7754   4.430   3.862   3.296  0.0964 -0.2989 -0.0571
 2597TIP3    H1 7755   4.494   3.911   3.347  2.6336 -1.2788 -2.0726
 2597TIP3    H2 7756   4.479   3.828   3.221 -2.6836 -1.6063 -1.4694
 2598TIP3   OH2 7757   4.700   3.977   1.744 -0.5182 -0.4461 -0.2920
 2598TIP3    H1 7758   4.753   3.960   1.822 -0.9368 -1.2562 -0.1775
 2598TIP3    H2 7759   4.743   3.928   1.674  2.1238  3.1871 -1.5632
 2599TIP3   OH2 7760   5.711   0.278   2.310 -0.0134  0.4967  0.3721
 2599TIP3    H1 7761   5.671   0.314   2.231 -1.1185 -1.5325 -0.0744
 2599TIP3    H2 7762   5.637   0.245   2.362  0.8971 -2.0181  0.2190
 2600TIP3   OH2 7763   1.554   2.655   4.092  0.1042 -0.1537 -0.5998
 2600TIP3    H1 7764   1.649   2.665   4.103 -0.3029  2.3253  1.4241
 2600TIP3    H2 7765   1.530   2.725   4.031 -0.7109  0.9650  0.9413
 2601TIP3   OH2 7766   1.518   5.528   0.637 -0.0957  0.1735  0.0502
 2601TIP3    H1 7767   1.505   5.533   0.731 -1.0364 -2.6314  0.1498
 2601TIP3    H2 7768   1.548   5.439   0.621  1.1132  0.9044 -2.2341
 2602TIP3   OH2 7769   6.391   6.167   0.161 -0.4769 -0.0975  0.5880
 2602TIP3    H1 7770   6.478   6.204   0.177  0.0815 -0.6508 -0.9626
 2602TIP3    H2 7771   6.350   6.228   0.099  0.3078 -1.7147 -1.6945
 2603TIP3   OH2 7772   5.621   3.560   3.068 -0.2904 -0.3991  0.5158
 2603TIP3    H1 7773   5.596   3.647   3.099  0.7416 -0.1199  0.5942
 2603TIP3    H2 7774   5.715   3.555   3.082 -0.0294 -0.8559 -1.1206
 2604TIP3   OH2 7775   0.582   5.882   4.019  0.4137  0.1336  0.8480
 2604TIP3    H1 7776   0.568   5.861   3.927 -0.2814  0.8036  0.7876
 2604TIP3    H2 7777   0.677   5.882   4.030  0.4976 -1.9603  0.6241
 2605TIP3   OH2 7778   5.640   5.940   5.568 -0.4269 -0.0454  0.3920
 2605TIP3    H1 7779   5.606   6.018   5.613  0.7469  0.1413  0.9969
 2605TIP3    H2 7780   5.713   5.973   5.516 -0.8683 -0.5072 -0.5401
 2606TIP3   OH2 7781   3.682   3.919   3.408 -0.4110  0.3449 -0.1688
 2606TIP3    H1 7782   3.758   3.960   3.450 -0.9270  1.1141  0.0445
 2606TIP3    H2 7783   3.713   3.894   3.321  0.3245 -0.1505  0.2241
 2607TIP3   OH2 7784   4.968   3.157   1.111  0.0333 -0.5502 -0.1494
 2607TIP3    H1 7785   4.901   3.178   1.046  0.6180 -3.4611 -1.8616
 2607TIP3    H2 7786   4.954   3.220   1.181 -3.6498 -0.2218 -0.9887
 2608TIP3   OH2 7787   3.507   1.790   2.791 -0.3762 -0.5385 -0.3789
 2608TIP3    H1 7788   3.562   1.811   2.716 -0.7064  0.3345 -0.3885
 2608TIP3    H2 7789   3.487   1.875   2.831  1.2946 -1.0745  1.7783
 2609TIP3   OH2 7790   5.227   0.868   5.713 -0.2325  0.0633 -0.1149
 2609TIP3    H1 7791   5.183   0.949   5.688 -1.1393  0.0390  1.3329
 2609TIP3    H2 7792   5.311   0.871   5.666 -1.0760  0.8699 -1.6530
 2610TIP3   OH2 7793   3.680   2.577   1.642 -0.4973  0.3199 -0.2262
 2610TIP3    H1 7794   3.698   2.652   1.700  0.8273  1.3338 -1.8571
 2610TIP3    H2 7795   3.587   2.584   1.623 -0.6566  0.7988  0.6867
 2611TIP3   OH2 7796   2.392   4.321   5.372  0.0852 -0.1808 -0.2869
 2611TIP3    H1 7797   2.307   4.314   5.329  0.4513  1.7571 -1.4562
 2611TIP3    H2 7798   2.456   4.304   5.302  0.7120 -2.2120  0.6982
 2612TIP3   OH2 7799   2.876   4.541   3.484  0.0884 -0.0634  0.5262
 2612TIP3    H1 7800   2.917   4.456   3.466 -0.1316 -0.5399  2.0919
 2612TIP3    H2 7801   2.898   4.559   3.575  0.9613  2.0758 -0.0486
 2613TIP3   OH2 7802   6.419   4.748   0.520 -0.3053 -0.1419 -0.2953
 2613TIP3    H1 7803   6.417   4.676   0.584  0.6183  0.3357  0.3014
 2613TIP3    H2 7804   6.441   4.706   0.437 -0.6746 -0.6653 -0.1306
 2614TIP3   OH2 7805   4.454   2.718   2.810  0.2279 -0.2614 -0.3081
 2614TIP3    H1 7806   4.401   2.798   2.819  1.0405  0.3877 -1.0551
 2614TIP3    H2 7807   4.405   2.651   2.858 -0.9938  0.4388 -0.5250
 2615TIP3   OH2 7808   3.959   3.593   4.102  0.7973 -0.1272 -0.3621
 2615TIP3    H1 7809   4.055   3.589   4.105  0.7895  0.1514  0.3983
 2615TIP3    H2 7810   3.933   3.617   4.191 -0.0019 -0.6137 -0.4549
 2616TIP3   OH2 7811   2.669   4.469   1.008  0.1511  0.3471 -0.0046
 2616TIP3    H1 7812   2.607   4.508   1.071 -0.1464  1.4090 -0.9183
 2616TIP3    H2 7813   2.730   4.540   0.988  0.9112 -0.3201 -0.0719
 2617TIP3   OH2 7814   4.832   4.645   2.735 -0.4331 -0.4132  0.1996
 2617TIP3    H1 7815   4.873   4.703   2.799 -0.9173  0.7377 -0.5177
 2617TIP3    H2 7816   4.738   4.661   2.744 -0.5028 -0.1581 -0.8675
 2618TIP3   OH2 7817   2.647   0.996   3.519 -1.1811 -0.0399  0.2785
 2618TIP3    H1 7818   2.638   0.902   3.535 -1.3258  0.1147  1.1809
 2618TIP3    H2 7819   2.587   1.014   3.447 -2.5931 -0.3212  1.3503
 2619TIP3   OH2 7820   6.870   4.508   4.986 -0.3681 -0.3104  0.0230
 2619TIP3    H1 7821   6.783   4.531   5.019 -0.7854 -0.4408 -0.9429
 2619TIP3    H2 7822   6.930   4.557   5.040 -1.0553 -0.1368  0.6415
 2620TIP3   OH2 7823   6.750   6.518   5.186  0.0986 -0.0846 -0.3653
 2620TIP3    H1 7824   6.742   6.429   5.219 -0.2712 -0.9106 -2.5549
 2620TIP3    H2 7825   6.844   6.537   5.191  0.0354 -0.0614  1.3327
 2621TIP3   OH2 7826   4.078   5.665   5.608 -0.5945  0.1733  0.6967
 2621TIP3    H1 7827   4.112   5.649   5.521 -1.4393  0.0152  0.3826
 2621TIP3    H2 7828   4.142   5.723   5.649  0.4204 -0.7256  0.4098
 2622TIP3   OH2 7829   4.500   1.408   1.581 -0.3085 -0.1450 -0.0023
 2622TIP3    H1 7830   4.439   1.342   1.548 -1.5233  0.4431  0.9813
 2622TIP3    H2 7831   4.516   1.466   1.506 -0.2663 -0.7888 -0.5006
 2623TIP3   OH2 7832   0.499   1.130   3.727 -0.4237 -0.1004  0.7571
 2623TIP3    H1 7833   0.493   1.132   3.823 -0.0108  1.3043  0.7744
 2623TIP3    H2 7834   0.437   1.197   3.698 -0.9327 -0.8801  0.0045
 2624TIP3   OH2 7835   6.396   6.628   4.630 -0.2008  0.2060 -0.0871
 2624TIP3    H1 7836   6.445   6.687   4.688  1.9853 -1.5923  0.0082
 2624TIP3    H2 7837   6.330   6.588   4.686 -0.0957  0.7316  0.4218
 2625TIP3   OH2 7838   4.411   0.281   3.420 -0.0730 -0.7145 -0.5018
 2625TIP3    H1 7839   4.410   0.357   3.478 -0.7104 -0.4395 -0.8555
 2625TIP3    H2 7840   4.496   0.284   3.378  0.8600 -1.5572  1.2291
 2626TIP3   OH2 7841   4.667   3.660   1.951 -0.0717  0.4673  0.1379
 2626TIP3    H1 7842   4.615   3.668   2.031 -1.0316 -0.0208 -0.4108
 2626TIP3    H2 7843   4.732   3.729   1.958 -0.4917  0.7916  1.0801
 2627TIP3   OH2 7844   2.208   5.801   2.873  0.3662  0.5374 -0.0095
 2627TIP3    H1 7845   2.245   5.772   2.790 -1.7455  0.3515 -0.9701
 2627TIP3    H2 7846   2.171   5.721   2.912  0.1987  0.8394  0.4597
 2628TIP3   OH2 7847   2.059   2.829   5.549 -0.0415  0.0827  1.1571
 2628TIP3    H1 7848   2.064   2.837   5.644 -1.5318 -0.7210  1.3128
 2628TIP3    H2 7849   2.130   2.769   5.526  1.7328  1.9346  1.4912
 2629TIP3   OH2 7850   6.662   0.902   5.316 -0.2457 -0.4395 -0.2906
 2629TIP3    H1 7851   6.666   0.815   5.355  1.7577 -0.2647  0.0125
 2629TIP3    H2 7852   6.743   0.910   5.266 -0.1341  1.4177  0.0942
 2630TIP3   OH2 7853   5.061   1.425   4.549 -0.2147 -0.2468  0.2652
 2630TIP3    H1 7854   5.147   1.384   4.561  0.3758  1.0807  0.6976
 2630TIP3    H2 7855   5.073   1.516   4.575 -2.4192 -0.6017  2.9754
 2631TIP3   OH2 7856   4.050   5.922   2.928  0.1332  0.0011 -0.7313
 2631TIP3    H1 7857   4.143   5.940   2.931  0.0394  0.4622 -0.5906
 2631TIP3    H2 7858   4.022   5.954   2.842 -0.3976  2.3401  0.2505
 2632TIP3   OH2 7859   4.665   6.210   4.362  0.3952 -0.2822 -0.7947
 2632TIP3    H1 7860   4.624   6.124   4.369 -0.0345  0.0494  1.3573
 2632TIP3    H2 7861   4.754   6.196   4.395  1.2512 -0.4168 -2.9500
 2633TIP3   OH2 7862   2.028   3.949   5.008 -0.4244  0.1526  0.2914
 2633TIP3    H1 7863   2.087   3.931   5.082 -0.5541  0.1330  0.3916
 2633TIP3    H2 7864   1.942   3.958   5.049 -0.5564 -0.2154  0.1009
 2634TIP3   OH2 7865   3.286   4.162   5.557 -0.3636 -0.5598 -0.0294
 2634TIP3    H1 7866   3.297   4.222   5.483  0.9317 -1.7339 -0.8261
 2634TIP3    H2 7867   3.296   4.075   5.520 -1.8771 -1.2905  1.1657
 2635TIP3   OH2 7868   1.997   5.435   2.841  0.1629  0.3784  0.5798
 2635TIP3    H1 7869   1.926   5.380   2.876 -0.9966  0.7769 -1.0382
 2635TIP3    H2 7870   2.033   5.386   2.768  1.3556  0.3462  1.1619
 2636TIP3   OH2 7871   5.042   5.719   1.695  0.4266  0.5400 -0.1001
 2636TIP3    H1 7872   5.026   5.774   1.772  3.3500 -0.0663  1.0794
 2636TIP3    H2 7873   5.109   5.766   1.646  0.5639 -0.3969 -0.8345
 2637TIP3   OH2 7874   5.013   3.874   3.928  0.1213 -0.2166 -0.5553
 2637TIP3    H1 7875   4.980   3.794   3.969  1.5491 -0.6230 -0.1168
 2637TIP3    H2 7876   5.038   3.847   3.840 -1.1461  0.2071 -1.0616
 2638TIP3   OH2 7877   3.191   0.976   5.489 -0.0879  0.0159 -0.0500
 2638TIP3    H1 7878   3.179   0.882   5.475  1.4962 -0.0292 -1.5373
 2638TIP3    H2 7879   3.250   1.003   5.418 -1.3902  2.3622 -0.3507
 2639TIP3   OH2 7880   3.245   4.220   0.671 -0.3791  0.2112  0.3034
 2639TIP3    H1 7881   3.319   4.178   0.627  0.3938  0.5612  1.2141
 2639TIP3    H2 7882   3.275   4.229   0.762 -1.9841 -0.6991  0.9702
 2640TIP3   OH2 7883   6.920   5.215   2.477 -0.4245  0.1040  0.0160
 2640TIP3    H1 7884   6.943   5.232   2.569 -1.2550  0.8154  0.1040
 2640TIP3    H2 7885   6.852   5.148   2.482  0.0650 -0.4153 -0.1318
 2641TIP3   OH2 7886   4.768   2.744   4.608  0.1100 -0.0969 -0.1239
 2641TIP3    H1 7887   4.761   2.832   4.645  2.7537  0.3068 -0.3480
 2641TIP3    H2 7888   4.765   2.686   4.684 -1.2027  0.1945  0.0652
 2642TIP3   OH2 7889   0.143   1.269   5.800 -0.4910 -0.2581  0.4791
 2642TIP3    H1 7890   0.112   1.342   5.853 -0.6127 -0.0277  0.0974
 2642TIP3    H2 7891   0.192   1.311   5.728  2.0961 -0.6449  1.8996
 2643TIP3   OH2 7892   4.731   2.810   3.059  0.1080  0.4695  0.4071
 2643TIP3    H1 7893   4.785   2.882   3.027 -1.1856  0.2156 -2.6323
 2643TIP3    H2 7894   4.642   2.845   3.061 -0.6311 -1.0838 -1.6182
 2644TIP3   OH2 7895   2.166   1.112   1.126  0.4618  0.1902 -0.1893
 2644TIP3    H1 7896   2.239   1.160   1.166  0.7477  1.0374 -1.6325
 2644TIP3    H2 7897   2.167   1.140   1.034 -1.6329  0.1534 -0.2770
 2645TIP3   OH2 7898   2.298   3.887   5.500 -0.2110 -0.0641 -0.3191
 2645TIP3    H1 7899   2.283   3.932   5.584  0.8878 -0.4776  0.1156
 2645TIP3    H2 7900   2.389   3.859   5.504 -0.4835 -1.1318 -1.1579
 2646TIP3   OH2 7901   5.219   5.762   4.371 -0.2855  0.3465 -0.1715
 2646TIP3    H1 7902   5.284   5.728   4.433  0.4760 -1.0511 -1.6804
 2646TIP3    H2 7903   5.171   5.828   4.422  1.5688  0.6417  1.3283
 2647TIP3   OH2 7904   7.025   6.133   0.187 -0.5496  0.2250 -0.1151
 2647TIP3    H1 7905   7.102   6.161   0.138  0.0777 -0.4034  0.4689
 2647TIP3    H2 7906   6.951   6.160   0.134  0.0893  0.2037 -1.0506
 2648TIP3   OH2 7907   3.877   2.030   5.617  0.2478  0.4479 -0.0498
 2648TIP3    H1 7908   3.823   2.106   5.637  2.2194  1.7022  0.7246
 2648TIP3    H2 7909   3.904   2.043   5.526 -0.6707 -0.1875 -0.4415
 2649TIP3   OH2 7910   3.059   4.343   0.495  0.3730  0.1329 -0.4473
 2649TIP3    H1 7911   3.103   4.320   0.577  1.3147  0.0414 -0.9645
 2649TIP3    H2 7912   3.008   4.265   0.472  0.5050 -0.0263 -0.1997
 2650TIP3   OH2 7913   6.121   6.093   3.597 -0.0942 -0.3054  0.0804
 2650TIP3    H1 7914   6.192   6.057   3.545 -0.5472 -0.2855 -0.5664
 2650TIP3    H2 7915   6.133   6.188   3.592  1.1540 -0.3306  1.8611
 2651TIP3   OH2 7916   5.858   4.356   3.162 -0.2449 -0.1542  0.2525
 2651TIP3    H1 7917   5.942   4.312   3.148  0.6297  1.0605  1.4286
 2651TIP3    H2 7918   5.830   4.382   3.074  1.5966  1.1429 -0.0043
 2652TIP3   OH2 7919   3.026   6.074   3.425  0.1925  0.6949  0.1305
 2652TIP3    H1 7920   3.049   6.145   3.365  1.7771 -0.8815 -1.2977
 2652TIP3    H2 7921   3.037   6.111   3.512  2.6016  1.7975 -0.5419
 2653TIP3   OH2 7922   6.050   2.563   4.200 -0.1623 -0.1546 -0.0672
 2653TIP3    H1 7923   5.990   2.550   4.272 -0.7974 -0.9612 -0.7277
 2653TIP3    H2 7924   6.117   2.496   4.211 -0.3109 -0.3394 -0.2709
 2654TIP3   OH2 7925   4.146   2.363   3.706  0.2386 -0.3552  0.4551
 2654TIP3    H1 7926   4.197   2.401   3.634 -2.7319  0.3478 -1.4755
 2654TIP3    H2 7927   4.168   2.417   3.782  1.1477  0.9023 -0.6511
 2655TIP3   OH2 7928   1.550   5.146   2.562  0.0421  0.1963 -0.0144
 2655TIP3    H1 7929   1.583   5.058   2.546  0.0959 -0.7840  4.1906
 2655TIP3    H2 7930   1.618   5.204   2.527  1.7986 -1.5589  0.2852
 2656TIP3   OH2 7931   1.468   5.640   1.451  0.4997 -0.3883 -0.1680
 2656TIP3    H1 7932   1.434   5.680   1.371 -0.6249  0.0850  0.5336
 2656TIP3    H2 7933   1.430   5.691   1.522  2.5777  0.0744  0.6792
 2657TIP3   OH2 7934   3.048   0.284   1.181  0.0734  0.6066  0.1078
 2657TIP3    H1 7935   2.966   0.240   1.204  0.4783  0.2805  0.9614
 2657TIP3    H2 7936   3.103   0.215   1.143  0.4537  0.5109  0.8110
 2658TIP3   OH2 7937   0.370   0.046   3.041 -0.6692  0.5157 -0.2700
 2658TIP3    H1 7938   0.381  -0.049   3.048 -1.0334  0.4834 -0.1511
 2658TIP3    H2 7939   0.293   0.058   2.986 -1.9777  0.7102  1.5248
 2659TIP3   OH2 7940   5.811   0.801   1.742  0.8633  0.4849 -0.2389
 2659TIP3    H1 7941   5.846   0.732   1.799 -1.8546 -1.0820 -0.2368
 2659TIP3    H2 7942   5.793   0.874   1.802  2.7611  0.8452 -0.0479
 2660TIP3   OH2 7943   2.996   1.524   0.064  0.2062 -0.1685 -0.4150
 2660TIP3    H1 7944   2.965   1.469   0.136 -1.0626 -1.1883 -1.6907
 2660TIP3    H2 7945   2.985   1.614   0.096 -1.3129 -0.5733  0.2793
 2661TIP3   OH2 7946   3.974   4.543   4.234 -0.2795 -0.3264 -0.1247
 2661TIP3    H1 7947   4.020   4.626   4.243 -0.9702  0.2515 -1.5396
 2661TIP3    H2 7948   4.016   4.500   4.160 -0.8436 -0.5753 -0.3112
 2662TIP3   OH2 7949   6.492   4.986   1.000  0.5174  0.2644  0.1152
 2662TIP3    H1 7950   6.434   5.044   1.048  1.2402  1.8426 -0.8426
 2662TIP3    H2 7951   6.576   5.032   0.999  0.4556  0.4552 -2.8878
 2663TIP3   OH2 7952   6.019   6.041   5.616  0.0331 -0.2602 -0.0851
 2663TIP3    H1 7953   6.012   5.957   5.660  1.7467 -0.8293 -0.8084
 2663TIP3    H2 7954   5.979   6.027   5.530  0.0161 -0.2467 -0.0792
 2664TIP3   OH2 7955   4.358   1.457   3.793  0.5113  0.3634 -0.1064
 2664TIP3    H1 7956   4.329   1.387   3.735  0.2880  0.5457 -0.2220
 2664TIP3    H2 7957   4.453   1.449   3.797  0.4233 -0.4157  0.4949
 2665TIP3   OH2 7958   1.966   3.152   3.311 -0.1538 -0.1356  0.2124
 2665TIP3    H1 7959   2.003   3.074   3.352 -0.5854 -0.4281  0.0618
 2665TIP3    H2 7960   1.931   3.204   3.383 -0.0631 -0.1897  0.2946
 2666TIP3   OH2 7961   3.265   2.836   2.120  0.7762  0.4419 -0.2502
 2666TIP3    H1 7962   3.224   2.791   2.193  0.3223  1.1835 -0.0359
 2666TIP3    H2 7963   3.354   2.854   2.150  1.1482 -0.7908 -0.5544
 2667TIP3   OH2 7964   4.179   1.636   1.564  0.3599 -0.4261 -0.1397
 2667TIP3    H1 7965   4.166   1.603   1.475  1.1379  0.8136 -0.7359
 2667TIP3    H2 7966   4.091   1.656   1.595  0.1009 -0.6568 -0.7042
 2668TIP3   OH2 7967   6.504   3.702   0.559  0.3929  0.3031 -0.3430
 2668TIP3    H1 7968   6.554   3.718   0.639  0.5751  1.4703 -0.6696
 2668TIP3    H2 7969   6.413   3.706   0.587  0.4579  0.5347 -0.1667
 2669TIP3   OH2 7970   6.708   3.293   4.954 -0.2247 -0.1564 -0.1057
 2669TIP3    H1 7971   6.762   3.303   5.032 -0.0834  1.3644 -0.3666
 2669TIP3    H2 7972   6.706   3.381   4.914 -0.3602 -0.8688 -1.7567
 2670TIP3   OH2 7973   4.906   0.884   5.425  0.0517 -0.1550 -0.4591
 2670TIP3    H1 7974   4.998   0.866   5.443  0.0433  0.1410 -0.1080
 2670TIP3    H2 7975   4.904   0.914   5.334  0.4622  0.9652 -0.1112
 2671TIP3   OH2 7976   5.652   1.208   2.501 -0.0205 -0.5594  0.1124
 2671TIP3    H1 7977   5.613   1.161   2.427  0.7042 -1.1170  0.0869
 2671TIP3    H2 7978   5.633   1.154   2.577  0.1559 -0.5141  0.1891
 2672TIP3   OH2 7979   5.100   4.859   2.088  0.2536  0.6037 -0.1955
 2672TIP3    H1 7980   5.123   4.875   1.996 -2.0842  1.2916 -0.7431
 2672TIP3    H2 7981   5.112   4.944   2.130 -0.1849  0.6850 -0.2327
 2673TIP3   OH2 7982   6.423   4.732   1.264 -0.2183 -0.1095 -0.4253
 2673TIP3    H1 7983   6.359   4.799   1.239  1.5880  1.5845 -0.7886
 2673TIP3    H2 7984   6.395   4.703   1.351 -0.9901  1.2532 -0.1969
 2674TIP3   OH2 7985   4.621   1.380   3.801 -0.2176  0.2610 -0.3731
 2674TIP3    H1 7986   4.596   1.288   3.800  0.2546  0.0474  2.0840
 2674TIP3    H2 7987   4.700   1.385   3.746  0.4142 -1.0445  0.3740
 2675TIP3   OH2 7988   3.806   0.083   2.944  0.1439 -0.1120 -0.2358
 2675TIP3    H1 7989   3.803  -0.010   2.923  0.7576 -0.5046  1.2711
 2675TIP3    H2 7990   3.720   0.101   2.983  0.3548 -0.2777  0.3155
 2676TIP3   OH2 7991   4.206   5.386   2.916 -0.2398 -0.8068  0.1557
 2676TIP3    H1 7992   4.253   5.303   2.906  1.5500 -0.2811  2.9163
 2676TIP3    H2 7993   4.270   5.453   2.891 -0.4713 -0.1766  1.1882
 2677TIP3   OH2 7994   3.398   3.993   4.733 -0.0882 -0.4663  0.1685
 2677TIP3    H1 7995   3.434   3.905   4.738 -1.0716 -0.8630  0.4973
 2677TIP3    H2 7996   3.304   3.982   4.747 -0.2724  0.5976 -0.1148
 2678TIP3   OH2 7997   1.842   2.029   2.040 -0.0677  0.0868 -0.3593
 2678TIP3    H1 7998   1.834   1.973   1.962  1.6173 -0.8932  0.1256
 2678TIP3    H2 7999   1.918   2.085   2.021 -0.9975  1.4063 -0.3218
 2679TIP3   OH2 8000   4.498   6.003   4.871  0.0156  0.2050 -0.1848
 2679TIP3    H1 8001   4.587   6.022   4.840  0.2661 -2.2835 -1.2258
 2679TIP3    H2 8002   4.456   5.958   4.798 -2.1347  1.3049  0.3072
 2680TIP3   OH2 8003   6.879   3.152   5.600  0.1964 -0.3233 -0.0746
 2680TIP3    H1 8004   6.808   3.101   5.563 -0.8392  1.2610 -0.3707
 2680TIP3    H2 8005   6.836   3.228   5.640  1.5252 -0.4524  1.7613
 2681TIP3   OH2 8006   0.255   6.628   4.894  0.1306  0.1997  0.3763
 2681TIP3    H1 8007   0.253   6.676   4.811  1.4613  0.5887  0.5450
 2681TIP3    H2 8008   0.229   6.539   4.871 -0.0000  0.4246 -0.3659
 2682TIP3   OH2 8009   6.823   4.387   1.746  0.3001 -0.2302  0.3077
 2682TIP3    H1 8010   6.871   4.342   1.677 -0.0234  0.3606 -0.3138
 2682TIP3    H2 8011   6.827   4.480   1.722 -1.8382 -0.2140 -0.2266
 2683TIP3   OH2 8012   4.881   0.775   2.080 -0.1047 -0.2028 -0.1023
 2683TIP3    H1 8013   4.858   0.802   1.991 -0.6358  0.5331  0.2516
 2683TIP3    H2 8014   4.977   0.781   2.082  0.0520 -1.7241 -1.0806
 2684TIP3   OH2 8015   2.091   2.678   1.523  0.5945 -0.5011  0.2421
 2684TIP3    H1 8016   2.175   2.661   1.566  0.4774 -0.2783  0.5642
 2684TIP3    H2 8017   2.086   2.613   1.453 -0.2275 -2.3530  1.9403
 2685TIP3   OH2 8018   2.781   1.974   5.081 -0.4013  0.4143 -0.1448
 2685TIP3    H1 8019   2.734   1.977   4.998 -0.3353 -0.2630 -0.2052
 2685TIP3    H2 8020   2.871   1.998   5.059 -0.0992 -0.9659 -0.4786
 2686TIP3   OH2 8021   4.331   0.351   0.155  0.2004  0.3707  0.1917
 2686TIP3    H1 8022   4.351   0.425   0.098  1.3164  1.7968  2.3037
 2686TIP3    H2 8023   4.246   0.373   0.194  0.5428  0.5829  0.8375
 2687TIP3   OH2 8024   3.386   6.338   3.916  0.1344 -0.4160 -0.3820
 2687TIP3    H1 8025   3.445   6.353   3.843  1.5795 -0.5242  0.7170
 2687TIP3    H2 8026   3.390   6.419   3.967 -1.0702 -0.2323 -0.5358
 2688TIP3   OH2 8027   5.365   4.708   4.100 -0.1832 -0.1878 -0.5415
 2688TIP3    H1 8028   5.340   4.798   4.121 -1.1563  0.3115 -3.4284
 2688TIP3    H2 8029   5.288   4.656   4.119 -0.1415 -0.1763 -0.3389
 2689TIP3   OH2 8030   4.319   4.737   5.186  0.3046  0.7445  0.4887
 2689TIP3    H1 8031   4.409   4.705   5.185  0.5641  1.2265  2.8630
 2689TIP3    H2 8032   4.274   4.683   5.121  2.1311  0.0476 -0.2769
 2690TIP3   OH2 8033   4.201   5.792   0.102 -0.3934  0.1606  0.1087
 2690TIP3    H1 8034   4.170   5.859   0.041 -1.8240  1.3909  2.0852
 2690TIP3    H2 8035   4.184   5.709   0.056 -0.8883  1.0378 -1.3701
 2691TIP3   OH2 8036   1.804   3.191   5.267  0.3724 -0.0043 -0.2363
 2691TIP3    H1 8037   1.826   3.185   5.360 -1.5197 -1.0712  0.1669
 2691TIP3    H2 8038   1.745   3.266   5.261  0.8275  0.3318 -0.6750
 2692TIP3   OH2 8039   3.460   0.018   0.731 -0.2226  0.1193  0.3148
 2692TIP3    H1 8040   3.376  -0.003   0.771 -0.6632  0.7490 -0.2726
 2692TIP3    H2 8041   3.451  -0.008   0.640  0.8556 -1.5020  0.6306
 2693TIP3   OH2 8042   2.868   4.052   5.110  0.0963  0.0440 -0.3137
 2693TIP3    H1 8043   2.841   4.138   5.080  0.7360  0.5180  0.4365
 2693TIP3    H2 8044   2.942   4.069   5.169  0.0947 -0.9942  0.0087
 2694TIP3   OH2 8045   0.281   1.334   5.077  0.2829  0.1313  0.1017
 2694TIP3    H1 8046   0.201   1.287   5.054  0.2753 -0.8706  1.9958
 2694TIP3    H2 8047   0.252   1.424   5.094 -0.9150 -0.6590  2.8649
 2695TIP3   OH2 8048   0.043   0.681   0.542 -0.1658 -0.0624 -0.1985
 2695TIP3    H1 8049  -0.026   0.699   0.478 -0.0552 -0.9498 -0.5764
 2695TIP3    H2 8050   0.046   0.586   0.549  1.6958 -0.1042 -0.9352
 2696TIP3   OH2 8051   6.112   1.355   2.621 -0.0453 -0.0291  0.0412
 2696TIP3    H1 8052   6.047   1.425   2.611  0.3931  0.4790  0.6927
 2696TIP3    H2 8053   6.192   1.392   2.584 -0.5290 -1.3502 -2.6129
 2697TIP3   OH2 8054   0.592   2.754   3.656  0.7234 -0.6223  0.2058
 2697TIP3    H1 8055   0.556   2.709   3.733 -1.1035  0.3659 -0.0238
 2697TIP3    H2 8056   0.678   2.784   3.684 -0.6772  1.4897  2.6120
 2698TIP3   OH2 8057   0.889   3.330   2.870 -0.7838 -0.6083  0.1898
 2698TIP3    H1 8058   0.947   3.258   2.894  0.2973  0.1873  0.0320
 2698TIP3    H2 8059   0.917   3.354   2.782 -1.7671 -0.6019 -0.1277
 2699TIP3   OH2 8060   6.337   1.848   0.250 -0.1541  0.1919 -0.2088
 2699TIP3    H1 8061   6.342   1.824   0.343  1.3929  1.7386  0.1565
 2699TIP3    H2 8062   6.390   1.782   0.205 -2.2072 -1.5316 -0.2756
 2700TIP3   OH2 8063   6.977   0.915   1.140 -0.4292 -0.1782 -0.1888
 2700TIP3    H1 8064   7.008   0.868   1.062  0.4394  0.4469 -0.2315
 2700TIP3    H2 8065   7.028   0.879   1.212 -1.5996 -1.1278  0.1997
 2701TIP3   OH2 8066   4.784   0.649   5.556  0.3757 -0.0892 -0.0764
 2701TIP3    H1 8067   4.821   0.617   5.474 -0.5957 -0.2135 -0.4888
 2701TIP3    H2 8068   4.784   0.744   5.547  0.6687 -0.0846 -0.0362
 2702TIP3   OH2 8069   2.434   0.929   1.011  0.1074  0.1691 -0.3768
 2702TIP3    H1 8070   2.518   0.894   0.981  0.0028 -3.0354  2.3373
 2702TIP3    H2 8071   2.449   0.952   1.103 -1.7706  0.3006 -0.0565
 2703TIP3   OH2 8072   4.990   3.419   1.564 -0.6473  0.1760 -0.4279
 2703TIP3    H1 8073   4.945   3.464   1.635  1.3906 -0.4122  1.3345
 2703TIP3    H2 8074   5.063   3.477   1.541  0.0098 -0.6579 -0.4940
 2704TIP3   OH2 8075   1.843   0.632   5.085 -0.4086 -0.8045  0.0049
 2704TIP3    H1 8076   1.796   0.551   5.070 -0.6810 -0.7412  0.4965
 2704TIP3    H2 8077   1.794   0.698   5.036  0.3807 -1.0888 -1.2343
 2705TIP3   OH2 8078   0.137   3.377   1.940  0.0807  0.7735  0.0282
 2705TIP3    H1 8079   0.212   3.325   1.968 -0.3345  0.2359  0.1579
 2705TIP3    H2 8080   0.105   3.333   1.861  0.1489  1.2398 -0.2653
 2706TIP3   OH2 8081   0.125   2.406   2.043 -0.1578  0.0484  0.1702
 2706TIP3    H1 8082   0.128   2.311   2.029  1.5253 -0.3095  2.3451
 2706TIP3    H2 8083   0.217   2.431   2.046 -0.5756  1.5871  0.5957
 2707TIP3   OH2 8084   2.198   3.030   0.085 -0.0856 -0.1638 -0.1366
 2707TIP3    H1 8085   2.195   3.057   0.177  2.6365 -1.3323  0.3814
 2707TIP3    H2 8086   2.125   2.969   0.075  0.1419 -0.7405  1.5217
 2708TIP3   OH2 8087   1.067   5.246   4.352  0.5276  0.6414  0.3282
 2708TIP3    H1 8088   1.026   5.330   4.373 -1.3018 -0.4697  1.5864
 2708TIP3    H2 8089   1.145   5.243   4.407 -1.4824 -0.0399  3.4164
 2709TIP3   OH2 8090   6.062   5.461   2.457 -0.3371 -0.4014  0.3995
 2709TIP3    H1 8091   6.025   5.507   2.381  1.3849  1.1120  0.4054
 2709TIP3    H2 8092   5.988   5.413   2.494 -1.4994 -0.2048 -1.5126
 2710TIP3   OH2 8093   2.027   2.829   5.830 -0.4413  0.0316  0.0711
 2710TIP3    H1 8094   1.956   2.816   5.893 -1.7119  3.6653 -0.3811
 2710TIP3    H2 8095   2.093   2.880   5.877  1.3083 -2.0712  0.0432
 2711TIP3   OH2 8096   2.979   2.483   3.211 -0.6852  0.2199 -0.4631
 2711TIP3    H1 8097   2.929   2.514   3.286  0.6462  1.0262  0.1393
 2711TIP3    H2 8098   3.070   2.489   3.239 -0.2432 -1.4155 -1.4367
 2712TIP3   OH2 8099   0.309   6.480   5.737 -0.0635 -0.2116  0.5710
 2712TIP3    H1 8100   0.368   6.450   5.806 -0.3565  0.1258  0.9737
 2712TIP3    H2 8101   0.221   6.471   5.774 -0.1742  0.9003  0.6166
 2713TIP3   OH2 8102   6.099   6.640   5.881  0.3658  0.2369  1.1934
 2713TIP3    H1 8103   6.191   6.616   5.890  0.5963  0.9772  0.8794
 2713TIP3    H2 8104   6.061   6.569   5.829  1.4109  1.2938 -1.2181
 2714TIP3   OH2 8105   2.301   6.525   3.301 -0.1647 -0.2712 -0.4442
 2714TIP3    H1 8106   2.362   6.526   3.375 -1.2044 -0.9583  0.4502
 2714TIP3    H2 8107   2.355   6.504   3.226  1.3093  2.4476 -0.2815
 2715TIP3   OH2 8108   1.208   3.589   2.749 -0.1489 -0.2564 -0.4596
 2715TIP3    H1 8109   1.159   3.671   2.738 -0.4317 -0.4883 -0.9825
 2715TIP3    H2 8110   1.243   3.594   2.838  0.9942  1.0425 -0.9376
 2716TIP3   OH2 8111   2.371   2.664   0.939  0.4186 -0.0826  0.3068
 2716TIP3    H1 8112   2.277   2.652   0.954  0.7397 -0.5866  2.0399
 2716TIP3    H2 8113   2.376   2.691   0.847 -1.5919  2.0011  0.6909
 2717TIP3   OH2 8114   3.613   0.734   5.268 -0.2734 -0.0218 -0.1762
 2717TIP3    H1 8115   3.686   0.774   5.221  0.4737  0.1279  1.0579
 2717TIP3    H2 8116   3.620   0.641   5.249  1.5274 -0.3079  1.5273
 2718TIP3   OH2 8117   3.991   1.912   3.676  0.2320  0.0042 -0.7312
 2718TIP3    H1 8118   4.053   1.982   3.661  0.1413  0.5164  0.9923
 2718TIP3    H2 8119   3.989   1.902   3.772 -0.4737 -1.6836 -0.8836
 2719TIP3   OH2 8120   0.342   0.487   1.993 -0.0517  0.2127  0.0241
 2719TIP3    H1 8121   0.335   0.434   2.072 -2.0969  1.1440  0.5418
 2719TIP3    H2 8122   0.415   0.449   1.945 -0.0457 -1.6529  1.3993
 2720TIP3   OH2 8123   6.185   1.640   3.615  0.1327  0.1217  0.1090
 2720TIP3    H1 8124   6.156   1.576   3.550  0.6386  0.6286 -0.6381
 2720TIP3    H2 8125   6.115   1.704   3.619  0.2639  0.2872 -0.2178
 2721TIP3   OH2 8126   1.236   4.820   1.118  0.1436 -0.2350 -0.0844
 2721TIP3    H1 8127   1.188   4.808   1.036 -1.3571  2.0543  0.3670
 2721TIP3    H2 8128   1.324   4.846   1.091  0.0402 -0.7487 -0.9454
 2722TIP3   OH2 8129   1.527   6.785   0.985 -0.5357  0.1160  0.2803
 2722TIP3    H1 8130   1.597   6.734   1.026  0.8220  1.9338  0.3910
 2722TIP3    H2 8131   1.566   6.818   0.903 -0.8979  1.8768  0.7615
 2723TIP3   OH2 8132   1.094   0.851   2.009 -0.0056  0.2204  0.1652
 2723TIP3    H1 8133   1.089   0.756   2.014 -0.5471  0.2460  0.0937
 2723TIP3    H2 8134   1.011   0.882   2.043  0.7919  0.7182  1.7660
 2724TIP3   OH2 8135   0.651   2.126   5.403  0.0148  0.1411  0.0915
 2724TIP3    H1 8136   0.596   2.201   5.423 -0.9884 -0.1476 -1.4039
 2724TIP3    H2 8137   0.629   2.104   5.312  1.0904 -1.2731  0.1417
 2725TIP3   OH2 8138   2.222   1.445   4.490 -0.3310  0.0165  0.7852
 2725TIP3    H1 8139   2.165   1.493   4.551  0.0166  1.0765  0.3143
 2725TIP3    H2 8140   2.310   1.475   4.511 -0.2335  0.7017 -0.4483
 2726TIP3   OH2 8141   6.756   5.293   5.452  0.6349  0.2291 -0.4158
 2726TIP3    H1 8142   6.705   5.276   5.531 -0.1589  2.5530 -0.3726
 2726TIP3    H2 8143   6.814   5.366   5.475  1.5849 -0.1477 -1.4949
 2727TIP3   OH2 8144   2.138   6.685   0.311 -0.3382 -0.6226  0.1426
 2727TIP3    H1 8145   2.150   6.632   0.232  1.1800  0.2110 -0.2078
 2727TIP3    H2 8146   2.045   6.708   0.310 -0.0246  0.8185 -2.3422
 2728TIP3   OH2 8147   2.835   4.837   2.624  0.3941  0.3584  0.2039
 2728TIP3    H1 8148   2.833   4.750   2.665  1.3123  0.3183  0.1787
 2728TIP3    H2 8149   2.775   4.889   2.677 -0.5866 -0.4258 -0.1082
 2729TIP3   OH2 8150   2.006   2.142   4.167 -0.1506  0.0793 -0.4600
 2729TIP3    H1 8151   1.931   2.096   4.130 -0.5360 -0.3910  0.8287
 2729TIP3    H2 8152   1.971   2.224   4.200 -0.5071 -0.8233  1.6135
 2730TIP3   OH2 8153   3.124   2.001   4.193  0.0110 -0.0739 -0.0608
 2730TIP3    H1 8154   3.075   1.996   4.111  0.7911 -0.2101 -0.5397
 2730TIP3    H2 8155   3.085   2.074   4.240  1.1714  1.7148 -1.6966
 2731TIP3   OH2 8156   0.217   2.853   3.263  0.1352 -0.4941  0.2640
 2731TIP3    H1 8157   0.256   2.933   3.297 -1.4814  1.3414 -1.8568
 2731TIP3    H2 8158   0.134   2.844   3.311  0.9415 -1.7700  1.4978
 2732TIP3   OH2 8159   3.781   5.605   4.259  0.4134 -0.0782 -0.5291
 2732TIP3    H1 8160   3.875   5.587   4.265  0.5188  0.2973 -0.9686
 2732TIP3    H2 8161   3.750   5.606   4.350  1.2849  2.0915 -0.1838
 2733TIP3   OH2 8162   3.914   4.626   0.954  0.4728 -1.2646  0.3162
 2733TIP3    H1 8163   3.974   4.697   0.976 -2.5859  2.1971 -1.4070
 2733TIP3    H2 8164   3.931   4.607   0.862  0.1130 -1.5275  0.2970
 2734TIP3   OH2 8165   0.812   6.144   0.829  0.1053  0.1262  0.6451
 2734TIP3    H1 8166   0.801   6.052   0.806 -2.0947 -0.2280  2.7304
 2734TIP3    H2 8167   0.733   6.187   0.798  1.4546  1.5444 -1.0266
 2735TIP3   OH2 8168   3.134   3.760   0.937 -0.5128  0.2121  0.7013
 2735TIP3    H1 8169   3.154   3.673   0.971  2.9948 -0.3830 -2.3025
 2735TIP3    H2 8170   3.058   3.747   0.881  1.7315 -1.7815 -2.1323
 2736TIP3   OH2 8171   6.849   3.856   3.413  0.3172  0.4925  0.2750
 2736TIP3    H1 8172   6.779   3.838   3.351  1.7794  0.6445 -1.5097
 2736TIP3    H2 8173   6.821   3.815   3.494 -1.7343  0.4056 -0.4349
 2737TIP3   OH2 8174   3.065   4.039   5.750 -0.3623 -0.0374 -0.0180
 2737TIP3    H1 8175   3.117   4.115   5.779  0.5528 -0.5433 -0.2833
 2737TIP3    H2 8176   3.073   4.041   5.654  0.1676 -0.7951 -0.0008
 2738TIP3   OH2 8177   6.721   6.275   2.748 -0.1982  0.1511 -0.0659
 2738TIP3    H1 8178   6.737   6.368   2.768 -0.7707  0.3983 -0.7074
 2738TIP3    H2 8179   6.661   6.247   2.817 -0.0862  0.2791  0.0860
 2739TIP3   OH2 8180   2.861   3.038   3.697 -0.1460  0.2184  0.1711
 2739TIP3    H1 8181   2.778   3.037   3.745 -1.9015  1.0202 -2.5775
 2739TIP3    H2 8182   2.835   3.030   3.605  2.9968 -1.5400 -0.7061
 2740TIP3   OH2 8183   2.026   5.057   5.761  0.5787 -0.2664  0.2270
 2740TIP3    H1 8184   2.048   5.121   5.694 -0.8547  0.6426  0.5797
 2740TIP3    H2 8185   1.970   4.994   5.717 -1.3085  0.9509  0.7616
 2741TIP3   OH2 8186   2.464   2.929   2.856  0.2273 -0.5459 -0.3848
 2741TIP3    H1 8187   2.519   2.894   2.786  2.1405 -0.1071  0.8085
 2741TIP3    H2 8188   2.429   3.011   2.821  1.4057 -0.1784 -0.7520
 2742TIP3   OH2 8189   1.987   5.056   2.460 -0.5071 -0.0792  0.2353
 2742TIP3    H1 8190   1.911   5.002   2.483 -1.0967  1.6027  2.6141
 2742TIP3    H2 8191   2.032   5.071   2.543  1.0179  1.0719 -0.7325
 2743TIP3   OH2 8192   5.136   2.121   1.094 -0.3566  0.2384  0.0658
 2743TIP3    H1 8193   5.141   2.130   0.999 -0.5673 -2.4833 -0.2738
 2743TIP3    H2 8194   5.044   2.102   1.111 -0.0359 -0.8882  0.6149
 2744TIP3   OH2 8195   1.171   0.752   1.699  0.0307 -0.3855 -0.0626
 2744TIP3    H1 8196   1.094   0.804   1.723  1.8394  1.7528  1.5343
 2744TIP3    H2 8197   1.150   0.717   1.613 -3.3074 -1.1450  0.9301
 2745TIP3   OH2 8198   1.635   1.065   2.103  0.3581  0.4500  0.5681
 2745TIP3    H1 8199   1.558   1.034   2.056  0.6603 -0.9323  0.9233
 2745TIP3    H2 8200   1.667   0.988   2.150  1.7172  1.0905  0.7527
 2746TIP3   OH2 8201   2.895   3.984   4.209 -0.4033 -0.3319  0.1498
 2746TIP3    H1 8202   2.938   4.067   4.230 -0.4219 -0.4275  0.5696
 2746TIP3    H2 8203   2.958   3.938   4.154  0.3741 -0.7888  1.3683
 2747TIP3   OH2 8204   4.213   3.059   2.033  0.0184 -0.1613  0.1335
 2747TIP3    H1 8205   4.190   3.089   1.945  0.4618 -1.3524 -0.4000
 2747TIP3    H2 8206   4.298   3.099   2.051 -0.8775  1.5657  0.7861
 2748TIP3   OH2 8207   4.262   1.450   4.578  0.8273 -0.2755 -0.0172
 2748TIP3    H1 8208   4.267   1.496   4.494 -1.0411 -0.9864 -0.5837
 2748TIP3    H2 8209   4.311   1.505   4.639 -0.6829  2.0987 -0.8163
 2749TIP3   OH2 8210   1.875   3.622   4.618  0.5333  0.1107 -0.3523
 2749TIP3    H1 8211   1.927   3.692   4.659 -0.8362  0.3477  1.0979
 2749TIP3    H2 8212   1.895   3.544   4.671 -0.0586  0.0557 -0.2014
 2750TIP3   OH2 8213   1.592   4.258   4.101  0.1493 -0.4442 -0.8247
 2750TIP3    H1 8214   1.579   4.286   4.191  1.8998 -0.4189 -0.5487
 2750TIP3    H2 8215   1.508   4.274   4.058 -0.4398  0.3592  0.5815
 2751TIP3   OH2 8216   2.616   4.684   5.339 -0.0204 -0.3835  0.3606
 2751TIP3    H1 8217   2.587   4.740   5.411 -0.2074  2.2820 -1.6558
 2751TIP3    H2 8218   2.535   4.653   5.298  0.0306  0.4938 -0.4275
 2752TIP3   OH2 8219   0.394   1.306   3.281 -0.2347  0.0343 -0.2791
 2752TIP3    H1 8220   0.398   1.221   3.237  0.5820 -0.0052 -0.1409
 2752TIP3    H2 8221   0.444   1.365   3.224 -1.5253  0.6328 -0.8185
 2753TIP3   OH2 8222   0.585   3.093   0.840 -0.1575 -0.0250 -0.4016
 2753TIP3    H1 8223   0.570   3.128   0.928  2.5384  0.5309 -0.0822
 2753TIP3    H2 8224   0.498   3.091   0.800 -0.9811  3.8668  0.7430
 2754TIP3   OH2 8225   4.682   1.965   1.998  0.0825  0.2426 -0.2132
 2754TIP3    H1 8226   4.695   2.052   1.959 -1.6837 -0.4452 -2.5679
 2754TIP3    H2 8227   4.643   1.913   1.928  2.3364 -2.9126  0.6599
 2755TIP3   OH2 8228   5.268   4.737   4.407 -0.0542  0.0281 -0.0682
 2755TIP3    H1 8229   5.320   4.817   4.400 -0.3814  0.2207 -0.3113
 2755TIP3    H2 8230   5.305   4.691   4.482  1.4334 -0.5491 -1.0926
 2756TIP3   OH2 8231   1.249   2.020   1.626  0.0270  0.2100  0.1070
 2756TIP3    H1 8232   1.239   2.074   1.548  1.1324 -1.3790 -1.2097
 2756TIP3    H2 8233   1.332   2.049   1.665  0.4378 -0.2621 -0.3980
 2757TIP3   OH2 8234   5.670   5.271   3.225 -0.6514 -0.0368  0.2983
 2757TIP3    H1 8235   5.756   5.274   3.266 -0.5771 -1.5572  0.3034
 2757TIP3    H2 8236   5.616   5.328   3.280  0.7526  2.5733 -0.8358
 2758TIP3   OH2 8237   0.682   1.538   1.535 -0.3411 -0.0054 -0.1643
 2758TIP3    H1 8238   0.645   1.603   1.595 -0.8728 -1.7062  1.4395
 2758TIP3    H2 8239   0.689   1.458   1.587  0.8241 -1.1138 -1.9025
 2759TIP3   OH2 8240   6.191   0.799   2.095 -0.2162 -0.3798 -0.0106
 2759TIP3    H1 8241   6.236   0.765   2.018  2.3823  1.0478  0.7296
 2759TIP3    H2 8242   6.136   0.870   2.061  2.3844  1.5644 -0.4814
 2760TIP3   OH2 8243   1.047   6.474   0.982  0.2691 -0.5177 -0.2132
 2760TIP3    H1 8244   1.017   6.385   1.001 -1.5303 -0.0672 -0.7841
 2760TIP3    H2 8245   1.056   6.514   1.068 -0.2767 -0.8330 -0.0001
 2761TIP3   OH2 8246   5.613   5.416   5.708  0.4691 -0.3573 -0.0963
 2761TIP3    H1 8247   5.599   5.510   5.696  0.1346 -0.2515  0.9990
 2761TIP3    H2 8248   5.666   5.390   5.633 -0.8812  0.3571 -1.3284
 2762TIP3   OH2 8249   2.651   6.574   5.131  0.4746  0.1622 -0.2021
 2762TIP3    H1 8250   2.643   6.667   5.150 -1.8969  0.1808 -0.9375
 2762TIP3    H2 8251   2.589   6.532   5.190 -0.5129 -0.6330 -1.7248
 2763TIP3   OH2 8252   1.900   5.674   5.612 -0.0646 -0.7080  0.0928
 2763TIP3    H1 8253   1.865   5.662   5.701  2.3461 -0.3699  1.1511
 2763TIP3    H2 8254   1.903   5.769   5.600  0.5982 -0.7290  0.0734
 2764TIP3   OH2 8255   1.660   5.652   0.164 -0.4656 -0.1913  0.0914
 2764TIP3    H1 8256   1.702   5.712   0.102 -1.0039  0.4447  0.3367
 2764TIP3    H2 8257   1.733   5.603   0.202 -0.2145 -2.1745 -2.5688
 2765TIP3   OH2 8258   2.191   5.932   3.975 -0.1649 -0.2811  0.2457
 2765TIP3    H1 8259   2.181   5.897   3.886 -0.1828  0.6388 -0.1250
 2765TIP3    H2 8260   2.108   5.977   3.992 -0.0254 -0.1577  0.6020
 2766TIP3   OH2 8261   2.817   1.079   0.474 -0.1078 -0.6913  0.1986
 2766TIP3    H1 8262   2.758   1.100   0.547  0.6415 -1.7827  1.1489
 2766TIP3    H2 8263   2.792   0.990   0.448 -0.8217 -0.0796 -1.3673
 2767TIP3   OH2 8264   0.116   5.163   5.066 -1.0614  0.1657 -0.2466
 2767TIP3    H1 8265   0.046   5.225   5.085  0.7701  1.7522  1.8688
 2767TIP3    H2 8266   0.193   5.218   5.050  0.0665 -1.5213 -0.8642
 2768TIP3   OH2 8267   0.277   1.387   2.340  0.2554 -0.1854 -0.1579
 2768TIP3    H1 8268   0.236   1.317   2.391 -0.2325 -1.1268 -1.7662
 2768TIP3    H2 8269   0.210   1.411   2.275  0.4977  1.6370  0.2167
 2769TIP3   OH2 8270   4.061   4.790   3.389 -0.3468  0.0009 -0.2226
 2769TIP3    H1 8271   4.010   4.867   3.411 -1.0387  0.3511 -2.7624
 2769TIP3    H2 8272   4.150   4.811   3.417 -0.5682  1.6221 -0.6740
 2770TIP3   OH2 8273   2.342   4.675   4.707  0.0872 -0.1798 -0.3921
 2770TIP3    H1 8274   2.415   4.720   4.749 -0.2665  0.0529 -0.0249
 2770TIP3    H2 8275   2.327   4.724   4.626  1.6471 -1.4181 -1.5141
 2771TIP3   OH2 8276   2.792   1.061   5.400  0.2360  0.0689  0.1231
 2771TIP3    H1 8277   2.720   1.032   5.455  0.2346 -0.7918 -0.3116
 2771TIP3    H2 8278   2.755   1.063   5.311  0.4057  0.8356  0.0665
 2772TIP3   OH2 8279   6.950   5.958   4.212 -0.4615 -0.4463  0.5954
 2772TIP3    H1 8280   6.960   6.020   4.139 -0.5111 -2.2744 -1.0452
 2772TIP3    H2 8281   7.034   5.962   4.258 -0.5227  0.9475  0.6185
 2773TIP3   OH2 8282   4.965   5.117   3.474 -0.2273 -0.1810 -0.4205
 2773TIP3    H1 8283   4.993   5.208   3.488  0.4911 -0.0002 -2.6488
 2773TIP3    H2 8284   4.989   5.072   3.555 -0.4690  1.5773  0.6727
 2774TIP3   OH2 8285   6.356   6.245   0.773 -0.7074  0.1845  0.4877
 2774TIP3    H1 8286   6.325   6.205   0.692  0.5907 -2.3645  1.1593
 2774TIP3    H2 8287   6.448   6.220   0.779 -0.1223  2.3752  1.5745
 2775TIP3   OH2 8288   6.948   5.067   3.903 -0.0692  0.4086  0.0757
 2775TIP3    H1 8289   6.986   5.028   3.982 -2.9887  0.7628  1.7980
 2775TIP3    H2 8290   7.000   5.146   3.888  0.6733  0.2411  1.5744
 2776TIP3   OH2 8291   2.997   4.024   2.302  0.9986  0.2468 -0.0179
 2776TIP3    H1 8292   2.950   3.984   2.375 -1.3542  0.0525 -1.5387
 2776TIP3    H2 8293   3.063   3.959   2.277  0.1032 -0.8293  0.3132
 2777TIP3   OH2 8294   1.555  -0.013   1.577 -0.2600  0.0973  0.2654
 2777TIP3    H1 8295   1.490   0.038   1.529 -0.6407  0.2739  0.9656
 2777TIP3    H2 8296   1.618   0.052   1.609  0.2862 -0.0717 -0.4171
 2778TIP3   OH2 8297   2.584   5.339   1.732  0.0551 -0.0191 -0.4375
 2778TIP3    H1 8298   2.616   5.249   1.733 -1.2645 -0.5038  0.2651
 2778TIP3    H2 8299   2.519   5.343   1.802 -0.6324  1.2088 -1.0946
 2779TIP3   OH2 8300   4.047   3.772   2.704  0.4487  0.6237  0.1784
 2779TIP3    H1 8301   4.022   3.856   2.666  1.6961  0.6172 -0.7157
 2779TIP3    H2 8302   4.069   3.717   2.628 -0.2550 -0.4955  0.7469
 2780TIP3   OH2 8303   0.876   5.317   1.237 -0.6846 -0.2307  0.3754
 2780TIP3    H1 8304   0.873   5.374   1.314  0.8685  0.4025 -0.0107
 2780TIP3    H2 8305   0.840   5.371   1.166  2.1627  0.9079 -0.3270
 2781TIP3   OH2 8306   6.126   2.794   2.229 -0.2337 -0.9986 -0.7563
 2781TIP3    H1 8307   6.038   2.772   2.262 -0.2475 -2.2351 -1.5403
 2781TIP3    H2 8308   6.154   2.868   2.283 -2.3014  0.3312 -1.3795
 2782TIP3   OH2 8309   7.176   5.061   2.527 -0.0356 -0.4920 -0.1374
 2782TIP3    H1 8310   7.098   5.076   2.580 -0.0623  1.4563 -0.6703
 2782TIP3    H2 8311   7.249   5.080   2.586  0.0979 -2.5107  0.4223
 2783TIP3   OH2 8312   1.120   4.440   3.331  0.5133  0.3006 -0.3149
 2783TIP3    H1 8313   1.179   4.424   3.405  0.3636  0.4569 -0.1598
 2783TIP3    H2 8314   1.038   4.467   3.372  0.8363  1.7321 -0.5594
 2784TIP3   OH2 8315   0.739   4.887   2.764  0.4971  0.4098  0.7113
 2784TIP3    H1 8316   0.685   4.808   2.770 -0.1066  0.7588  0.0922
 2784TIP3    H2 8317   0.723   4.934   2.845 -2.2823  1.8207 -0.5050
 2785TIP3   OH2 8318   2.609   5.634   2.894 -0.2237  0.5569 -0.1924
 2785TIP3    H1 8319   2.627   5.727   2.889  2.2677  0.2682  1.6802
 2785TIP3    H2 8320   2.667   5.595   2.828 -1.5325  0.2851 -1.2437
 2786TIP3   OH2 8321   2.592   3.684   1.371 -0.1400 -0.3062 -0.2603
 2786TIP3    H1 8322   2.626   3.756   1.423 -2.0249 -0.4882  1.3173
 2786TIP3    H2 8323   2.649   3.682   1.294 -0.7401  3.6757 -1.0270
 2787TIP3   OH2 8324   0.745   4.838   3.792 -0.1759  0.3312  0.1722
 2787TIP3    H1 8325   0.800   4.766   3.823  0.3069  0.8636  0.5993
 2787TIP3    H2 8326   0.779   4.859   3.705 -1.4843 -1.1211 -0.7147
 2788TIP3   OH2 8327   3.347   4.246   3.431 -0.3046  0.3691  0.2080
 2788TIP3    H1 8328   3.354   4.215   3.341  1.8641  1.1109  0.0863
 2788TIP3    H2 8329   3.406   4.190   3.481 -0.5837  0.7312  0.9725
 2789TIP3   OH2 8330   2.989   5.306   5.360 -0.2605 -0.7316 -0.1993
 2789TIP3    H1 8331   3.031   5.317   5.446  0.6506  1.3578 -0.8446
 2789TIP3    H2 8332   3.059   5.273   5.304 -0.9155 -2.3230 -0.1381
 2790TIP3   OH2 8333   0.880   4.951   1.213 -0.3585  0.0994 -0.6103
 2790TIP3    H1 8334   0.871   4.973   1.121 -0.0383  2.7629 -0.0901
 2790TIP3    H2 8335   0.931   5.022   1.250 -1.3663 -0.3415  1.8335
 2791TIP3   OH2 8336   3.209   0.003   4.531  0.1392 -0.1534  0.1219
 2791TIP3    H1 8337   3.208  -0.057   4.606 -2.4643 -0.4337 -0.0440
 2791TIP3    H2 8338   3.219   0.090   4.571  2.2123 -0.5218  0.4884
 2792TIP3   OH2 8339   2.253   3.736   0.900 -0.6004 -0.3098 -0.0908
 2792TIP3    H1 8340   2.274   3.644   0.885  0.6624 -0.0599 -0.0023
 2792TIP3    H2 8341   2.297   3.783   0.829 -2.1864  0.1593 -0.8115
 2793TIP3   OH2 8342   4.911   3.991   4.731  0.3774 -0.2912 -0.2766
 2793TIP3    H1 8343   4.898   4.056   4.661 -0.7487  0.1680  0.3409
 2793TIP3    H2 8344   5.002   3.962   4.720  0.2615 -0.1362 -1.8516
 2794TIP3   OH2 8345   6.214   6.088   1.450 -0.6631  0.4986 -0.2533
 2794TIP3    H1 8346   6.251   6.058   1.367 -1.5040  1.6578 -1.0789
 2794TIP3    H2 8347   6.148   6.022   1.472 -0.4866  0.2253 -0.5270
 2795TIP3   OH2 8348   5.254   0.434   3.004 -0.3301  0.2712 -0.2507
 2795TIP3    H1 8349   5.267   0.345   2.974  1.2284  0.8464 -1.4104
 2795TIP3    H2 8350   5.341   0.474   3.001 -0.9158  1.7178  0.6374
 2796TIP3   OH2 8351   0.728   4.001   5.224 -0.0535  0.7059  0.1792
 2796TIP3    H1 8352   0.668   4.023   5.295 -0.5958 -0.6193  0.1638
 2796TIP3    H2 8353   0.788   4.075   5.219 -0.3121  1.0395  1.6842
 2797TIP3   OH2 8354   1.285   0.617   1.191  0.6479 -0.0969 -0.0473
 2797TIP3    H1 8355   1.256   0.708   1.191 -0.9144 -0.5526 -0.2277
 2797TIP3    H2 8356   1.277   0.589   1.100 -0.8942 -0.9539  0.2961
 2798TIP3   OH2 8357   4.851   6.484   0.448 -0.1491 -0.6063  0.0384
 2798TIP3    H1 8358   4.891   6.545   0.385  0.5110 -0.6933  0.3645
 2798TIP3    H2 8359   4.827   6.408   0.396  0.0805 -0.5379 -0.1688
 2799TIP3   OH2 8360   0.633   3.156   1.700 -0.0130  0.4413 -0.2586
 2799TIP3    H1 8361   0.557   3.199   1.661  1.3197  2.3881 -0.8847
 2799TIP3    H2 8362   0.708   3.201   1.662  1.4820 -1.3642  0.3821
 2800TIP3   OH2 8363   4.028   3.409   0.544  0.2331  0.1551 -0.1310
 2800TIP3    H1 8364   3.995   3.422   0.633 -0.7784  0.0144 -0.4673
 2800TIP3    H2 8365   4.112   3.365   0.556 -0.8645 -1.8728  0.7177
 2801TIP3   OH2 8366   2.709   2.515   3.035  0.0791  0.3591  0.2657
 2801TIP3    H1 8367   2.644   2.581   3.061 -0.1662  0.4251 -0.4959
 2801TIP3    H2 8368   2.684   2.437   3.084 -0.0918  0.6065  0.5860
 2802TIP3   OH2 8369   1.482   2.901   2.641  0.8351 -0.2286  0.2010
 2802TIP3    H1 8370   1.472   2.844   2.565  2.7111 -0.7739  0.2907
 2802TIP3    H2 8371   1.448   2.985   2.613  0.8860 -0.5956 -1.0210
 2803TIP3   OH2 8372   3.874   6.036   4.962  0.0695 -0.1952 -0.1318
 2803TIP3    H1 8373   3.915   5.958   4.998  0.5968  0.2606  0.2711
 2803TIP3    H2 8374   3.944   6.078   4.911  0.0137  0.3999  0.2703
 2804TIP3   OH2 8375   3.705   0.852   4.854 -0.0135  0.2123  0.2423
 2804TIP3    H1 8376   3.673   0.795   4.785 -0.4608  0.1186  0.5240
 2804TIP3    H2 8377   3.800   0.858   4.839 -0.0525 -0.1330 -0.1317
 2805TIP3   OH2 8378   4.792   3.911   2.375 -0.2799  0.3779  0.3230
 2805TIP3    H1 8379   4.745   3.934   2.455  0.7147 -0.7103  1.2640
 2805TIP3    H2 8380   4.859   3.849   2.404  0.0611 -0.0958 -1.3771
 2806TIP3   OH2 8381   6.676   2.991   5.520  0.0507  0.0258 -0.6745
 2806TIP3    H1 8382   6.631   2.913   5.554  0.9569 -0.0108  0.4898
 2806TIP3    H2 8383   6.656   2.991   5.426 -3.2639  0.5871 -0.1128
 2807TIP3   OH2 8384   2.131   4.300   4.716  0.3061 -0.0828 -0.0426
 2807TIP3    H1 8385   2.201   4.362   4.695 -0.2761  0.5117 -0.2689
 2807TIP3    H2 8386   2.101   4.326   4.802  0.7881 -0.7469  0.3374
 2808TIP3   OH2 8387   4.728   6.161   3.293 -0.4394  0.6881  0.1050
 2808TIP3    H1 8388   4.752   6.115   3.373 -0.3453 -0.5743 -0.6088
 2808TIP3    H2 8389   4.793   6.231   3.284  0.1909  0.1732  0.5804
 2809TIP3   OH2 8390   4.482   1.784   4.946 -0.6167 -0.3174 -0.7673
 2809TIP3    H1 8391   4.483   1.870   4.906  0.9160  0.1266  0.1678
 2809TIP3    H2 8392   4.570   1.749   4.932 -0.3683 -0.6068  1.1532
 2810TIP3   OH2 8393   2.528   3.832   4.130 -0.4475  0.5973  0.4523
 2810TIP3    H1 8394   2.561   3.914   4.093  1.2614 -1.0104 -1.9151
 2810TIP3    H2 8395   2.436   3.828   4.103 -0.4778  1.5837  0.3757
 2811TIP3   OH2 8396   4.662   3.687   2.232 -0.4044 -0.0190 -0.3313
 2811TIP3    H1 8397   4.676   3.761   2.291  0.6141  1.0503 -1.8455
 2811TIP3    H2 8398   4.727   3.622   2.259 -0.2553  0.2727  0.0112
 2812TIP3   OH2 8399   5.368   2.765   1.270  0.2809  0.6814  0.1900
 2812TIP3    H1 8400   5.373   2.768   1.366  0.8060  3.7395  0.1795
 2812TIP3    H2 8401   5.289   2.814   1.248 -0.0854 -0.3778 -0.9661
 2813TIP3   OH2 8402   5.337   0.438   4.768  0.5778  0.3921  0.0872
 2813TIP3    H1 8403   5.387   0.420   4.688  1.3889  0.5774  0.5431
 2813TIP3    H2 8404   5.334   0.533   4.774  0.6275  0.3776  0.3496
 2814TIP3   OH2 8405   6.115   4.437   1.414 -0.1985  0.5663  1.1843
 2814TIP3    H1 8406   6.123   4.371   1.345  0.3471 -0.4103  2.1518
 2814TIP3    H2 8407   6.026   4.472   1.404 -0.3700 -0.0624  0.4339
 2815TIP3   OH2 8408   3.977   3.897   5.574 -0.2981 -0.8289 -0.4483
 2815TIP3    H1 8409   4.043   3.962   5.553 -0.8065 -0.1502  0.0173
 2815TIP3    H2 8410   3.910   3.906   5.506 -0.5411 -0.6116 -0.1859
 2816TIP3   OH2 8411   0.589   4.932   1.503  0.3136  0.0204 -0.1393
 2816TIP3    H1 8412   0.629   5.015   1.477 -1.0526  0.8148  0.1885
 2816TIP3    H2 8413   0.579   4.884   1.422  1.1377  0.1458 -0.3317
 2817TIP3   OH2 8414   0.069   1.865   2.078 -0.0818 -0.3986  0.0624
 2817TIP3    H1 8415   0.061   1.811   2.000 -3.9610  1.0003 -0.7367
 2817TIP3    H2 8416   0.025   1.947   2.056  1.5688  1.3629  2.6861
 2818TIP3   OH2 8417   0.228   4.427   4.298  0.0395 -0.0433  0.2002
 2818TIP3    H1 8418   0.304   4.369   4.302  0.2251  0.2364  0.8272
 2818TIP3    H2 8419   0.154   4.371   4.324  0.0299 -0.3069 -0.3838
 2819TIP3   OH2 8420   3.335   5.028   4.299  0.2990 -0.2665  0.1293
 2819TIP3    H1 8421   3.348   5.053   4.208 -0.9272  0.4131  0.1199
 2819TIP3    H2 8422   3.414   5.060   4.344 -0.4054  2.0994 -0.1949
 2820TIP3   OH2 8423   4.362   1.737   0.090  0.3779 -0.0137 -0.3944
 2820TIP3    H1 8424   4.399   1.727   0.178 -0.2645  2.4961  0.2296
 2820TIP3    H2 8425   4.268   1.742   0.105  0.2897  0.7923 -1.1668
 2821TIP3   OH2 8426   6.321   4.595   3.538  0.5536 -0.1812 -0.1553
 2821TIP3    H1 8427   6.299   4.538   3.464  0.7744 -0.0096 -0.3536
 2821TIP3    H2 8428   6.238   4.637   3.561  0.4360 -0.4117 -0.1539
 2822TIP3   OH2 8429   5.850   2.708   0.160 -0.1604 -0.1807 -0.3584
 2822TIP3    H1 8430   5.920   2.751   0.209  0.8576 -1.8416 -0.2899
 2822TIP3    H2 8431   5.849   2.753   0.076 -0.0418  0.8513  0.1756
 2823TIP3   OH2 8432   6.168   2.452   4.758  0.1723 -0.2869 -0.1194
 2823TIP3    H1 8433   6.235   2.502   4.804 -0.0436  0.2050 -0.3275
 2823TIP3    H2 8434   6.170   2.366   4.799  0.9371 -0.2812 -0.1353
 2824TIP3   OH2 8435   5.121   0.865   4.784 -0.3376  0.6589 -0.7950
 2824TIP3    H1 8436   5.093   0.949   4.749 -0.2201  0.9511 -0.1919
 2824TIP3    H2 8437   5.113   0.874   4.879  0.9742  0.4715 -0.6373
 2825TIP3   OH2 8438   4.703   0.031   3.761  0.0441  0.2074  0.5118
 2825TIP3    H1 8439   4.717   0.055   3.669 -0.2878 -0.2737  0.3309
 2825TIP3    H2 8440   4.713   0.113   3.809  0.4521  0.4215  0.0705
 2826TIP3   OH2 8441   2.624   3.610   3.224 -0.2680 -0.2008 -0.0688
 2826TIP3    H1 8442   2.709   3.609   3.268 -0.1713  0.8768 -0.1945
 2826TIP3    H2 8443   2.632   3.548   3.152  0.4082 -0.1217 -0.0653
 2827TIP3   OH2 8444   0.255   5.476   4.456 -0.0608 -0.2625 -0.3387
 2827TIP3    H1 8445   0.277   5.501   4.367 -0.3064 -0.6910 -0.5225
 2827TIP3    H2 8446   0.301   5.393   4.470 -0.9891 -0.8152 -0.4924
 2828TIP3   OH2 8447   5.873   2.024   1.645 -0.7323 -0.2199  0.1397
 2828TIP3    H1 8448   5.857   2.070   1.727 -0.0139 -0.6544  0.5350
 2828TIP3    H2 8449   5.925   2.085   1.593  1.7650 -1.1589  1.3441
 2829TIP3   OH2 8450   4.303   1.244   4.191 -0.0821 -0.0810 -0.4457
 2829TIP3    H1 8451   4.376   1.306   4.193  0.4285 -0.6909  0.1137
 2829TIP3    H2 8452   4.273   1.246   4.100  1.6166 -0.9481 -1.0815
 2830TIP3   OH2 8453   5.619   5.038   5.160 -0.2311  0.0744 -0.1194
 2830TIP3    H1 8454   5.533   5.080   5.159 -0.3176 -0.0875  0.5112
 2830TIP3    H2 8455   5.645   5.038   5.252  0.5516  0.3409 -0.3323
 2831TIP3   OH2 8456   5.824   1.701   4.276  0.1797  0.1442  0.6213
 2831TIP3    H1 8457   5.773   1.729   4.200 -0.1265 -0.5749  0.5559
 2831TIP3    H2 8458   5.844   1.609   4.260 -2.3914 -0.9264  2.7113
 2832TIP3   OH2 8459   4.234   4.028   5.128  0.4008 -0.1800  0.1039
 2832TIP3    H1 8460   4.186   3.990   5.055  0.0779 -0.5328  0.4952
 2832TIP3    H2 8461   4.292   3.959   5.158  0.0192 -0.2718  0.6336
 2833TIP3   OH2 8462   0.284   3.321   0.911 -0.1962 -0.0493 -0.4621
 2833TIP3    H1 8463   0.205   3.296   0.864 -0.9517  0.3056  0.5919
 2833TIP3    H2 8464   0.341   3.359   0.844 -0.7065 -0.7736 -1.3211
 2834TIP3   OH2 8465   2.063   2.270   2.289  0.5441  0.0194  0.4131
 2834TIP3    H1 8466   2.149   2.232   2.309  0.6882  0.4606  0.6226
 2834TIP3    H2 8467   2.002   2.218   2.342  0.4950 -1.2920 -0.8519
 2835TIP3   OH2 8468   2.625   4.453   2.391 -0.1117 -0.2357  0.0944
 2835TIP3    H1 8469   2.703   4.398   2.393 -0.7403 -1.1330  0.2038
 2835TIP3    H2 8470   2.613   4.473   2.298 -0.0094 -0.4677  0.0307
 2836TIP3   OH2 8471   3.327   1.076   3.297 -0.2971 -0.9760 -0.1045
 2836TIP3    H1 8472   3.303   1.129   3.220 -0.6597 -0.8794  0.0707
 2836TIP3    H2 8473   3.357   1.140   3.362 -0.4433 -1.0122 -0.0004
 2837TIP3   OH2 8474   4.388   0.758   3.540 -0.7141  0.1013  0.9551
 2837TIP3    H1 8475   4.483   0.769   3.536 -0.7269  0.5351  1.6505
 2837TIP3    H2 8476   4.359   0.761   3.449  0.0783 -1.3803  0.6379
 2838TIP3   OH2 8477   0.506   2.801   4.540  0.0659 -0.1800 -0.1597
 2838TIP3    H1 8478   0.529   2.740   4.469 -1.4671 -0.1466 -0.7272
 2838TIP3    H2 8479   0.457   2.871   4.496 -0.4243  0.1333  0.8647
 2839TIP3   OH2 8480   6.315   5.496   0.361 -0.1841 -0.0724 -0.1687
 2839TIP3    H1 8481   6.252   5.495   0.433  0.6039  0.7561  0.5516
 2839TIP3    H2 8482   6.275   5.441   0.294 -0.6289 -1.4288  1.1528
 2840TIP3   OH2 8483   2.565   3.800   1.820  0.4421  0.1705 -0.0108
 2840TIP3    H1 8484   2.614   3.781   1.900  1.4917 -0.1511 -0.7133
 2840TIP3    H2 8485   2.604   3.743   1.753 -0.2679  0.5910 -0.8068
 2841TIP3   OH2 8486   2.022   0.725   5.293  0.2652 -0.7103 -0.3685
 2841TIP3    H1 8487   1.947   0.690   5.245  0.7259 -3.5108  0.7834
 2841TIP3    H2 8488   1.995   0.814   5.317 -1.6147 -0.7111 -2.1660
 2842TIP3   OH2 8489   1.424   1.572   0.505  0.1307  0.4247  0.6477
 2842TIP3    H1 8490   1.349   1.631   0.510  0.2755  1.0073 -2.2019
 2842TIP3    H2 8491   1.493   1.617   0.554 -0.6935  0.9982  1.3149
 2843TIP3   OH2 8492   2.986   0.788   0.248 -0.5702  0.0513 -0.3750
 2843TIP3    H1 8493   3.006   0.698   0.273 -0.4259  0.4433  0.9814
 2843TIP3    H2 8494   3.039   0.842   0.307 -0.8914  1.0326 -0.9591
 2844TIP3   OH2 8495   4.302   4.594   1.095  0.1321 -0.3190 -0.1220
 2844TIP3    H1 8496   4.281   4.575   1.003 -0.1641  1.4054 -0.4418
 2844TIP3    H2 8497   4.381   4.648   1.090  0.5626 -0.8489  0.7064
 2845TIP3   OH2 8498   4.679   2.061   5.765  0.0733 -0.1264 -0.7190
 2845TIP3    H1 8499   4.585   2.082   5.765  0.3562  1.2874  0.5187
 2845TIP3    H2 8500   4.699   2.038   5.856  1.1279  0.6011 -0.7520
 2846TIP3   OH2 8501   3.739   1.899   4.365  0.1361  0.5457  0.4888
 2846TIP3    H1 8502   3.710   1.987   4.388 -2.0331  0.1069 -0.3048
 2846TIP3    H2 8503   3.693   1.879   4.283 -0.1770 -1.6504  1.1320
 2847TIP3   OH2 8504   5.357   4.584   5.746  0.0864  0.4835 -0.4523
 2847TIP3    H1 8505   5.355   4.679   5.731 -0.1216  0.4923 -0.3735
 2847TIP3    H2 8506   5.298   4.548   5.681 -1.7090  0.6194  1.0131
 2848TIP3   OH2 8507   6.688   6.231   2.241 -0.3084 -0.0019  0.1128
 2848TIP3    H1 8508   6.739   6.157   2.209  0.3486 -1.1147  3.3283
 2848TIP3    H2 8509   6.600   6.216   2.207 -0.0164 -1.9004  0.0824
 2849TIP3   OH2 8510   1.029   6.402   1.770  0.0594  0.1379 -0.0909
 2849TIP3    H1 8511   0.934   6.401   1.779 -0.0630  1.8131 -0.7520
 2849TIP3    H2 8512   1.059   6.469   1.831  1.1569 -2.2823  2.2208
 2850TIP3   OH2 8513   4.381   1.194   2.080  0.2600  0.2366 -0.1683
 2850TIP3    H1 8514   4.422   1.217   2.163  0.7530 -2.5703  0.4573
 2850TIP3    H2 8515   4.380   1.276   2.030  1.3983  1.6397  1.9709
 2851TIP3   OH2 8516   3.686   6.680   0.951 -0.4751 -0.2339  0.1155
 2851TIP3    H1 8517   3.776   6.671   0.922 -0.1464 -1.7613  1.4007
 2851TIP3    H2 8518   3.685   6.637   1.037 -2.4178 -0.2419  0.1274
 2852TIP3   OH2 8519   5.720   5.379   5.057 -0.1239 -0.2341 -0.1124
 2852TIP3    H1 8520   5.747   5.289   5.078  0.0200 -0.0328  0.6249
 2852TIP3    H2 8521   5.801   5.430   5.065 -0.3221  0.0536  0.0784
 2853TIP3   OH2 8522   5.627   1.423   0.823  0.0214  0.1370  0.1160
 2853TIP3    H1 8523   5.620   1.466   0.737 -2.3612 -0.2803  0.0302
 2853TIP3    H2 8524   5.674   1.486   0.877  0.0586  1.1519 -1.0425
 2854TIP3   OH2 8525   2.724   4.782   3.676  0.5476  0.0932 -0.9387
 2854TIP3    H1 8526   2.812   4.817   3.680  1.5682 -2.2543 -1.2010
 2854TIP3    H2 8527   2.698   4.792   3.585 -0.2673  2.4530 -0.5230
 2855TIP3   OH2 8528   4.512   6.566   5.605 -0.2759 -0.1122 -0.2492
 2855TIP3    H1 8529   4.550   6.635   5.550  0.8680  0.6140  1.3737
 2855TIP3    H2 8530   4.459   6.614   5.670  0.3760 -0.7430  0.7839
 2856TIP3   OH2 8531   2.605   1.966   3.258 -0.9681  0.0597 -0.2035
 2856TIP3    H1 8532   2.559   1.945   3.177 -1.3926 -3.0895  0.7085
 2856TIP3    H2 8533   2.557   1.919   3.326  1.3239 -0.2215  1.3602
 2857TIP3   OH2 8534   4.037   4.811   2.258 -0.2413  0.3091 -0.6953
 2857TIP3    H1 8535   3.964   4.793   2.199  0.4005 -1.2482 -1.0661
 2857TIP3    H2 8536   4.078   4.890   2.223 -0.7589  0.2536 -1.4387
 2858TIP3   OH2 8537   4.005   0.180   3.141 -0.1580  0.1200 -0.1445
 2858TIP3    H1 8538   4.093   0.156   3.113  0.2643 -0.0807  1.2730
 2858TIP3    H2 8539   3.948   0.148   3.071  0.7148 -1.5908 -0.1187
 2859TIP3   OH2 8540   6.452   4.777   0.820  0.1279  0.1124 -0.2209
 2859TIP3    H1 8541   6.466   4.864   0.857 -0.2528 -0.0581  0.3424
 2859TIP3    H2 8542   6.477   4.717   0.890 -0.1091 -0.2263 -0.4220
 2860TIP3   OH2 8543   3.253   0.212   1.874 -0.3471  0.2536 -0.2308
 2860TIP3    H1 8544   3.277   0.304   1.888 -1.0831  0.3416  0.5073
 2860TIP3    H2 8545   3.174   0.216   1.821  0.0040  0.0155 -0.7850
 2861TIP3   OH2 8546   4.822   5.390   4.356 -0.4352 -0.1968  0.7528
 2861TIP3    H1 8547   4.753   5.372   4.419  0.1480 -0.0004  1.4560
 2861TIP3    H2 8548   4.878   5.454   4.399 -0.4520  0.5354 -0.2678
 2862TIP3   OH2 8549   4.663   5.316   2.877 -0.3446  0.0174  0.4107
 2862TIP3    H1 8550   4.682   5.391   2.822 -0.2359 -0.7016 -0.5597
 2862TIP3    H2 8551   4.728   5.250   2.852 -1.3498 -0.9230  0.1662
 2863TIP3   OH2 8552   3.644   4.003   3.839 -0.0924 -0.0973 -0.2606
 2863TIP3    H1 8553   3.672   3.941   3.772  0.7984 -1.1206  0.9933
 2863TIP3    H2 8554   3.591   3.951   3.899  0.3989  0.4262  0.6440
 2864TIP3   OH2 8555   5.531   2.968   1.022 -0.2293 -0.0417  0.4920
 2864TIP3    H1 8556   5.437   2.965   1.008 -0.1945  1.0281 -0.0023
 2864TIP3    H2 8557   5.569   2.959   0.935  0.1362 -0.3095  0.6735
 2865TIP3   OH2 8558   5.436   4.799   2.219 -0.4234  0.2421  0.1798
 2865TIP3    H1 8559   5.486   4.770   2.295 -1.2156  2.4453  1.6309
 2865TIP3    H2 8560   5.349   4.762   2.231 -0.5434  0.5761  0.3695
 2866TIP3   OH2 8561   2.007   1.656   5.437  0.1139  0.2930  0.0976
 2866TIP3    H1 8562   1.992   1.694   5.350  1.7466 -1.5159 -1.0540
 2866TIP3    H2 8563   2.070   1.714   5.479  0.9576  0.0340 -0.7909
 2867TIP3   OH2 8564   6.911   3.775   1.729  0.2141 -0.0339  0.6976
 2867TIP3    H1 8565   6.896   3.734   1.643 -1.4114  1.2420  0.3198
 2867TIP3    H2 8566   6.936   3.865   1.709 -1.3705  0.6307  1.5350
 2868TIP3   OH2 8567   6.118   1.142   4.082 -1.0226  0.4418 -0.3232
 2868TIP3    H1 8568   6.047   1.170   4.024 -1.6293  0.6785  0.5226
 2868TIP3    H2 8569   6.198   1.172   4.038 -1.2499 -1.5665 -2.3267
 2869TIP3   OH2 8570  -0.012   5.543   5.530  0.3738  0.3689 -0.1154
 2869TIP3    H1 8571   0.050   5.612   5.507  0.8286 -0.2435 -0.7793
 2869TIP3    H2 8572   0.007   5.473   5.467 -0.0068 -0.3931  0.6124
 2870TIP3   OH2 8573   0.202   4.918   3.635 -0.0549  0.5033  0.0299
 2870TIP3    H1 8574   0.267   4.848   3.626  0.1509  0.6832  0.1236
 2870TIP3    H2 8575   0.175   4.914   3.727  0.3468  0.8928  0.1668
 2871TIP3   OH2 8576   0.992   2.246   3.197  0.0652 -0.1206  0.2940
 2871TIP3    H1 8577   0.918   2.286   3.151  0.9580  0.5880 -0.5662
 2871TIP3    H2 8578   1.033   2.317   3.245  1.0656 -0.1775 -0.4352
 2872TIP3   OH2 8579   3.049   3.624   3.723 -0.1672  0.5637 -0.0700
 2872TIP3    H1 8580   3.133   3.588   3.694  0.4409  1.8315  0.0479
 2872TIP3    H2 8581   3.020   3.679   3.650 -0.0031  1.5511  0.5947
 2873TIP3   OH2 8582   2.277   4.862   1.979  0.0440 -0.0516 -0.2747
 2873TIP3    H1 8583   2.371   4.846   1.987  0.3290  0.9078 -1.3838
 2873TIP3    H2 8584   2.251   4.892   2.066  0.8439 -0.0016 -0.0397
 2874TIP3   OH2 8585   1.038   3.703   0.987  0.5445 -0.4651 -0.4642
 2874TIP3    H1 8586   1.059   3.677   0.897  0.8887  1.8762 -1.1114
 2874TIP3    H2 8587   0.945   3.725   0.984  0.8613  0.9334 -0.6166
 2875TIP3   OH2 8588   6.985   2.487   1.094 -0.2776 -0.2941  0.4144
 2875TIP3    H1 8589   7.004   2.471   1.002 -0.5691  2.8183 -0.3032
 2875TIP3    H2 8590   7.072   2.492   1.136 -0.0214  0.5550 -0.1828
 2876TIP3   OH2 8591   5.992   5.159   0.114  0.1756 -0.0663 -0.1645
 2876TIP3    H1 8592   6.029   5.071   0.105 -0.2678 -0.1340 -1.4949
 2876TIP3    H2 8593   5.996   5.195   0.026 -1.9273  0.3188 -0.1411
 2877TIP3   OH2 8594   6.822   1.910   3.364  0.0873 -0.4568  0.0990
 2877TIP3    H1 8595   6.830   1.990   3.313  2.0198 -0.5111  0.2467
 2877TIP3    H2 8596   6.752   1.928   3.427  0.7273  1.2494  0.3731
 2878TIP3   OH2 8597   1.835   2.379   4.895  0.0790 -0.3646 -0.1553
 2878TIP3    H1 8598   1.886   2.298   4.906  0.0346 -0.4179 -0.3473
 2878TIP3    H2 8599   1.874   2.439   4.959 -1.3593 -1.2295  1.6131
 2879TIP3   OH2 8600   3.594   1.780   0.697  0.2345  0.1521  0.2922
 2879TIP3    H1 8601   3.685   1.778   0.666 -0.2031  0.9098 -1.0792
 2879TIP3    H2 8602   3.595   1.843   0.769  0.8456 -0.0935  0.5085
 2880TIP3   OH2 8603   2.808   4.214   5.637  0.3085 -0.2138 -0.2733
 2880TIP3    H1 8604   2.858   4.278   5.688 -0.3596  0.1408 -0.0484
 2880TIP3    H2 8605   2.755   4.268   5.577  0.2350 -0.5833 -0.5435
 2881TIP3   OH2 8606   7.023   6.423   0.239  0.2294 -0.0463  0.1116
 2881TIP3    H1 8607   7.046   6.334   0.214  0.3486 -0.0710  0.3084
 2881TIP3    H2 8608   7.107   6.469   0.245  0.1366  0.2186 -0.5090
 2882TIP3   OH2 8609   5.657   0.951   0.936 -0.4120 -0.5667  0.3068
 2882TIP3    H1 8610   5.722   1.020   0.947 -1.2627  0.2650  0.2743
 2882TIP3    H2 8611   5.574   0.998   0.925 -0.9972 -1.5951  0.1972
 2883TIP3   OH2 8612   5.958   3.436   1.991 -0.1200 -0.1411  0.3410
 2883TIP3    H1 8613   5.949   3.531   1.977 -2.1145 -0.0163  1.9583
 2883TIP3    H2 8614   5.891   3.398   1.934  1.7142 -0.7666 -1.5026
 2884TIP3   OH2 8615   6.096   4.899   1.173 -0.5431  0.1747 -0.3583
 2884TIP3    H1 8616   6.018   4.862   1.214  1.7391 -2.9953  1.5381
 2884TIP3    H2 8617   6.151   4.928   1.246  1.3228 -0.5275 -1.3984
 2885TIP3   OH2 8618   0.557   1.385   0.589  0.1142  0.5606  0.2041
 2885TIP3    H1 8619   0.540   1.436   0.510  2.0008 -1.0369 -1.3316
 2885TIP3    H2 8620   0.588   1.450   0.653  1.2137  1.5556 -1.2621
 2886TIP3   OH2 8621   2.611   2.596   5.247 -0.0160  0.3287 -0.6154
 2886TIP3    H1 8622   2.568   2.664   5.196 -0.4406  0.3577 -0.2254
 2886TIP3    H2 8623   2.567   2.598   5.332  1.0981  0.7160 -0.0244
 2887TIP3   OH2 8624   4.829   3.382   3.604  0.2859 -0.5663  0.3132
 2887TIP3    H1 8625   4.756   3.442   3.589  0.6406 -0.1932  0.0558
 2887TIP3    H2 8626   4.882   3.425   3.672  0.6145 -0.5172  0.0298
 2888TIP3   OH2 8627   6.637   3.688   1.625 -0.4682 -0.5715 -0.4604
 2888TIP3    H1 8628   6.645   3.779   1.653  2.8412 -0.1432 -2.2496
 2888TIP3    H2 8629   6.580   3.691   1.548 -1.2441 -0.2145  0.1139
 2889TIP3   OH2 8630   2.652   4.058   4.025 -0.3092  0.2158 -0.6500
 2889TIP3    H1 8631   2.613   4.115   4.091  0.7582  0.8637 -0.5529
 2889TIP3    H2 8632   2.733   4.026   4.065 -0.6153 -0.9475 -0.9139
 2890TIP3   OH2 8633   5.374   4.606   1.869 -0.1394 -0.0054  0.0275
 2890TIP3    H1 8634   5.426   4.579   1.945  0.1675 -0.2362 -0.2601
 2890TIP3    H2 8635   5.381   4.702   1.868 -0.0945 -0.0064  0.2540
 2891TIP3   OH2 8636   1.770   3.660   0.294 -0.2933  0.1032  0.2623
 2891TIP3    H1 8637   1.708   3.601   0.252 -0.6188 -0.0010  0.8776
 2891TIP3    H2 8638   1.788   3.619   0.378  1.3111 -0.3458 -0.2644
 2892TIP3   OH2 8639   3.598   1.590   4.896 -0.7028 -0.0213 -0.2890
 2892TIP3    H1 8640   3.598   1.496   4.916 -0.5036  0.3457  1.6396
 2892TIP3    H2 8641   3.677   1.623   4.940  0.4241  0.7360 -2.7545
 2893TIP3   OH2 8642   1.225   0.143   5.341 -0.3887 -0.0966  0.3294
 2893TIP3    H1 8643   1.165   0.116   5.271 -0.4283 -0.3590  0.4607
 2893TIP3    H2 8644   1.173   0.134   5.421 -0.7932  1.5531  0.2763
 2894TIP3   OH2 8645   0.384   2.493   2.023 -0.1587  0.1499  0.0968
 2894TIP3    H1 8646   0.423   2.574   2.055 -0.1119  0.5074 -0.8424
 2894TIP3    H2 8647   0.455   2.429   2.028 -0.4658 -0.0911  1.7595
 2895TIP3   OH2 8648   3.839   3.012   3.991 -0.6625 -0.0622 -0.0122
 2895TIP3    H1 8649   3.905   3.077   3.969 -1.9600  1.7335  1.0727
 2895TIP3    H2 8650   3.837   2.952   3.916  2.2385 -0.2977  0.0097
 2896TIP3   OH2 8651   3.973   2.605   5.193  0.2573  0.1707 -0.4824
 2896TIP3    H1 8652   4.004   2.632   5.280 -1.2770  0.7699 -0.0738
 2896TIP3    H2 8653   4.011   2.669   5.133  1.4486 -0.3338 -0.2885
 2897TIP3   OH2 8654   6.391   1.306   1.832  0.6631 -0.2774 -0.2387
 2897TIP3    H1 8655   6.462   1.349   1.783  0.8711  0.1600  0.4308
 2897TIP3    H2 8656   6.320   1.370   1.833  1.2400  0.3911  1.4002
 2898TIP3   OH2 8657   6.905   0.723   2.241 -0.0064 -0.1537  0.1368
 2898TIP3    H1 8658   6.984   0.730   2.186 -0.9799  0.1639 -1.2897
 2898TIP3    H2 8659   6.915   0.640   2.286  1.9797  0.6745  1.3830
 2899TIP3   OH2 8660   4.673   3.985   0.728 -0.2126  0.7259 -0.2535
 2899TIP3    H1 8661   4.643   3.927   0.659 -3.0965  0.5094  1.0521
 2899TIP3    H2 8662   4.767   3.968   0.735 -0.7211 -2.9166 -0.7351
 2900TIP3   OH2 8663   3.019   1.265   0.446 -0.2886  0.0070 -0.1078
 2900TIP3    H1 8664   2.965   1.188   0.429 -1.1921  0.0886  2.0154
 2900TIP3    H2 8665   2.958   1.339   0.444  0.8872  1.0879 -4.1936
 2901TIP3   OH2 8666   4.905   3.859   5.466 -0.3269 -0.6110  0.4368
 2901TIP3    H1 8667   4.886   3.949   5.439  0.3335 -0.8839 -1.0385
 2901TIP3    H2 8668   4.820   3.820   5.485 -0.6711  0.1107  0.3867
 2902TIP3   OH2 8669   1.333   3.788   2.918  0.2896 -0.3452 -0.5475
 2902TIP3    H1 8670   1.343   3.824   3.006 -0.5558 -0.1124 -0.5375
 2902TIP3    H2 8671   1.406   3.826   2.869  1.5427 -1.4873  0.3405
 2903TIP3   OH2 8672   3.525   3.330   2.122 -0.0244  0.0974 -0.1564
 2903TIP3    H1 8673   3.480   3.254   2.085  1.2697 -0.4780 -0.6040
 2903TIP3    H2 8674   3.525   3.315   2.216 -0.0409 -0.3166 -0.2191
 2904TIP3   OH2 8675   4.177   2.186   0.096  0.1538  0.2980 -0.5444
 2904TIP3    H1 8676   4.108   2.249   0.075  0.6766  0.3337 -2.3852
 2904TIP3    H2 8677   4.211   2.159   0.010  1.0962 -1.1999  0.2602
 2905TIP3   OH2 8678   6.393   2.383   0.247 -0.4249  0.1156 -0.2069
 2905TIP3    H1 8679   6.340   2.395   0.168 -0.5477 -0.6752 -0.2520
 2905TIP3    H2 8680   6.371   2.295   0.278  1.7442 -0.7181 -0.8861
 2906TIP3   OH2 8681   0.333   4.696   2.212  0.4119 -0.3848 -0.0545
 2906TIP3    H1 8682   0.425   4.706   2.234  0.1779 -0.4610  1.0371
 2906TIP3    H2 8683   0.289   4.690   2.297 -0.5467 -0.7838 -0.5653
 2907TIP3   OH2 8684   2.838   4.227   2.314  0.0712  0.5338 -0.5481
 2907TIP3    H1 8685   2.882   4.143   2.304 -0.6362 -0.1048  1.2961
 2907TIP3    H2 8686   2.891   4.288   2.263  1.3002 -0.7833 -0.9150
 2908TIP3   OH2 8687   5.390   4.019   1.318  0.0515  0.1206 -0.4001
 2908TIP3    H1 8688   5.416   3.929   1.340 -2.0638 -0.4648 -0.0641
 2908TIP3    H2 8689   5.462   4.053   1.265  1.1092 -1.6082 -0.1337
 2909TIP3   OH2 8690   3.503   5.493   1.936  0.1720 -0.8376  0.2836
 2909TIP3    H1 8691   3.480   5.406   1.969 -0.5731 -0.5876  0.4544
 2909TIP3    H2 8692   3.436   5.551   1.973 -0.0758 -0.3872 -0.8206
 2910TIP3   OH2 8693   5.856   3.665   5.647  0.1363 -0.0939  0.6479
 2910TIP3    H1 8694   5.828   3.577   5.672 -0.0535 -0.6034 -1.1752
 2910TIP3    H2 8695   5.776   3.707   5.615  0.6566 -0.1738 -0.8592
 2911TIP3   OH2 8696   0.065   2.582   4.717 -0.5073 -0.2069  0.1976
 2911TIP3    H1 8697  -0.015   2.612   4.761 -0.0968 -0.9716  1.5284
 2911TIP3    H2 8698   0.112   2.662   4.695 -1.0992  0.2130  0.4380
 2912TIP3   OH2 8699   0.183   5.432   0.119 -0.4372  0.6492  0.3080
 2912TIP3    H1 8700   0.210   5.355   0.069 -0.2887  0.1119  1.1956
 2912TIP3    H2 8701   0.180   5.402   0.209 -1.1856  1.4785  0.5684
 2913TIP3   OH2 8702   5.103   6.608   0.244  0.0404  0.0536 -0.5786
 2913TIP3    H1 8703   5.102   6.554   0.323 -0.0141  2.2933  1.0698
 2913TIP3    H2 8704   5.087   6.547   0.172  0.4839 -2.1374  1.0927
 2914TIP3   OH2 8705   1.892   6.659   0.473 -0.0016  0.0961 -0.2670
 2914TIP3    H1 8706   1.875   6.684   0.382  0.5604  2.2660  0.1760
 2914TIP3    H2 8707   1.824   6.594   0.493 -1.3386  1.0020 -1.6611
 2915TIP3   OH2 8708   4.268   0.542   3.054 -0.2898  0.1568  0.6807
 2915TIP3    H1 8709   4.252   0.532   3.147  0.1839 -0.2950  0.7176
 2915TIP3    H2 8710   4.190   0.586   3.020  0.0385  1.3966  1.4825
 2916TIP3   OH2 8711   3.786   2.168   2.679 -0.2053 -0.1270  0.5472
 2916TIP3    H1 8712   3.837   2.200   2.604 -1.3521 -0.0041 -0.2009
 2916TIP3    H2 8713   3.816   2.222   2.752  1.7411 -0.9822  0.4629
 2917TIP3   OH2 8714   7.001   5.718   4.063  0.3009  0.0267  0.2237
 2917TIP3    H1 8715   7.052   5.790   4.025 -1.5105  0.6225 -1.2588
 2917TIP3    H2 8716   6.988   5.743   4.154  1.8384  0.2825  0.4136
 2918TIP3   OH2 8717   2.435   1.419   4.149 -0.4111  0.5290 -0.1068
 2918TIP3    H1 8718   2.482   1.355   4.201 -0.5460 -0.7591 -1.4791
 2918TIP3    H2 8719   2.347   1.421   4.186 -0.4091 -0.1186 -0.0563
 2919TIP3   OH2 8720   0.196   4.849   1.318 -0.6244 -0.0209  0.0917
 2919TIP3    H1 8721   0.137   4.897   1.260 -0.6840  2.5160  2.0437
 2919TIP3    H2 8722   0.185   4.892   1.403 -0.5362 -3.5061  2.0516
 2920TIP3   OH2 8723   4.619   5.643   1.172 -0.0059 -0.1771 -0.0086
 2920TIP3    H1 8724   4.566   5.621   1.249  0.3856  0.7975  0.5516
 2920TIP3    H2 8725   4.574   5.719   1.134 -0.6727 -1.1467 -1.2433
 2921TIP3   OH2 8726   0.382   3.017   2.249  0.5515 -0.0734  0.0592
 2921TIP3    H1 8727   0.322   2.950   2.282 -0.5141  2.2363  3.3547
 2921TIP3    H2 8728   0.469   2.984   2.271  0.0955 -0.7573  0.9062
 2922TIP3   OH2 8729   0.737   4.080   0.390 -0.2105  0.2429 -0.0466
 2922TIP3    H1 8730   0.721   4.096   0.297  0.6700  0.9316 -0.0927
 2922TIP3    H2 8731   0.692   3.998   0.408 -0.3478  0.0729 -1.0942
 2923TIP3   OH2 8732   4.395   4.891   1.421  0.0809  0.0735 -0.2869
 2923TIP3    H1 8733   4.487   4.873   1.406  0.1637 -0.3449  0.6835
 2923TIP3    H2 8734   4.383   4.883   1.516 -0.5620  1.9020 -0.1530
 2924TIP3   OH2 8735   3.324   3.028   2.451  0.3288  0.7476  0.4361
 2924TIP3    H1 8736   3.317   2.937   2.481  1.4975  1.0980  1.8938
 2924TIP3    H2 8737   3.250   3.039   2.390  0.6722 -1.4156 -0.4642
 2925TIP3   OH2 8738   3.842   5.429   4.969  0.2528  0.3608  0.3204
 2925TIP3    H1 8739   3.792   5.471   4.899  1.8088  0.2154 -0.9416
 2925TIP3    H2 8740   3.895   5.500   5.006  2.5836 -0.2685 -1.5456
 2926TIP3   OH2 8741   2.110   5.346   2.050  0.2300 -0.1167 -0.1374
 2926TIP3    H1 8742   2.188   5.292   2.065  0.7437  0.7906  0.5529
 2926TIP3    H2 8743   2.037   5.287   2.068  0.7471 -1.0027 -0.8678
 2927TIP3   OH2 8744   6.538   0.906   5.733  0.2230  0.1810 -0.3747
 2927TIP3    H1 8745   6.585   0.889   5.815 -2.5581  1.8565  1.7540
 2927TIP3    H2 8746   6.490   0.824   5.715 -0.8443  0.4789  0.9605
 2928TIP3   OH2 8747   5.430   6.228   4.005  0.1722  0.3743 -0.0515
 2928TIP3    H1 8748   5.518   6.192   4.013  0.4594  0.9622 -0.5056
 2928TIP3    H2 8749   5.380   6.157   3.963  0.3108 -0.1282  0.6150
 2929TIP3   OH2 8750   2.577   4.151   2.189  0.1240  0.3801 -0.7347
 2929TIP3    H1 8751   2.638   4.217   2.222 -2.3613  2.5651 -0.1668
 2929TIP3    H2 8752   2.513   4.140   2.258 -1.0868 -0.5373 -1.9422
 2930TIP3   OH2 8753   2.097   0.861   1.221 -0.0718  0.2365  0.0790
 2930TIP3    H1 8754   2.131   0.946   1.192 -1.2350  0.6377 -0.1486
 2930TIP3    H2 8755   2.138   0.797   1.163  2.8532  0.2926  1.8193
 2931TIP3   OH2 8756   7.105   1.397   3.767  0.3038  0.5430 -0.1202
 2931TIP3    H1 8757   7.150   1.341   3.704  1.7827 -0.5706  1.7846
 2931TIP3    H2 8758   7.078   1.474   3.717  0.2984 -0.7978 -2.3298
 2932TIP3   OH2 8759   1.581   3.054   2.873  0.1393  0.0061  0.1458
 2932TIP3    H1 8760   1.554   2.972   2.832  0.4416  0.7661 -1.6750
 2932TIP3    H2 8761   1.676   3.056   2.862  0.3494 -0.1658  1.7192
 2933TIP3   OH2 8762   0.948   5.152   4.005  0.4065 -0.4147  0.4399
 2933TIP3    H1 8763   0.965   5.219   4.071  1.3315  0.0121 -0.2131
 2933TIP3    H2 8764   0.907   5.199   3.932  3.0915 -0.0524 -0.9662
 2934TIP3   OH2 8765   1.758   0.241   0.892 -0.4169 -0.6434 -0.1028
 2934TIP3    H1 8766   1.813   0.295   0.949 -0.7136  0.4965 -0.8590
 2934TIP3    H2 8767   1.819   0.200   0.830 -0.4664  1.7723 -1.8891
 2935TIP3   OH2 8768   0.336   3.282   5.630 -0.4232 -0.1507 -0.0530
 2935TIP3    H1 8769   0.262   3.293   5.690  0.4027 -0.8114  1.1241
 2935TIP3    H2 8770   0.369   3.370   5.616  0.1145 -0.0738  1.4700
 2936TIP3   OH2 8771   2.910   2.927   5.458 -0.4920 -0.0900  0.2754
 2936TIP3    H1 8772   2.970   2.903   5.528  0.4568 -0.2713 -0.5917
 2936TIP3    H2 8773   2.892   2.845   5.412 -0.9333  0.0670  0.1588
 2937TIP3   OH2 8774   7.051   0.400   3.896 -0.1666  0.4960  0.8896
 2937TIP3    H1 8775   7.137   0.438   3.879 -0.1973  0.8834  1.5681
 2937TIP3    H2 8776   6.988   0.466   3.867 -0.2669 -0.1762 -0.5152
 2938TIP3   OH2 8777   4.799   1.902   5.497  0.0792  0.0215 -0.6061
 2938TIP3    H1 8778   4.826   1.843   5.568 -1.5217  1.1201  1.0053
 2938TIP3    H2 8779   4.865   1.971   5.497  0.0548  0.0496 -0.1427
 2939TIP3   OH2 8780   0.505   0.243   0.824  0.4686  0.0477 -0.3877
 2939TIP3    H1 8781   0.479   0.197   0.903 -0.2983 -0.3623 -0.8579
 2939TIP3    H2 8782   0.563   0.182   0.778 -0.5124 -0.4725 -0.9892
 2940TIP3   OH2 8783   3.101   1.446   3.016 -0.2149  0.2383 -0.8460
 2940TIP3    H1 8784   3.171   1.383   2.997 -0.7845 -0.3017 -1.2037
 2940TIP3    H2 8785   3.052   1.406   3.089  0.3923  1.0570  0.0371
 2941TIP3   OH2 8786   3.113   6.337   4.225  0.2152 -0.0180 -0.1877
 2941TIP3    H1 8787   3.165   6.408   4.262 -2.9459  0.8451  3.1709
 2941TIP3    H2 8788   3.083   6.370   4.140  1.6396  1.1568 -0.2574
 2942TIP3   OH2 8789   7.207   6.272   1.887  0.0425  0.1199 -0.4293
 2942TIP3    H1 8790   7.120   6.251   1.853  0.6133 -0.8687 -1.3480
 2942TIP3    H2 8791   7.210   6.230   1.972 -1.6959  3.2733  1.3865
 2943TIP3   OH2 8792   3.819   3.611   5.462 -0.1412 -0.1762  0.7880
 2943TIP3    H1 8793   3.823   3.587   5.369  0.2264 -2.2301  1.2742
 2943TIP3    H2 8794   3.902   3.653   5.480  0.6286 -1.5549  0.5956
 2944TIP3   OH2 8795   4.610   3.960   3.489  0.0012  0.3611 -0.0260
 2944TIP3    H1 8796   4.680   4.025   3.499 -0.3925  0.6366  1.0531
 2944TIP3    H2 8797   4.652   3.876   3.509 -0.0573  0.5704  1.0083
 2945TIP3   OH2 8798   2.261   5.132   3.146 -0.0643  0.7515  0.0157
 2945TIP3    H1 8799   2.246   5.123   3.240  0.1984  0.3978  0.0237
 2945TIP3    H2 8800   2.331   5.196   3.138 -2.2700  3.3380 -0.0566
 2946TIP3   OH2 8801   0.350   1.877   5.557 -0.3565 -0.2347  0.2485
 2946TIP3    H1 8802   0.427   1.882   5.614 -0.3018  1.2647  0.0651
 2946TIP3    H2 8803   0.317   1.966   5.553 -2.0654 -0.8308  0.2503
 2947TIP3   OH2 8804   1.309   4.659   2.843 -0.1633  0.1583 -0.2080
 2947TIP3    H1 8805   1.391   4.678   2.888 -0.1370 -0.0975 -0.1434
 2947TIP3    H2 8806   1.266   4.744   2.832 -0.7531  0.1132  1.4372
 2948TIP3   OH2 8807   1.522   2.274   2.522  0.0861  0.5890  0.2085
 2948TIP3    H1 8808   1.533   2.305   2.612  1.1681 -0.8194  0.6060
 2948TIP3    H2 8809   1.551   2.347   2.468 -0.0450  1.2555  1.0163
 2949TIP3   OH2 8810   2.757   4.929   1.021  0.0116  0.2121  0.1096
 2949TIP3    H1 8811   2.825   4.969   0.967  0.8691  0.6122  1.4079
 2949TIP3    H2 8812   2.782   4.953   1.111  0.3631 -2.8996  0.9547
 2950TIP3   OH2 8813   2.869   4.248   3.251  0.2775 -0.1068 -0.4360
 2950TIP3    H1 8814   2.828   4.271   3.167 -0.9520  0.3900  0.2729
 2950TIP3    H2 8815   2.829   4.164   3.275 -1.1195  0.8287  0.7166
 2951TIP3   OH2 8816   1.957   5.536   1.519 -0.3142 -0.5606 -0.0792
 2951TIP3    H1 8817   1.925   5.463   1.573  0.7447  0.2500  1.7244
 2951TIP3    H2 8818   2.052   5.537   1.534 -0.1910  0.5950 -0.8333
 2952TIP3   OH2 8819   1.382   6.433   4.962 -0.3641 -0.3407  0.7157
 2952TIP3    H1 8820   1.349   6.478   4.885  2.1513  0.5963  0.0928
 2952TIP3    H2 8821   1.333   6.350   4.965  0.2292 -0.9323 -2.5422
 2953TIP3   OH2 8822   3.826   6.159   1.007  0.3120 -0.0471  0.4552
 2953TIP3    H1 8823   3.899   6.198   1.054  0.8391  0.5618 -0.8389
 2953TIP3    H2 8824   3.863   6.080   0.966  0.4193  0.5853 -0.6981
 2954TIP3   OH2 8825   5.509   3.220   0.482  0.1282 -0.3069 -0.6594
 2954TIP3    H1 8826   5.446   3.182   0.421 -2.2368 -0.8105  1.9092
 2954TIP3    H2 8827   5.475   3.308   0.500  0.6597 -0.2380  0.0483
 2955TIP3   OH2 8828   2.960   6.082   0.386  0.1394 -0.1043 -0.3257
 2955TIP3    H1 8829   3.002   6.123   0.311 -0.6356  1.2834 -0.0322
 2955TIP3    H2 8830   2.867   6.103   0.376  0.1415  1.0305  1.5478
 2956TIP3   OH2 8831   0.338   0.033   3.919  0.6092  0.3631  0.2852
 2956TIP3    H1 8832   0.424   0.054   3.954  1.0774 -2.2742  0.8953
 2956TIP3    H2 8833   0.316  -0.052   3.957 -2.0977  0.7523 -0.1724
 2957TIP3   OH2 8834   6.831   0.743   3.464  0.4999 -0.0510  0.4920
 2957TIP3    H1 8835   6.776   0.705   3.532  1.1395 -0.8061  0.6007
 2957TIP3    H2 8836   6.773   0.751   3.388  0.4598 -1.7667  0.2906
 2958TIP3   OH2 8837   0.566   4.019   5.459  0.9223 -0.0177 -0.2348
 2958TIP3    H1 8838   0.491   4.032   5.518  0.8696 -1.4010  0.0337
 2958TIP3    H2 8839   0.616   3.949   5.499  1.8547  0.2399 -0.9253
 2959TIP3   OH2 8840   3.595   4.398   1.881  0.6236  0.1125 -0.1926
 2959TIP3    H1 8841   3.499   4.390   1.885  0.5100  0.3357 -1.6532
 2959TIP3    H2 8842   3.622   4.326   1.823  1.2105  0.7317 -0.7044
 2960TIP3   OH2 8843   5.331   4.871   2.579 -0.1812 -0.0088  0.7084
 2960TIP3    H1 8844   5.260   4.877   2.643 -0.4402  0.7712  0.3609
 2960TIP3    H2 8845   5.332   4.957   2.536 -0.4411 -0.7303 -0.7831
 2961TIP3   OH2 8846   7.025   4.758   3.579  0.1685 -0.0518 -0.3240
 2961TIP3    H1 8847   7.027   4.748   3.674 -0.8775 -2.1920 -0.4553
 2961TIP3    H2 8848   7.095   4.701   3.548 -1.4997 -1.9291 -0.8923
 2962TIP3   OH2 8849   1.176   0.231   1.751 -0.4046  0.1925 -0.0948
 2962TIP3    H1 8850   1.173   0.292   1.825  0.9783  0.5347 -0.3015
 2962TIP3    H2 8851   1.176   0.145   1.792 -2.6139  0.2587  0.1948
 2963TIP3   OH2 8852   1.685   6.086   1.425 -0.4654 -0.1984 -0.0175
 2963TIP3    H1 8853   1.594   6.063   1.406  0.4922 -3.2509 -1.8473
 2963TIP3    H2 8854   1.705   6.038   1.505  0.3616 -2.6430 -1.5418
 2964TIP3   OH2 8855   2.472   0.841   5.165  0.0810 -0.2380  0.8988
 2964TIP3    H1 8856   2.528   0.917   5.149 -0.5546  0.3257  1.2846
 2964TIP3    H2 8857   2.458   0.803   5.078  2.6589 -1.5963  0.9805
 2965TIP3   OH2 8858   1.830   0.096   4.529  0.5654 -0.2828  0.7471
 2965TIP3    H1 8859   1.802   0.007   4.504  0.3860 -0.3970  1.3486
 2965TIP3    H2 8860   1.893   0.120   4.461 -0.8481 -0.0729 -0.5621
 2966TIP3   OH2 8861   3.468   3.288   1.018 -0.3729  0.8669  0.1327
 2966TIP3    H1 8862   3.478   3.248   0.931  1.4985  2.2659 -0.3561
 2966TIP3    H2 8863   3.532   3.360   1.019 -1.9485  2.3530  1.8215
 2967TIP3   OH2 8864   2.370   2.762   5.603 -0.0998 -0.0409 -0.1456
 2967TIP3    H1 8865   2.311   2.695   5.637  2.0412 -1.5067  0.8906
 2967TIP3    H2 8866   2.418   2.793   5.680 -1.0254  2.7699 -0.5861
 2968TIP3   OH2 8867   0.562   4.715   3.142  0.2289  0.2413  0.6901
 2968TIP3    H1 8868   0.514   4.788   3.104  0.3262  0.2197  0.5212
 2968TIP3    H2 8869   0.651   4.723   3.106  0.3369  0.2477  0.9528
 2969TIP3   OH2 8870   1.949   0.784   2.082 -0.3694 -0.2518 -0.0132
 2969TIP3    H1 8871   1.862   0.789   2.123 -1.1338 -0.3259 -1.5493
 2969TIP3    H2 8872   1.967   0.691   2.075  1.0302 -0.2593  2.6211
 2970TIP3   OH2 8873   0.307   5.420   5.473 -0.4385 -0.1427  0.1441
 2970TIP3    H1 8874   0.373   5.445   5.409 -0.2356  0.8945  0.7426
 2970TIP3    H2 8875   0.330   5.468   5.552 -0.2750 -1.9255  1.2412
 2971TIP3   OH2 8876   6.087   4.953   4.496 -0.3477  0.0118 -0.6903
 2971TIP3    H1 8877   6.102   4.915   4.410  1.0722 -1.5189  0.1811
 2971TIP3    H2 8878   5.994   4.936   4.514  0.1311 -2.9478 -0.4734
 2972TIP3   OH2 8879   0.191   5.301   2.876  0.0722 -0.0733 -0.0777
 2972TIP3    H1 8880   0.230   5.268   2.957 -0.3435  0.1096  0.1991
 2972TIP3    H2 8881   0.260   5.356   2.838 -0.0952  0.6913  0.6873
 2973TIP3   OH2 8882   4.678   0.041   0.868  0.2871  0.5309  0.5908
 2973TIP3    H1 8883   4.710  -0.049   0.870 -0.3683  0.2711 -0.2182
 2973TIP3    H2 8884   4.664   0.060   0.775 -0.0579  1.2969  0.7894
 2974TIP3   OH2 8885   4.389   3.104   4.341 -0.4700 -0.2090  0.2476
 2974TIP3    H1 8886   4.463   3.054   4.376 -0.2877 -0.4593 -0.4739
 2974TIP3    H2 8887   4.334   3.123   4.417 -0.0611 -0.6982  0.6701
 2975TIP3   OH2 8888   5.181   3.726   0.338  0.7575 -0.0321  0.3379
 2975TIP3    H1 8889   5.219   3.647   0.299  0.2167 -1.0256  1.7158
 2975TIP3    H2 8890   5.134   3.768   0.267  0.7444 -1.1689 -0.3535
 2976TIP3   OH2 8891   5.849   1.466   0.024  0.2562  0.4010  0.3864
 2976TIP3    H1 8892   5.911   1.457  -0.048  0.7449  0.1001  0.8297
 2976TIP3    H2 8893   5.807   1.381   0.031  0.7586  0.1925  0.9361
 2977TIP3   OH2 8894   6.255   5.920   0.212  0.4786 -0.1392  0.4603
 2977TIP3    H1 8895   6.305   5.891   0.289  0.7325 -0.8174  0.0540
 2977TIP3    H2 8896   6.303   5.996   0.180  0.4763  0.0365  0.8592
 2978TIP3   OH2 8897   4.766   1.474   2.949  0.6646 -0.0446  0.1428
 2978TIP3    H1 8898   4.739   1.390   2.913 -0.1132  0.6505 -0.9723
 2978TIP3    H2 8899   4.693   1.502   3.004  0.3797  0.4540 -0.4731
 2979TIP3   OH2 8900   2.137   5.247   0.697 -0.3895  0.0200  0.2395
 2979TIP3    H1 8901   2.078   5.221   0.767 -0.2994 -1.2849 -0.1371
 2979TIP3    H2 8902   2.094   5.217   0.617  0.3308 -0.1070 -0.1086
 2980TIP3   OH2 8903   2.303   1.392   1.613 -0.1418  0.4681  0.6520
 2980TIP3    H1 8904   2.320   1.470   1.561  1.3235 -1.8177 -2.5585
 2980TIP3    H2 8905   2.223   1.355   1.576 -1.6303  1.0142  3.0507
 2981TIP3   OH2 8906   6.044   3.856   4.533 -0.6283 -0.5605 -0.1492
 2981TIP3    H1 8907   6.080   3.920   4.594 -1.7232  0.5996 -0.6762
 2981TIP3    H2 8908   6.120   3.812   4.496  0.0711 -1.2125  1.9128
 2982TIP3   OH2 8909   3.911   1.002   2.213  0.2910  0.2860 -0.4645
 2982TIP3    H1 8910   3.873   1.087   2.187  2.2370  1.4601  0.3164
 2982TIP3    H2 8911   3.990   0.994   2.161  0.4835 -0.7370 -0.0291
 2983TIP3   OH2 8912   1.786   1.354   1.800  0.0425  0.3048 -0.2588
 2983TIP3    H1 8913   1.877   1.382   1.799 -0.5128  2.1931 -0.4145
 2983TIP3    H2 8914   1.766   1.335   1.709  0.6900 -1.7361 -0.0509
 2984TIP3   OH2 8915   0.379   5.875   3.598  0.1245  0.5566  0.0250
 2984TIP3    H1 8916   0.337   5.839   3.676  0.3715 -0.9178 -0.4888
 2984TIP3    H2 8917   0.316   5.859   3.528  1.0421 -0.7346 -0.5612
 2985TIP3   OH2 8918   4.399   1.456   1.980 -0.2716  0.1115  0.5028
 2985TIP3    H1 8919   4.337   1.501   1.923  0.1537  0.2323  0.1294
 2985TIP3    H2 8920   4.408   1.513   2.056 -0.4098  0.2253  0.4339
 2986TIP3   OH2 8921   1.055   0.583   4.571  0.2572 -0.2075 -0.3972
 2986TIP3    H1 8922   1.070   0.489   4.555 -0.9646 -0.2421 -1.5571
 2986TIP3    H2 8923   1.063   0.593   4.666 -0.0556 -1.5938 -0.2004
 2987TIP3   OH2 8924   4.790   4.911   0.392  0.5166  0.4021  0.0118
 2987TIP3    H1 8925   4.732   4.981   0.362  1.0786  0.8399 -0.0582
 2987TIP3    H2 8926   4.876   4.935   0.360  0.9060  0.2262  0.8874
 2988TIP3   OH2 8927   5.377   5.855   2.331 -0.0615  0.1692  0.7251
 2988TIP3    H1 8928   5.284   5.871   2.344 -0.1939 -0.0779  0.1277
 2988TIP3    H2 8929   5.417   5.941   2.326 -0.4771  0.3183 -0.4809
 2989TIP3   OH2 8930   6.026   5.145   2.632  0.0494 -0.3134  0.3378
 2989TIP3    H1 8931   6.018   5.172   2.723 -0.8233  0.5263  0.0246
 2989TIP3    H2 8932   5.999   5.222   2.582  1.8587 -0.2823 -0.6644
 2990TIP3   OH2 8933   1.659   1.392   0.716  0.1060  0.2867  0.1082
 2990TIP3    H1 8934   1.662   1.332   0.641  0.3966  0.0826  0.2801
 2990TIP3    H2 8935   1.576   1.372   0.759  1.4390 -2.0691  1.8346
 2991TIP3   OH2 8936   3.112   5.716   4.971  0.3525  0.4031  0.0420
 2991TIP3    H1 8937   3.020   5.733   4.991  0.3018 -0.9151  1.0495
 2991TIP3    H2 8938   3.158   5.793   5.004 -0.4565  1.6560 -1.5593
 2992TIP3   OH2 8939   0.081   0.016   4.760  0.2213  0.0065 -0.2770
 2992TIP3    H1 8940  -0.015   0.014   4.767  0.0573  2.6935 -0.7779
 2992TIP3    H2 8941   0.107   0.098   4.801  2.5531 -1.4959  1.5149
 2993TIP3   OH2 8942   3.744   0.590   2.608  0.2782 -0.5011 -0.1462
 2993TIP3    H1 8943   3.828   0.561   2.573 -0.1695 -0.0389 -1.6794
 2993TIP3    H2 8944   3.709   0.650   2.541 -1.1754 -0.5336  0.5405
 2994TIP3   OH2 8945   6.489   4.755   5.219  1.0052 -0.5340 -0.8357
 2994TIP3    H1 8946   6.475   4.663   5.201 -1.1069 -0.1017 -1.6648
 2994TIP3    H2 8947   6.508   4.794   5.134 -0.8439  0.1908 -0.9649
 2995TIP3   OH2 8948   4.067   2.393   4.870 -0.6018  0.1097  0.5115
 2995TIP3    H1 8949   4.111   2.444   4.803  0.5177 -0.4081  0.8351
 2995TIP3    H2 8950   4.129   2.388   4.942 -1.4562 -0.0678  1.2544
 2996TIP3   OH2 8951   1.636   0.044   4.860 -0.5762 -0.4513  0.4574
 2996TIP3    H1 8952   1.707   0.027   4.922  1.0898 -3.1152 -1.9010
 2996TIP3    H2 8953   1.652   0.132   4.828 -0.3673  0.2508  2.3959
 2997TIP3   OH2 8954   6.953   4.708   2.457  0.1164  0.5746  0.4965
 2997TIP3    H1 8955   6.933   4.617   2.480 -0.5001  0.7623  0.7113
 2997TIP3    H2 8956   6.957   4.754   2.541 -0.4811  0.9263  0.3364
 2998TIP3   OH2 8957   4.268   5.553   4.775  0.0636  0.1916  0.0974
 2998TIP3    H1 8958   4.265   5.461   4.750  1.0721  0.3291 -0.5600
 2998TIP3    H2 8959   4.317   5.554   4.858  0.3108  0.1725 -0.0495
 2999TIP3   OH2 8960   2.180   0.324   0.271 -0.4078  0.5387  0.2274
 2999TIP3    H1 8961   2.265   0.312   0.313  0.2255 -0.8329 -1.3453
 2999TIP3    H2 8962   2.192   0.400   0.213  0.5575 -1.0271 -1.7636
 3000TIP3   OH2 8963   5.165   0.714   5.480  0.0664  0.4295 -0.1844
 3000TIP3    H1 8964   5.138   0.734   5.570  0.5141  2.1844 -0.4038
 3000TIP3    H2 8965   5.228   0.642   5.489 -0.8390 -0.2677  0.7747
 3001TIP3   OH2 8966   6.572   3.767   2.517  0.1450 -0.3713 -0.1201
 3001TIP3    H1 8967   6.642   3.773   2.452  0.1428 -1.9144 -0.3235
 3001TIP3    H2 8968   6.492   3.766   2.466  0.0460  0.1800  0.0270
 3002TIP3   OH2 8969   0.745   4.464   0.498 -0.2691 -0.0530 -0.2354
 3002TIP3    H1 8970   0.804   4.462   0.574 -0.1875  0.6693 -0.2747
 3002TIP3    H2 8971   0.803   4.453   0.423  0.0575  2.1285 -0.3858
 3003TIP3   OH2 8972   5.611   0.962   1.915 -0.3450 -0.8473 -0.3641
 3003TIP3    H1 8973   5.546   1.022   1.950  0.9196  0.3560  0.0312
 3003TIP3    H2 8974   5.605   0.884   1.970 -1.0249 -0.4991  0.0614
 3004TIP3   OH2 8975   2.926   1.134   3.891  0.8728  0.6756 -0.2896
 3004TIP3    H1 8976   2.883   1.061   3.847  1.5824 -0.0649  0.2092
 3004TIP3    H2 8977   2.940   1.199   3.822 -0.4978  0.6984 -0.5735
 3005TIP3   OH2 8978   6.986   0.394   4.382 -0.2699  0.3451 -0.1465
 3005TIP3    H1 8979   6.963   0.361   4.296 -0.5906 -2.2953  0.8628
 3005TIP3    H2 8980   7.073   0.358   4.400 -0.8441 -0.4608  1.2062
 3006TIP3   OH2 8981   1.446   3.095   2.263  0.0401 -0.7066 -0.2503
 3006TIP3    H1 8982   1.433   3.101   2.358  1.9652  1.0443 -0.0050
 3006TIP3    H2 8983   1.533   3.056   2.254  0.0404 -0.4846 -1.2772
 3007TIP3   OH2 8984   0.375   4.158   0.287  0.1835 -0.4902  0.0123
 3007TIP3    H1 8985   0.344   4.072   0.314 -2.9425  0.1663 -1.0293
 3007TIP3    H2 8986   0.438   4.141   0.217 -3.6204 -2.1328 -3.4311
 3008TIP3   OH2 8987   0.465   4.013   1.159 -0.4446 -0.2901 -0.1364
 3008TIP3    H1 8988   0.439   4.090   1.109 -1.5866 -0.5515  0.0124
 3008TIP3    H2 8989   0.416   4.020   1.241 -1.2547 -1.5904 -0.4748
 3009TIP3   OH2 8990   2.346   5.091   3.960 -0.6238  0.8994 -0.2867
 3009TIP3    H1 8991   2.269   5.145   3.942 -0.4713  0.5173 -2.3310
 3009TIP3    H2 8992   2.311   5.002   3.965 -0.4800  0.8583 -0.0346
 3010TIP3   OH2 8993   4.993   0.105   3.124 -0.0742 -0.0302 -0.7414
 3010TIP3    H1 8994   5.027   0.015   3.124 -0.5221 -0.2168  0.5827
 3010TIP3    H2 8995   4.899   0.095   3.138  0.1491  0.6917  1.6305
 3011TIP3   OH2 8996   0.317   4.922   4.556  0.2087 -0.0617  0.7885
 3011TIP3    H1 8997   0.227   4.951   4.544  1.1029  1.9980 -1.8017
 3011TIP3    H2 8998   0.315   4.829   4.532 -1.1263  0.0555  0.3309
 3012TIP3   OH2 8999   1.458   4.734   2.520 -0.2564  0.7258 -0.1203
 3012TIP3    H1 9000   1.434   4.696   2.436 -1.4662 -0.7937  0.8284
 3012TIP3    H2 9001   1.391   4.800   2.537  0.3944  1.5315 -0.6492
 3013TIP3   OH2 9002   4.927   3.862   0.757  0.1655 -0.1314 -0.1953
 3013TIP3    H1 9003   4.945   3.896   0.669  1.0940 -0.7643 -0.2697
 3013TIP3    H2 9004   5.002   3.805   0.776 -1.0781 -1.7363  0.1108
 3014TIP3   OH2 9005   3.712   2.546   5.070 -0.0622 -0.0804  0.3912
 3014TIP3    H1 9006   3.799   2.532   5.108  0.1866  0.6094  0.1106
 3014TIP3    H2 9007   3.705   2.642   5.063 -0.6944 -0.1474  0.0757
 3015TIP3   OH2 9008   6.590   0.156   1.318 -0.1171 -0.1743  0.9862
 3015TIP3    H1 9009   6.633   0.212   1.254 -0.1770 -0.1344  0.9815
 3015TIP3    H2 9010   6.520   0.112   1.270  0.3614 -0.7774  0.8170
 3016TIP3   OH2 9011   5.747   4.894   2.736  0.6031  0.0571 -0.1916
 3016TIP3    H1 9012   5.758   4.927   2.647 -1.6607  2.4041  0.2853
 3016TIP3    H2 9013   5.669   4.840   2.732 -0.1778  1.0881  0.5285
 3017TIP3   OH2 9014   5.239   2.027   1.455 -0.1546  0.4008 -0.6316
 3017TIP3    H1 9015   5.159   1.974   1.453 -0.8299  0.9091  3.5742
 3017TIP3    H2 9016   5.211   2.114   1.426 -1.3733  0.7273  1.3524
 3018TIP3   OH2 9017   4.332   2.453   0.670 -0.2386 -0.1428 -0.4523
 3018TIP3    H1 9018   4.259   2.492   0.623 -1.3547  0.3805  1.5986
 3018TIP3    H2 9019   4.366   2.385   0.611 -0.9843  1.0418 -2.3148
 3019TIP3   OH2 9020   1.449   5.346   1.005  0.0792  0.1705  0.1185
 3019TIP3    H1 9021   1.371   5.358   1.060  0.5170  0.6231  0.6456
 3019TIP3    H2 9022   1.504   5.284   1.054  0.1711  0.0535 -0.1302
 3020TIP3   OH2 9023   2.706   5.835   4.521  0.2314  0.0890 -0.4806
 3020TIP3    H1 9024   2.738   5.876   4.440  1.7886 -0.1036  0.0067
 3020TIP3    H2 9025   2.713   5.741   4.504 -0.4440  0.0316 -0.4828
 3021TIP3   OH2 9026   4.107   1.554   0.027 -0.1638  0.4851 -0.0935
 3021TIP3    H1 9027   4.185   1.532  -0.024 -0.2640 -1.5145  0.5093
 3021TIP3    H2 9028   4.127   1.522   0.115 -1.3601  0.6435  0.2537
 3022TIP3   OH2 9029   0.540   1.952   1.373  0.0155  0.3327  0.5188
 3022TIP3    H1 9030   0.482   1.896   1.322 -0.8669  1.7928 -0.1408
 3022TIP3    H2 9031   0.545   1.909   1.459 -1.7626 -0.0422  0.4839
 3023TIP3   OH2 9032   2.990   4.992   0.875 -0.1765  0.4750 -0.2189
 3023TIP3    H1 9033   3.046   4.968   0.949  0.4161  0.6070 -0.6145
 3023TIP3    H2 9034   3.010   4.926   0.808 -2.5545 -1.2075  0.5696
 3024TIP3   OH2 9035   2.920   0.068   4.827  0.1057  0.7265 -0.3639
 3024TIP3    H1 9036   2.991   0.104   4.880 -0.3738 -0.6073  1.2876
 3024TIP3    H2 9037   2.875   0.007   4.886 -2.1717  1.2303 -1.4787
 3025TIP3   OH2 9038   3.443   3.287   4.742 -0.4167  0.6422 -0.2416
 3025TIP3    H1 9039   3.409   3.215   4.796  1.0900  0.7266  0.8749
 3025TIP3    H2 9040   3.367   3.315   4.690 -1.2460 -1.1784 -0.0934
 3026TIP3   OH2 9041   0.816   1.170   0.135  0.3162  0.2279 -0.7987
 3026TIP3    H1 9042   0.744   1.171   0.199  1.6585  0.9670  0.7673
 3026TIP3    H2 9043   0.895   1.156   0.188  1.6001  2.0317 -2.1245
 3027TIP3   OH2 9044   6.212   4.492   5.553 -0.1007 -0.0976 -0.3927
 3027TIP3    H1 9045   6.288   4.520   5.604  1.1259 -0.0545 -2.1561
 3027TIP3    H2 9046   6.167   4.429   5.609 -0.2192  1.7468  1.7258
 3028TIP3   OH2 9047   4.500   3.578   5.864 -0.2608  0.0402  0.0159
 3028TIP3    H1 9048   4.580   3.604   5.911 -0.7262 -1.4717  1.7187
 3028TIP3    H2 9049   4.503   3.630   5.784  2.1177  0.4960  0.3051
 3029TIP3   OH2 9050   6.219   4.337   4.289 -0.1771  0.6196 -0.5051
 3029TIP3    H1 9051   6.268   4.419   4.296  1.1416  0.0595 -2.3331
 3029TIP3    H2 9052   6.283   4.269   4.314 -0.6113  0.0069 -1.0217
 3030TIP3   OH2 9053   4.491   3.353   4.238 -0.3827 -0.1242  0.1945
 3030TIP3    H1 9054   4.563   3.379   4.296 -2.0482  1.1213  1.8181
 3030TIP3    H2 9055   4.440   3.291   4.289 -1.4822  0.4210 -0.2168
 3031TIP3   OH2 9056   3.440   3.314   5.219  0.3387 -0.2660  0.0027
 3031TIP3    H1 9057   3.448   3.226   5.183  2.1068  0.3710 -1.2606
 3031TIP3    H2 9058   3.353   3.314   5.261 -0.1700 -2.2334 -0.9157
 3032TIP3   OH2 9059   4.460   3.900   5.204  0.0075 -0.4140 -0.0338
 3032TIP3    H1 9060   4.466   3.920   5.111 -0.6539  0.5206  0.1125
 3032TIP3    H2 9061   4.492   3.979   5.248 -1.1730 -0.2333  0.5420
 3033TIP3   OH2 9062   0.713   5.967   4.682  0.0200 -0.1210 -0.2216
 3033TIP3    H1 9063   0.749   5.881   4.657  0.8612 -0.0737  0.7568
 3033TIP3    H2 9064   0.788   6.026   4.679 -0.3757  0.4009 -0.0278
 3034TIP3   OH2 9065   4.260   2.013   1.244 -0.2438  0.0993  0.3215
 3034TIP3    H1 9066   4.350   1.983   1.252 -0.1727  0.2476  0.0899
 3034TIP3    H2 9067   4.237   1.999   1.153 -0.0821  1.0750  0.1137
 3035TIP3   OH2 9068   5.494   1.812   5.571  0.0715  0.8780  0.6354
 3035TIP3    H1 9069   5.566   1.751   5.554 -1.6247 -0.7468 -1.1078
 3035TIP3    H2 9070   5.530   1.898   5.547  0.1641 -0.3510 -5.1330
 3036TIP3   OH2 9071   0.099   4.752   1.708  0.0361 -0.1766 -0.2126
 3036TIP3    H1 9072   0.121   4.773   1.799 -2.6143  0.7877  0.3046
 3036TIP3    H2 9073   0.047   4.672   1.714  0.7988 -0.7519 -1.0351
 3037TIP3   OH2 9074   3.347   2.769   1.338  0.4374  0.1847 -0.3734
 3037TIP3    H1 9075   3.374   2.761   1.430 -2.9070  0.8630  0.8308
 3037TIP3    H2 9076   3.363   2.861   1.317  1.9337 -0.1467 -0.7837
 3038TIP3   OH2 9077   3.231   3.406   3.930  0.1319 -0.4857  0.9653
 3038TIP3    H1 9078   3.188   3.414   3.845 -0.8684 -0.6565  1.4373
 3038TIP3    H2 9079   3.255   3.313   3.935  3.2227  0.1122 -0.5110
 3039TIP3   OH2 9080   2.443   3.207   1.823 -0.3240  0.2611  0.6731
 3039TIP3    H1 9081   2.401   3.157   1.893 -2.5615  1.3045  0.1675
 3039TIP3    H2 9082   2.486   3.280   1.867 -0.8179  0.3300  1.0450
 3040TIP3   OH2 9083   4.443   0.835   3.866  0.1932  1.2838 -0.4588
 3040TIP3    H1 9084   4.350   0.850   3.851 -0.1541  1.0702  1.2205
 3040TIP3    H2 9085   4.461   0.878   3.950  1.4193  0.6665 -0.3814
 3041TIP3   OH2 9086   3.564   3.661   2.418  0.2450  0.2450  0.5489
 3041TIP3    H1 9087   3.548   3.656   2.513 -1.1528 -1.6909  0.2849
 3041TIP3    H2 9088   3.491   3.613   2.379  0.1740  1.9587 -1.6128
 3042TIP3   OH2 9089   2.846   1.565   2.480  0.6270 -0.3752  0.6453
 3042TIP3    H1 9090   2.887   1.483   2.509  1.3481 -0.1498  0.2952
 3042TIP3    H2 9091   2.906   1.599   2.413 -0.2699 -0.1614 -0.0764
 3043TIP3   OH2 9092   1.454   5.315   5.802 -0.4118  0.3731  0.5748
 3043TIP3    H1 9093   1.539   5.277   5.826 -0.3342  1.2755  1.7943
 3043TIP3    H2 9094   1.422   5.257   5.733  0.7182 -0.5980  0.8155
 3044TIP3   OH2 9095   1.141   1.276   1.375 -0.3102  0.2597  0.4337
 3044TIP3    H1 9096   1.225   1.280   1.420 -1.0075 -0.6012  1.8613
 3044TIP3    H2 9097   1.076   1.262   1.444 -1.6415  0.8757 -0.6325
 3045TIP3   OH2 9098   2.584   4.236   2.771  0.5658 -0.1625 -0.2013
 3045TIP3    H1 9099   2.649   4.213   2.704  0.6545 -0.1907 -0.1069
 3045TIP3    H2 9100   2.533   4.307   2.732  1.4655  0.7365  0.2030
 3046TIP3   OH2 9101   6.974   0.156   5.843 -0.2053 -0.0818 -0.5877
 3046TIP3    H1 9102   7.039   0.086   5.853  0.4475  0.6674  0.7265
 3046TIP3    H2 9103   7.025   0.230   5.811 -0.5521  0.2907 -0.2828
 3047TIP3   OH2 9104   6.285   3.738   0.707 -0.2117  0.0492  0.3240
 3047TIP3    H1 9105   6.282   3.833   0.717 -4.3413  0.0898  0.1318
 3047TIP3    H2 9106   6.301   3.705   0.796 -0.2035  0.8966  0.6457
 3048TIP3   OH2 9107   1.949   4.774   5.744  0.1554  0.4727 -0.0113
 3048TIP3    H1 9108   1.856   4.788   5.761 -0.0438 -0.7448 -0.0222
 3048TIP3    H2 9109   1.951   4.730   5.659  0.7236  0.3207  0.0807
 3049TIP3   OH2 9110   7.198   0.042   2.784 -0.0377  0.1186 -0.3919
 3049TIP3    H1 9111   7.205   0.131   2.818 -1.7123  0.3978 -0.6781
 3049TIP3    H2 9112   7.208   0.051   2.689 -0.0131 -0.0244 -0.4038
 3050TIP3   OH2 9113   5.844   1.474   2.967  0.1971  0.2616 -0.2066
 3050TIP3    H1 9114   5.871   1.550   3.018 -0.3368  0.0028  0.4810
 3050TIP3    H2 9115   5.875   1.399   3.017 -0.0851  0.0059 -0.4103
 3051TIP3   OH2 9116   3.875   2.873   4.964  0.5296 -0.2197  0.2184
 3051TIP3    H1 9117   3.885   2.899   4.872  0.4185  1.8811  0.7619
 3051TIP3    H2 9118   3.963   2.882   5.001  0.0520  1.6999  0.9619
 3052TIP3   OH2 9119   6.892   2.862   5.756  0.5010  0.5699 -0.0944
 3052TIP3    H1 9120   6.841   2.942   5.742 -0.3905 -0.0751 -0.6213
 3052TIP3    H2 9121   6.852   2.821   5.833  0.7425  0.4645 -0.0253
 3053TIP3   OH2 9122   3.663   0.872   1.290 -0.2376 -0.3947  0.3362
 3053TIP3    H1 9123   3.695   0.938   1.229  0.5990 -0.2517  0.9181
 3053TIP3    H2 9124   3.726   0.872   1.362 -0.0598 -2.0059  0.2280
 3054TIP3   OH2 9125   0.786   4.362   2.747  0.3863 -0.0177 -0.4788
 3054TIP3    H1 9126   0.827   4.447   2.732 -0.4860  0.2448 -1.3852
 3054TIP3    H2 9127   0.712   4.359   2.687 -0.7729 -0.6109  0.9280
 3055TIP3   OH2 9128   6.767   6.552   0.253 -0.0406 -0.1856 -0.4515
 3055TIP3    H1 9129   6.843   6.494   0.254  0.6421  0.6979  0.6991
 3055TIP3    H2 9130   6.787   6.616   0.185 -0.5320 -0.9320 -1.3170
 3056TIP3   OH2 9131   3.246   1.004   4.473 -0.0031  0.0683 -0.4902
 3056TIP3    H1 9132   3.217   1.077   4.527 -4.4385 -2.0830  0.4835
 3056TIP3    H2 9133   3.243   1.038   4.383  1.7628  2.0192  0.1116
 3057TIP3   OH2 9134   0.271   3.840   0.734 -0.3882  0.2385  0.1112
 3057TIP3    H1 9135   0.183   3.801   0.733 -0.0074 -0.6813  0.8555
 3057TIP3    H2 9136   0.261   3.920   0.786 -0.9437  0.5584 -0.4750
 3058TIP3   OH2 9137   2.426   6.027   5.329  0.7087 -0.1962  0.4623
 3058TIP3    H1 9138   2.394   6.067   5.410  0.3890 -0.4889  0.4839
 3058TIP3    H2 9139   2.374   5.947   5.320 -0.3263  0.5883 -0.8385
 3059TIP3   OH2 9140   5.486   5.318   3.471  0.2337  0.0276  0.0849
 3059TIP3    H1 9141   5.419   5.386   3.476  0.0158 -0.1482 -0.4099
 3059TIP3    H2 9142   5.530   5.322   3.556 -0.4153  0.1344  0.4289
 3060TIP3   OH2 9143   6.879   1.056   3.712  0.2541 -0.0226 -0.3333
 3060TIP3    H1 9144   6.789   1.030   3.732  1.0465 -2.4818  0.3507
 3060TIP3    H2 9145   6.889   1.037   3.619  0.0258  0.5088 -0.4752
 3061TIP3   OH2 9146   2.098   0.926   0.243 -0.4484 -0.2569  0.0092
 3061TIP3    H1 9147   2.167   0.877   0.287 -0.7584  0.4495  1.3376
 3061TIP3    H2 9148   2.144   0.987   0.186  0.0858  0.6030  1.3034
 3062TIP3   OH2 9149   4.615   3.525   5.569  0.0061 -0.0239 -0.3248
 3062TIP3    H1 9150   4.692   3.539   5.514  1.5985  1.3259  2.0213
 3062TIP3    H2 9151   4.641   3.455   5.629 -1.0789 -0.3905 -0.2619
 3063TIP3   OH2 9152   2.948   4.447   2.214 -0.0228 -0.5341 -0.1188
 3063TIP3    H1 9153   2.998   4.471   2.292  0.7900 -0.4432 -0.6622
 3063TIP3    H2 9154   2.875   4.510   2.212 -0.8422 -1.3816  1.3030
 3064TIP3   OH2 9155   3.704   1.744   1.423  0.0968  0.1939 -0.3523
 3064TIP3    H1 9156   3.766   1.793   1.369  1.7216 -1.2367  0.1046
 3064TIP3    H2 9157   3.717   1.778   1.511 -0.8713  0.9084 -0.4694
 3065TIP3   OH2 9158   5.014   2.357   3.407 -0.5025 -0.1849  0.3918
 3065TIP3    H1 9159   4.922   2.353   3.381 -0.9356  2.8588  1.1008
 3065TIP3    H2 9160   5.049   2.434   3.362  1.3667 -0.5561  1.1135
 3066TIP3   OH2 9161   2.331   2.313   4.900  0.2709 -0.1556 -0.3723
 3066TIP3    H1 9162   2.278   2.265   4.836 -0.5729  0.2337  0.0112
 3066TIP3    H2 9163   2.405   2.255   4.918  0.2832 -0.4596 -1.3579
 3067TIP3   OH2 9164   3.994   0.503   5.454  0.2025 -0.2450 -0.0886
 3067TIP3    H1 9165   4.004   0.499   5.549  0.6266 -2.4740 -0.1654
 3067TIP3    H2 9166   3.908   0.543   5.441  0.4540  0.7924  1.1841
 3068TIP3   OH2 9167   2.986   2.661   4.721 -0.1513  0.5465  0.2231
 3068TIP3    H1 9168   3.012   2.578   4.681 -1.4739 -0.5813  1.6233
 3068TIP3    H2 9169   2.970   2.719   4.646  0.9187 -0.3901 -0.7736
 3069TIP3   OH2 9170   3.117   1.129   5.143 -0.6358 -0.2480 -0.2038
 3069TIP3    H1 9171   3.064   1.058   5.178 -1.4754  1.0496  1.2697
 3069TIP3    H2 9172   3.205   1.113   5.178 -0.8607 -0.4677  0.2682
 3070TIP3   OH2 9173   5.848   2.372   2.090 -0.4215 -0.6912  0.1354
 3070TIP3    H1 9174   5.754   2.370   2.109 -0.7544 -0.6176 -1.3849
 3070TIP3    H2 9175   5.888   2.328   2.166 -1.7566 -1.5937  0.3663
 3071TIP3   OH2 9176   0.633   2.631   0.492  0.7763  0.1712 -0.2527
 3071TIP3    H1 9177   0.725   2.649   0.471  0.6943 -1.4876 -2.3110
 3071TIP3    H2 9178   0.623   2.537   0.479 -1.6009  0.5475 -1.7802
 3072TIP3   OH2 9179   7.031   6.190   5.272 -0.1550  0.0936 -0.1981
 3072TIP3    H1 9180   7.090   6.262   5.296 -0.4834 -0.0093  0.9613
 3072TIP3    H2 9181   6.964   6.190   5.340  0.6737 -2.2675  0.7492
 3073TIP3   OH2 9182   2.467   0.277   5.106  0.1198  0.2892 -0.0079
 3073TIP3    H1 9183   2.434   0.276   5.196 -0.8927 -0.8617 -0.3521
 3073TIP3    H2 9184   2.391   0.251   5.053  1.5374 -2.4967 -0.8631
 3074TIP3   OH2 9185   3.089   4.370   3.419  0.1682 -0.2376  0.0450
 3074TIP3    H1 9186   3.174   4.326   3.432 -0.4969 -1.3143  0.8702
 3074TIP3    H2 9187   3.031   4.301   3.387 -0.1418  0.7378 -1.5739
 3075TIP3   OH2 9188   2.739   3.156   4.895 -0.4881 -0.1646  0.2706
 3075TIP3    H1 9189   2.827   3.151   4.858 -0.2348 -0.8051  0.9468
 3075TIP3    H2 9190   2.708   3.066   4.899 -0.3634 -0.1626  1.9387
 3076TIP3   OH2 9191   4.820   5.566   3.585  0.2591 -0.0948 -0.1392
 3076TIP3    H1 9192   4.794   5.595   3.498  0.3388  2.8762  0.6890
 3076TIP3    H2 9193   4.753   5.503   3.611 -2.3020  2.1550 -0.7708
 3077TIP3   OH2 9194   6.121   5.313   5.323 -0.1650 -0.1630  0.4928
 3077TIP3    H1 9195   6.038   5.278   5.291 -0.6191  1.0830  0.2660
 3077TIP3    H2 9196   6.096   5.380   5.386  0.6881 -0.2686  0.9528
 3078TIP3   OH2 9197   0.757   6.244   4.101 -0.3946  0.2105 -0.3459
 3078TIP3    H1 9198   0.697   6.195   4.157 -0.9110  0.2256 -0.8784
 3078TIP3    H2 9199   0.722   6.333   4.100 -1.4237 -0.1674 -2.0846
 3079TIP3   OH2 9200   1.936   5.199   0.015 -0.2831  0.6824 -0.2100
 3079TIP3    H1 9201   1.867   5.168  -0.044 -0.0010 -0.3148 -0.0442
 3079TIP3    H2 9202   1.907   5.285   0.045 -0.7233  0.9350 -1.3222
 3080TIP3   OH2 9203   0.965   5.629   5.253 -0.3906 -0.3721  0.0928
 3080TIP3    H1 9204   0.958   5.707   5.309  0.0829  0.1918 -0.6154
 3080TIP3    H2 9205   0.931   5.558   5.307 -0.4936  0.2613  0.8854
 3081TIP3   OH2 9206   1.418   0.366   2.131 -0.0380 -0.4248 -0.2498
 3081TIP3    H1 9207   1.460   0.437   2.082 -1.7260  0.4666 -0.4684
 3081TIP3    H2 9208   1.328   0.365   2.100 -1.0545 -0.1841  2.4043
 3082TIP3   OH2 9209   5.258   2.694   0.822 -0.2693 -1.1840  0.1350
 3082TIP3    H1 9210   5.337   2.675   0.771 -0.0193  0.3889 -0.1072
 3082TIP3    H2 9211   5.187   2.689   0.759 -0.0508 -0.0258 -0.2221
 3083TIP3   OH2 9212   3.244   4.774   0.155 -0.0649  0.4766  0.6093
 3083TIP3    H1 9213   3.166   4.821   0.124  1.6062  2.7234 -0.5684
 3083TIP3    H2 9214   3.316   4.833   0.133  1.9416 -1.3296  2.0190
 3084TIP3   OH2 9215   2.926   4.828   1.526  1.0076  0.0329  0.2258
 3084TIP3    H1 9216   2.999   4.880   1.492  1.1627 -1.1656 -1.3516
 3084TIP3    H2 9217   2.875   4.803   1.449  1.7385 -3.3579  0.6974
 3085TIP3   OH2 9218   6.352   3.754   3.455 -0.3227 -0.6212 -0.0780
 3085TIP3    H1 9219   6.327   3.754   3.547  1.4693 -1.3630  0.4530
 3085TIP3    H2 9220   6.353   3.662   3.429  1.9572 -0.6999  0.0370
 3086TIP3   OH2 9221   4.382   2.822   4.867  0.0215 -0.1948  0.8772
 3086TIP3    H1 9222   4.458   2.873   4.838  2.1018 -2.2328  2.3103
 3086TIP3    H2 9223   4.306   2.875   4.844  1.9353  2.7888  0.9116
 3087TIP3   OH2 9224   5.423   0.279   3.214 -0.4133 -0.2987  0.2032
 3087TIP3    H1 9225   5.372   0.357   3.235 -2.2149 -1.5722  0.8397
 3087TIP3    H2 9226   5.364   0.206   3.233  1.4157 -1.8510  0.2633
 3088TIP3   OH2 9227   6.855   2.876   3.969  0.0851 -0.2802 -0.3399
 3088TIP3    H1 9228   6.936   2.897   4.015  0.7536 -0.9367 -1.1868
 3088TIP3    H2 9229   6.817   2.961   3.948 -0.7073  0.0446  2.1794
 3089TIP3   OH2 9230   5.502   0.500   3.807  0.3877 -0.0356 -0.1173
 3089TIP3    H1 9231   5.540   0.585   3.785  1.9921 -0.7365 -0.1463
 3089TIP3    H2 9232   5.560   0.464   3.874 -1.4962 -0.1974  1.5063
 3090TIP3   OH2 9233   4.105   2.866   1.498  0.1638 -0.3302  0.1929
 3090TIP3    H1 9234   4.184   2.816   1.518  0.1512  0.1771  1.6589
 3090TIP3    H2 9235   4.034   2.817   1.541 -0.0490  0.1661  0.4208
 3091TIP3   OH2 9236   3.487   3.719   3.392  0.7823  0.4193 -0.4752
 3091TIP3    H1 9237   3.409   3.732   3.338  1.0023  0.6174 -0.7436
 3091TIP3    H2 9238   3.536   3.802   3.385  0.7857  0.4729  0.0687
 3092TIP3   OH2 9239   5.071   2.665   2.054  0.0920 -0.3761  0.1980
 3092TIP3    H1 9240   5.090   2.595   2.116 -1.1321 -0.8973  0.0235
 3092TIP3    H2 9241   5.054   2.619   1.971 -0.2868  0.1589 -0.0280
 3093TIP3   OH2 9242   3.700   4.217   1.706  0.0317  0.1940 -0.0646
 3093TIP3    H1 9243   3.698   4.124   1.728  1.0152 -0.1188 -1.1432
 3093TIP3    H2 9244   3.760   4.222   1.631  0.6010  1.7890  0.4446
 3094TIP3   OH2 9245   4.581   6.264   3.063  0.4078 -0.0091  0.3303
 3094TIP3    H1 9246   4.558   6.229   3.149  1.6846  1.3863  1.2848
 3094TIP3    H2 9247   4.512   6.328   3.045  1.3709  1.4158  1.4490
 3095TIP3   OH2 9248   5.561   6.546   5.192 -0.2326 -0.4927 -0.6770
 3095TIP3    H1 9249   5.564   6.583   5.281  1.8338 -0.7943 -0.5907
 3095TIP3    H2 9250   5.473   6.568   5.161 -0.7296  0.3118  1.1468
 3096TIP3   OH2 9251   5.081   4.259   5.501 -0.1838  0.2084 -0.3788
 3096TIP3    H1 9252   5.014   4.275   5.567 -1.5553 -0.6403 -1.5112
 3096TIP3    H2 9253   5.114   4.171   5.521  2.9950  1.7664  2.1282
 3097TIP3   OH2 9254   0.480   3.400   1.576  0.2886 -0.1506  0.7300
 3097TIP3    H1 9255   0.516   3.483   1.606 -1.3138  1.1609 -0.7848
 3097TIP3    H2 9256   0.505   3.395   1.483 -1.4425 -0.2869  0.2376
 3098TIP3   OH2 9257   0.758   5.242   2.873 -0.4586 -0.0655  0.0135
 3098TIP3    H1 9258   0.760   5.161   2.923  1.1242  0.3487  0.6682
 3098TIP3    H2 9259   0.805   5.222   2.792  0.3574  0.2905  0.3792
 3099TIP3   OH2 9260   0.072   6.739   2.249  0.0264 -0.1296 -0.2400
 3099TIP3    H1 9261   0.145   6.698   2.203  1.0465  0.9948  0.3127
 3099TIP3    H2 9262   0.031   6.668   2.297  2.0598 -0.5074  1.1067
 3100TIP3   OH2 9263   3.500   1.355   3.254 -0.1772  0.3335 -0.3163
 3100TIP3    H1 9264   3.413   1.382   3.283 -0.2464 -1.7123  1.7064
 3100TIP3    H2 9265   3.537   1.434   3.214 -1.7385  2.2433  1.6971
 3101TIP3   OH2 9266   6.393   0.531   0.071  0.0478 -0.1788  0.0575
 3101TIP3    H1 9267   6.401   0.466   0.001 -0.7860 -0.6363  0.3796
 3101TIP3    H2 9268   6.337   0.599   0.034 -0.2900 -0.3600  0.2366
 3102TIP3   OH2 9269   5.839   5.780   1.148  0.0434 -0.7376  0.1151
 3102TIP3    H1 9270   5.773   5.848   1.159  0.7123 -0.3328  2.0686
 3102TIP3    H2 9271   5.919   5.827   1.124 -0.0213 -1.0876 -0.8399
 3103TIP3   OH2 9272   1.497   4.925   5.786  0.5142  0.0348 -0.0761
 3103TIP3    H1 9273   1.538   4.951   5.868 -0.9536  1.5385  0.2279
 3103TIP3    H2 9274   1.448   4.846   5.807  2.0662 -0.9829 -0.1185
 3104TIP3   OH2 9275   3.172   3.383   4.226  0.0014  0.2315 -0.0998
 3104TIP3    H1 9276   3.206   3.452   4.169 -1.2732  1.3748  0.4490
 3104TIP3    H2 9277   3.077   3.389   4.215 -0.1404 -1.6610 -0.2592
 3105TIP3   OH2 9278   3.826   1.851   2.007  0.4289  0.1412  0.1730
 3105TIP3    H1 9279   3.899   1.822   1.952 -0.1804  0.5477 -0.8775
 3105TIP3    H2 9280   3.766   1.777   2.009  0.3620  0.1952  0.1417
 3106TIP3   OH2 9281   6.655   5.871   4.950 -0.5184 -0.5998 -0.2305
 3106TIP3    H1 9282   6.636   5.950   4.899 -0.5512 -0.5916 -0.2058
 3106TIP3    H2 9283   6.664   5.802   4.885 -1.3889 -0.7562 -0.1997
 3107TIP3   OH2 9284   3.151   0.544  -0.011 -0.4073 -0.0999 -0.3419
 3107TIP3    H1 9285   3.112   0.535   0.076  1.8323 -2.0765  0.5557
 3107TIP3    H2 9286   3.121   0.467  -0.059 -0.9021  0.5205 -1.0594
 3108TIP3   OH2 9287   6.995   2.346   5.621 -0.2613  0.6973 -0.2465
 3108TIP3    H1 9288   6.933   2.418   5.610 -1.3867 -0.1590  0.2804
 3108TIP3    H2 9289   6.985   2.320   5.712 -1.1928 -1.2655 -0.8640
 3109TIP3   OH2 9290   1.334   5.207   4.468 -0.0254  0.3619  0.0371
 3109TIP3    H1 9291   1.352   5.114   4.484  0.6368  0.7527  1.7423
 3109TIP3    H2 9292   1.398   5.233   4.402  0.1760 -0.2443 -0.0142
 3110TIP3   OH2 9293   0.303   6.420   4.571 -0.1770 -0.7068  0.1188
 3110TIP3    H1 9294   0.263   6.506   4.555  0.8401 -0.0754  0.8175
 3110TIP3    H2 9295   0.229   6.362   4.589 -0.8156  0.3307  0.9565
 3111TIP3   OH2 9296   1.127   2.072   2.999  0.2650  0.7762 -0.3285
 3111TIP3    H1 9297   1.062   2.032   2.942  1.3707  1.6995 -2.3589
 3111TIP3    H2 9298   1.086   2.153   3.028 -0.1875  0.4579 -0.0731
 3112TIP3   OH2 9299   6.063   5.290   0.963 -0.0788 -0.0187  0.5429
 3112TIP3    H1 9300   6.008   5.359   0.927 -1.0739  0.5171  2.9074
 3112TIP3    H2 9301   6.131   5.337   1.012  0.8045 -0.7135  0.0115
 3113TIP3   OH2 9302   5.987   0.373   0.585 -1.2314 -0.4751 -0.1701
 3113TIP3    H1 9303   6.007   0.285   0.616 -0.6330 -0.9895 -1.8995
 3113TIP3    H2 9304   5.954   0.361   0.495 -0.9848  1.0697 -0.5107
 3114TIP3   OH2 9305   1.751   2.265   1.113 -0.1570  0.4297  0.4062
 3114TIP3    H1 9306   1.811   2.201   1.075  1.5102  0.3897  2.8755
 3114TIP3    H2 9307   1.800   2.347   1.114 -1.7925  1.5037 -1.4987
 3115TIP3   OH2 9308   7.035   6.094   2.553  0.1710  0.1683 -0.2462
 3115TIP3    H1 9309   6.990   6.167   2.510 -0.4879 -0.5600 -0.8284
 3115TIP3    H2 9310   7.112   6.079   2.499 -2.0045 -2.4881 -2.9076
 3116TIP3   OH2 9311   6.805   3.555   2.287 -0.0165  0.2137 -0.1202
 3116TIP3    H1 9312   6.765   3.569   2.372  0.0456  0.3639 -0.1150
 3116TIP3    H2 9313   6.734   3.524   2.232 -0.2169  0.7802 -0.1927
 3117TIP3   OH2 9314   0.765   2.118   2.290  0.3776  0.2119 -0.0991
 3117TIP3    H1 9315   0.736   2.033   2.257 -2.3468  1.3212 -0.8079
 3117TIP3    H2 9316   0.790   2.101   2.381 -1.8634 -1.0844  0.3574
 3118TIP3   OH2 9317   2.404   2.527   5.783 -0.0260 -0.6341  0.9837
 3118TIP3    H1 9318   2.489   2.484   5.775 -0.8095 -2.4332  1.9790
 3118TIP3    H2 9319   2.368   2.496   5.866 -2.1389 -0.7748  0.0778
 3119TIP3   OH2 9320   0.536   5.651   0.569 -0.5049 -0.3775  0.0138
 3119TIP3    H1 9321   0.510   5.577   0.625 -1.8736 -0.2673 -0.4361
 3119TIP3    H2 9322   0.623   5.676   0.601  0.9302 -3.4521 -1.0927
 3120TIP3   OH2 9323   0.351   1.061   4.810  0.2128 -0.4366  0.4798
 3120TIP3    H1 9324   0.336   1.101   4.724  0.9846 -0.3862  0.3608
 3120TIP3    H2 9325   0.267   1.021   4.832  0.0961 -0.7638 -0.4681
 3121TIP3   OH2 9326   2.069   5.060   2.969  0.0855 -0.8138  0.0986
 3121TIP3    H1 9327   2.133   5.087   3.035  0.5343  0.1379 -0.7109
 3121TIP3    H2 9328   2.106   4.980   2.931  0.1438 -1.0003  0.5348
 3122TIP3   OH2 9329   6.220   5.307   4.641 -0.1316 -0.3530 -0.2970
 3122TIP3    H1 9330   6.282   5.328   4.571 -0.4437  1.0043 -0.1871
 3122TIP3    H2 9331   6.269   5.322   4.722 -0.4006  0.0838 -0.2139
 3123TIP3   OH2 9332   6.285   6.179   3.010  0.3637  0.2443  0.2768
 3123TIP3    H1 9333   6.367   6.133   3.028  0.2821  0.0994  0.2789
 3123TIP3    H2 9334   6.241   6.125   2.943 -0.0649 -0.0736  0.8038
 3124TIP3   OH2 9335   4.077   0.215   5.186  0.3962  0.0433  0.3403
 3124TIP3    H1 9336   4.074   0.246   5.095  2.3630  0.5461  0.4053
 3124TIP3    H2 9337   4.017   0.274   5.233 -0.0095  0.3043 -0.4854
 3125TIP3   OH2 9338   6.417   0.585   3.465 -0.0296  0.1602  0.2802
 3125TIP3    H1 9339   6.496   0.534   3.485  0.0560  0.1194 -0.1599
 3125TIP3    H2 9340   6.446   0.650   3.401 -0.0919  0.8946  0.9821
 3126TIP3   OH2 9341   5.390   2.856   3.565 -0.1614 -0.5498  0.0370
 3126TIP3    H1 9342   5.365   2.946   3.587 -1.3164 -0.9080  0.2592
 3126TIP3    H2 9343   5.331   2.831   3.494  0.8108 -0.8157 -0.7150
 3127TIP3   OH2 9344   5.076   1.041   3.811  0.2810  0.2577  0.2362
 3127TIP3    H1 9345   5.068   1.083   3.725  1.2079 -0.6887 -0.3291
 3127TIP3    H2 9346   5.060   1.112   3.873 -2.6376  0.5398 -0.6800
 3128TIP3   OH2 9347   6.762   4.037   3.085  0.4248  0.4336  0.0477
 3128TIP3    H1 9348   6.768   4.115   3.141 -0.5058 -0.5269  1.5572
 3128TIP3    H2 9349   6.849   4.029   3.045  0.5163  2.2627 -0.1936
 3129TIP3   OH2 9350   4.290   6.004   0.773  0.0309  0.0522  0.0551
 3129TIP3    H1 9351   4.223   5.945   0.738 -0.1173  0.1397  0.1877
 3129TIP3    H2 9352   4.242   6.060   0.834  0.3945 -0.5149  0.8805
 3130TIP3   OH2 9353   5.189   5.662   0.940 -0.3392 -0.0657  0.7221
 3130TIP3    H1 9354   5.153   5.575   0.920  0.2164 -0.4062  1.1497
 3130TIP3    H2 9355   5.187   5.666   1.036  2.4854 -0.8932  0.9121
 3131TIP3   OH2 9356   2.797   5.065   2.345  0.2265  0.1716 -0.2104
 3131TIP3    H1 9357   2.876   5.113   2.322  0.0226  0.2472 -0.7636
 3131TIP3    H2 9358   2.828   4.979   2.372  0.5879  0.5749  0.7064
 3132TIP3   OH2 9359   0.653   5.784  -0.021 -0.2026 -0.0910  0.2078
 3132TIP3    H1 9360   0.586   5.822   0.036 -2.2128 -1.0377 -1.4071
 3132TIP3    H2 9361   0.696   5.718   0.034 -1.6359 -0.5162  0.8620
 3133TIP3   OH2 9362   5.417   0.837   1.533  0.1941  0.2554  0.0660
 3133TIP3    H1 9363   5.322   0.825   1.526  0.4215 -1.0137 -1.1504
 3133TIP3    H2 9364   5.447   0.765   1.587  0.4545  0.7773  0.6302
 3134TIP3   OH2 9365   6.665   0.673   1.621  0.5006  0.1688 -0.3981
 3134TIP3    H1 9366   6.699   0.762   1.616 -1.3540  0.8895 -1.1465
 3134TIP3    H2 9367   6.663   0.654   1.715 -0.3683  1.4797 -0.1151
 3135TIP3   OH2 9368   3.942   0.593   1.111  0.0540 -0.4547  0.1818
 3135TIP3    H1 9369   3.851   0.590   1.141 -0.4736  3.4091 -0.4830
 3135TIP3    H2 9370   3.967   0.501   1.098 -4.0935 -1.6417 -0.7158
 3136TIP3   OH2 9371   0.056   3.060   4.025 -0.1507  0.0831  0.2082
 3136TIP3    H1 9372  -0.017   3.115   3.997  0.8623  2.0419  1.2109
 3136TIP3    H2 9373   0.017   3.001   4.090 -1.2145 -0.2733 -0.7145
 3137TIP3   OH2 9374   4.536   1.500   4.353 -0.0756 -0.1240  0.5251
 3137TIP3    H1 9375   4.584   1.561   4.409 -0.9044  1.8330 -0.7886
 3137TIP3    H2 9376   4.446   1.532   4.353 -0.0804  0.0576 -1.9713
 3138TIP3   OH2 9377   1.181   2.764   0.293 -0.1541  0.0548  0.3322
 3138TIP3    H1 9378   1.163   2.811   0.374  0.4267 -0.4225  0.7410
 3138TIP3    H2 9379   1.255   2.810   0.254  0.6541 -0.7422  0.9184
 3139TIP3   OH2 9380   0.770   5.347   2.264  0.1362  0.0516 -0.5269
 3139TIP3    H1 9381   0.677   5.368   2.258  0.0481 -0.4234 -0.8543
 3139TIP3    H2 9382   0.774   5.252   2.254  0.7231  0.1556 -1.3539
 3140TIP3   OH2 9383   5.112   6.032   5.311 -0.2675  0.3734 -0.0980
 3140TIP3    H1 9384   5.191   6.010   5.261  0.2573  1.5143  0.1966
 3140TIP3    H2 9385   5.043   6.039   5.244 -0.1492 -0.7082 -0.3468
 3141TIP3   OH2 9386   3.882   5.567   1.314  0.0069 -0.1018  0.3214
 3141TIP3    H1 9387   3.972   5.599   1.326  0.1814 -0.6732  0.5831
 3141TIP3    H2 9388   3.893   5.479   1.277 -0.4446 -0.1786  0.3676
 3142TIP3   OH2 9389   1.313   2.598   0.652 -0.0303  0.1235 -0.1029
 3142TIP3    H1 9390   1.259   2.663   0.608  1.5543  1.4673 -0.1771
 3142TIP3    H2 9391   1.357   2.551   0.581 -2.5689 -2.4411 -0.1513
 3143TIP3   OH2 9392   3.899   5.850   1.163  0.2428 -0.4354 -0.1114
 3143TIP3    H1 9393   3.831   5.783   1.171  0.7805 -0.7983  2.3581
 3143TIP3    H2 9394   3.972   5.807   1.120  0.7575 -1.6859  1.8600
 3144TIP3   OH2 9395   0.036   3.613   2.044 -0.3221 -0.1752  0.6315
 3144TIP3    H1 9396   0.104   3.552   2.014 -0.3597 -0.2494  0.7009
 3144TIP3    H2 9397  -0.044   3.561   2.048 -0.1567 -0.3686  1.6574
 3145TIP3   OH2 9398   4.760   5.631   4.087  0.5233 -0.8400  0.1526
 3145TIP3    H1 9399   4.838   5.578   4.104 -0.3996 -2.3553 -0.1591
 3145TIP3    H2 9400   4.690   5.587   4.136 -0.2204  0.2482  0.0947
 3146TIP3   OH2 9401   6.074   4.315   0.040 -0.4662  0.3593 -0.1933
 3146TIP3    H1 9402   6.092   4.408   0.024 -1.7552  0.8057  0.7863
 3146TIP3    H2 9403   6.021   4.314   0.119 -0.4342 -1.2335 -0.1581
 3147TIP3   OH2 9404   4.585   0.610   0.670 -0.5153 -0.1340 -0.0118
 3147TIP3    H1 9405   4.586   0.524   0.711 -0.6418 -0.0325  0.2062
 3147TIP3    H2 9406   4.607   0.671   0.741 -0.1589 -0.0106 -0.2220
 3148TIP3   OH2 9407   2.906   5.326   4.314  0.0000 -0.4229 -0.4898
 3148TIP3    H1 9408   2.844   5.397   4.298  1.0997  0.5124 -0.7532
 3148TIP3    H2 9409   2.956   5.355   4.391 -0.2479 -1.4197  0.0639
 3149TIP3   OH2 9410   2.478   4.111   0.890  0.4404 -0.0533  0.0277
 3149TIP3    H1 9411   2.554   4.075   0.936  0.6588  0.9061  0.4469
 3149TIP3    H2 9412   2.510   4.191   0.850 -0.4519  0.5888  0.5609
 3150TIP3   OH2 9413   5.623   4.988   3.464  0.0859  0.3315 -0.2548
 3150TIP3    H1 9414   5.629   4.967   3.370 -0.1014  0.3742 -0.2779
 3150TIP3    H2 9415   5.534   4.962   3.488 -0.2384  1.3051 -0.3436
 3151TIP3   OH2 9416   5.914   4.833   0.263 -0.1187  0.1546  0.0256
 3151TIP3    H1 9417   5.875   4.750   0.291  0.0133 -0.4916 -1.6198
 3151TIP3    H2 9418   6.007   4.825   0.287 -0.4398  0.6030  1.5184
 3152TIP3   OH2 9419   1.665   2.380   3.982  0.4976 -0.5074 -0.3994
 3152TIP3    H1 9420   1.709   2.317   3.924  0.5015 -0.1039 -0.8364
 3152TIP3    H2 9421   1.733   2.442   4.005  0.8155 -1.3349  1.0291
 3153TIP3   OH2 9422   2.834   6.157   5.020  0.2007 -0.9810 -0.6504
 3153TIP3    H1 9423   2.756   6.164   5.075  0.9938 -0.7902  0.4955
 3153TIP3    H2 9424   2.882   6.238   5.036  2.1211 -2.3460  1.0966
 3154TIP3   OH2 9425   6.186   4.568   4.643 -0.3082 -0.5217 -0.4407
 3154TIP3    H1 9426   6.169   4.556   4.550 -1.0771 -0.2524 -0.3452
 3154TIP3    H2 9427   6.222   4.657   4.650 -0.1201 -0.5938 -0.4974
 3155TIP3   OH2 9428   4.045   3.875   1.008 -0.1545  0.0552 -0.2478
 3155TIP3    H1 9429   4.061   3.963   1.043  0.1866  0.0255 -0.3215
 3155TIP3    H2 9430   4.126   3.827   1.026 -0.1212 -0.0741 -0.7272
 3156TIP3   OH2 9431   4.045   4.821   0.084  0.3041 -0.0016 -0.3554
 3156TIP3    H1 9432   4.029   4.890   0.020 -1.9777  0.0700  0.1742
 3156TIP3    H2 9433   4.020   4.860   0.168  2.0873 -0.4695  0.4269
 3157TIP3   OH2 9434   2.214   0.243   2.806 -0.2754  0.1074  0.2058
 3157TIP3    H1 9435   2.307   0.250   2.783 -0.2234  2.5473  0.9201
 3157TIP3    H2 9436   2.167   0.272   2.729 -0.4788 -0.9862 -0.1033
 3158TIP3   OH2 9437   1.388   6.338   4.198 -0.4823  0.1848  0.3871
 3158TIP3    H1 9438   1.407   6.250   4.166  0.8058  0.8058 -0.6418
 3158TIP3    H2 9439   1.463   6.360   4.254 -0.5725  0.7866  0.2767
 3159TIP3   OH2 9440   3.869   0.493   3.575  0.3364  0.1949  0.2950
 3159TIP3    H1 9441   3.791   0.443   3.598  0.5404  0.2778  1.1913
 3159TIP3    H2 9442   3.893   0.462   3.488 -1.2149  0.8133 -0.3840
 3160TIP3   OH2 9443   1.193   5.710   3.342 -0.3541  0.0716 -0.1292
 3160TIP3    H1 9444   1.232   5.747   3.421  1.0207 -1.6057  0.0287
 3160TIP3    H2 9445   1.132   5.643   3.373 -1.1189  0.5883 -0.4707
 3161TIP3   OH2 9446   5.119   5.363   5.103  0.0196  0.1402 -0.0226
 3161TIP3    H1 9447   5.050   5.427   5.118 -2.2292 -1.9349 -0.8400
 3161TIP3    H2 9448   5.162   5.353   5.188 -0.6102  1.5435  0.4808
 3162TIP3   OH2 9449   4.454   0.641   2.006 -0.4053  0.2830 -0.2261
 3162TIP3    H1 9450   4.494   0.721   1.971  0.8844 -0.3422 -0.2209
 3162TIP3    H2 9451   4.466   0.649   2.101 -0.6380  0.2617 -0.1940
 3163TIP3   OH2 9452   3.704   5.586   5.246  0.1857  0.1353  0.4309
 3163TIP3    H1 9453   3.745   5.514   5.294 -0.8954 -0.6101  0.2868
 3163TIP3    H2 9454   3.765   5.606   5.175  0.7917 -0.2065  0.8469
 3164TIP3   OH2 9455   3.676   1.626   2.129  0.0339 -0.0508 -0.6353
 3164TIP3    H1 9456   3.701   1.578   2.208 -0.0640  0.7550 -0.1081
 3164TIP3    H2 9457   3.727   1.585   2.059  1.6742  0.5322  0.1603
 3165TIP3   OH2 9458   4.174   3.033   1.275  0.0907 -0.6958 -0.1455
 3165TIP3    H1 9459   4.176   2.981   1.356  1.8729  0.8837  0.9176
 3165TIP3    H2 9460   4.229   3.109   1.295  1.2856 -0.6483 -3.1367
 3166TIP3   OH2 9461   2.314   1.402   0.279  0.0393  0.0335 -0.3757
 3166TIP3    H1 9462   2.246   1.361   0.224 -1.3936 -0.1527  1.4265
 3166TIP3    H2 9463   2.305   1.357   0.364 -0.1785  2.6168  1.0576
 3167TIP3   OH2 9464   2.470   2.981   5.786 -0.1856 -0.4089 -0.0667
 3167TIP3    H1 9465   2.414   3.030   5.726  0.9500  1.2319  0.1708
 3167TIP3    H2 9466   2.554   2.972   5.740 -0.5512 -2.8189 -0.4108
 3168TIP3   OH2 9467   6.945   0.503   0.710  0.1941 -0.0119  0.2717
 3168TIP3    H1 9468   6.856   0.470   0.725  0.2445 -0.5716 -0.5541
 3168TIP3    H2 9469   6.938   0.553   0.628  1.1603 -2.4143 -1.4246
 3169TIP3   OH2 9470   2.224   6.631   2.898  0.1768  0.2626 -0.1292
 3169TIP3    H1 9471   2.178   6.555   2.934 -1.1002  0.6168 -0.9406
 3169TIP3    H2 9472   2.155   6.683   2.856  0.8721  2.3404  1.1748
 3170TIP3   OH2 9473   5.360   0.238   0.227 -0.4410 -0.3702 -0.3286
 3170TIP3    H1 9474   5.436   0.200   0.271  0.3688 -0.3807 -1.6779
 3170TIP3    H2 9475   5.334   0.172   0.163 -0.8598  0.1099 -0.6625
 3171TIP3   OH2 9476   6.636   5.708   2.645  0.6004  0.1576  0.6094
 3171TIP3    H1 9477   6.703   5.774   2.629 -0.9941  1.9522  0.9148
 3171TIP3    H2 9478   6.604   5.684   2.558  2.1699 -1.3641  0.4045
 3172TIP3   OH2 9479   6.454   2.637   0.723 -0.4255  0.3902  0.0853
 3172TIP3    H1 9480   6.517   2.608   0.789 -0.6739 -0.0028  0.1539
 3172TIP3    H2 9481   6.468   2.579   0.649 -2.0331 -1.0198  0.8180
 3173TIP3   OH2 9482   5.218   3.190   1.001 -0.0199 -0.0012  0.4406
 3173TIP3    H1 9483   5.237   3.098   0.984  1.3173  0.0482  1.4399
 3173TIP3    H2 9484   5.124   3.194   1.016 -0.1858 -1.0863 -0.2614
 3174TIP3   OH2 9485   0.134   2.856   2.006 -0.0367  0.3086  0.2130
 3174TIP3    H1 9486   0.147   2.900   2.090  0.2111  2.1022 -0.7164
 3174TIP3    H2 9487   0.220   2.821   1.985  0.7537  2.6386 -0.7467
 3175TIP3   OH2 9488   2.026   4.263   1.497 -0.7879  0.0610  0.0789
 3175TIP3    H1 9489   1.976   4.340   1.471  0.4090  0.2760 -1.7183
 3175TIP3    H2 9490   1.962   4.191   1.493 -1.5610  0.7198  0.3715
 3176TIP3   OH2 9491   6.999   0.223   3.014 -0.4216 -0.2171  0.0656
 3176TIP3    H1 9492   6.980   0.313   3.044 -1.1507 -0.0777 -0.7782
 3176TIP3    H2 9493   7.052   0.234   2.936 -1.2388 -0.4850 -0.5428
 3177TIP3   OH2 9494   5.447   5.316   2.239 -0.1450  0.1146  0.3752
 3177TIP3    H1 9495   5.475   5.302   2.149  1.3353  1.0603  0.6536
 3177TIP3    H2 9496   5.417   5.408   2.240 -1.9779 -0.4397  0.4351
 3178TIP3   OH2 9497   2.531   2.682   1.154  0.0533 -0.3883  0.2195
 3178TIP3    H1 9498   2.461   2.677   1.088 -0.3247 -1.5703  0.6783
 3178TIP3    H2 9499   2.571   2.595   1.152  1.1209  0.0933  0.3979
 3179TIP3   OH2 9500   0.755   1.988   1.957 -0.3731 -0.2599 -0.0861
 3179TIP3    H1 9501   0.667   1.951   1.961 -0.8784  0.5964 -2.0167
 3179TIP3    H2 9502   0.752   2.049   1.884  1.6017  0.4496  0.3555
 3180TIP3   OH2 9503   4.850   1.876   4.508  0.6513 -0.4455 -0.0819
 3180TIP3    H1 9504   4.941   1.853   4.530  0.8173  1.0979  1.0627
 3180TIP3    H2 9505   4.833   1.955   4.560 -1.2795 -0.5738 -0.4669
 3181TIP3   OH2 9506   3.298   3.941   2.912  0.1060 -0.2100 -0.1016
 3181TIP3    H1 9507   3.258   3.902   2.834 -1.2156  0.2525  0.3201
 3181TIP3    H2 9508   3.303   4.034   2.893 -1.7480  0.1546  0.9554
 3182TIP3   OH2 9509   3.267   1.017   0.945 -0.0080 -0.0552  0.4382
 3182TIP3    H1 9510   3.279   1.023   1.039  2.0447 -2.5294  0.4321
 3182TIP3    H2 9511   3.308   1.097   0.910  1.7551 -0.4391  1.5255
 3183TIP3   OH2 9512   0.631   2.882   2.325  0.3084 -0.4088 -0.1408
 3183TIP3    H1 9513   0.697   2.819   2.352  1.5860  0.4115 -1.2275
 3183TIP3    H2 9514   0.678   2.946   2.272 -1.6374 -0.7033 -2.4139
 3184TIP3   OH2 9515   0.394   3.829   4.544 -0.0015 -0.1071 -0.2494
 3184TIP3    H1 9516   0.413   3.837   4.451 -2.1030 -1.0177 -0.8126
 3184TIP3    H2 9517   0.435   3.746   4.570 -2.2461 -1.6044 -1.2319
 3185TIP3   OH2 9518   1.320   6.283   4.568 -0.1111  0.9458 -0.0286
 3185TIP3    H1 9519   1.234   6.244   4.553  0.4222 -0.4782  0.4737
 3185TIP3    H2 9520   1.382   6.213   4.549  1.0694  2.4369 -2.0745
 3186TIP3   OH2 9521   4.171   3.482   5.740  0.3386 -0.4023 -0.0956
 3186TIP3    H1 9522   4.196   3.409   5.795  2.4015 -0.1839 -0.6567
 3186TIP3    H2 9523   4.152   3.553   5.801 -1.7592 -1.3736  0.4569
 3187TIP3   OH2 9524   4.281   0.160   3.077 -0.7171  0.1288 -0.1548
 3187TIP3    H1 9525   4.289   0.089   3.140 -1.4074  0.7671  0.6657
 3187TIP3    H2 9526   4.340   0.228   3.109 -0.1048 -0.0264 -0.9044
 3188TIP3   OH2 9527   1.741   0.156   5.232  0.5509  0.3873  0.1828
 3188TIP3    H1 9528   1.674   0.200   5.285  0.2073  2.4240 -1.7797
 3188TIP3    H2 9529   1.819   0.209   5.243  0.5173  0.7530 -1.1639
 3189TIP3   OH2 9530   3.984   5.807   4.637  0.0697 -0.2104  0.4373
 3189TIP3    H1 9531   3.907   5.833   4.586 -0.1770 -1.6933 -0.0132
 3189TIP3    H2 9532   4.048   5.875   4.621 -0.8976  0.6714  0.2114
 3190TIP3   OH2 9533   6.161   6.775   3.843 -0.0082  0.0407  0.2225
 3190TIP3    H1 9534   6.235   6.818   3.885  0.8151 -0.0334 -1.0883
 3190TIP3    H2 9535   6.122   6.721   3.911  0.6905  0.6572  1.1242
 3191TIP3   OH2 9536   1.578   4.338   1.319 -0.2830 -0.1005  0.2089
 3191TIP3    H1 9537   1.532   4.416   1.350  1.9789  1.3144  0.2362
 3191TIP3    H2 9538   1.566   4.273   1.389 -2.8062 -0.1150 -0.1359
 3192TIP3   OH2 9539   0.050   1.123   1.992  0.1377  0.1371  0.5457
 3192TIP3    H1 9540   0.117   1.127   2.060  0.6529  0.4617  0.0284
 3192TIP3    H2 9541   0.066   1.040   1.947 -0.5587 -0.3527  1.1619
 3193TIP3   OH2 9542   4.730   4.630   4.671  0.0961  0.3979  0.1159
 3193TIP3    H1 9543   4.684   4.628   4.587 -0.1816 -1.7891  0.2795
 3193TIP3    H2 9544   4.823   4.639   4.647 -0.1346  2.2628 -0.2866
 3194TIP3   OH2 9545   2.563   1.837   1.253  0.1647 -0.2808 -0.5431
 3194TIP3    H1 9546   2.639   1.894   1.242  0.5511 -0.7451 -0.3122
 3194TIP3    H2 9547   2.539   1.845   1.345  0.6723 -1.0416 -0.3346
 3195TIP3   OH2 9548   5.740   1.736   0.324 -0.0035 -0.3284  0.3448
 3195TIP3    H1 9549   5.774   1.729   0.235 -1.5660 -2.2122 -0.1615
 3195TIP3    H2 9550   5.653   1.774   0.314  0.2487  0.5187  1.2105
 3196TIP3   OH2 9551   2.876   6.058   0.041  0.5572  0.1362  0.4051
 3196TIP3    H1 9552   2.897   6.073  -0.051  1.2638 -0.2637  0.4918
 3196TIP3    H2 9553   2.790   6.097   0.053  1.6089  2.6886  0.2348
 3197TIP3   OH2 9554   3.637   2.148   0.919  0.2998 -0.2662 -0.1938
 3197TIP3    H1 9555   3.699   2.102   0.862  0.6032  0.8626 -0.8163
 3197TIP3    H2 9556   3.556   2.153   0.869 -0.7591 -2.8220  1.0973
 3198TIP3   OH2 9557   3.461   2.744   1.047 -0.1940  0.2193 -0.4408
 3198TIP3    H1 9558   3.422   2.824   1.082 -0.5526  0.1456 -0.6629
 3198TIP3    H2 9559   3.527   2.719   1.112  0.7791  1.3651 -0.9650
 3199TIP3   OH2 9560   0.141   2.853   1.717  0.7271 -0.5814  0.0535
 3199TIP3    H1 9561   0.148   2.872   1.810 -0.4999 -1.5946  0.3697
 3199TIP3    H2 9562   0.049   2.829   1.703  0.9665 -0.8094 -1.3424
 3200TIP3   OH2 9563   1.447   0.487   2.706  0.2032  0.8232  0.2463
 3200TIP3    H1 9564   1.480   0.567   2.745 -1.8361  1.4400  0.8374
 3200TIP3    H2 9565   1.388   0.516   2.636 -0.5286 -0.1460  0.4329
 3201TIP3   OH2 9566   3.384   1.919   3.455 -0.3943 -0.6749  0.2514
 3201TIP3    H1 9567   3.409   1.899   3.365  0.1982  1.9983 -0.2726
 3201TIP3    H2 9568   3.446   1.869   3.509  0.5183 -0.8010 -0.8699
 3202TIP3   OH2 9569   2.919   3.785   5.135  0.1358 -0.0765 -0.7250
 3202TIP3    H1 9570   2.994   3.806   5.191 -0.7982  0.9102  0.1910
 3202TIP3    H2 9571   2.875   3.869   5.122 -1.5974 -0.8451 -0.0858
 3203TIP3   OH2 9572   3.050   0.182   5.648 -0.1333 -0.2308  0.1918
 3203TIP3    H1 9573   3.025   0.090   5.657 -0.0847 -0.1443  1.2465
 3203TIP3    H2 9574   3.064   0.193   5.554  0.5427 -1.4755  0.1258
 3204TIP3   OH2 9575   6.914   1.894   4.784 -0.5850 -0.0541 -0.6304
 3204TIP3    H1 9576   6.857   1.829   4.825  0.6101 -0.3915  0.5930
 3204TIP3    H2 9577   6.982   1.911   4.850  1.0528 -0.1215 -2.2099
 3205TIP3   OH2 9578   3.234   2.512   0.736 -0.6991  0.4159  0.0531
 3205TIP3    H1 9579   3.199   2.552   0.656 -1.6709  3.3178  1.7826
 3205TIP3    H2 9580   3.162   2.516   0.798 -0.3040 -2.7631  0.8452
 3206TIP3   OH2 9581   0.814   4.287   3.012  0.2672  0.1305 -0.1970
 3206TIP3    H1 9582   0.890   4.230   3.004  0.3406  0.2040 -0.0368
 3206TIP3    H2 9583   0.788   4.305   2.921 -1.4990 -2.4407 -0.2883
 3207TIP3   OH2 9584   6.308   4.497   0.316  0.1538  0.2002 -0.2917
 3207TIP3    H1 9585   6.214   4.479   0.311  0.4732 -1.2561 -2.0975
 3207TIP3    H2 9586   6.332   4.471   0.405 -0.5779 -2.8094 -0.8434
 3208TIP3   OH2 9587   5.919   1.216   0.347  0.1919 -0.3640 -0.4534
 3208TIP3    H1 9588   5.970   1.202   0.427  0.8836 -2.0784 -1.1553
 3208TIP3    H2 9589   5.876   1.301   0.361  2.9521  1.0475  0.3314
 3209TIP3   OH2 9590   2.556   6.445   4.664 -0.2164 -0.9545  0.1238
 3209TIP3    H1 9591   2.546   6.493   4.746 -1.5970  0.2525 -0.7146
 3209TIP3    H2 9592   2.637   6.480   4.626 -0.7366  0.0870 -0.0584
 3210TIP3   OH2 9593   1.978   5.534   5.139  0.4018  0.4728  0.0938
 3210TIP3    H1 9594   2.041   5.606   5.141  1.2493 -0.2511  0.1530
 3210TIP3    H2 9595   1.901   5.571   5.096  0.5846  1.5909  0.6810
 3211TIP3   OH2 9596   6.241   2.389   2.452  0.1144 -0.1193 -0.1252
 3211TIP3    H1 9597   6.256   2.295   2.465 -0.9364 -0.2559  0.2477
 3211TIP3    H2 9598   6.328   2.426   2.440  0.6396 -0.9847  0.8224
 3212TIP3   OH2 9599   4.134   3.383   0.107  0.6546  0.4159  0.8722
 3212TIP3    H1 9600   4.225   3.375   0.078  0.1557 -1.2790 -0.4421
 3212TIP3    H2 9601   4.117   3.300   0.151 -0.2179  0.7943  1.2587
 3213TIP3   OH2 9602   0.658   0.613   2.416 -0.6707  0.0241  0.1313
 3213TIP3    H1 9603   0.718   0.541   2.392  0.3755  1.5738 -2.3030
 3213TIP3    H2 9604   0.716   0.683   2.444 -1.4417  0.9330 -0.5027
 3214TIP3   OH2 9605   7.177   1.859   2.356 -0.0613  0.0345  0.1754
 3214TIP3    H1 9606   7.126   1.778   2.353 -3.6329  2.0494  0.1382
 3214TIP3    H2 9607   7.243   1.849   2.288 -1.3378 -2.2656 -0.8319
 3215TIP3   OH2 9608   3.869   4.528   1.617  0.8804  0.3646  0.6821
 3215TIP3    H1 9609   3.855   4.455   1.677 -0.5278 -1.9485 -2.2272
 3215TIP3    H2 9610   3.963   4.530   1.603  1.1010  0.1819  1.9910
 3216TIP3   OH2 9611   4.494   0.926   2.069  0.0951 -0.2950 -0.5428
 3216TIP3    H1 9612   4.435   1.000   2.078 -1.0697 -0.9645 -2.2117
 3216TIP3    H2 9613   4.511   0.920   1.975  0.7938 -1.6683 -0.3597
 3217TIP3   OH2 9614   3.535   0.822   5.497  0.9426  0.7388  0.2041
 3217TIP3    H1 9615   3.485   0.749   5.534  0.1275  1.5312  0.6900
 3217TIP3    H2 9616   3.568   0.788   5.414  1.9663 -0.7456  1.1558
 3218TIP3   OH2 9617   0.550   4.197   0.831  0.3219  0.1966  0.2104
 3218TIP3    H1 9618   0.496   4.163   0.760  0.1503 -1.2658  1.0009
 3218TIP3    H2 9619   0.489   4.244   0.887  0.1715 -0.0005  0.2129
 3219TIP3   OH2 9620   2.280   1.108   2.687 -0.5852  0.2961 -0.8639
 3219TIP3    H1 9621   2.238   1.052   2.753  2.7345 -1.3992  0.0288
 3219TIP3    H2 9622   2.270   1.197   2.720  0.0186 -0.4234  1.4169
 3220TIP3   OH2 9623   3.597   1.053   2.081  0.5070  0.2321  0.1502
 3220TIP3    H1 9624   3.614   0.963   2.054 -0.2964 -0.2934  1.3220
 3220TIP3    H2 9625   3.611   1.053   2.176 -0.0239  1.2100  0.2410
 3221TIP3   OH2 9626   3.836   3.345   5.592  0.1714 -0.3534  0.1964
 3221TIP3    H1 9627   3.812   3.422   5.540  2.7184 -0.3957 -1.1871
 3221TIP3    H2 9628   3.811   3.271   5.537 -0.1848 -0.4781  0.5235
 3222TIP3   OH2 9629   2.592   1.023   1.238 -0.1873  0.3929 -0.3017
 3222TIP3    H1 9630   2.649   1.096   1.214  0.3197 -0.2698 -1.1744
 3222TIP3    H2 9631   2.611   1.007   1.330  0.1094  0.9947 -0.2534
 3223TIP3   OH2 9632   2.909   2.087   3.992 -0.3251  0.0619 -0.4022
 3223TIP3    H1 9633   2.846   2.097   4.063  0.5784  0.5010  0.3524
 3223TIP3    H2 9634   2.952   2.172   3.985 -0.1064 -0.1048 -1.1919
 3224TIP3   OH2 9635   2.997   0.736   4.286 -0.1985  0.5381 -0.5569
 3224TIP3    H1 9636   2.998   0.787   4.367  2.1827 -0.3422  0.0365
 3224TIP3    H2 9637   3.042   0.654   4.308 -0.3069 -0.1206 -2.5390
 3225TIP3   OH2 9638   3.922   2.085   3.321 -0.1324  0.3810 -0.4014
 3225TIP3    H1 9639   3.835   2.091   3.283  0.2707 -0.3735 -1.5018
 3225TIP3    H2 9640   3.930   2.163   3.376 -1.4838  0.4592 -0.2875
 3226TIP3   OH2 9641   3.078   4.793   0.475 -0.1054 -0.1446 -0.5709
 3226TIP3    H1 9642   3.121   4.713   0.445 -2.1701 -1.4122 -0.3508
 3226TIP3    H2 9643   3.018   4.816   0.403 -2.1775 -0.9254  0.8231
 3227TIP3   OH2 9644   4.595   1.895   2.249 -0.3270 -0.5024  0.1548
 3227TIP3    H1 9645   4.662   1.919   2.314 -0.9103 -0.9806  0.9455
 3227TIP3    H2 9646   4.641   1.898   2.165  0.0398  1.7751  0.3695
 3228TIP3   OH2 9647   3.588   0.095   2.699  0.2020  0.0943  0.1567
 3228TIP3    H1 9648   3.556   0.039   2.770 -0.4838  0.6539  0.3023
 3228TIP3    H2 9649   3.508   0.133   2.662  0.7323  1.9781  0.8776
 3229TIP3   OH2 9650   0.849   6.604   0.835  0.3474 -0.3794 -0.6349
 3229TIP3    H1 9651   0.815   6.555   0.760  0.3316  0.1487 -0.9796
 3229TIP3    H2 9652   0.920   6.550   0.870  0.6119 -0.4430 -1.2693
 3230TIP3   OH2 9653   0.948   3.542   1.250  0.2213  0.6806 -0.0960
 3230TIP3    H1 9654   0.940   3.580   1.337  0.9258 -1.7933  1.1401
 3230TIP3    H2 9655   1.005   3.602   1.202  0.8391  1.4576  1.5416
 3231TIP3   OH2 9656   2.444   6.463   5.256  0.3245  0.1112 -0.1777
 3231TIP3    H1 9657   2.416   6.500   5.340 -1.5317 -2.9472  0.6955
 3231TIP3    H2 9658   2.367   6.465   5.201  0.2397 -1.9295 -0.2202
 3232TIP3   OH2 9659   6.190   0.142   0.616 -0.2771  0.1550 -0.9238
 3232TIP3    H1 9660   6.219   0.233   0.602  0.4529  0.1063  0.1499
 3232TIP3    H2 9661   6.267   0.098   0.653  0.1990 -1.5547 -3.6640
 3233TIP3   OH2 9662   2.431   2.733   0.677 -0.3084 -0.0449  0.6497
 3233TIP3    H1 9663   2.343   2.739   0.641 -1.5765 -2.2126  3.0016
 3233TIP3    H2 9664   2.488   2.725   0.601 -2.1252  1.2209 -0.9486
 3234TIP3   OH2 9665   1.756   6.237   3.179  0.0755 -0.1666  0.1235
 3234TIP3    H1 9666   1.790   6.161   3.226  1.1188 -0.3721 -0.8928
 3234TIP3    H2 9667   1.789   6.226   3.090  0.0862  1.3706 -0.0935
 3235TIP3   OH2 9668   4.535   4.126   1.221  0.0295 -0.1931  0.1192
 3235TIP3    H1 9669   4.465   4.186   1.247 -0.8346 -1.3454  0.5494
 3235TIP3    H2 9670   4.573   4.096   1.304 -0.4404 -1.2429 -0.0244
 3236TIP3   OH2 9671   5.020   3.015   4.355 -0.3259  0.1865 -0.2483
 3236TIP3    H1 9672   4.990   2.950   4.291 -0.8156  0.4953 -0.3317
 3236TIP3    H2 9673   4.940   3.054   4.390 -0.0286  1.0606 -0.5173
 3237TIP3   OH2 9674   6.460   4.647   0.171  0.2298 -0.2091 -0.4446
 3237TIP3    H1 9675   6.409   4.576   0.210  1.5126 -1.6441 -1.2420
 3237TIP3    H2 9676   6.402   4.686   0.106 -0.7134 -0.0938  0.4517
 3238TIP3   OH2 9677   2.437   4.105   2.416 -0.0956 -0.1991 -0.1021
 3238TIP3    H1 9678   2.431   4.189   2.462 -0.4540 -0.0332 -0.4432
 3238TIP3    H2 9679   2.458   4.042   2.484  3.8703  0.6370 -0.3034
 3239TIP3   OH2 9680   4.579   5.021   3.687  0.2625 -0.1550 -0.1089
 3239TIP3    H1 9681   4.597   5.039   3.779 -0.8885  0.7050 -0.0340
 3239TIP3    H2 9682   4.511   4.954   3.689  1.9424 -1.9810 -0.3829
 3240TIP3   OH2 9683   4.361   6.421   5.090 -0.0432  0.2302  0.1339
 3240TIP3    H1 9684   4.351   6.475   5.168 -0.4757 -0.0016  0.2389
 3240TIP3    H2 9685   4.456   6.408   5.082 -0.0152  0.0018  0.7967
 3241TIP3   OH2 9686   3.150   6.298   3.530  0.4671 -0.3824  0.8605
 3241TIP3    H1 9687   3.208   6.227   3.504 -1.0174 -0.8727 -1.3816
 3241TIP3    H2 9688   3.152   6.359   3.456  0.4957  1.1841  2.0763
 3242TIP3   OH2 9689   3.220   1.715   2.745 -0.2412 -0.0250 -0.8826
 3242TIP3    H1 9690   3.298   1.768   2.765 -1.0340  1.2739 -1.1096
 3242TIP3    H2 9691   3.151   1.751   2.801 -0.3077 -2.3177  0.6264
 3243TIP3   OH2 9692   4.545   1.333   0.305  0.2928 -0.2658 -0.2679
 3243TIP3    H1 9693   4.598   1.367   0.377  0.0670 -0.9906  0.2493
 3243TIP3    H2 9694   4.455   1.336   0.338  0.0702  0.3098 -0.8857
 3244TIP3   OH2 9695   6.702   1.644   4.350  0.4224 -0.6148 -0.2778
 3244TIP3    H1 9696   6.718   1.667   4.441  0.9643 -0.0472 -0.5032
 3244TIP3    H2 9697   6.746   1.559   4.338  1.5095 -0.0608 -0.3412
 3245TIP3   OH2 9698   7.062   5.486   3.711  0.4376 -0.2340 -0.2095
 3245TIP3    H1 9699   7.090   5.517   3.625  0.1993 -1.9082 -0.9297
 3245TIP3    H2 9700   6.973   5.522   3.722 -0.0549 -1.0948 -1.2629
 3246TIP3   OH2 9701   3.274   0.448   5.460  0.5850  0.2244 -0.0340
 3246TIP3    H1 9702   3.326   0.491   5.528 -0.4153  0.4067  0.6300
 3246TIP3    H2 9703   3.322   0.367   5.442  1.3232  0.5804  0.2607
 3247TIP3   OH2 9704   1.671   1.941   4.863 -0.4989 -0.1645 -0.0554
 3247TIP3    H1 9705   1.630   2.006   4.922 -2.0161 -1.6679  0.6319
 3247TIP3    H2 9706   1.689   1.866   4.919  0.6349 -0.5999 -0.9717
 3248TIP3   OH2 9707   3.520   2.512   2.394  0.5980 -0.0486 -0.2971
 3248TIP3    H1 9708   3.569   2.438   2.360  1.4034  0.7790 -0.9781
 3248TIP3    H2 9709   3.580   2.586   2.388  0.0389  0.5484  0.9768
 3249TIP3   OH2 9710   2.864   3.640   2.450 -0.8344  0.4646  0.5855
 3249TIP3    H1 9711   2.802   3.571   2.429  0.0301  0.0002 -0.5487
 3249TIP3    H2 9712   2.826   3.719   2.411 -0.0652 -0.0851 -1.4386
 3250TIP3   OH2 9713   5.962   4.656   3.033  0.0382 -0.2844  0.1933
 3250TIP3    H1 9714   6.021   4.606   3.089  0.1121 -1.0545 -0.5605
 3250TIP3    H2 9715   5.911   4.590   2.987 -1.7598  0.3577  1.1600
 3251TIP3   OH2 9716   3.420   4.067   5.192  0.3797  0.6875  0.0854
 3251TIP3    H1 9717   3.409   4.025   5.278  1.1846  0.0627 -0.1051
 3251TIP3    H2 9718   3.334   4.058   5.150  0.6017 -1.0908 -0.0665
 3252TIP3   OH2 9719   0.471   5.266   0.222 -0.1505 -0.0050 -0.6139
 3252TIP3    H1 9720   0.478   5.335   0.156 -0.0873  1.2514  0.6402
 3252TIP3    H2 9721   0.387   5.225   0.205 -0.8186  1.2846 -0.6022
 3253TIP3   OH2 9722   1.666   3.690   3.391 -0.3070  0.1441  0.2942
 3253TIP3    H1 9723   1.647   3.737   3.310 -0.3197 -1.0120 -0.3912
 3253TIP3    H2 9724   1.580   3.663   3.424 -0.2767  0.3413  0.5478
 3254TIP3   OH2 9725   5.833   1.745   1.686  0.0318  0.1694 -0.0505
 3254TIP3    H1 9726   5.834   1.838   1.664 -0.6658 -0.1038 -1.3255
 3254TIP3    H2 9727   5.752   1.733   1.736 -0.2486  0.1258 -0.5070
 3255TIP3   OH2 9728   4.992   4.387   2.282 -0.4756 -0.3763 -0.0769
 3255TIP3    H1 9729   4.929   4.419   2.346 -0.1695  0.6528 -0.2794
 3255TIP3    H2 9730   5.069   4.362   2.334 -0.2844  0.3154 -0.0211
 3256TIP3   OH2 9731   1.935   6.640   5.124 -0.4296 -0.3487  0.1686
 3256TIP3    H1 9732   1.865   6.642   5.058  0.6479 -1.2774 -1.0445
 3256TIP3    H2 9733   2.011   6.678   5.081  0.9020 -2.8911  0.0704
 3257TIP3   OH2 9734   2.437   2.879   4.705 -0.4022  0.0368 -0.1577
 3257TIP3    H1 9735   2.521   2.924   4.715 -0.6327  0.5639 -0.5016
 3257TIP3    H2 9736   2.457   2.787   4.718  0.1394  0.2083  0.2656
 3258TIP3   OH2 9737   1.542   5.399   3.957 -0.3094 -0.0638 -0.0588
 3258TIP3    H1 9738   1.636   5.384   3.945 -0.4680  0.7710 -3.6389
 3258TIP3    H2 9739   1.536   5.490   3.988  0.0308 -0.7153  2.0968
 3259TIP3   OH2 9740   1.694   3.979   2.244 -0.5015  0.6472 -0.0005
 3259TIP3    H1 9741   1.731   4.066   2.261 -0.4425  0.7099 -0.4411
 3259TIP3    H2 9742   1.678   3.943   2.331  0.9893  0.4359  0.2121
 3260TIP3   OH2 9743   4.127   1.817   0.701  0.4715  0.3051  0.4376
 3260TIP3    H1 9744   4.198   1.782   0.754  0.5416 -0.9212 -0.4009
 3260TIP3    H2 9745   4.150   1.791   0.611 -2.2621 -2.4737  0.3738
 3261TIP3   OH2 9746   1.536   6.356   2.394 -0.4821 -0.1729 -0.1657
 3261TIP3    H1 9747   1.471   6.305   2.442  0.9333  0.1047  2.1670
 3261TIP3    H2 9748   1.506   6.447   2.401 -0.1819 -0.1130  0.3640
 3262TIP3   OH2 9749   4.128   1.146   2.659 -0.6924 -0.2769 -0.0393
 3262TIP3    H1 9750   4.110   1.190   2.742  2.8910  1.5662 -0.0490
 3262TIP3    H2 9751   4.208   1.097   2.675 -1.1142 -1.6699 -1.8629
 3263TIP3   OH2 9752   6.318   0.489   0.799 -0.4382  0.5222  0.1436
 3263TIP3    H1 9753   6.342   0.468   0.889 -0.3701  1.6183  0.4011
 3263TIP3    H2 9754   6.224   0.504   0.802 -0.4798  0.2794 -0.0173
 3264TIP3   OH2 9755   1.316   0.249   2.399 -0.2346  0.0258 -0.0898
 3264TIP3    H1 9756   1.379   0.294   2.343  1.7593 -0.2047  1.8426
 3264TIP3    H2 9757   1.246   0.223   2.340  1.5566  0.1461 -2.4124
 3265TIP3   OH2 9758   4.085   3.125   3.915  0.1229 -0.2175 -0.4303
 3265TIP3    H1 9759   4.139   3.200   3.890 -1.3989  0.0741 -3.2041
 3265TIP3    H2 9760   4.148   3.052   3.921  1.2692  0.7552 -0.0831
 3266TIP3   OH2 9761   1.044   4.994   5.082  0.3036  0.0267  0.0134
 3266TIP3    H1 9762   1.005   5.070   5.126  1.9891  0.4448  0.9021
 3266TIP3    H2 9763   0.975   4.929   5.080 -1.2942  1.6637 -1.0164
 3267TIP3   OH2 9764   7.190   3.421   5.103 -0.3068  0.2599 -0.5753
 3267TIP3    H1 9765   7.104   3.393   5.075  0.4053 -2.0228 -0.6794
 3267TIP3    H2 9766   7.173   3.478   5.178 -1.8969 -0.8684 -0.0134
 3268TIP3   OH2 9767   2.040   3.812   2.364  0.1814 -0.5081  0.1651
 3268TIP3    H1 9768   2.134   3.805   2.348 -0.0287 -1.3774 -0.8640
 3268TIP3    H2 9769   2.004   3.730   2.328 -1.1328  0.4726 -0.8460
 3269TIP3   OH2 9770   0.285   3.648   1.612  0.2606 -0.4487  0.8578
 3269TIP3    H1 9771   0.212   3.658   1.674  0.2453  0.8594  0.6675
 3269TIP3    H2 9772   0.253   3.690   1.532  0.5344 -1.5390  0.1763
 3270TIP3   OH2 9773   4.829   0.622   2.912  0.3528 -0.0133 -0.2596
 3270TIP3    H1 9774   4.915   0.609   2.951  0.4053  1.2330  0.1018
 3270TIP3    H2 9775   4.839   0.703   2.861  0.1548 -1.3048 -2.4651
 3271TIP3   OH2 9776   4.129   4.727   2.871 -0.4140  0.0051 -0.7565
 3271TIP3    H1 9777   4.162   4.773   2.949  0.0325 -0.1535 -0.8501
 3271TIP3    H2 9778   4.037   4.710   2.891 -0.5997  0.9493 -0.7235
 3272TIP3   OH2 9779   4.365   2.343   3.949 -0.1824  0.6012 -0.2374
 3272TIP3    H1 9780   4.287   2.394   3.971  0.3768  1.0487  0.7935
 3272TIP3    H2 9781   4.402   2.318   4.034 -1.4379 -3.1843 -0.5835
 3273TIP3   OH2 9782   5.331   4.290   0.081  0.5621  0.0551  0.4365
 3273TIP3    H1 9783   5.408   4.336   0.047  1.4776 -0.8394  1.2612
 3273TIP3    H2 9784   5.312   4.223   0.015 -0.2303  0.9911 -0.3252
 3274TIP3   OH2 9785   4.127   1.422   1.838  0.5753 -0.1950 -0.5824
 3274TIP3    H1 9786   4.172   1.339   1.822 -1.4552 -1.2250 -1.3555
 3274TIP3    H2 9787   4.135   1.470   1.756  0.3882 -0.3191 -0.6739
 3275TIP3   OH2 9788   6.123   1.521   3.303 -0.2453 -0.2115  0.1888
 3275TIP3    H1 9789   6.028   1.524   3.290 -0.5436 -0.3472  2.1025
 3275TIP3    H2 9790   6.149   1.612   3.313 -0.3403 -0.2368  0.6866
 3276TIP3   OH2 9791   6.149   3.547   4.616  0.2263  0.2001 -0.2593
 3276TIP3    H1 9792   6.068   3.497   4.619 -1.5048  2.4180 -3.5108
 3276TIP3    H2 9793   6.157   3.587   4.702 -2.0131 -0.2969  0.2236
 3277TIP3   OH2 9794   3.079   5.266   0.915 -0.3800 -0.1684  0.4091
 3277TIP3    H1 9795   3.032   5.188   0.884  1.2484 -0.2532 -2.1985
 3277TIP3    H2 9796   3.169   5.237   0.927 -0.1007  0.9383  1.1275
 3278TIP3   OH2 9797   1.579   2.911   4.686  0.6967  1.0407 -0.2502
 3278TIP3    H1 9798   1.502   2.857   4.705  0.7750  1.6497  2.0692
 3278TIP3    H2 9799   1.645   2.881   4.748  0.7392  3.7816  1.1511
 3279TIP3   OH2 9800   2.252   1.761   5.429 -0.1371 -0.1470 -0.7684
 3279TIP3    H1 9801   2.266   1.751   5.335  0.5504 -0.3264 -0.6496
 3279TIP3    H2 9802   2.331   1.726   5.470 -0.6352 -0.5253 -0.0971
 3280TIP3   OH2 9803   5.097   4.623   3.815 -0.3468  0.0368  0.1763
 3280TIP3    H1 9804   5.050   4.702   3.790 -1.4536 -0.3174  1.0675
 3280TIP3    H2 9805   5.182   4.631   3.771 -1.6295  0.1009 -2.4818
 3281TIP3   OH2 9806   4.875   3.046   1.950 -0.3002  0.5263 -0.0316
 3281TIP3    H1 9807   4.865   2.986   2.024  0.6942 -0.7076 -0.8466
 3281TIP3    H2 9808   4.791   3.091   1.944 -0.7763 -0.1616  1.1560
 3282TIP3   OH2 9809   5.662   1.468   2.758  0.3148 -0.1362  0.2294
 3282TIP3    H1 9810   5.725   1.478   2.830 -0.6316  0.9835  0.9628
 3282TIP3    H2 9811   5.582   1.509   2.792 -0.7581 -1.3589 -0.7367
 3283TIP3   OH2 9812   0.606   1.195   1.330 -0.0386 -0.0101 -0.4961
 3283TIP3    H1 9813   0.609   1.178   1.424  1.3802  0.9030 -0.3535
 3283TIP3    H2 9814   0.516   1.174   1.305 -0.4959 -0.0544  1.0959
 3284TIP3   OH2 9815   2.231   5.379   1.374  0.4053  0.0523 -0.2506
 3284TIP3    H1 9816   2.253   5.315   1.306  0.2041 -0.3998  0.1085
 3284TIP3    H2 9817   2.315   5.414   1.402  0.6937 -1.5329  0.9887
 3285TIP3   OH2 9818   0.519   4.393   5.231 -0.1078  0.4276 -0.8028
 3285TIP3    H1 9819   0.598   4.365   5.276 -0.4141  1.9533  0.7932
 3285TIP3    H2 9820   0.547   4.466   5.175 -0.0754 -0.2484 -1.6983
 3286TIP3   OH2 9821   5.075   1.577   1.322  0.1243  0.5427 -0.0256
 3286TIP3    H1 9822   5.015   1.638   1.364 -0.4020  1.0917 -1.4980
 3286TIP3    H2 9823   5.140   1.558   1.389 -1.3197  0.4328  1.4027
 3287TIP3   OH2 9824   1.739   3.944   5.555 -0.1047  0.4592 -0.0091
 3287TIP3    H1 9825   1.766   4.036   5.558  0.1722  0.3591  0.7083
 3287TIP3    H2 9826   1.818   3.896   5.532 -0.5926  0.5291 -1.9700
 3288TIP3   OH2 9827   2.441   3.418   1.472 -0.2096 -0.1754  0.5558
 3288TIP3    H1 9828   2.496   3.496   1.467 -1.9005  0.9945 -2.3545
 3288TIP3    H2 9829   2.375   3.440   1.537  0.6091 -0.1382  1.4017
 3289TIP3   OH2 9830   6.284   5.935   4.839 -0.4039 -0.2014 -0.5807
 3289TIP3    H1 9831   6.373   5.969   4.841  0.4065 -2.1454  2.3323
 3289TIP3    H2 9832   6.234   5.994   4.894 -0.7888  0.4560 -1.6051
 3290TIP3   OH2 9833   4.477   2.138   5.101  0.2460  0.0952 -0.6756
 3290TIP3    H1 9834   4.495   2.051   5.137  1.5241 -0.0388 -1.5813
 3290TIP3    H2 9835   4.556   2.188   5.117  0.2853  0.4786 -1.9419
 3291TIP3   OH2 9836   3.313   6.217   0.205 -0.1676  0.3571 -0.2604
 3291TIP3    H1 9837   3.354   6.139   0.240 -0.0382 -0.2963 -1.7907
 3291TIP3    H2 9838   3.353   6.290   0.254 -0.0333 -0.4876  0.9267
 3292TIP3   OH2 9839   3.013   4.014   4.498  0.0534  0.3632  0.2449
 3292TIP3    H1 9840   2.966   3.991   4.417  1.1368  0.4430 -0.4285
 3292TIP3    H2 9841   3.102   4.035   4.469  0.0733  1.8753  1.2805
 3293TIP3   OH2 9842   5.191   4.470   1.700  0.3204 -0.2499 -0.6365
 3293TIP3    H1 9843   5.240   4.402   1.653  1.2045  1.6175 -2.5568
 3293TIP3    H2 9844   5.258   4.520   1.747 -0.4824 -1.6350  2.2042
 3294TIP3   OH2 9845   5.659   2.894   2.526 -0.3273  0.1960 -0.5356
 3294TIP3    H1 9846   5.584   2.893   2.586 -0.6583  0.0605 -0.9496
 3294TIP3    H2 9847   5.639   2.965   2.465  0.5034  1.0426  0.1301
 3295TIP3   OH2 9848   1.142   4.908   0.798 -0.1853 -0.9457  0.2797
 3295TIP3    H1 9849   1.109   4.895   0.709 -1.0149 -0.2510  0.4719
 3295TIP3    H2 9850   1.076   4.866   0.854  1.4333 -3.4041  0.5133
 3296TIP3   OH2 9851   6.710   3.888   1.055 -0.1812 -0.3350 -0.4111
 3296TIP3    H1 9852   6.797   3.919   1.030 -0.6582  0.0827 -1.6493
 3296TIP3    H2 9853   6.696   3.925   1.142  1.1529 -1.0129  0.1264
 3297TIP3   OH2 9854   1.250   5.206   3.791  0.2969  0.1073 -0.2202
 3297TIP3    H1 9855   1.174   5.165   3.750  0.6182  0.9300 -1.7079
 3297TIP3    H2 9856   1.224   5.220   3.882 -0.6227 -1.3432 -0.2268
 3298TIP3   OH2 9857   0.544   3.747   5.676  0.1918 -0.4910 -0.2197
 3298TIP3    H1 9858   0.567   3.654   5.684  0.2302 -0.5595 -1.0375
 3298TIP3    H2 9859   0.491   3.765   5.754  0.1387 -1.2105 -0.0795
 3299TIP3   OH2 9860   0.175   1.088   3.980 -0.5051 -0.2489 -0.1142
 3299TIP3    H1 9861   0.240   1.157   3.969 -0.4752 -0.3966 -0.9222
 3299TIP3    H2 9862   0.148   1.065   3.891 -0.9339 -0.8802  0.1657
 3300TIP3   OH2 9863   2.908   3.571   3.330  0.3949 -0.0679 -0.4590
 3300TIP3    H1 9864   2.927   3.642   3.392  0.8797  2.1318 -2.9414
 3300TIP3    H2 9865   2.988   3.562   3.279 -0.6426 -0.3389 -2.1113
 3301TIP3   OH2 9866   0.994   2.884   1.690 -0.2566 -0.0954 -0.5365
 3301TIP3    H1 9867   1.084   2.854   1.677 -0.2507  0.1494 -1.0942
 3301TIP3    H2 9868   1.002   2.979   1.703 -0.4096 -0.1139 -0.2945
 3302TIP3   OH2 9869   4.361   2.530   4.883  0.2866 -0.2946 -0.2374
 3302TIP3    H1 9870   4.323   2.512   4.797 -0.8584 -0.0339  0.1962
 3302TIP3    H2 9871   4.393   2.620   4.876 -2.0754  0.6445  0.3577
 3303TIP3   OH2 9872   5.420   0.549   1.714  0.2840  0.3684  0.0225
 3303TIP3    H1 9873   5.345   0.532   1.657  0.9655 -0.8093 -0.5582
 3303TIP3    H2 9874   5.383   0.597   1.788 -1.4631 -1.9803  0.8065
 3304TIP3   OH2 9875   3.128   0.766   2.933 -0.0717  0.1967 -0.2634
 3304TIP3    H1 9876   3.221   0.765   2.912  0.0812 -1.1691  0.3505
 3304TIP3    H2 9877   3.117   0.840   2.992  0.4025  1.0465 -1.2135
 3305TIP3   OH2 9878   6.004   4.773   2.658 -0.1139 -0.0035  0.3174
 3305TIP3    H1 9879   5.979   4.758   2.566  1.5544 -1.4223  0.0202
 3305TIP3    H2 9880   5.941   4.837   2.690 -0.5795  0.7472 -1.9015
 3306TIP3   OH2 9881   4.620   1.926   0.910 -0.0395 -0.6512 -0.3781
 3306TIP3    H1 9882   4.700   1.975   0.892  0.1569 -0.8033  0.0427
 3306TIP3    H2 9883   4.592   1.893   0.825 -0.3464  0.4361 -0.7194
 3307TIP3   OH2 9884   0.645   5.347   4.304  0.4936  0.0849  0.5823
 3307TIP3    H1 9885   0.713   5.290   4.341  0.7203  1.2623  2.1076
 3307TIP3    H2 9886   0.563   5.306   4.331  0.6401 -0.1787  0.6334
 3308TIP3   OH2 9887   7.186   0.834   0.131 -0.4698  0.2151 -0.4773
 3308TIP3    H1 9888   7.235   0.762   0.093 -1.1883  0.4541 -1.9053
 3308TIP3    H2 9889   7.094   0.810   0.119 -0.7420  0.1303  1.4744
 3309TIP3   OH2 9890   0.196   2.756   5.094  0.3972 -0.1867  0.1924
 3309TIP3    H1 9891   0.239   2.822   5.149 -0.3388  0.4308  0.0554
 3309TIP3    H2 9892   0.103   2.766   5.115  0.1512 -0.2440 -0.8513
 3310TIP3   OH2 9893   0.898   4.760   4.228  0.0485 -0.0886 -0.4074
 3310TIP3    H1 9894   0.819   4.793   4.185 -0.5453 -0.1888  0.5825
 3310TIP3    H2 9895   0.889   4.787   4.319  1.5966  0.7084 -0.4429
 3311TIP3   OH2 9896   1.629   0.863   1.716  0.3466 -0.3328 -0.4810
 3311TIP3    H1 9897   1.543   0.828   1.691  0.2484  0.0553 -0.6901
 3311TIP3    H2 9898   1.658   0.913   1.640  1.1211 -1.1111 -0.7183
 3312TIP3   OH2 9899   5.548   2.164   3.259 -0.3570  0.2117  0.2285
 3312TIP3    H1 9900   5.485   2.145   3.190 -0.2933 -0.7316  0.4137
 3312TIP3    H2 9901   5.497   2.206   3.328 -0.8160 -0.6059  0.4065
 3313TIP3   OH2 9902   0.526   6.138   3.362  0.1546  0.5274 -0.0687
 3313TIP3    H1 9903   0.563   6.106   3.444  0.6819 -0.2005 -0.5846
 3313TIP3    H2 9904   0.558   6.078   3.296  0.0032  1.3080 -0.8656
 3314TIP3   OH2 9905   5.547   2.355   4.308  0.4575 -0.1123 -0.1162
 3314TIP3    H1 9906   5.530   2.440   4.268 -0.6968  1.2367  2.9527
 3314TIP3    H2 9907   5.601   2.374   4.385 -0.5155 -2.0102  1.1305
 3315TIP3   OH2 9908   5.716   5.529   2.295  0.2853  0.5776  0.0977
 3315TIP3    H1 9909   5.710   5.528   2.391  0.7026  1.0076  0.1348
 3315TIP3    H2 9910   5.785   5.593   2.276  0.7339 -0.0613 -0.4722
 3316TIP3   OH2 9911   3.666   0.782   0.067  0.8423 -0.0036  0.3796
 3316TIP3    H1 9912   3.730   0.723   0.108 -0.0034  0.2273  2.1176
 3316TIP3    H2 9913   3.582   0.753   0.101 -0.1975 -1.0047 -2.7048
 3317TIP3   OH2 9914   3.519   3.110   1.592  0.5047  0.7429 -0.6028
 3317TIP3    H1 9915   3.522   3.138   1.684 -1.5367  1.4826 -0.7213
 3317TIP3    H2 9916   3.568   3.178   1.546  1.5546  0.3632 -0.0935
 3318TIP3   OH2 9917   0.818   3.614   3.430  0.5393 -0.2971 -0.3057
 3318TIP3    H1 9918   0.788   3.534   3.387  0.9044  0.0540 -1.2411
 3318TIP3    H2 9919   0.753   3.631   3.497 -0.2969 -0.6227 -1.0139
 3319TIP3   OH2 9920   6.096   0.199   5.744  0.3711 -0.0629  0.3486
 3319TIP3    H1 9921   6.033   0.139   5.706 -1.1589  1.9478 -0.4440
 3319TIP3    H2 9922   6.057   0.225   5.828  0.7214  0.2553  0.4183
 3320TIP3   OH2 9923   2.819   5.472   2.718 -0.2785  0.1825  0.5723
 3320TIP3    H1 9924   2.841   5.422   2.797 -0.8153  0.4481  0.8967
 3320TIP3    H2 9925   2.748   5.422   2.678  1.8681 -1.5573 -1.3329
 3321TIP3   OH2 9926   0.119   2.283   0.719  0.2958  0.0067 -0.3361
 3321TIP3    H1 9927   0.192   2.344   0.728 -0.9897  1.5251  0.5225
 3321TIP3    H2 9928   0.093   2.290   0.627 -0.0273  1.0487 -0.1843
 3322TIP3   OH2 9929   4.554   0.513   5.488 -0.5576  0.1786 -0.0152
 3322TIP3    H1 9930   4.622   0.579   5.489 -0.5983  0.3104 -1.9496
 3322TIP3    H2 9931   4.601   0.430   5.483 -0.4769  0.2803 -1.6260
 3323TIP3   OH2 9932   1.335   1.013   0.185  0.0129 -0.3728  0.0177
 3323TIP3    H1 9933   1.426   1.040   0.194 -0.4712  0.6013  3.3206
 3323TIP3    H2 9934   1.287   1.094   0.168 -0.3341 -0.7435 -0.7905
 3324TIP3   OH2 9935   6.359   2.160   4.141  0.3419 -0.3468  0.1840
 3324TIP3    H1 9936   6.397   2.246   4.159  0.2134 -0.5729  1.6089
 3324TIP3    H2 9937   6.414   2.098   4.188 -1.9068 -0.6596  2.6538
 3325TIP3   OH2 9938   6.382   4.842   1.671  0.0953  0.1191 -0.2889
 3325TIP3    H1 9939   6.385   4.766   1.729  0.3563  0.9264  0.7925
 3325TIP3    H2 9940   6.288   4.863   1.664  0.0622  0.0095 -0.1685
 3326TIP3   OH2 9941   5.622   2.426   4.556  0.2869 -0.3714  0.0134
 3326TIP3    H1 9942   5.656   2.407   4.644 -0.7817 -0.9782  0.3133
 3326TIP3    H2 9943   5.584   2.514   4.564  0.5497 -0.2595  0.0471
 3327TIP3   OH2 9944   5.015   3.666   5.686 -0.0560 -0.5705  0.2286
 3327TIP3    H1 9945   4.977   3.722   5.618 -0.2617 -0.6974  0.2404
 3327TIP3    H2 9946   4.960   3.588   5.687 -0.6665 -0.1458  1.2307
 3328TIP3   OH2 9947   1.512   2.842   5.669 -0.0270 -0.4379  0.5477
 3328TIP3    H1 9948   1.523   2.768   5.729  0.7882  0.1448  1.1320
 3328TIP3    H2 9949   1.452   2.902   5.714 -0.7552 -0.7604  0.0373
 3329TIP3   OH2 9950   6.603   1.952   5.271 -0.3736 -0.0481  0.2290
 3329TIP3    H1 9951   6.666   1.964   5.200  0.1182 -2.1817  0.2354
 3329TIP3    H2 9952   6.544   2.027   5.264  0.0073  0.0992 -2.0667
 3330TIP3   OH2 9953   6.693   5.249   0.858 -0.0564 -0.0329  0.1662
 3330TIP3    H1 9954   6.660   5.192   0.789  1.0519 -0.1351 -0.3008
 3330TIP3    H2 9955   6.779   5.278   0.826 -0.4359  1.6021  0.5458
 3331TIP3   OH2 9956   0.876   2.676   3.385  0.3147 -0.2071  0.0011
 3331TIP3    H1 9957   0.781   2.675   3.388  0.1932 -0.8507 -2.2720
 3331TIP3    H2 9958   0.901   2.755   3.433 -1.2748 -0.5549  1.4947
 3332TIP3   OH2 9959   4.845   4.212   4.544  0.6166 -0.0491 -0.1215
 3332TIP3    H1 9960   4.750   4.222   4.537  0.4654  0.7340  2.1930
 3332TIP3    H2 9961   4.878   4.230   4.456 -1.3325  0.0988 -0.8722
 3333TIP3   OH2 9962   4.067   2.286   4.135 -0.3213  0.8200  0.3099
 3333TIP3    H1 9963   4.076   2.366   4.083  0.2765  0.2725 -0.4523
 3333TIP3    H2 9964   3.976   2.287   4.164  0.4007  3.3116  2.9104
 3334TIP3   OH2 9965   2.404   1.515   3.644 -0.2339  0.3596 -0.3501
 3334TIP3    H1 9966   2.388   1.530   3.737  1.5281  1.1224 -0.1389
 3334TIP3    H2 9967   2.414   1.602   3.607 -0.6573  0.0493 -1.2148
 3335TIP3   OH2 9968   0.230   3.204   4.636 -0.2929  0.3051  0.2602
 3335TIP3    H1 9969   0.153   3.147   4.638  0.3341 -0.5541  0.6120
 3335TIP3    H2 9970   0.247   3.218   4.543  0.0340 -0.7781  0.1423
 3336TIP3   OH2 9971   7.044   0.698   5.167 -0.1406  0.1890  1.0791
 3336TIP3    H1 9972   6.981   0.627   5.153 -1.6466  1.3625  1.7108
 3336TIP3    H2 9973   7.069   0.691   5.259  1.6162 -0.9914  0.5644
 3337TIP3   OH2 9974   4.185   2.872   0.889  0.2434 -0.1904  0.3437
 3337TIP3    H1 9975   4.231   2.841   0.967  0.7306  1.6516  0.8463
 3337TIP3    H2 9976   4.092   2.857   0.908  0.3853 -0.1668  1.0912
 3338TIP3   OH2 9977   1.480   3.392   1.130 -0.4949  0.0083 -0.4740
 3338TIP3    H1 9978   1.390   3.416   1.105 -0.7225  1.6357  1.6420
 3338TIP3    H2 9979   1.535   3.449   1.076 -0.9012  1.6810  0.7736
 3339TIP3   OH2 9980   0.082   6.216   0.438 -0.2610  0.2833  0.4140
 3339TIP3    H1 9981   0.084   6.165   0.357  0.6231  2.4367 -0.9965
 3339TIP3    H2 9982  -0.010   6.239   0.450 -0.3356  0.3219 -0.2249
 3340TIP3   OH2 9983   3.641   6.060   5.257 -0.2479 -0.1991  0.3443
 3340TIP3    H1 9984   3.707   6.083   5.323 -0.5895  0.0350  0.6106
 3340TIP3    H2 9985   3.634   5.965   5.262 -1.1877 -0.0964  1.5610
 3341TIP3   OH2 9986   4.276   1.478   3.437  0.2270  0.0233 -0.6252
 3341TIP3    H1 9987   4.201   1.528   3.470  0.5374 -1.6865  3.2349
 3341TIP3    H2 9988   4.352   1.533   3.457  0.4319 -1.0919  2.0906
 3342TIP3   OH2 9989   3.083   5.812   2.967  0.6572 -0.5737  0.0011
 3342TIP3    H1 9990   3.140   5.759   3.023  1.0994  1.1332  1.2415
 3342TIP3    H2 9991   3.021   5.852   3.027 -0.1910 -0.3106 -1.0149
 3343TIP3   OH2 9992   1.324   5.153   1.750  0.1500 -0.3107 -0.5071
 3343TIP3    H1 9993   1.372   5.150   1.668 -3.0226 -0.2542 -2.5300
 3343TIP3    H2 9994   1.327   5.245   1.777  1.6310 -0.4176 -0.1917
 3344TIP3   OH2 9995   5.175   5.309   0.624  0.0845 -0.5490  0.0715
 3344TIP3    H1 9996   5.149   5.244   0.690  2.5160 -0.5162  1.1641
 3344TIP3    H2 9997   5.242   5.265   0.573 -1.3806 -0.3707 -2.1280
 3345TIP3   OH2 9998   0.236   1.201   0.845 -0.5855  0.0013 -0.5200
 3345TIP3    H1 9999   0.312   1.210   0.788 -0.5909 -1.1299 -0.7225
 3345TIP3    H210000   0.169   1.162   0.789 -0.7649 -0.6175  0.1193
 3346TIP3   OH210001   2.915   6.466   5.243 -0.7277  0.5053  0.6421
 3346TIP3    H110002   2.924   6.380   5.284  0.9266  1.0733  1.5610
 3346TIP3    H210003   2.857   6.515   5.303 -2.7262 -0.2993 -0.5286
 3347TIP3   OH210004   7.069   1.437   1.076  0.4866 -0.3199 -0.0756
 3347TIP3    H110005   6.988   1.436   1.026  0.0363 -0.2630  0.6328
 3347TIP3    H210006   7.139   1.441   1.010 -0.0979  0.1648 -0.6744
 3348TIP3   OH210007   5.950   0.977   4.386  0.7379  0.3394 -0.0492
 3348TIP3    H110008   5.884   1.030   4.341 -0.1629  0.4135  1.2974
 3348TIP3    H210009   6.025   1.035   4.396  0.1171  1.0655  0.5421
 3349TIP3   OH210010   4.112   3.215   5.569  0.3060 -0.5386  0.9347
 3349TIP3    H110011   4.189   3.271   5.575  2.1324 -2.7063 -0.4826
 3349TIP3    H210012   4.038   3.275   5.576  2.1050  1.8199  0.9749
 3350TIP3   OH210013   2.437   0.252   0.678 -0.1346 -0.5052 -0.5763
 3350TIP3    H110014   2.342   0.245   0.665  0.0092 -1.9991 -1.0270
 3350TIP3    H210015   2.469   0.162   0.666  1.1092 -0.4025  1.5630
 3351TIP3   OH210016   1.342   3.839   5.776 -0.2933  0.1045 -0.2243
 3351TIP3    H110017   1.342   3.933   5.795  0.5886  0.3052 -1.1429
 3351TIP3    H210018   1.434   3.818   5.760 -0.7492 -0.3850 -2.5256
 3352TIP3   OH210019   1.679   1.835   1.311 -0.1703  0.6710 -0.0309
 3352TIP3    H110020   1.706   1.744   1.301 -0.2573  0.6000  0.3383
 3352TIP3    H210021   1.699   1.876   1.227 -0.3041  0.2688 -0.2631
 3353TIP3   OH210022   6.052   2.340   4.005  0.9749 -0.1261 -0.4644
 3353TIP3    H110023   6.022   2.299   4.086  1.5287 -0.3656 -0.3785
 3353TIP3    H210024   6.059   2.433   4.027 -0.8135  0.1374 -0.8158
 3354TIP3   OH210025   3.328   4.438   1.703 -0.1888 -0.5602 -0.3482
 3354TIP3    H110026   3.243   4.424   1.744 -0.2622  0.2537 -0.2094
 3354TIP3    H210027   3.332   4.374   1.633 -0.8135 -0.7669 -0.1972
 3355TIP3   OH210028   0.129   3.178   5.091 -0.0485 -0.2285 -0.0839
 3355TIP3    H110029   0.217   3.200   5.061  0.4711 -1.6687  0.2742
 3355TIP3    H210030   0.094   3.260   5.125  0.3541  0.8407 -2.1017
 3356TIP3   OH210031   6.442   6.262   4.539 -0.1642  0.3822 -0.5056
 3356TIP3    H110032   6.496   6.318   4.595  1.5472 -0.6710 -1.0447
 3356TIP3    H210033   6.459   6.293   4.450  0.4023 -0.6087 -0.7660
 3357TIP3   OH210034   2.282   3.224   3.476 -0.1108 -0.4844 -1.0744
 3357TIP3    H110035   2.205   3.281   3.464  1.3557  1.7788 -0.4210
 3357TIP3    H210036   2.350   3.264   3.421  0.6975 -2.2929 -1.4457
 3358TIP3   OH210037   6.525   4.080   2.086 -0.1225 -0.1955  0.8094
 3358TIP3    H110038   6.548   3.992   2.057 -2.4809 -0.4456 -0.6133
 3358TIP3    H210039   6.605   4.131   2.079  0.8699 -1.8209 -0.0275
 3359TIP3   OH210040   0.248   3.602   2.736  0.4704 -0.1106 -0.0313
 3359TIP3    H110041   0.331   3.636   2.770  0.9764 -1.3110 -0.0363
 3359TIP3    H210042   0.273   3.526   2.684 -0.6331 -0.4474 -0.0818
 3360TIP3   OH210043   3.155   2.092   2.306 -0.4929  0.3509 -0.2931
 3360TIP3    H110044   3.155   2.008   2.353 -3.1203 -0.8080 -2.1423
 3360TIP3    H210045   3.164   2.067   2.214 -2.7638  1.9549 -1.0183
 3361TIP3   OH210046   5.137   1.113   0.138  0.6122  0.0072 -0.1118
 3361TIP3    H110047   5.066   1.125   0.074  0.6809 -0.3475 -0.2511
 3361TIP3    H210048   5.175   1.201   0.147  0.9779 -0.0539 -0.9909
 3362TIP3   OH210049   1.587   1.829   0.575 -0.4050 -0.5725 -0.0661
 3362TIP3    H110050   1.596   1.867   0.662 -0.7929 -0.9925  0.1574
 3362TIP3    H210051   1.633   1.746   0.580  0.0391 -0.3529 -0.4218
 3363TIP3   OH210052   1.012   1.936   3.255 -0.2673  0.1286  0.0788
 3363TIP3    H110053   1.036   2.023   3.223  1.2247 -1.0707 -2.3950
 3363TIP3    H210054   1.087   1.909   3.309  0.7987 -0.8090 -1.7830
 3364TIP3   OH210055   5.805   2.855   1.488 -0.0438 -0.1923  0.2361
 3364TIP3    H110056   5.715   2.830   1.512 -0.9324  0.9160 -1.7380
 3364TIP3    H210057   5.796   2.901   1.405  2.6753 -2.5410 -1.5514
 3365TIP3   OH210058   2.958   2.910   2.441 -0.1020 -0.2586  0.5858
 3365TIP3    H110059   2.962   2.853   2.518 -0.3192 -1.9044 -0.5918
 3365TIP3    H210060   2.928   2.994   2.477  1.5359 -0.4349  2.5664
 3366TIP3   OH210061   4.289   1.194   1.769  0.1749  0.8850  0.1477
 3366TIP3    H110062   4.270   1.171   1.678  1.6734 -1.0904  0.2833
 3366TIP3    H210063   4.327   1.115   1.807 -0.0304  1.7896  2.4035
 3367TIP3   OH210064   6.603   1.044   3.300  0.3097  0.1156  0.1836
 3367TIP3    H110065   6.633   1.076   3.385 -0.3812  0.6970  0.2141
 3367TIP3    H210066   6.527   1.099   3.279 -1.0534 -1.6347  0.3384
 3368TIP3   OH210067   0.613   3.695   3.588 -0.0661  0.3752 -0.1499
 3368TIP3    H110068   0.521   3.723   3.586 -0.0143  0.5176 -0.5791
 3368TIP3    H210069   0.643   3.718   3.676 -0.5473 -0.0067  0.1169
 3369TIP3   OH210070   5.109   4.290   0.230 -0.4216 -0.1252 -0.2861
 3369TIP3    H110071   5.043   4.294   0.161 -0.0316 -1.8910 -0.8188
 3369TIP3    H210072   5.193   4.286   0.184 -0.1252 -0.8409  0.2829
 3370TIP3   OH210073   1.696   6.018   2.431  0.1638 -0.1935 -0.1100
 3370TIP3    H110074   1.762   5.949   2.433  0.7500  0.3682  1.0500
 3370TIP3    H210075   1.617   5.974   2.400  0.6552 -1.2726  0.1049
 3371TIP3   OH210076   4.925   1.976   3.009  0.3887 -0.3601  0.1003
 3371TIP3    H110077   4.934   2.068   3.035 -1.3191  0.3525 -1.5847
 3371TIP3    H210078   4.984   1.966   2.935 -1.6831  0.3258 -1.7406
 3372TIP3   OH210079   4.219   3.367   5.288  0.0026  0.3889  0.0288
 3372TIP3    H110080   4.269   3.378   5.208  0.3532  1.0409  0.3255
 3372TIP3    H210081   4.285   3.355   5.356 -0.1646  2.3505  0.5938
 3373TIP3   OH210082   3.787   5.830   2.653 -0.1665  0.5016  0.4667
 3373TIP3    H110083   3.782   5.914   2.697  1.1729  0.4530  0.7533
 3373TIP3    H210084   3.775   5.765   2.722 -1.6389  0.4335  0.1810
 3374TIP3   OH210085   5.514   5.374   0.682 -0.5027 -0.4169 -0.1401
 3374TIP3    H110086   5.539   5.408   0.768  0.2943 -1.1422 -0.0775
 3374TIP3    H210087   5.457   5.442   0.646 -0.9412 -0.1484  0.9980
 3375TIP3   OH210088   4.763   2.249   1.955  0.4260 -0.2470  0.2135
 3375TIP3    H110089   4.677   2.269   1.991  0.3682 -0.3061  0.1097
 3375TIP3    H210090   4.768   2.301   1.875  0.5265 -0.1682  0.2709
 3376TIP3   OH210091   5.503   0.558   2.353  0.4655  0.5121  0.2746
 3376TIP3    H110092   5.554   0.578   2.275  0.7947  0.2289  0.4162
 3376TIP3    H210093   5.555   0.591   2.426  0.3778  0.3569  0.4098
 3377TIP3   OH210094   2.015   2.075   0.599  0.5581 -0.4587 -0.2549
 3377TIP3    H110095   1.933   2.124   0.599  1.0834  0.4904 -1.7980
 3377TIP3    H210096   1.989   1.984   0.615 -0.7426 -0.1170 -0.3525
 3378TIP3   OH210097   1.384   1.229   5.539 -0.6681  0.0104 -0.1010
 3378TIP3    H110098   1.331   1.226   5.460 -1.1055  0.8480  0.1437
 3378TIP3    H210099   1.338   1.291   5.596  0.2634  0.3003  0.3492
 3379TIP3   OH210100   0.791   5.168   4.659 -0.0645  0.5436 -0.3109
 3379TIP3    H110101   0.782   5.147   4.566  1.1645  0.4959 -0.4331
 3379TIP3    H210102   0.820   5.086   4.699 -1.3278  0.3577  0.2522
 3380TIP3   OH210103   5.162   0.198   2.889 -0.2717  0.1579  0.0381
 3380TIP3    H110104   5.104   0.141   2.940 -0.7668  0.0770 -0.5855
 3380TIP3    H210105   5.102   0.262   2.849  0.1830  0.6186  0.0903
 3381TIP3   OH210106   6.350   1.041   0.429  0.3859 -0.4032 -0.2283
 3381TIP3    H110107   6.381   1.079   0.511  0.1684  1.4322 -0.9419
 3381TIP3    H210108   6.281   0.980   0.455  1.0734 -0.6839  1.0095
 3382TIP3   OH210109   0.587   4.574   4.384 -0.0389 -0.5209  0.1880
 3382TIP3    H110110   0.556   4.509   4.447  0.0380 -0.7819 -0.0431
 3382TIP3    H210111   0.651   4.528   4.330  0.6422 -0.0331  0.5591
 3383TIP3   OH210112   6.121   4.962   1.704 -0.1762 -0.5222  0.2937
 3383TIP3    H110113   6.132   5.034   1.642  0.4127 -0.7410  0.1355
 3383TIP3    H210114   6.036   4.924   1.682  0.6109 -1.4645 -1.3126
 3384TIP3   OH210115   1.950   0.939   5.552  0.8609 -0.2748 -0.4979
 3384TIP3    H110116   1.899   0.927   5.472 -0.7147  0.2543  0.3786
 3384TIP3    H210117   1.942   1.032   5.572  1.1140 -0.4284  0.3512
 3385TIP3   OH210118   5.380   5.818   2.920  0.1576  0.8197  0.2043
 3385TIP3    H110119   5.460   5.868   2.904  1.1240 -0.7140  0.1370
 3385TIP3    H210120   5.334   5.819   2.835  0.2813  1.3568  0.1370
 3386TIP3   OH210121   5.156   1.602   4.362 -0.4192  0.1038 -0.3275
 3386TIP3    H110122   5.183   1.686   4.324 -0.4084  0.5336  0.5887
 3386TIP3    H210123   5.238   1.557   4.383 -0.4223  0.0509 -0.4295
 3387TIP3   OH210124   5.340   5.178   2.826 -0.6873 -0.1540  0.2261
 3387TIP3    H110125   5.421   5.228   2.837 -1.3721  0.6954  1.8490
 3387TIP3    H210126   5.274   5.231   2.870 -2.1964 -0.6982 -1.2951
 3388TIP3   OH210127   0.350   4.596   5.346 -0.4415 -0.2993  0.3520
 3388TIP3    H110128   0.399   4.664   5.391 -2.6826  1.4128  0.3305
 3388TIP3    H210129   0.417   4.532   5.320  1.4418  0.7484  2.3187
 3389TIP3   OH210130   2.355   4.805   4.030 -0.4873  0.4016 -0.4481
 3389TIP3    H110131   2.386   4.721   4.062 -0.7236  0.5512  0.1835
 3389TIP3    H210132   2.434   4.855   4.013 -0.3264 -0.1728 -1.4652
 3390TIP3   OH210133   2.522   0.646   4.288 -0.7112  0.1053 -0.4767
 3390TIP3    H110134   2.440   0.597   4.300 -1.6354  1.6237 -0.2959
 3390TIP3    H210135   2.496   0.738   4.298  1.0476  0.6141 -0.3095
 3391TIP3   OH210136   3.003   3.153   5.143  0.3146 -0.0616 -0.5021
 3391TIP3    H110137   3.062   3.157   5.219  1.0952  0.7859 -1.1434
 3391TIP3    H210138   2.927   3.103   5.175 -0.8129  2.8200  1.8237
 3392TIP3   OH210139   5.767   5.095   4.473 -0.1181  0.2187 -0.2608
 3392TIP3    H110140   5.773   5.011   4.426  0.1699 -0.1034  0.3396
 3392TIP3    H210141   5.673   5.106   4.489 -0.1854  0.1636 -0.6203
 3393TIP3   OH210142   3.308   1.907   5.415 -0.1217  0.3975 -0.0315
 3393TIP3    H110143   3.317   1.825   5.463 -0.2031  0.0264 -0.6321
 3393TIP3    H210144   3.387   1.956   5.438  0.3817 -0.2279 -0.3596
 3394TIP3   OH210145   0.228   1.137   0.269  1.1068  0.1959  0.0380
 3394TIP3    H110146   0.284   1.073   0.225 -0.0816 -0.1036 -1.1045
 3394TIP3    H210147   0.205   1.200   0.201 -1.2237 -0.5793  0.0002
 3395TIP3   OH210148   6.586   0.628   2.832 -0.8362  0.3382  0.4739
 3395TIP3    H110149   6.570   0.620   2.738 -0.9368 -0.6417  0.5624
 3395TIP3    H210150   6.589   0.537   2.864  4.1527  0.3199  0.6385
 3396TIP3   OH210151   5.692   5.499   3.931  0.2098 -0.0235  0.7136
 3396TIP3    H110152   5.651   5.574   3.975 -0.7062  0.1746 -0.4133
 3396TIP3    H210153   5.754   5.464   3.995 -0.0563  1.1020  1.6192
 3397TIP3   OH210154   3.973   1.797   4.265  0.2504 -0.6139 -0.0318
 3397TIP3    H110155   3.882   1.823   4.277 -0.1487 -0.4945 -2.6813
 3397TIP3    H210156   4.004   1.777   4.353 -2.2272 -0.3509  0.9896
 3398TIP3   OH210157   2.991   0.865   4.541  0.1376  0.0632  0.1062
 3398TIP3    H110158   2.936   0.923   4.594 -2.0077 -0.4175 -1.4383
 3398TIP3    H210159   3.071   0.915   4.527 -1.5495  2.7055 -1.0408
 3399TIP3   OH210160   3.543   5.429   3.651 -0.0570 -0.1713  0.4121
 3399TIP3    H110161   3.511   5.351   3.697 -0.4097  0.0654  0.5784
 3399TIP3    H210162   3.535   5.407   3.558  0.2284 -0.4845  0.4622
 3400TIP3   OH210163   1.217   4.412   3.765 -0.5019 -0.1108 -0.5884
 3400TIP3    H110164   1.149   4.348   3.745  0.2173 -0.5137 -1.8375
 3400TIP3    H210165   1.180   4.496   3.738 -2.0974  0.3482  2.5256
 3401TIP3   OH210166   2.831   0.770   2.926 -0.1282 -0.6157 -0.0753
 3401TIP3    H110167   2.927   0.767   2.919 -0.1526 -0.7984 -0.3675
 3401TIP3    H210168   2.803   0.819   2.848 -0.4321 -2.8853 -1.4767
 3402TIP3   OH210169   2.263   2.402   3.559  0.1420 -0.4333 -0.1004
 3402TIP3    H110170   2.202   2.463   3.518  0.2628  1.4607  2.3842
 3402TIP3    H210171   2.286   2.442   3.642  3.7400 -1.7313 -0.2940
 3403TIP3   OH210172   2.081   2.103   2.609 -0.4336 -0.1763 -0.5963
 3403TIP3    H110173   2.151   2.097   2.545  0.1412 -2.3746  0.1344
 3403TIP3    H210174   2.004   2.127   2.558  0.2027 -0.9445 -1.9718
 3404TIP3   OH210175   3.901   3.545   1.552  0.2448  0.4355  0.4912
 3404TIP3    H110176   3.973   3.482   1.558  0.2623  0.3983 -0.0747
 3404TIP3    H210177   3.854   3.536   1.635 -0.9467 -1.7773 -0.3419
 3405TIP3   OH210178   5.097   5.934   2.341  0.6659  0.2851 -0.5337
 3405TIP3    H110179   5.111   6.011   2.285 -0.1695 -0.9010 -2.4673
 3405TIP3    H210180   5.014   5.952   2.386  0.4477  0.5079 -1.0134
 3406TIP3   OH210181   6.155   2.663   3.824  0.0797 -0.5828 -0.1344
 3406TIP3    H110182   6.105   2.716   3.887  0.0426 -1.4637  0.6069
 3406TIP3    H210183   6.092   2.640   3.756 -0.3583 -1.1038  0.4362
 3407TIP3   OH210184   4.401   5.257   5.508  0.0543 -0.2253 -0.3353
 3407TIP3    H110185   4.362   5.214   5.432 -1.8536 -1.9245  1.4781
 3407TIP3    H210186   4.332   5.316   5.540 -0.6806 -2.2409  2.1261
 3408TIP3   OH210187   3.715   5.057   5.577  0.1603  0.4182  0.1056
 3408TIP3    H110188   3.757   5.004   5.644 -0.2110 -0.3762 -0.2692
 3408TIP3    H210189   3.762   5.036   5.496 -1.3897 -1.0790 -0.4703
 3409TIP3   OH210190   0.777   5.181   0.213 -0.1842 -0.0222  0.4291
 3409TIP3    H110191   0.718   5.255   0.194 -1.2590 -1.2045 -1.0817
 3409TIP3    H210192   0.727   5.126   0.273 -0.2551 -0.5682 -0.1222
 3410TIP3   OH210193   1.582   4.417   3.765 -0.1509 -0.0212  0.0948
 3410TIP3    H110194   1.505   4.361   3.772  0.3581 -0.7426  0.1130
 3410TIP3    H210195   1.556   4.487   3.706 -0.6909 -0.4892 -0.2315
 3411TIP3   OH210196   4.259   0.642   4.276 -0.1239  0.0200 -0.0923
 3411TIP3    H110197   4.191   0.575   4.285 -1.0631  0.9060 -0.4433
 3411TIP3    H210198   4.307   0.616   4.197 -0.2099 -0.4730  0.0115
 3412TIP3   OH210199   3.409   0.077   3.262 -0.3543 -0.4841  0.5408
 3412TIP3    H110200   3.339   0.120   3.212 -0.1047  1.8938  2.0997
 3412TIP3    H210201   3.433   0.140   3.329  0.8500 -2.6864  2.3051
 3413TIP3   OH210202   5.683   3.764   1.792 -0.0080  0.1432 -0.5811
 3413TIP3    H110203   5.622   3.691   1.799  0.9741 -0.8150 -1.6349
 3413TIP3    H210204   5.728   3.750   1.709 -0.3502  2.3960 -1.2147
 3414TIP3   OH210205   3.982   4.330   5.132  0.3695  0.0549  0.2316
 3414TIP3    H110206   4.053   4.328   5.196  2.0243  0.8807 -1.4539
 3414TIP3    H210207   3.913   4.381   5.173  2.3260  2.6596  0.5325
 3415TIP3   OH210208   1.579   0.058   5.727  0.2327  0.6503 -0.6065
 3415TIP3    H110209   1.538   0.029   5.808 -0.6704  0.8716 -0.9800
 3415TIP3    H210210   1.639  -0.013   5.704 -0.3518  0.0702 -0.3534
 3416TIP3   OH210211   0.854   6.417   4.377 -0.3127 -0.7529  0.1257
 3416TIP3    H110212   0.764   6.446   4.394  0.6348  2.1980  0.6422
 3416TIP3    H210213   0.877   6.458   4.294  1.3446  0.6727  1.2180
 3417TIP3   OH210214   2.485   1.974   2.089  0.1708  0.8197 -0.3706
 3417TIP3    H110215   2.530   1.890   2.090 -0.3284  0.4570 -2.6671
 3417TIP3    H210216   2.511   2.017   2.171 -0.8855 -2.2261  1.7295
 3418TIP3   OH210217   2.598   4.446   3.013 -0.4078 -0.5110 -0.1624
 3418TIP3    H110218   2.675   4.391   3.001 -0.0975 -0.4698  1.3891
 3418TIP3    H210219   2.538   4.393   3.066 -1.5321 -0.5900 -1.4420
 3419TIP3   OH210220   4.724   1.653   4.472  0.2514 -0.5191  0.5757
 3419TIP3    H110221   4.758   1.633   4.385 -0.6197 -0.4353  0.2134
 3419TIP3    H210222   4.773   1.731   4.500  2.4016 -2.0038  1.2631
 3420TIP3   OH210223   0.718   0.038   2.118 -0.0747  0.1579 -0.1610
 3420TIP3    H110224   0.791   0.045   2.180  0.3380 -0.7080 -0.5250
 3420TIP3    H210225   0.640   0.050   2.172  0.3270  0.8947  0.2688
 3421TIP3   OH210226   4.285   5.281   4.779  1.0355 -0.0841 -0.5161
 3421TIP3    H110227   4.245   5.221   4.842 -0.1225 -0.0290 -1.1732
 3421TIP3    H210228   4.351   5.229   4.735  0.1149 -0.8671 -1.0049
 3422TIP3   OH210229   0.609   5.097   3.235  0.4006 -0.7638 -0.0918
 3422TIP3    H110230   0.565   5.063   3.312 -0.2449 -0.5888 -0.3785
 3422TIP3    H210231   0.622   5.190   3.253  0.1584 -0.7012 -0.2324
 3423TIP3   OH210232   0.228   5.229   1.310  0.5091 -0.2587 -0.9419
 3423TIP3    H110233   0.275   5.259   1.388  0.9239 -0.4967 -1.1004
 3423TIP3    H210234   0.136   5.231   1.336  0.6153  0.0729 -0.5852
 3424TIP3   OH210235   3.291   6.176   2.140 -0.4801  0.3294  0.0350
 3424TIP3    H110236   3.280   6.161   2.046  3.3630 -1.6297 -0.2902
 3424TIP3    H210237   3.204   6.163   2.177 -1.6458 -1.3734 -2.9767
 3425TIP3   OH210238   3.294   0.513   3.309 -0.0715  0.4479  0.7646
 3425TIP3    H110239   3.288   0.466   3.226  1.5255 -0.6712  1.2293
 3425TIP3    H210240   3.210   0.497   3.352 -0.3893 -0.1149 -0.0537
 3426TIP3   OH210241   3.447   0.147   0.167  1.1339  0.1281  0.4615
 3426TIP3    H110242   3.444   0.111   0.078 -0.3086 -0.4928  0.7349
 3426TIP3    H210243   3.538   0.136   0.194  1.3152 -0.8676 -0.4645
 3427TIP3   OH210244   4.487   0.781   0.188 -0.1377  0.6781 -0.1717
 3427TIP3    H110245   4.546   0.717   0.228  0.2170  1.3414  0.3822
 3427TIP3    H210246   4.429   0.808   0.259 -0.6434  0.5617 -0.5398
 3428TIP3   OH210247   0.268   6.673   2.489  0.5248 -0.4767 -0.6515
 3428TIP3    H110248   0.325   6.690   2.564 -0.2069  1.2035 -0.4257
 3428TIP3    H210249   0.214   6.600   2.517 -0.0381  0.3991  0.6702
 3429TIP3   OH210250   5.638   3.602   0.451  0.8212  0.0929  0.0634
 3429TIP3    H110251   5.678   3.550   0.521  2.1164  1.9506  0.8009
 3429TIP3    H210252   5.672   3.690   0.465 -1.1606  1.1280 -1.2133
 3430TIP3   OH210253   6.974   2.315   2.535 -0.0486  0.8988 -0.1483
 3430TIP3    H110254   7.007   2.404   2.536 -0.4316  1.0395  0.7614
 3430TIP3    H210255   6.911   2.311   2.608 -0.6160  0.1108 -0.6590
 3431TIP3   OH210256   6.605   6.408   4.939  0.2674 -0.2887 -0.0599
 3431TIP3    H110257   6.675   6.357   4.979  0.9419 -0.5940 -1.5715
 3431TIP3    H210258   6.583   6.474   5.005  0.8266 -1.2156  1.0825
 3432TIP3   OH210259   6.940   3.612   4.778 -0.1874 -0.0011 -0.1783
 3432TIP3    H110260   7.000   3.663   4.832 -0.9137  0.9573 -0.2515
 3432TIP3    H210261   6.994   3.542   4.742  0.6454  0.2308  0.5801
 3433TIP3   OH210262   2.817   3.510   4.893  0.3461  0.1769 -0.1534
 3433TIP3    H110263   2.791   3.540   4.806 -1.4370  0.9318  0.5795
 3433TIP3    H210264   2.907   3.479   4.882  0.4221  0.9251 -2.0922
 3434TIP3   OH210265   1.020   2.009   5.358 -0.6857  0.0980  0.2221
 3434TIP3    H110266   0.990   2.011   5.449  0.1629  1.0235  0.4983
 3434TIP3    H210267   1.019   2.101   5.331  0.7445  0.0301 -0.1288
 3435TIP3   OH210268   2.237   0.484   2.961  0.0766  0.1679  0.6467
 3435TIP3    H110269   2.226   0.394   2.930 -0.0489 -0.1553  1.5890
 3435TIP3    H210270   2.231   0.537   2.882  1.5081 -0.7337 -0.1191
 3436TIP3   OH210271   5.464   4.752   0.964  0.7989  0.5798  0.3916
 3436TIP3    H110272   5.557   4.766   0.980  0.7746  0.6493  0.4728
 3436TIP3    H210273   5.436   4.696   1.037  0.1922  2.7139  1.8807
 3437TIP3   OH210274   6.343   1.121   5.840 -0.4541 -1.2506  0.1123
 3437TIP3    H110275   6.349   1.216   5.824 -1.0093 -1.0491  1.0470
 3437TIP3    H210276   6.344   1.083   5.752  1.0953 -0.4717 -0.2485
 3438TIP3   OH210277   3.755   3.436   1.241 -0.5816  0.9054 -0.6817
 3438TIP3    H110278   3.717   3.514   1.282 -0.4143  0.4417  0.3887
 3438TIP3    H210279   3.849   3.456   1.234 -0.4515  0.5870  0.1056
 3439TIP3   OH210280   1.056   6.005   4.884  0.4363 -0.0573  0.3092
 3439TIP3    H110281   0.968   5.971   4.900 -0.5073  3.1432  3.2880
 3439TIP3    H210282   1.115   5.946   4.930 -0.9320  1.0317  3.7533
 3440TIP3   OH210283   3.447   4.977   2.097 -0.2883 -0.5655 -0.3497
 3440TIP3    H110284   3.507   4.937   2.160 -1.7375 -0.1173  1.3745
 3440TIP3    H210285   3.485   4.956   2.011  1.3392 -1.8277  0.6297
 3441TIP3   OH210286   6.493   2.201   2.259 -0.5766  0.1134 -0.0242
 3441TIP3    H110287   6.524   2.142   2.328 -0.3243  0.4284  0.1321
 3441TIP3    H210288   6.530   2.165   2.179  2.4405  1.9367  0.4084
 3442TIP3   OH210289   3.750   4.994   4.760 -0.3684 -0.2707  0.5585
 3442TIP3    H110290   3.726   5.086   4.753  0.3321 -0.1391 -0.2075
 3442TIP3    H210291   3.701   4.951   4.689 -0.5008 -0.4525  0.7568
 3443TIP3   OH210292   6.364   5.409   5.406 -0.6257 -0.7378  0.4523
 3443TIP3    H110293   6.283   5.366   5.381 -1.2723 -0.7098  2.3316
 3443TIP3    H210294   6.430   5.373   5.347 -2.0094 -0.6109 -1.2501
 3444TIP3   OH210295   2.734   6.102   0.850  0.2706  0.3960  0.1900
 3444TIP3    H110296   2.714   6.143   0.766 -2.3094 -0.9115  0.0604
 3444TIP3    H210297   2.750   6.010   0.828  0.1497  0.1590  1.0729
 3445TIP3   OH210298   5.299   4.215   3.422 -0.5124  0.2786 -0.3725
 3445TIP3    H110299   5.386   4.177   3.412 -0.4101  0.3567  0.2086
 3445TIP3    H210300   5.301   4.258   3.508 -0.9016  0.8639 -0.6508
 3446TIP3   OH210301   6.863   0.166   1.706 -0.4774  0.2964  0.1322
 3446TIP3    H110302   6.837   0.225   1.635  1.2866 -0.0996 -0.9136
 3446TIP3    H210303   6.914   0.222   1.765 -0.1535  0.1684 -0.0251
 3447TIP3   OH210304   4.265   5.165   1.025 -0.0750  0.4073  0.0034
 3447TIP3    H110305   4.256   5.083   1.074  1.2694  0.7038  0.7821
 3447TIP3    H210306   4.360   5.177   1.016 -0.2386  0.4598 -2.5183
 3448TIP3   OH210307   6.172   4.705   1.486 -0.1351  0.3667 -0.2113
 3448TIP3    H110308   6.077   4.721   1.486 -0.1549  0.3008  1.0367
 3448TIP3    H210309   6.180   4.610   1.474 -0.2468  0.2909  0.3023
 3449TIP3   OH210310   6.221   2.125   4.395  0.1860  0.3388  0.0022
 3449TIP3    H110311   6.223   2.106   4.488 -2.4779  3.2184  0.8208
 3449TIP3    H210312   6.313   2.136   4.370  0.9481 -0.2246  2.3207
 3450TIP3   OH210313   6.054   4.656   1.784 -0.2832  0.3301 -0.1862
 3450TIP3    H110314   6.057   4.751   1.790 -0.9024  0.3130  0.6078
 3450TIP3    H210315   5.971   4.637   1.741 -1.2313  0.1096  1.6406
 3451TIP3   OH210316   3.887   3.934   1.401  0.2231 -0.1120  0.3109
 3451TIP3    H110317   3.939   3.958   1.324 -1.8834 -1.1652 -1.5588
 3451TIP3    H210318   3.864   4.018   1.441  2.5161  0.4089  0.6962
 3452TIP3   OH210319   5.284   6.329   4.298 -0.3500  0.3182 -0.1606
 3452TIP3    H110320   5.279   6.419   4.266  1.3932  0.1222 -1.0910
 3452TIP3    H210321   5.202   6.289   4.271 -0.3245  1.0952 -1.4790
 3453TIP3   OH210322   0.054   2.099   4.211  0.3052  0.6404 -0.2034
 3453TIP3    H110323   0.102   2.018   4.195  1.1455  0.9320  0.7109
 3453TIP3    H210324   0.123   2.164   4.227 -0.3070  0.5002  4.0238
 3454TIP3   OH210325   6.526   3.573   5.251 -0.2672 -0.2196 -0.3046
 3454TIP3    H110326   6.524   3.615   5.337 -0.2332  0.9951 -0.8653
 3454TIP3    H210327   6.481   3.490   5.263 -0.9350  0.2732  0.7206
 3455TIP3   OH210328   0.966   5.811   4.294  0.2246 -0.0695  0.2337
 3455TIP3    H110329   0.888   5.765   4.327  0.7042 -0.8879  0.2609
 3455TIP3    H210330   1.009   5.845   4.372  0.1994 -0.1109  0.2657
 3456TIP3   OH210331   0.956   0.265   0.582 -0.5292  0.4660  0.5334
 3456TIP3    H110332   0.878   0.297   0.628 -0.3990 -0.4100  1.3892
 3456TIP3    H210333   0.924   0.194   0.527 -0.1586 -0.7675  1.8594
 3457TIP3   OH210334   1.029   2.741   0.077 -0.1736  0.3600 -0.2060
 3457TIP3    H110335   0.942   2.706   0.094  0.0131 -1.0205 -1.7532
 3457TIP3    H210336   1.070   2.747   0.163 -1.4237  0.0116  0.4359
 3458TIP3   OH210337   4.004   1.770   1.720  0.2548 -0.0480 -0.4736
 3458TIP3    H110338   3.992   1.865   1.722  1.2647  0.1062 -1.2983
 3458TIP3    H210339   3.915   1.735   1.714 -0.0640  0.9007 -1.6058
 3459TIP3   OH210340   6.920   1.118   0.644 -0.0824 -0.1875 -0.1291
 3459TIP3    H110341   6.984   1.047   0.648  0.7912  0.6456  2.1671
 3459TIP3    H210342   6.850   1.084   0.588  1.6703 -1.6715 -1.5459
 3460TIP3   OH210343   3.609   4.489   0.756  0.0347 -0.4398  0.0100
 3460TIP3    H110344   3.627   4.442   0.674 -0.3047  0.5090 -0.6239
 3460TIP3    H210345   3.517   4.515   0.749  0.4014  0.9113  0.0262
 3461TIP3   OH210346   2.651   2.425   0.671  0.0693 -0.5560 -0.3395
 3461TIP3    H110347   2.566   2.463   0.696 -0.9081 -2.7199 -0.1415
 3461TIP3    H210348   2.647   2.418   0.576  0.3428  0.0028 -0.3968
 3462TIP3   OH210349   3.629   0.030   3.951  0.1255 -0.3369  0.6096
 3462TIP3    H110350   3.680  -0.050   3.968  0.2578 -0.3928 -0.0551
 3462TIP3    H210351   3.686   0.101   3.981  0.2540 -0.4537  0.6450
 3463TIP3   OH210352   5.167   4.310   1.401 -0.0561  0.0002  0.2924
 3463TIP3    H110353   5.092   4.306   1.342 -0.8880 -0.5398  1.3679
 3463TIP3    H210354   5.185   4.219   1.424 -0.3929  0.2641  1.6647
 3464TIP3   OH210355   1.084   6.624   5.637  0.2384 -0.0974  0.1767
 3464TIP3    H110356   1.010   6.602   5.694  0.1453  1.9157  0.9023
 3464TIP3    H210357   1.161   6.592   5.684 -0.0652 -1.3262 -0.1233
 3465TIP3   OH210358   1.171   5.426   1.115 -0.1642  0.0651 -0.5128
 3465TIP3    H110359   1.190   5.507   1.067 -0.2611 -0.2431 -1.0791
 3465TIP3    H210360   1.076   5.424   1.121 -0.1209  0.5904  0.5533
 3466TIP3   OH210361   6.452   4.704   4.338 -0.0074 -0.1796 -1.0040
 3466TIP3    H110362   6.494   4.687   4.253 -0.4539  0.2140 -1.3070
 3466TIP3    H210363   6.374   4.755   4.316 -1.9060 -2.7846 -0.6714
 3467TIP3   OH210364   1.760   2.575   5.728 -0.2159 -0.5458 -0.8257
 3467TIP3    H110365   1.722   2.597   5.643  0.5120 -0.3480 -1.1041
 3467TIP3    H210366   1.808   2.654   5.754 -2.1916  0.2045  0.7794
 3468TIP3   OH210367   2.130   4.509   2.648 -0.0113 -1.0245 -0.5764
 3468TIP3    H110368   2.133   4.524   2.742 -1.6527  0.2170 -0.6643
 3468TIP3    H210369   2.159   4.592   2.610 -1.1493 -0.8493 -1.1243
 3469TIP3   OH210370   3.641   6.497   2.599 -0.0599  0.7272  0.6060
 3469TIP3    H110371   3.680   6.580   2.572 -1.1730  0.8024 -0.8907
 3469TIP3    H210372   3.644   6.443   2.520  1.4318 -1.0150  1.7624
 3470TIP3   OH210373   4.322   0.719   0.692  0.3333  0.0237 -0.4232
 3470TIP3    H110374   4.275   0.635   0.689  1.3965 -0.5863 -0.6737
 3470TIP3    H210375   4.415   0.694   0.694  0.8267  1.1907 -3.5388
 3471TIP3   OH210376   2.185   6.593   1.317  0.4189  0.3935  0.0335
 3471TIP3    H110377   2.092   6.615   1.311  0.6393  1.2042 -0.7388
 3471TIP3    H210378   2.192   6.540   1.396 -1.1533 -2.0894 -1.3433
 3472TIP3   OH210379   1.868   4.005   3.054 -0.0448  0.1284  0.3863
 3472TIP3    H110380   1.915   4.019   2.971 -0.0430  0.9159  0.5119
 3472TIP3    H210381   1.791   4.062   3.048  0.8227  1.4827  1.6176
 3473TIP3   OH210382   0.934   4.405   4.712 -0.1044  0.5438 -0.0065
 3473TIP3    H110383   0.853   4.381   4.757  0.6366 -0.6162  0.7696
 3473TIP3    H210384   0.913   4.397   4.619 -1.0014  0.7304  0.1666
 3474TIP3   OH210385   3.018   5.645   2.655 -0.0431  0.5315  0.0034
 3474TIP3    H110386   2.945   5.584   2.651  1.7324 -1.7287 -0.1167
 3474TIP3    H210387   2.978   5.732   2.658 -2.6639 -0.5771 -0.9221
 3475TIP3   OH210388   2.973   1.742   0.801  0.4631 -0.2666  0.4293
 3475TIP3    H110389   2.920   1.736   0.880 -0.0954  3.2250  0.5159
 3475TIP3    H210390   3.039   1.809   0.821  1.7456 -0.9283 -1.3128
 3476TIP3   OH210391   3.788   5.009   1.507  0.6931 -0.0423 -0.2247
 3476TIP3    H110392   3.698   5.041   1.513  1.0832  0.8592  1.2033
 3476TIP3    H210393   3.818   5.039   1.422  0.9196  3.2084  0.8613
 3477TIP3   OH210394   1.883   6.295   4.532 -0.2694 -0.1013  0.0285
 3477TIP3    H110395   1.929   6.305   4.449  0.6948 -0.0588  0.5589
 3477TIP3    H210396   1.816   6.364   4.531 -0.4636 -0.2988 -0.8382
 3478TIP3   OH210397   5.451   3.085   4.708  0.1937 -0.3063  0.2966
 3478TIP3    H110398   5.395   3.055   4.636 -0.4062  1.5822 -0.0708
 3478TIP3    H210399   5.535   3.105   4.666  0.4170 -0.8893  0.4498
 3479TIP3   OH210400   4.433   3.931   4.072  0.2440  0.2882  0.4936
 3479TIP3    H110401   4.416   3.862   4.136 -1.9788 -0.2770 -0.5912
 3479TIP3    H210402   4.528   3.941   4.072  0.4049 -0.4584  3.0182
 3480TIP3   OH210403   6.121   3.781   3.902 -0.0218 -0.0878 -0.5100
 3480TIP3    H110404   6.168   3.812   3.979  2.9376 -0.0710 -2.2092
 3480TIP3    H210405   6.111   3.859   3.847 -0.6984 -0.4071 -0.8553
 3481TIP3   OH210406   7.030   5.344   3.946 -0.7731  0.0747  0.9370
 3481TIP3    H110407   6.959   5.388   3.993 -0.1954  0.8245  1.1369
 3481TIP3    H210408   7.057   5.407   3.880  0.3475  0.1994  1.4922
 3482TIP3   OH210409   4.470   4.295   1.897 -0.7632  0.4524 -0.2940
 3482TIP3    H110410   4.539   4.273   1.834  0.0708 -0.8588  1.0224
 3482TIP3    H210411   4.506   4.367   1.948 -1.4389  1.5140 -1.2793
 3483TIP3   OH210412   1.020   0.088   3.124 -0.4691  0.1900 -0.4095
 3483TIP3    H110413   1.066   0.141   3.058  0.7087  1.1100  1.0936
 3483TIP3    H210414   1.082   0.080   3.196 -1.0444 -2.3275 -0.0957
 3484TIP3   OH210415   4.206   2.768   4.080  0.7488 -0.1202  0.1779
 3484TIP3    H110416   4.256   2.849   4.081  2.1076 -0.9307  1.1597
 3484TIP3    H210417   4.135   2.783   4.143  0.9397  0.3211  0.2936
 3485TIP3   OH210418   2.647   6.078   1.110  0.3256 -0.0847 -0.0892
 3485TIP3    H110419   2.724   6.070   1.167 -0.5428 -0.3887  1.0777
 3485TIP3    H210420   2.683   6.103   1.025  1.7391 -0.4977  0.3545
 3486TIP3   OH210421   4.394   5.485   3.857 -0.5373  0.1978  0.3398
 3486TIP3    H110422   4.376   5.416   3.921 -1.2726  0.2171  0.1617
 3486TIP3    H210423   4.374   5.446   3.773 -2.0059  0.9506  0.3147
 3487TIP3   OH210424   6.592   1.972   0.428  0.3206 -0.2522  0.2301
 3487TIP3    H110425   6.661   1.912   0.455 -1.5575 -3.2054 -1.0280
 3487TIP3    H210426   6.516   1.945   0.479 -0.6032  1.1359 -0.3601
 3488TIP3   OH210427   0.049   3.713   1.717  0.4307 -0.7998  0.2753
 3488TIP3    H110428   0.006   3.753   1.642  1.2809 -1.1485 -0.4116
 3488TIP3    H210429   0.010   3.626   1.723 -1.5846  0.1140  1.9078
 3489TIP3   OH210430   5.629   3.948   4.196  0.4000  0.2721 -0.2496
 3489TIP3    H110431   5.544   3.980   4.168 -1.5105 -1.4388  2.9535
 3489TIP3    H210432   5.650   3.878   4.135 -1.7233 -0.8410  0.2084
 3490TIP3   OH210433   3.381   1.132   4.910  0.2607  0.3363  0.4218
 3490TIP3    H110434   3.321   1.058   4.897 -0.7066  0.5684  2.9673
 3490TIP3    H210435   3.462   1.091   4.942  0.2106  0.2787  0.4764
 3491TIP3   OH210436   5.314   5.441   4.682 -0.6422  0.1383 -0.4339
 3491TIP3    H110437   5.346   5.395   4.604 -0.4268 -1.5029  0.5662
 3491TIP3    H210438   5.326   5.534   4.662  2.7224 -0.2937 -0.9794
 3492TIP3   OH210439   4.859   0.897   1.018  0.0572  0.1371  0.7244
 3492TIP3    H110440   4.827   0.963   1.079 -2.1533 -1.8550  1.9159
 3492TIP3    H210441   4.887   0.946   0.941 -0.1678  2.5002  2.0632
 3493TIP3   OH210442   6.528   2.904   0.250  0.1790  0.1754  0.8776
 3493TIP3    H110443   6.504   2.884   0.160  0.9733 -1.1035  0.9310
 3493TIP3    H210444   6.469   2.975   0.276 -0.6239 -0.0269 -0.3620
 3494TIP3   OH210445   5.134   0.872   2.140 -0.0777  0.0847  0.0457
 3494TIP3    H110446   5.114   0.941   2.203  3.8004  1.5171  0.0045
 3494TIP3    H210447   5.152   0.918   2.058  0.4145 -1.1721 -0.5877
 3495TIP3   OH210448   3.554   0.202   2.330  0.2797  0.4147 -0.0831
 3495TIP3    H110449   3.579   0.122   2.376  0.8676 -0.1475 -1.3314
 3495TIP3    H210450   3.492   0.172   2.263 -0.8584  1.2678  0.5511
 3496TIP3   OH210451   5.610   0.183   1.891 -0.4067  0.0704 -0.1983
 3496TIP3    H110452   5.613   0.269   1.932 -1.1096 -0.2561  0.5663
 3496TIP3    H210453   5.657   0.194   1.808  0.1812  0.9838  0.2474
 3497TIP3   OH210454   6.308   0.186   1.193  0.3335 -0.6691  0.4781
 3497TIP3    H110455   6.225   0.150   1.225 -0.9346  1.0889 -0.6313
 3497TIP3    H210456   6.318   0.269   1.242  0.4472  0.0450 -0.7201
 3498TIP3   OH210457   4.400   5.099   2.298  0.3697  0.7323 -0.0531
 3498TIP3    H110458   4.473   5.160   2.308 -0.2230  1.5773 -0.7088
 3498TIP3    H210459   4.396   5.052   2.381  1.1698  1.2193  0.2710
 3499TIP3   OH210460   3.564   0.323   1.048 -0.0799 -0.2044 -0.1585
 3499TIP3    H110461   3.533   0.279   0.969  0.1348 -0.6536 -0.0041
 3499TIP3    H210462   3.641   0.372   1.020 -0.1784 -0.1227 -0.2856
 3500TIP3   OH210463   3.851   4.537   1.338 -0.4234  0.3041  0.2616
 3500TIP3    H110464   3.866   4.460   1.284 -0.9316  1.0214 -0.9430
 3500TIP3    H210465   3.822   4.502   1.423  0.8280 -0.8547  0.2495
 3501TIP3   OH210466   5.051   6.201   1.868 -0.0927  0.4922 -0.6591
 3501TIP3    H110467   5.017   6.252   1.942  0.1017  0.5592 -0.6168
 3501TIP3    H210468   5.134   6.242   1.846 -0.0067  0.2850 -0.7221
 3502TIP3   OH210469   1.666   2.825   3.370 -0.0549 -0.1829  0.6045
 3502TIP3    H110470   1.718   2.879   3.310 -0.1686  0.1720  0.8211
 3502TIP3    H210471   1.576   2.853   3.356 -0.4099 -1.9537 -0.9710
 3503TIP3   OH210472   1.738   0.632   0.400 -0.5776  0.1425  0.1259
 3503TIP3    H110473   1.743   0.543   0.367  1.8288  0.6447 -1.0910
 3503TIP3    H210474   1.660   0.669   0.358  0.0176 -0.5357 -1.6685
 3504TIP3   OH210475   0.493   6.338   3.176 -0.2755 -0.8339  0.5898
 3504TIP3    H110476   0.493   6.279   3.252 -0.5534 -1.2659  0.2666
 3504TIP3    H210477   0.420   6.306   3.122 -0.5001 -0.1129  0.4654
 3505TIP3   OH210478   1.032   3.071   3.005 -0.2043  0.5432 -0.0089
 3505TIP3    H110479   1.123   3.086   2.980 -0.2725 -0.2334 -0.7822
 3505TIP3    H210480   1.037   3.006   3.075 -0.2403 -1.1127 -1.4884
 3506TIP3   OH210481   2.233   3.781   5.786  0.6332 -0.2231  0.1130
 3506TIP3    H110482   2.301   3.730   5.830  1.7963  1.0006 -0.2058
 3506TIP3    H210483   2.241   3.757   5.694 -0.2171 -0.9954  0.2215
 3507TIP3   OH210484   3.633   2.135   2.101 -0.5194  0.2909 -0.3279
 3507TIP3    H110485   3.604   2.169   2.017 -1.8480 -1.6250 -0.7068
 3507TIP3    H210486   3.644   2.040   2.087  2.0311  0.2890  0.9131
 3508TIP3   OH210487   5.879   4.937   2.975  0.3947 -0.3864  0.6587
 3508TIP3    H110488   5.914   4.849   2.986  2.2175  0.2092  0.0386
 3508TIP3    H210489   5.818   4.930   2.902  1.1309 -0.9706  0.0925
 3509TIP3   OH210490   4.888   3.560   0.285  0.1059  0.8925  0.1269
 3509TIP3    H110491   4.951   3.489   0.272  1.1783  1.3185  2.3774
 3509TIP3    H210492   4.914   3.627   0.222  0.7244  0.3052 -0.2600
 3510TIP3   OH210493   0.852   5.258   0.937 -0.0929 -0.4870 -0.2866
 3510TIP3    H110494   0.944   5.240   0.922 -0.1597 -0.4392 -0.7794
 3510TIP3    H210495   0.844   5.353   0.926 -0.2683 -0.5408 -0.6582
 3511TIP3   OH210496   0.511   1.451   4.161 -0.0147 -0.8440  0.1124
 3511TIP3    H110497   0.545   1.485   4.244 -1.2338  1.5793 -0.3153
 3511TIP3    H210498   0.584   1.459   4.100 -0.0519  0.3554  0.2119
 3512TIP3   OH210499   5.858   6.749   4.646 -0.0605  0.0779 -0.1550
 3512TIP3    H110500   5.780   6.703   4.677 -0.3784  1.1283  0.6499
 3512TIP3    H210501   5.854   6.742   4.551 -1.8252  1.2051 -0.1911
 3513TIP3   OH210502   3.824   5.674   2.854  0.1302 -0.1340  0.0074
 3513TIP3    H110503   3.848   5.591   2.896  0.6473  0.1135  0.2019
 3513TIP3    H210504   3.820   5.737   2.926  0.1892  0.1089 -0.2016
 3514TIP3   OH210505   0.637   2.816   4.874  0.3023  0.6155  0.1150
 3514TIP3    H110506   0.554   2.856   4.899  0.5467  1.4918 -0.4436
 3514TIP3    H210507   0.614   2.728   4.845 -0.9278  1.9110 -3.2868
 3515TIP3   OH210508   0.097   6.389   4.846  0.2144 -1.0499  0.2559
 3515TIP3    H110509   0.023   6.450   4.842  1.5523  0.6956  0.9603
 3515TIP3    H210510   0.094   6.344   4.762 -1.1664 -0.4306 -0.0656
 3516TIP3   OH210511   0.320   3.599   1.173  0.0684 -0.1556 -0.1278
 3516TIP3    H110512   0.320   3.504   1.185  0.9313 -0.2918 -1.0132
 3516TIP3    H210513   0.298   3.611   1.080 -1.5297  0.5910  0.3262
 3517TIP3   OH210514   0.907   2.445   5.637  0.7320 -0.0619  0.2594
 3517TIP3    H110515   0.952   2.431   5.554 -0.9104 -1.1003 -0.5093
 3517TIP3    H210516   0.977   2.449   5.702  1.9672 -0.5903 -0.9872
 3518TIP3   OH210517   4.804   3.432   1.889  0.1033 -0.1819 -0.6692
 3518TIP3    H110518   4.766   3.517   1.914  1.2834  0.4229 -0.8591
 3518TIP3    H210519   4.892   3.433   1.927 -0.1468 -1.6779  0.0174
 3519TIP3   OH210520   6.684   3.746   1.907 -0.2273  0.6699  0.1394
 3519TIP3    H110521   6.744   3.729   1.834 -0.9543  0.2949 -0.3795
 3519TIP3    H210522   6.673   3.660   1.948 -1.5317  0.4351 -0.6502
 3520TIP3   OH210523   6.065   1.978   1.920 -0.0125 -0.5408 -0.6638
 3520TIP3    H110524   6.019   1.951   2.000 -1.2332 -0.4845 -1.3162
 3520TIP3    H210525   6.083   2.071   1.934 -2.0100 -0.0205 -1.2296
 3521TIP3   OH210526   3.305   6.082   3.450  0.3840 -0.3058  0.0755
 3521TIP3    H110527   3.269   5.996   3.427 -0.2610  0.0567 -0.3161
 3521TIP3    H210528   3.393   6.064   3.483  1.0574 -0.9506 -1.9036
 3522TIP3   OH210529   6.820   3.102   3.611 -0.3221 -0.7109  0.7522
 3522TIP3    H110530   6.885   3.151   3.662 -2.0972  3.0650 -0.2232
 3522TIP3    H210531   6.866   3.076   3.532  0.0460  2.3942 -0.1848
 3523TIP3   OH210532   6.315   2.230   1.891 -0.1820 -0.3357  0.1457
 3523TIP3    H110533   6.277   2.171   1.826 -1.6033  0.0740  0.5691
 3523TIP3    H210534   6.263   2.310   1.885  0.2472  0.0421  1.1667
 3524TIP3   OH210535   2.109   3.352   3.033  0.0452  0.4110 -0.9540
 3524TIP3    H110536   2.083   3.389   2.948 -0.5293  0.1040 -0.9170
 3524TIP3    H210537   2.033   3.367   3.089  0.4070  0.5718 -0.5030
 3525TIP3   OH210538   4.594   0.351   0.774 -0.5848 -0.4935  0.0419
 3525TIP3    H110539   4.543   0.296   0.715 -1.7184 -0.5345  1.0332
 3525TIP3    H210540   4.682   0.312   0.773 -0.2712  0.1358 -2.4058
 3526TIP3   OH210541   4.772   6.031   4.008  0.4841  0.1052 -0.2100
 3526TIP3    H110542   4.848   6.038   3.950  0.3537  1.1484 -0.2735
 3526TIP3    H210543   4.697   6.030   3.949  0.4139 -0.0614 -0.1160
 3527TIP3   OH210544   5.600   4.715   3.003 -0.3844 -0.5671 -0.7987
 3527TIP3    H110545   5.512   4.680   2.987 -0.8439  0.7681 -1.2987
 3527TIP3    H210546   5.599   4.802   2.963  1.3337 -0.7297 -1.2664
 3528TIP3   OH210547   2.145   0.457   3.645  0.0590  0.6339  0.3068
 3528TIP3    H110548   2.062   0.410   3.655 -0.3782  1.4957  0.8557
 3528TIP3    H210549   2.128   0.545   3.681  0.7537  1.3249 -0.9734
 3529TIP3   OH210550   6.559   2.751   4.525 -0.5704 -0.5005  1.0931
 3529TIP3    H110551   6.530   2.792   4.443  1.4156 -0.2155  0.4855
 3529TIP3    H210552   6.640   2.705   4.502 -0.2852 -0.9133  2.7715
 3530TIP3   OH210553   7.055   2.423   1.856  0.2686  0.2657  0.0671
 3530TIP3    H110554   7.003   2.504   1.849  1.1798  0.8444 -0.1262
 3530TIP3    H210555   7.106   2.434   1.936 -0.0586 -0.4018  0.3763
 3531TIP3   OH210556   7.060   4.693   1.260  0.1736 -1.0888 -0.6433
 3531TIP3    H110557   7.099   4.607   1.275  0.2743 -1.1451 -1.2085
 3531TIP3    H210558   6.973   4.686   1.298  1.6431 -0.0085  3.4365
 3532TIP3   OH210559   4.669   3.371   1.673 -0.0020 -0.0933 -0.3016
 3532TIP3    H110560   4.715   3.406   1.749  0.0588  0.9268 -0.7925
 3532TIP3    H210561   4.605   3.438   1.650 -0.2514 -0.5411 -0.9547
 3533TIP3   OH210562   5.296   3.338   2.960  0.4015  0.4316 -0.6786
 3533TIP3    H110563   5.365   3.301   2.905 -0.5047 -0.5093 -1.2144
 3533TIP3    H210564   5.336   3.347   3.046  1.1722 -0.1636 -0.9653
 3534TIP3   OH210565   4.085   0.105   0.771  0.7352  0.3688 -0.8415
 3534TIP3    H110566   4.160   0.140   0.722  0.2387  1.5330 -0.8109
 3534TIP3    H210567   4.021   0.176   0.770 -0.4835 -0.7064 -1.0963
 3535TIP3   OH210568   6.847   1.860   2.757 -0.5509  0.2860  0.3980
 3535TIP3    H110569   6.923   1.903   2.796 -1.1706 -0.4025  2.4815
 3535TIP3    H210570   6.781   1.930   2.750 -0.4182  0.4316  0.5825
 3536TIP3   OH210571   7.097   1.153   2.886  0.2057 -0.3421  0.5315
 3536TIP3    H110572   7.010   1.144   2.846  0.1186 -1.0482  0.8624
 3536TIP3    H210573   7.104   1.078   2.945  1.2289 -0.5518  0.1588
 3537TIP3   OH210574   3.082   1.416   5.181 -0.4584 -0.0349  0.4091
 3537TIP3    H110575   3.010   1.474   5.157 -0.9107 -0.5255  0.5810
 3537TIP3    H210576   3.062   1.332   5.140  1.0412  0.3666 -1.2587
 3538TIP3   OH210577   6.660   2.674   0.335 -0.0419 -0.2572  0.2943
 3538TIP3    H110578   6.622   2.617   0.402 -0.2765 -0.6023 -0.1222
 3538TIP3    H210579   6.606   2.753   0.338 -0.4904 -0.5470  0.0443
 3539TIP3   OH210580   3.962   6.301   5.274  0.0494 -0.8404 -0.2804
 3539TIP3    H110581   3.868   6.314   5.288 -0.0902 -3.0924  1.5168
 3539TIP3    H210582   4.003   6.337   5.354  0.8046  0.5645 -1.2566
 3540TIP3   OH210583   2.186   6.505   2.283  0.0373 -0.1518  0.0985
 3540TIP3    H110584   2.204   6.554   2.364 -1.9602  0.3404  0.2847
 3540TIP3    H210585   2.223   6.560   2.214  0.2523  0.2696  0.5358
 3541TIP3   OH210586   0.771   5.823   2.780 -0.5211 -0.0408  0.3755
 3541TIP3    H110587   0.837   5.858   2.720  2.2169 -0.5640  2.8274
 3541TIP3    H210588   0.813   5.826   2.866 -3.2329 -1.7113  1.9067
 3542TIP3   OH210589   1.606   5.645   3.708 -0.2996 -0.5750 -0.6334
 3542TIP3    H110590   1.585   5.564   3.661  0.6511 -0.4210 -1.3623
 3542TIP3    H210591   1.662   5.694   3.648  1.1078 -0.4528  0.7065
 3543TIP3   OH210592   0.498   5.412   2.233  0.8027  0.0659 -0.0105
 3543TIP3    H110593   0.478   5.319   2.229  0.2004  0.2337 -2.4550
 3543TIP3    H210594   0.414   5.454   2.253  0.3971  0.2440 -1.9625
 3544TIP3   OH210595   4.016   0.677   1.594 -0.9378 -0.3284 -0.3232
 3544TIP3    H110596   4.039   0.585   1.604 -1.3718 -0.5139 -0.9705
 3544TIP3    H210597   3.975   0.701   1.677 -0.2254 -0.5340  0.0932
 3545TIP3   OH210598   4.055   5.260   1.338 -0.7219  0.6141  0.4758
 3545TIP3    H110599   4.022   5.231   1.253  3.0126 -0.1877 -0.8768
 3545TIP3    H210600   4.049   5.182   1.394 -0.2781  0.2323 -0.0065
 3546TIP3   OH210601   0.658   4.044   2.435 -0.5443  0.4735  0.3472
 3546TIP3    H110602   0.666   4.136   2.408  0.6382 -0.0796 -1.3338
 3546TIP3    H210603   0.572   4.039   2.476 -1.4399  1.9392 -1.1992
 3547TIP3   OH210604   4.069   2.746   5.436 -0.2053 -0.4133 -0.6905
 3547TIP3    H110605   4.021   2.829   5.431  0.8999  0.3171  0.1930
 3547TIP3    H210606   4.022   2.695   5.501  1.3654  1.1977  1.9372
 3548TIP3   OH210607   1.827   3.305   5.832  0.6757  0.6007 -0.6225
 3548TIP3    H110608   1.907   3.273   5.790  0.3061 -1.6367  0.2480
 3548TIP3    H210609   1.818   3.251   5.910 -0.9937  1.7085 -0.0043
 3549TIP3   OH210610   0.120   4.638   3.029  0.0780 -0.3588 -0.5380
 3549TIP3    H110611   0.189   4.610   3.088  0.6225  0.2738 -0.8650
 3549TIP3    H210612   0.053   4.675   3.087 -0.5633 -2.0812 -0.1184
 3550TIP3   OH210613   0.763   1.374   2.788  0.0876 -0.2667  0.0382
 3550TIP3    H110614   0.714   1.306   2.833  1.3257 -1.2548 -0.0602
 3550TIP3    H210615   0.831   1.400   2.850 -0.7333  1.3394  0.3126
 3551TIP3   OH210616   0.408   0.825   1.591  0.1986  0.2998 -0.3487
 3551TIP3    H110617   0.410   0.731   1.575  0.9607  0.2431  0.0365
 3551TIP3    H210618   0.363   0.835   1.675 -0.9152  0.3719 -0.9345
 3552TIP3   OH210619   2.772   3.664   2.842 -0.2707 -0.4623  0.0747
 3552TIP3    H110620   2.850   3.643   2.791 -0.1813 -0.1434  0.0801
 3552TIP3    H210621   2.716   3.713   2.781 -1.2788 -2.2464 -0.5190
 3553TIP3   OH210622   0.540   3.711   2.707 -0.0888 -0.4367 -0.5726
 3553TIP3    H110623   0.558   3.622   2.676 -0.7021 -0.5137 -0.7144
 3553TIP3    H210624   0.622   3.758   2.692 -0.0183 -0.7655 -1.2751
 3554TIP3   OH210625   1.840   2.985   2.874  0.3565 -0.4852 -0.4060
 3554TIP3    H110626   1.869   2.894   2.882  0.1248 -0.7161 -1.9073
 3554TIP3    H210627   1.919   3.033   2.850  0.7037 -0.0810  1.4026
 3555TIP3   OH210628   5.255   5.959   1.893  0.3930  0.1345 -0.1914
 3555TIP3    H110629   5.270   5.875   1.936  0.2220  0.2096  0.0137
 3555TIP3    H210630   5.236   5.936   1.802 -0.0377 -0.0751 -0.0509
 3556TIP3   OH210631   4.912   4.300   4.861  0.4121 -0.2370  0.3602
 3556TIP3    H110632   4.842   4.235   4.861 -1.0655  1.2716  0.9395
 3556TIP3    H210633   4.988   4.254   4.896  0.0133 -2.1951 -1.1704
 3557TIP3   OH210634   3.118   2.021   5.811  0.3252 -0.1827  0.0990
 3557TIP3    H110635   3.212   2.035   5.808  0.1804  0.8439  0.2406
 3557TIP3    H210636   3.095   2.030   5.903 -0.4002  3.0874 -0.2886
 3558TIP3   OH210637   1.791   2.871   5.652 -0.0413  0.5447 -0.0022
 3558TIP3    H110638   1.701   2.840   5.641 -0.1063  0.4821  0.6598
 3558TIP3    H210639   1.832   2.859   5.566  0.2526 -2.3664  0.4531
 3559TIP3   OH210640   4.779   6.083   2.732  0.1280 -0.0620  0.0988
 3559TIP3    H110641   4.703   6.131   2.700  0.1445 -1.0641 -1.5767
 3559TIP3    H210642   4.743   6.002   2.767  0.2172  0.5744  1.7584
 3560TIP3   OH210643   6.580   1.386   0.556 -0.4387 -0.7068  0.7751
 3560TIP3    H110644   6.655   1.446   0.551 -1.0641  0.0452  0.0907
 3560TIP3    H210645   6.523   1.413   0.484 -1.4421 -1.1650  1.3737
 3561TIP3   OH210646   6.871   4.693   0.608 -0.5286 -0.0125  0.6730
 3561TIP3    H110647   6.900   4.606   0.583 -3.5956 -0.9281 -0.1057
 3561TIP3    H210648   6.827   4.682   0.692 -1.3230  0.6414  0.3691
 3562TIP3   OH210649   0.087   6.028   2.392 -0.1209 -0.5168 -0.0454
 3562TIP3    H110650   0.139   5.970   2.448  0.6652 -0.5092 -0.7512
 3562TIP3    H210651   0.139   6.109   2.387 -1.2102  0.2823  0.9383
 3563TIP3   OH210652   1.596   2.009   3.987 -0.4578 -0.2273  0.2695
 3563TIP3    H110653   1.553   2.057   3.917 -0.2280  0.0665  0.3314
 3563TIP3    H210654   1.567   2.051   4.068  0.9941  0.8457  0.2642
 3564TIP3   OH210655   0.268   6.249   3.037  0.4205  0.2986 -0.1082
 3564TIP3    H110656   0.252   6.179   2.974  0.4215  0.1461  0.0613
 3564TIP3    H210657   0.213   6.321   3.007  0.8266  0.4162 -0.5953
 3565TIP3   OH210658   0.050   4.418   1.502  0.6001 -0.6520  0.0793
 3565TIP3    H110659   0.117   4.485   1.517 -0.2295  0.1333  0.3318
 3565TIP3    H210660   0.085   4.366   1.429  1.4973 -0.2844  0.2315
 3566TIP3   OH210661   0.805   6.244   4.800  0.1703 -0.5803  0.4006
 3566TIP3    H110662   0.864   6.310   4.764  0.3155 -0.9906 -0.1306
 3566TIP3    H210663   0.785   6.275   4.888 -1.9963  1.6671 -0.7441
 3567TIP3   OH210664   3.895   3.276   0.980 -0.4142 -0.1869  0.0085
 3567TIP3    H110665   3.984   3.311   0.968 -0.3790 -0.5135 -0.7589
 3567TIP3    H210666   3.889   3.257   1.074  0.3081 -0.1040  0.0774
 3568TIP3   OH210667   4.791   6.602   3.281 -0.1357 -0.7512 -0.3266
 3568TIP3    H110668   4.781   6.674   3.218 -1.7950 -0.9921 -0.3872
 3568TIP3    H210669   4.704   6.591   3.319  0.3080 -2.1214  0.3634
 3569TIP3   OH210670   0.787   2.015   2.556  0.6811 -0.2814 -0.3097
 3569TIP3    H110671   0.856   2.063   2.603 -0.6425  0.5344  0.8716
 3569TIP3    H210672   0.739   1.970   2.625 -1.2608  0.8736 -0.8347
 3570TIP3   OH210673   4.322   4.291   4.659 -0.0229 -0.0571  0.3799
 3570TIP3    H110674   4.329   4.261   4.750  1.3217 -0.4420  0.1711
 3570TIP3    H210675   4.233   4.326   4.652 -0.1368  0.0194  1.8566
 3571TIP3   OH210676   2.355   5.905   1.001  0.6742  0.7978 -0.4716
 3571TIP3    H110677   2.277   5.874   1.046  1.2571 -0.7774 -0.4974
 3571TIP3    H210678   2.346   6.001   0.999 -0.1169  0.7949  1.5600
 3572TIP3   OH210679   4.343   4.070   2.568 -0.2598 -0.1903 -0.6904
 3572TIP3    H110680   4.357   4.143   2.508  0.7641  0.6723  0.5467
 3572TIP3    H210681   4.430   4.042   2.593 -0.6007  0.7284  1.8229
 3573TIP3   OH210682   1.671   0.500   3.624  0.1113  0.1839 -0.4662
 3573TIP3    H110683   1.653   0.511   3.717 -2.7010  1.6055 -1.0782
 3573TIP3    H210684   1.587   0.475   3.586  1.2758 -0.7644 -2.5995
 3574TIP3   OH210685   3.484   3.052   3.819 -0.5899 -0.4859  0.1833
 3574TIP3    H110686   3.526   2.979   3.773 -0.5490 -0.0998 -0.3908
 3574TIP3    H210687   3.484   3.124   3.757  1.8559  0.8828  1.6453
 3575TIP3   OH210688   0.584   0.390   3.189  0.6460 -0.3676 -0.0597
 3575TIP3    H110689   0.558   0.481   3.207  2.4969  0.2557 -0.2581
 3575TIP3    H210690   0.674   0.398   3.157  1.1029 -2.3434  0.6328
 3576TIP3   OH210691   4.939   4.503   3.997 -0.1589  0.0743 -0.0950
 3576TIP3    H110692   4.997   4.555   3.941  1.0525 -0.8277  0.2963
 3576TIP3    H210693   4.980   4.417   4.002 -2.1238 -0.9522 -0.7059
 3577TIP3   OH210694   3.464   4.622   0.335  0.4069 -0.2918  0.3422
 3577TIP3    H110695   3.471   4.622   0.240 -0.5417  1.3091  0.2227
 3577TIP3    H210696   3.371   4.607   0.352  0.3756  0.5257  0.9607
 3578TIP3   OH210697   6.056   1.715   1.838 -0.0147  0.0846 -0.3568
 3578TIP3    H110698   5.978   1.719   1.782 -0.8137  0.4298  0.7446
 3578TIP3    H210699   6.073   1.807   1.861  1.3148  0.1161 -1.3620
 3579TIP3   OH210700   3.478   4.649   1.767 -0.3572 -0.0386  0.4525
 3579TIP3    H110701   3.426   4.573   1.742 -0.9345  0.2191  0.8653
 3579TIP3    H210702   3.566   4.613   1.783 -0.4565 -0.5071 -0.0136
 3580TIP3   OH210703   6.177   0.862   3.925 -0.2319 -0.3424 -0.2067
 3580TIP3    H110704   6.175   0.934   3.863 -0.3266 -1.1279 -1.1389
 3580TIP3    H210705   6.162   0.784   3.872 -1.9483 -0.9066  1.0057
 3581TIP3   OH210706   4.350   2.879   5.614 -0.0035  0.8300 -0.5434
 3581TIP3    H110707   4.329   2.843   5.700 -1.4337  3.1502  0.1635
 3581TIP3    H210708   4.436   2.842   5.593 -0.4014 -1.1881  1.0372
 3582TIP3   OH210709   7.026   5.615   2.501  0.0285 -0.5996  0.7241
 3582TIP3    H110710   6.970   5.583   2.572 -0.2633  0.1418  0.8307
 3582TIP3    H210711   7.105   5.647   2.545  0.7038 -1.9560  0.5485
 3583TIP3   OH210712   0.921   0.561   0.263 -0.1412 -0.3430  0.1829
 3583TIP3    H110713   0.891   0.471   0.246 -2.1070  0.3717 -0.5309
 3583TIP3    H210714   0.995   0.573   0.204  0.8301 -1.7955  1.0383
 3584TIP3   OH210715   3.637   6.728   3.420  0.1718 -0.1183  0.1258
 3584TIP3    H110716   3.578   6.802   3.431  0.6937  0.1559  1.1609
 3584TIP3    H210717   3.674   6.713   3.507  0.8379 -0.9478 -0.2840
 3585TIP3   OH210718   5.796   6.212   4.412  0.0579  0.1785  0.2202
 3585TIP3    H110719   5.777   6.142   4.475 -1.8360  0.2848 -0.1859
 3585TIP3    H210720   5.817   6.288   4.466  2.2626 -0.6630  0.6703
 3586TIP3   OH210721   6.815   0.709   5.638  0.9116 -0.8173 -0.6773
 3586TIP3    H110722   6.835   0.617   5.658  0.6473 -0.7832 -0.2396
 3586TIP3    H210723   6.751   0.704   5.567  1.4730 -0.9520 -1.1820
 3587TIP3   OH210724   2.267   1.058   0.087 -0.1603  0.6410 -0.6376
 3587TIP3    H110725   2.346   1.058   0.141 -0.8598 -0.4560  0.4333
 3587TIP3    H210726   2.293   1.102   0.006  1.5508  0.2545 -0.3248
 3588TIP3   OH210727   1.807   5.408   3.916  0.0994  0.1744 -0.2258
 3588TIP3    H110728   1.861   5.426   3.993 -1.5111  0.7866  0.8200
 3588TIP3    H210729   1.866   5.419   3.842  0.9589  2.8665  0.7440
 3589TIP3   OH210730   6.118   1.152   0.569 -0.2765  0.1385 -0.7700
 3589TIP3    H110731   6.185   1.085   0.561 -0.3046  0.0249 -0.1266
 3589TIP3    H210732   6.040   1.105   0.599 -0.9808  0.0901 -2.5380
 3590TIP3   OH210733   5.556   6.277   3.258  0.3359  0.6197  0.7622
 3590TIP3    H110734   5.646   6.297   3.230  0.1842 -0.1259 -0.3064
 3590TIP3    H210735   5.521   6.222   3.189 -0.9139  0.7787  1.2432
 3591TIP3   OH210736   6.351   0.271   2.252 -0.4865  0.1700  0.7980
 3591TIP3    H110737   6.437   0.303   2.223 -1.1105  1.2473  0.0364
 3591TIP3    H210738   6.370   0.221   2.331  1.2261 -2.3493 -1.0620
 3592TIP3   OH210739   0.014   6.541   3.270 -0.0854  0.7987 -0.3197
 3592TIP3    H110740   0.028   6.513   3.360 -0.1135  1.6358 -0.0544
 3592TIP3    H210741  -0.036   6.622   3.277  0.5543  1.2686 -1.0595
 3593TIP3   OH210742   5.851   5.692   0.283 -0.6302  0.0720  0.0781
 3593TIP3    H110743   5.825   5.636   0.355 -0.4048 -2.1266 -1.4381
 3593TIP3    H210744   5.771   5.704   0.232 -0.5523  0.6788  0.0939
 3594TIP3   OH210745   1.430   3.865   0.354  0.1591  0.2564 -0.6136
 3594TIP3    H110746   1.382   3.800   0.405  0.7028  0.4578  0.1872
 3594TIP3    H210747   1.380   3.875   0.273 -1.1508  0.4871  0.2027
 3595TIP3   OH210748   4.743   1.071   3.981  0.6579  0.2752  0.0442
 3595TIP3    H110749   4.785   0.999   3.933 -0.0976 -0.4543  0.4531
 3595TIP3    H210750   4.654   1.039   3.998  0.7764  0.6941  1.5500
 3596TIP3   OH210751   2.784   1.005   1.895 -0.6137 -0.3055  0.0762
 3596TIP3    H110752   2.777   0.925   1.947 -1.2307 -1.1172 -1.2127
 3596TIP3    H210753   2.855   1.054   1.936  0.0343 -1.6823  0.6642
 3597TIP3   OH210754   0.181   4.463   0.062 -0.6873 -0.4606 -0.6090
 3597TIP3    H110755   0.222   4.456  -0.025 -0.6756 -1.6677 -0.5300
 3597TIP3    H210756   0.190   4.555   0.086  1.3684 -0.5368 -0.9047
 3598TIP3   OH210757   3.815   3.567   3.558  0.4061 -0.6857  0.5505
 3598TIP3    H110758   3.845   3.600   3.474 -2.0871 -1.5654 -0.7892
 3598TIP3    H210759   3.886   3.588   3.619  2.1093  0.3561 -1.6521
 3599TIP3   OH210760   5.639   6.115   2.556 -0.5437  0.0102  0.1627
 3599TIP3    H110761   5.588   6.113   2.475 -1.7661 -3.2592  0.8615
 3599TIP3    H210762   5.575   6.133   2.625 -0.2325 -1.1393  0.7691
 3600TIP3   OH210763   6.547   5.260   1.649 -0.7201 -0.1968  0.5282
 3600TIP3    H110764   6.565   5.206   1.572  1.1558 -1.2557  1.6560
 3600TIP3    H210765   6.628   5.309   1.664  0.1084 -2.2946  3.5723
 3601TIP3   OH210766   7.162   2.076   1.306  0.1862  0.4375 -0.1117
 3601TIP3    H110767   7.143   2.010   1.372  2.4594  0.0073  0.2259
 3601TIP3    H210768   7.217   2.140   1.351  2.5745 -0.3393 -1.7017
 3602TIP3   OH210769   3.254   4.704   3.985  0.0615  0.2896 -0.4421
 3602TIP3    H110770   3.259   4.688   4.079 -0.2292 -0.1457 -0.4941
 3602TIP3    H210771   3.330   4.660   3.948 -0.2299 -0.1881 -0.4853
 3603TIP3   OH210772   1.881   4.731   5.340 -0.1738  0.3442  0.5060
 3603TIP3    H110773   1.943   4.779   5.286  0.0163  0.0200  0.4292
 3603TIP3    H210774   1.936   4.672   5.392 -0.4440 -0.2240  0.1592
 3604TIP3   OH210775   1.173   3.470   5.785  0.0288  0.2299 -0.1559
 3604TIP3    H110776   1.128   3.554   5.792 -1.2544 -0.4986  0.5060
 3604TIP3    H210777   1.245   3.488   5.724  1.1451  2.3611  1.6015
 3605TIP3   OH210778   0.226   4.174   4.988 -0.0962  0.2514  0.4599
 3605TIP3    H110779   0.178   4.210   5.062 -1.4352  3.0770 -1.5948
 3605TIP3    H210780   0.211   4.079   4.993 -3.4468  0.7033  1.6239
 3606TIP3   OH210781   6.925   2.845   2.703 -0.4188  0.2409  0.2343
 3606TIP3    H110782   6.949   2.809   2.789  0.8252 -3.4709 -1.4272
 3606TIP3    H210783   7.003   2.893   2.675  0.7754 -1.9001 -0.3373
 3607TIP3   OH210784   3.194   1.705   3.093  0.1221 -0.1140 -0.1960
 3607TIP3    H110785   3.120   1.738   3.041  0.5126  1.2892  0.0937
 3607TIP3    H210786   3.195   1.611   3.075 -1.3071 -0.0615 -0.7439
 3608TIP3   OH210787   0.435   4.772   4.294 -0.2127 -0.3559  0.0224
 3608TIP3    H110788   0.491   4.697   4.315  0.3931 -0.2002 -1.0104
 3608TIP3    H210789   0.362   4.764   4.356  0.2048 -1.3837  0.4159
 3609TIP3   OH210790   3.657   2.784   2.426  0.1188 -0.0378  0.1634
 3609TIP3    H110791   3.658   2.765   2.520  0.4222  0.0461  0.1806
 3609TIP3    H210792   3.717   2.859   2.417  0.8977 -0.7014 -0.2325
 3610TIP3   OH210793   6.835   1.864   1.732 -0.3506 -0.4367  0.1192
 3610TIP3    H110794   6.774   1.825   1.795  0.6046 -2.6718 -0.2468
 3610TIP3    H210795   6.791   1.856   1.647 -0.9697  1.1502  0.2515
 3611TIP3   OH210796   6.425   5.847   5.606 -0.1781  0.1401 -0.1937
 3611TIP3    H110797   6.464   5.800   5.533 -0.4046 -0.5285  0.1085
 3611TIP3    H210798   6.498   5.898   5.643 -0.2294  1.0981 -1.3404
 3612TIP3   OH210799   0.435   4.757   4.901  0.2993  0.3026  0.2900
 3612TIP3    H110800   0.409   4.841   4.938 -1.7690 -0.2574  0.2337
 3612TIP3    H210801   0.352   4.713   4.880  1.2598 -0.1316 -3.3860
 3613TIP3   OH210802   6.597   3.437   2.479  0.1295 -0.2955  0.2102
 3613TIP3    H110803   6.546   3.444   2.399  0.2897 -1.0912  0.0308
 3613TIP3    H210804   6.541   3.475   2.547 -0.5599 -0.8415 -0.0421
 3614TIP3   OH210805   7.023   5.913   0.352  0.5484  0.1647 -0.4921
 3614TIP3    H110806   7.031   5.979   0.283 -3.1614  1.9532  0.5508
 3614TIP3    H210807   6.992   5.835   0.306  0.5971  0.5263 -1.1561
 3615TIP3   OH210808   2.516   5.828   1.623  0.2759 -0.1437 -0.4046
 3615TIP3    H110809   2.555   5.746   1.654 -0.9744 -0.1454  1.3498
 3615TIP3    H210810   2.492   5.875   1.704 -1.2115  0.8716 -1.3750
 3616TIP3   OH210811   1.723   4.364   1.590  0.1836  0.2329  0.0750
 3616TIP3    H110812   1.744   4.294   1.651  0.2427  0.2878  0.1175
 3616TIP3    H210813   1.663   4.324   1.527  1.7184 -0.4025 -1.0534
 3617TIP3   OH210814   6.414   1.816   5.683 -0.7020  0.6828 -0.3906
 3617TIP3    H110815   6.492   1.825   5.630 -0.6681  4.3157  0.0317
 3617TIP3    H210816   6.347   1.784   5.622  0.4167  0.2689 -1.4407
 3618TIP3   OH210817   1.920   3.795   0.085 -0.5694 -0.1696 -0.5587
 3618TIP3    H110818   1.995   3.745   0.118 -0.4893  1.2415  1.6244
 3618TIP3    H210819   1.852   3.782   0.151 -0.8969  1.6711 -0.4713
 3619TIP3   OH210820   4.365   0.796   2.271 -0.1918  0.2543  0.0914
 3619TIP3    H110821   4.392   0.847   2.194 -3.5265  1.3801 -0.4962
 3619TIP3    H210822   4.343   0.862   2.337 -2.3162 -0.4199  0.1344
 3620TIP3   OH210823   5.430   5.763   4.546  0.0862  0.1231 -0.0448
 3620TIP3    H110824   5.431   5.850   4.586  0.2139  0.0072  0.2032
 3620TIP3    H210825   5.477   5.707   4.608  0.8811  0.0832 -0.6659
 3621TIP3   OH210826   3.590   0.585   3.131 -0.0837 -0.5830 -0.2101
 3621TIP3    H110827   3.510   0.624   3.096 -0.0564  0.4151  0.7929
 3621TIP3    H210828   3.661   0.635   3.091  0.0120 -0.8014 -0.3166
 3622TIP3   OH210829   7.071   6.560   1.878 -0.0770 -0.1573  0.1400
 3622TIP3    H110830   7.094   6.642   1.920  1.6388 -0.4514 -0.1367
 3622TIP3    H210831   7.022   6.585   1.800  1.1680  0.6676 -0.3990
 3623TIP3   OH210832   6.129   6.282   4.793  0.0468 -0.1473  0.2905
 3623TIP3    H110833   6.180   6.203   4.810  0.8983  0.2516 -0.3406
 3623TIP3    H210834   6.131   6.330   4.876  0.9309 -0.0138  0.1955
 3624TIP3   OH210835   0.905   3.480   0.407 -0.7254 -0.1842  0.1620
 3624TIP3    H110836   0.909   3.384   0.409  3.6140 -0.1756  0.2404
 3624TIP3    H210837   0.933   3.507   0.495 -1.3684  1.2013 -0.0319
 3625TIP3   OH210838   1.920   0.187   3.095 -0.2251  0.9042 -0.8148
 3625TIP3    H110839   1.857   0.120   3.121  0.2607 -0.0708 -2.0239
 3625TIP3    H210840   1.945   0.163   3.006  2.8613  0.4238  0.0355
 3626TIP3   OH210841   6.395   5.790   0.423  0.6409 -1.0188  0.0561
 3626TIP3    H110842   6.391   5.821   0.514 -1.4829  0.1143 -0.3501
 3626TIP3    H210843   6.375   5.697   0.428 -1.7090 -0.5343  0.6098
 3627TIP3   OH210844   1.817   1.688   1.587  0.2128 -0.1774  0.2262
 3627TIP3    H110845   1.910   1.683   1.563  0.0255 -3.0413 -0.3256
 3627TIP3    H210846   1.771   1.672   1.505 -0.6419 -2.2160  1.0434
 3628TIP3   OH210847   1.018   3.685   4.598 -0.3638  0.0444 -0.2063
 3628TIP3    H110848   1.082   3.737   4.550 -1.3186  1.5910  0.1549
 3628TIP3    H210849   1.002   3.734   4.678 -2.9725  0.4252 -0.8656
 3629TIP3   OH210850   5.607   6.251   3.639  0.6545  0.3847  0.3960
 3629TIP3    H110851   5.587   6.225   3.549 -1.0276  1.0171  0.5536
 3629TIP3    H210852   5.628   6.169   3.684  1.9066  0.1003 -0.6260
 3630TIP3   OH210853   1.389   4.231   2.732  0.4201  0.0610 -0.6429
 3630TIP3    H110854   1.417   4.171   2.663 -0.6140 -1.1626 -0.0406
 3630TIP3    H210855   1.438   4.312   2.715  0.2534 -0.2246 -2.7460
 3631TIP3   OH210856   0.406   4.677   4.012  0.3296 -0.5278  0.9836
 3631TIP3    H110857   0.419   4.743   4.080  0.8144 -1.0494  1.4034
 3631TIP3    H210858   0.410   4.727   3.930  1.8652 -0.1795  1.2319
 3632TIP3   OH210859   1.117   0.264   2.932 -0.3113  0.2454  0.5023
 3632TIP3    H110860   1.083   0.261   2.843 -0.1530  1.3369  0.3936
 3632TIP3    H210861   1.195   0.320   2.926  1.6596 -2.2648  0.7083
 3633TIP3   OH210862   2.575   2.441   4.065  0.4393  0.1063 -0.3765
 3633TIP3    H110863   2.504   2.418   4.125  0.2677 -0.9634 -0.9710
 3633TIP3    H210864   2.542   2.518   4.018 -0.3623 -0.3829 -0.6545
 3634TIP3   OH210865   0.164   4.329   3.872 -0.4218  0.3920  0.0629
 3634TIP3    H110866   0.150   4.414   3.914 -3.4470  0.5702 -1.0675
 3634TIP3    H210867   0.171   4.268   3.945  1.4348  1.4827  0.8886
 3635TIP3   OH210868   4.073   2.198   3.038  0.1716  0.2701  0.0170
 3635TIP3    H110869   3.978   2.186   3.033  0.1871 -0.0851  0.4868
 3635TIP3    H210870   4.104   2.123   3.088  0.5165  1.1330  1.1455
 3636TIP3   OH210871   0.718   1.856   3.079  0.2501 -0.2761 -0.5057
 3636TIP3    H110872   0.641   1.913   3.080 -0.1804 -0.8601 -0.2214
 3636TIP3    H210873   0.751   1.859   3.168 -0.0096 -0.7899 -0.3907
 3637TIP3   OH210874   0.144   4.968   4.859  0.0130 -0.4932 -0.2047
 3637TIP3    H110875   0.154   5.013   4.775 -0.9719 -1.6284 -0.9584
 3637TIP3    H210876   0.157   5.037   4.925 -1.3204  0.8751 -1.3139
 3638TIP3   OH210877   3.951   5.391   5.317  0.2139  0.3642 -0.8076
 3638TIP3    H110878   4.009   5.320   5.342 -1.6530 -0.8778  0.2381
 3638TIP3    H210879   3.885   5.395   5.387 -1.5463  1.0073 -2.3973
 3639TIP3   OH210880   1.541   6.126   0.226 -0.4670 -0.3804  0.4358
 3639TIP3    H110881   1.620   6.175   0.246  0.1712 -1.5653  0.9528
 3639TIP3    H210882   1.480   6.146   0.297  0.2534 -1.3029  1.3409
 3640TIP3   OH210883   5.296   6.321   1.446 -0.5733  0.2293  0.2117
 3640TIP3    H110884   5.386   6.330   1.476  0.1145  0.0036 -1.6806
 3640TIP3    H210885   5.282   6.226   1.442 -0.2928  0.2269 -1.1279
 3641TIP3   OH210886   6.875   5.362   5.824  0.5225  0.5123 -0.2785
 3641TIP3    H110887   6.960   5.319   5.818  0.0398 -0.5997  0.5837
 3641TIP3    H210888   6.821   5.320   5.758 -0.3733 -1.3088  1.4920
 3642TIP3   OH210889   1.819   2.411   3.431  0.1033  0.0581  0.2223
 3642TIP3    H110890   1.774   2.331   3.460  1.8904 -1.0585  0.0600
 3642TIP3    H210891   1.906   2.406   3.471  0.6841  1.3114 -0.7941
 3643TIP3   OH210892   1.802   4.677   2.377 -0.5298 -0.3260  0.5386
 3643TIP3    H110893   1.879   4.635   2.338 -1.2911 -3.2615  1.9884
 3643TIP3    H210894   1.818   4.675   2.471 -1.8300  0.2062  0.7952
 3644TIP3   OH210895   2.517   3.767   0.508  0.3010  0.5035 -0.0673
 3644TIP3    H110896   2.460   3.695   0.534  1.6288 -0.3576  0.5987
 3644TIP3    H210897   2.497   3.837   0.570 -0.9180  0.6863 -0.6493
 3645TIP3   OH210898   4.919   5.093   4.064  0.5699  0.8093  0.6249
 3645TIP3    H110899   4.988   5.158   4.053  0.5926  0.4781 -1.7178
 3645TIP3    H210900   4.841   5.143   4.087  1.1090  1.3983  1.2030
 3646TIP3   OH210901   5.073   0.750   2.399  0.6435  0.5362 -0.0926
 3646TIP3    H110902   5.069   0.834   2.353 -2.7272  0.8370  0.5463
 3646TIP3    H210903   5.108   0.772   2.485  0.4078  1.1624 -0.1504
 3647TIP3   OH210904   5.633   6.658   2.560  0.5276  0.1259  0.5370
 3647TIP3    H110905   5.599   6.709   2.634  0.3116  1.4693 -0.4417
 3647TIP3    H210906   5.673   6.723   2.503  1.6491 -1.0206 -0.0219
 3648TIP3   OH210907   3.434   0.228   5.434 -0.3846 -0.1497 -0.0255
 3648TIP3    H110908   3.437   0.148   5.382  0.4787 -0.2446  0.1516
 3648TIP3    H210909   3.391   0.203   5.515 -0.0067 -0.4663  0.0782
 3649TIP3   OH210910   1.801   5.201   1.397 -0.3960  0.0046 -0.2373
 3649TIP3    H110911   1.863   5.244   1.456  0.1885  0.7408 -1.3360
 3649TIP3    H210912   1.732   5.168   1.454  0.9719 -0.7977  1.0263
 3650TIP3   OH210913   2.041   6.273   2.279  0.0892 -0.1846  0.5249
 3650TIP3    H110914   1.978   6.259   2.349  1.0146 -0.0535  1.3998
 3650TIP3    H210915   2.077   6.361   2.295  0.4792 -0.2430  0.0262
 3651TIP3   OH210916   1.240   3.938   3.342  0.0010 -0.7209  0.2687
 3651TIP3    H110917   1.184   3.979   3.408 -0.3701 -0.5918 -0.1184
 3651TIP3    H210918   1.179   3.892   3.284  0.2766 -0.3825 -0.2987
 3652TIP3   OH210919   6.041   2.478   0.365 -0.0658 -0.3114  0.4157
 3652TIP3    H110920   6.118   2.451   0.414  0.1130 -0.4553  0.0600
 3652TIP3    H210921   6.074   2.541   0.300 -0.1587 -0.7873 -0.0976
 3653TIP3   OH210922   0.087   1.280   1.611 -0.4045 -0.3159 -0.4552
 3653TIP3    H110923   0.143   1.311   1.682 -1.9934  1.2523  0.2272
 3653TIP3    H210924  -0.001   1.310   1.637 -1.2214 -0.8682 -2.4462
 3654TIP3   OH210925   3.391   0.061   5.229  0.2289  0.2780 -0.4718
 3654TIP3    H110926   3.299   0.083   5.215  0.5267  0.4451 -2.4738
 3654TIP3    H210927   3.394  -0.035   5.226  0.2057  0.2940 -1.1530
 3655TIP3   OH210928   5.663   0.484   5.706 -0.6265  0.2488 -0.0108
 3655TIP3    H110929   5.656   0.394   5.737 -0.5122 -0.4083 -1.7875
 3655TIP3    H210930   5.594   0.492   5.640  1.2963  0.4283 -2.1384
 3656TIP3   OH210931   4.095   0.413   4.957  0.0660  0.2570  0.1248
 3656TIP3    H110932   4.038   0.340   4.933  0.6619 -0.7106  1.5081
 3656TIP3    H210933   4.133   0.442   4.875 -1.2531 -0.0694 -0.6315
 3657TIP3   OH210934   3.015   3.404   2.893 -0.1755  0.4589  0.0266
 3657TIP3    H110935   3.084   3.470   2.883  3.8983 -3.3117  0.2722
 3657TIP3    H210936   3.022   3.375   2.984  0.2425 -2.1559 -0.7415
 3658TIP3   OH210937   1.994   1.854   1.858 -0.4723 -0.1245  0.0202
 3658TIP3    H110938   1.945   1.772   1.847 -0.0025 -0.4407  0.2393
 3658TIP3    H210939   2.084   1.831   1.835 -0.5602  0.6566 -1.1864
 3659TIP3   OH210940   7.191   0.382   5.223  0.3792 -0.1244 -0.0940
 3659TIP3    H110941   7.120   0.341   5.273  0.9474 -1.0122 -0.0146
 3659TIP3    H210942   7.161   0.379   5.132  1.4419 -2.9396 -0.4202
 3660TIP3   OH210943   4.869   5.231   2.485 -0.4932  0.1644  0.3197
 3660TIP3    H110944   4.801   5.199   2.425  1.2053  0.7829 -2.0938
 3660TIP3    H210945   4.863   5.327   2.479  0.2742  0.2238  0.4379
 3661TIP3   OH210946   6.507   1.348   4.986  0.1721  0.0950  0.2109
 3661TIP3    H110947   6.525   1.342   4.892 -0.0271 -0.7817  0.2166
 3661TIP3    H210948   6.414   1.326   4.993  0.7407 -2.3388  0.8307
 3662TIP3   OH210949   3.981   4.125   2.134  0.2394  0.7643  0.2290
 3662TIP3    H110950   3.916   4.144   2.201  1.1874  1.4441  0.9815
 3662TIP3    H210951   3.946   4.048   2.087 -0.2843  0.0620  1.7226
 3663TIP3   OH210952   1.550   2.304   0.195 -0.3538 -0.0317 -0.1503
 3663TIP3    H110953   1.514   2.304   0.284  0.5386 -0.0975  0.2179
 3663TIP3    H210954   1.545   2.213   0.167 -0.3514 -0.0630 -0.0493
 3664TIP3   OH210955   0.386   3.373   5.212  0.6953  0.3860 -0.8613
 3664TIP3    H110956   0.319   3.391   5.279 -0.2387 -0.0744 -1.6519
 3664TIP3    H210957   0.408   3.459   5.176  1.9073  0.7625  0.6546
 3665TIP3   OH210958   2.967   3.242   4.628  0.1424 -1.0536 -0.3813
 3665TIP3    H110959   2.966   3.242   4.723 -2.7396 -0.7425 -0.3333
 3665TIP3    H210960   2.947   3.333   4.604  0.3037 -1.2460 -1.2890
 3666TIP3   OH210961   0.393   4.409   3.532  0.2414  0.6148 -0.7427
 3666TIP3    H110962   0.474   4.395   3.582 -0.5254  0.4140  0.4769
 3666TIP3    H210963   0.423   4.426   3.443  1.8018  3.1631  0.1335
 3667TIP3   OH210964   4.023   4.388   4.693 -0.6392  0.0179 -0.0665
 3667TIP3    H110965   4.022   4.292   4.696 -1.1817  0.0452  1.0559
 3667TIP3    H210966   3.970   4.409   4.616 -0.8920 -0.5846 -0.0722
 3668TIP3   OH210967   5.023   5.932   3.316  0.6578 -0.1066  0.2201
 3668TIP3    H110968   4.975   5.956   3.395  1.2654  3.2836 -0.2890
 3668TIP3    H210969   4.966   5.958   3.244  1.3443 -0.3566 -0.4336
 3669TIP3   OH210970   5.549   2.364   2.087  1.0830  0.1369 -0.1204
 3669TIP3    H110971   5.487   2.324   2.026  1.7961 -1.5318  0.1696
 3669TIP3    H210972   5.579   2.443   2.043 -0.2647  0.2754 -0.8302
 3670TIP3   OH210973   6.066   6.148   1.849  0.3403 -0.4903  0.5727
 3670TIP3    H110974   6.067   6.242   1.868 -0.9450 -0.2308 -0.4903
 3670TIP3    H210975   6.123   6.139   1.772  1.0731 -0.7124  1.1279
 3671TIP3   OH210976   5.697   1.971   0.875 -0.4535  0.3575  0.2077
 3671TIP3    H110977   5.660   1.905   0.933  0.5898 -0.8713 -0.4731
 3671TIP3    H210978   5.658   2.054   0.904  0.7307 -0.0331  3.2356
 3672TIP3   OH210979   1.090   4.686   0.097  0.3007  0.1690  0.2482
 3672TIP3    H110980   1.169   4.721   0.138  0.7866 -1.2255  0.5645
 3672TIP3    H210981   1.105   4.695   0.003  0.9252 -0.2602  0.3024
 3673TIP3   OH210982   1.694   1.353   2.580  0.2919  0.3684 -0.6108
 3673TIP3    H110983   1.715   1.368   2.487 -1.9161 -0.7892 -1.3491
 3673TIP3    H210984   1.695   1.258   2.589 -0.7865  0.4229  0.2159
 3674TIP3   OH210985   2.752   2.618   4.862  0.5312 -0.1106 -0.0363
 3674TIP3    H110986   2.818   2.662   4.808  1.8453 -0.4136  1.2875
 3674TIP3    H210987   2.788   2.532   4.880  0.3262  0.1169  1.6492
 3675TIP3   OH210988   6.722   5.687   0.038  0.0033  0.4737  0.0263
 3675TIP3    H110989   6.732   5.779   0.014 -0.4022  0.4532 -0.2357
 3675TIP3    H210990   6.627   5.674   0.040  0.0659 -0.1287 -0.6778
 3676TIP3   OH210991   5.376   1.542   5.721 -0.2060  0.6595  0.3029
 3676TIP3    H110992   5.382   1.579   5.633 -1.7733 -0.5911 -0.3728
 3676TIP3    H210993   5.461   1.500   5.735  0.3060  1.4466 -0.3242
 3677TIP3   OH210994   5.052   3.506   5.194 -0.2088  0.4814  0.1047
 3677TIP3    H110995   5.118   3.443   5.167 -1.2568 -0.9206  0.6928
 3677TIP3    H210996   4.998   3.518   5.115  0.5351  1.3978 -0.2865
 3678TIP3   OH210997   3.685   2.324   0.631  0.2793 -0.1728 -0.0831
 3678TIP3    H110998   3.648   2.375   0.703 -1.7965 -2.5103  0.6464
 3678TIP3    H210999   3.641   2.358   0.553 -1.1465 -0.7844  0.4043
 3679TIP3   OH211000   2.208   4.585   1.019 -0.2113 -0.0209  0.6653
 3679TIP3    H111001   2.224   4.678   1.002 -0.9345 -0.1958 -1.1569
 3679TIP3    H211002   2.181   4.549   0.935 -0.3807 -1.8085  1.4336
 3680TIP3   OH211003   6.648   4.012   2.773 -0.0436  0.6985 -0.1853
 3680TIP3    H111004   6.650   3.989   2.866  1.4139 -3.6532 -1.1032
 3680TIP3    H211005   6.672   4.105   2.772  0.5380  0.7849  3.7031
 3681TIP3   OH211006   1.315   5.759   1.246  0.2108  1.0263 -0.0893
 3681TIP3    H111007   1.222   5.750   1.224 -0.3831  1.8038  1.9103
 3681TIP3    H211008   1.352   5.808   1.173 -0.7276 -0.1303 -1.3842
 3682TIP3   OH211009   4.240   6.077   3.095  0.4584  0.4461 -0.5412
 3682TIP3    H111010   4.304   6.116   3.154  1.1654 -0.7146 -0.4928
 3682TIP3    H211011   4.188   6.150   3.063  0.8359  1.2333  0.6003
 3683TIP3   OH211012   2.337   3.549   4.119 -0.7448  0.0366  0.4206
 3683TIP3    H111013   2.387   3.469   4.105  1.4290  1.6872 -2.5345
 3683TIP3    H211014   2.370   3.585   4.201 -1.8378 -2.0364  1.8522
 3684TIP3   OH211015   6.776   1.161   5.138 -0.6815  0.1898 -0.1153
 3684TIP3    H111016   6.736   1.159   5.225  2.1380  2.3612  1.4238
 3684TIP3    H211017   6.833   1.085   5.135 -0.8828  0.0394 -0.1253
 3685TIP3   OH211018   2.321   4.571   0.323  0.4281  0.1506  0.1880
 3685TIP3    H111019   2.249   4.508   0.318 -0.6073  1.3829 -1.2069
 3685TIP3    H211020   2.395   4.526   0.281  1.3445 -2.0570  3.6490
 3686TIP3   OH211021   2.273   3.096   4.995  0.7830 -0.4327 -0.0288
 3686TIP3    H111022   2.206   3.136   5.051  0.4514 -0.5520 -0.3342
 3686TIP3    H211023   2.355   3.112   5.041  0.5922  0.1016  0.1357
 3687TIP3   OH211024   4.530   4.479   3.186 -0.4809 -0.1177  0.4249
 3687TIP3    H111025   4.494   4.562   3.218  2.9932  1.3252  1.1860
 3687TIP3    H211026   4.553   4.430   3.265 -0.2965 -0.6971  0.0235
 3688TIP3   OH211027   6.523   1.617   2.138 -0.2004 -0.0990 -0.6716
 3688TIP3    H111028   6.429   1.634   2.145 -0.5145 -1.7771 -0.3196
 3688TIP3    H211029   6.545   1.637   2.047 -0.9714 -0.0010 -0.8439
 3689TIP3   OH211030   2.083   3.407   3.475  0.0626 -0.0155  0.3291
 3689TIP3    H111031   2.112   3.461   3.548 -0.5783  0.5274  0.1876
 3689TIP3    H211032   1.992   3.387   3.493 -0.4114  0.9937 -0.8157
 3690TIP3   OH211033   6.513   1.542   4.163  0.6248 -0.1978 -0.0312
 3690TIP3    H111034   6.485   1.505   4.247 -0.6399 -0.2927 -0.4729
 3690TIP3    H211035   6.584   1.602   4.185  0.3471 -0.2720  1.0963
 3691TIP3   OH211036   0.659   5.943   0.708  0.3595  0.5266 -0.1839
 3691TIP3    H111037   0.688   5.865   0.755 -0.8529  0.8390  1.1301
 3691TIP3    H211038   0.705   5.938   0.624  0.3878 -1.5265 -0.0935
 3692TIP3   OH211039   6.400   4.248   4.936 -0.6015 -0.4462  0.5138
 3692TIP3    H111040   6.355   4.199   4.867 -2.6966  0.5283  1.1048
 3692TIP3    H211041   6.434   4.325   4.892 -0.1474 -0.8122  0.2083
 3693TIP3   OH211042   0.929   2.675   5.344  0.0949  0.0970 -0.3296
 3693TIP3    H111043   0.859   2.611   5.341  0.3056 -0.2303  1.0261
 3693TIP3    H211044   0.902   2.736   5.413 -0.0567  1.4313 -1.5182
 3694TIP3   OH211045   2.906   4.303   1.726 -0.0292  0.4926 -0.2049
 3694TIP3    H111046   2.862   4.273   1.647  1.0883  1.1258 -1.0914
 3694TIP3    H211047   2.877   4.393   1.738 -0.6934  0.1978  0.4875
 3695TIP3   OH211048   2.349   4.026   1.582  0.2788  0.1972  0.1686
 3695TIP3    H111049   2.328   4.118   1.600  1.6064  0.0211  3.2045
 3695TIP3    H211050   2.412   4.030   1.511  0.7358  1.7080  0.6200
 3696TIP3   OH211051   5.697   4.024   3.096 -0.0631 -0.9923  0.3379
 3696TIP3    H111052   5.791   4.029   3.082 -0.1394  0.8637  0.2578
 3696TIP3    H211053   5.681   4.079   3.173 -1.3253  0.6230 -1.0000
 3697TIP3   OH211054   0.126   4.399   1.129  0.6992  0.3370 -0.0558
 3697TIP3    H111055   0.144   4.480   1.178  0.6959 -0.2396  0.9289
 3697TIP3    H211056   0.118   4.427   1.038  0.0965  1.5377  0.3473
 3698TIP3   OH211057   5.229   1.701   0.279  0.4406  0.1590  0.1874
 3698TIP3    H111058   5.222   1.645   0.356 -0.4464  1.1020  0.8220
 3698TIP3    H211059   5.309   1.752   0.294 -1.4030  2.7350  2.2171
 3699TIP3   OH211060   4.466   4.459   5.442  0.6163  0.4962  0.0730
 3699TIP3    H111061   4.410   4.411   5.381 -0.0638  1.6914 -0.2531
 3699TIP3    H211062   4.548   4.471   5.394  1.5035 -1.9204  0.8234
 3700TIP3   OH211063   5.121   6.013   4.636 -0.0034 -0.2553 -0.4520
 3700TIP3    H111064   5.177   6.086   4.608  1.1273 -1.3169 -1.0620
 3700TIP3    H211065   5.058   6.003   4.565  0.9657 -0.9982 -1.2369
 3701TIP3   OH211066   6.197   5.033   2.178 -0.6673  0.3855 -0.0525
 3701TIP3    H111067   6.226   5.049   2.088  0.1485 -0.1461  0.0996
 3701TIP3    H211068   6.230   5.109   2.227  1.1483 -0.5397  0.2441
 3702TIP3   OH211069   5.069   0.264   3.765 -0.2090  0.4146 -0.4656
 3702TIP3    H111070   5.073   0.248   3.671  0.4654 -0.4744 -0.2955
 3702TIP3    H211071   5.134   0.332   3.781  0.0452  0.1965 -0.5694
 3703TIP3   OH211072   3.412   5.355   1.658  0.1307  0.1503  0.0992
 3703TIP3    H111073   3.423   5.377   1.566  1.2720 -1.9968 -0.3427
 3703TIP3    H211074   3.499   5.324   1.686 -0.2724  0.4620  1.8120
 3704TIP3   OH211075   4.436   4.130   2.282 -0.3940  0.0584 -0.7590
 3704TIP3    H111076   4.355   4.166   2.246  0.5951  1.2459 -1.8907
 3704TIP3    H211077   4.484   4.098   2.205  0.5705  0.1315 -0.1946
 3705TIP3   OH211078   5.462   3.066   1.339 -0.7492  0.0465  0.2224
 3705TIP3    H111079   5.430   3.156   1.347 -0.9148  0.2609 -2.1400
 3705TIP3    H211080   5.386   3.016   1.312 -0.5275 -0.7129  0.9743
 3706TIP3   OH211081   1.360   6.129   3.284  0.9993 -0.8435  0.2496
 3706TIP3    H111082   1.296   6.133   3.355  1.2172 -0.2195  0.4084
 3706TIP3    H211083   1.422   6.199   3.302 -0.3679  1.0724 -1.9325
 3707TIP3   OH211084   4.127   5.699   2.677 -0.3960  0.2342  0.2132
 3707TIP3    H111085   4.056   5.668   2.733  0.5971 -0.5637  1.0791
 3707TIP3    H211086   4.089   5.771   2.627 -1.6280  0.2327  1.1103
 3708TIP3   OH211087   3.101   5.160   4.497 -0.5325 -0.1809 -0.1857
 3708TIP3    H111088   3.122   5.129   4.585  3.1851  0.1189 -0.8065
 3708TIP3    H211089   3.092   5.255   4.507  1.0924  0.0009 -0.2670
 3709TIP3   OH211090   4.927   5.651   5.046 -0.0966 -0.1333 -0.0516
 3709TIP3    H111091   4.914   5.625   4.954  1.2958  0.7394 -0.5161
 3709TIP3    H211092   4.996   5.717   5.043  1.7549 -1.8413  1.8605
 3710TIP3   OH211093   0.588   1.619   1.778  0.0009  0.5743  0.0617
 3710TIP3    H111094   0.647   1.652   1.846  0.6578  0.4849 -0.4493
 3710TIP3    H211095   0.504   1.608   1.822 -0.0854  2.3254  0.4251
 3711TIP3   OH211096   2.056   6.597   2.651 -0.0867 -0.5639  0.0365
 3711TIP3    H111097   2.095   6.634   2.571 -3.0755  1.7829 -0.4885
 3711TIP3    H211098   1.978   6.551   2.620  0.4009 -2.4148  1.3722
 3712TIP3   OH211099   2.434   4.364   3.699 -0.7006 -0.2378  0.7185
 3712TIP3    H111100   2.515   4.413   3.717 -0.1693 -0.6807 -0.3735
 3712TIP3    H211101   2.432   4.297   3.767  0.6415 -1.1437 -0.0852
 3713TIP3   OH211102   4.122   2.034   4.703  0.2038 -0.1688 -0.1045
 3713TIP3    H111103   4.127   1.995   4.790  2.3247 -0.8555 -0.4844
 3713TIP3    H211104   4.029   2.031   4.681 -0.1569 -1.5717  1.4217
 3714TIP3   OH211105   6.605   5.495   0.781  0.1156 -0.4235 -0.0556
 3714TIP3    H111106   6.520   5.453   0.794  0.6046 -1.3055  0.3589
 3714TIP3    H211107   6.669   5.428   0.805  0.9722 -0.2924 -1.8045
 3715TIP3   OH211108   1.987   3.219   1.087 -0.3200 -0.3987 -0.0325
 3715TIP3    H111109   2.005   3.313   1.085 -1.5202 -0.1620  0.0135
 3715TIP3    H211110   1.892   3.212   1.090 -0.3087 -1.6301 -1.2011
 3716TIP3   OH211111   2.977   2.782   2.699 -0.7755 -0.5362  0.2451
 3716TIP3    H111112   3.001   2.849   2.764 -1.2533 -0.0102 -0.1100
 3716TIP3    H211113   3.058   2.733   2.685  0.9650  2.6893 -2.7163
 3717TIP3   OH211114   2.559   3.185   1.577  0.3334 -0.0624 -0.0101
 3717TIP3    H111115   2.548   3.251   1.508  0.4898 -0.2901 -0.2581
 3717TIP3    H211116   2.501   3.214   1.647 -0.5184 -0.2946 -0.5888
 3718TIP3   OH211117   6.999   0.323   1.870 -0.6924  0.2957  0.1268
 3718TIP3    H111118   7.046   0.391   1.918 -0.9024  0.9311 -0.5607
 3718TIP3    H211119   7.063   0.252   1.861  0.1548  1.1350 -0.7819
 3719TIP3   OH211120   3.699   1.529   0.239  0.2189  0.8051  0.1847
 3719TIP3    H111121   3.675   1.572   0.157 -2.2893  0.3999  0.6297
 3719TIP3    H211122   3.762   1.462   0.213  1.1736  2.1190 -1.0638
 3720TIP3   OH211123   6.734   5.661   2.266 -0.0066 -0.4750  0.0693
 3720TIP3    H111124   6.806   5.715   2.299 -0.2726 -0.1061  0.0552
 3720TIP3    H211125   6.770   5.573   2.261  0.5057 -0.2529 -0.1450
 3721TIP3   OH211126   6.525   4.437   2.876 -0.6406  0.6625  0.4475
 3721TIP3    H111127   6.605   4.392   2.905 -0.3167  0.5832 -0.5359
 3721TIP3    H211128   6.534   4.442   2.781 -1.7829  0.7082  0.3337
 3722TIP3   OH211129   1.881   4.770   2.631  0.2831  0.0071  0.0990
 3722TIP3    H111130   1.910   4.741   2.717 -0.3883  1.1196  0.7209
 3722TIP3    H211131   1.962   4.784   2.582  0.6699 -0.5295  0.5817
 3723TIP3   OH211132   5.625   3.157   3.803  0.6141 -0.4806  0.1887
 3723TIP3    H111133   5.649   3.071   3.837 -0.9693 -0.8487  0.4436
 3723TIP3    H211134   5.622   3.145   3.708 -0.4381 -0.9594  0.2687
 3724TIP3   OH211135   4.447   1.512   0.865  0.1135 -0.1498 -0.2690
 3724TIP3    H111136   4.515   1.455   0.831  0.2457  0.0404 -0.3252
 3724TIP3    H211137   4.396   1.456   0.924  0.3154 -0.2919 -0.2270
 3725TIP3   OH211138   1.887   5.524   2.219 -0.2101  0.1621 -0.2478
 3725TIP3    H111139   1.802   5.524   2.174 -1.5618  0.6262  2.1237
 3725TIP3    H211140   1.893   5.438   2.260  1.1905 -0.4103 -1.5807
 3726TIP3   OH211141   6.634   1.812   5.510  0.5515 -0.7083 -0.0175
 3726TIP3    H111142   6.633   1.851   5.423  1.3020 -0.9837 -0.1638
 3726TIP3    H211143   6.681   1.729   5.498 -0.6416 -1.4710  0.3594
 3727TIP3   OH211144   0.395   5.586   0.335 -0.0039 -0.2206  0.0659
 3727TIP3    H111145   0.446   5.596   0.416  0.1044 -1.2407  0.1428
 3727TIP3    H211146   0.311   5.551   0.364  0.3329 -1.4133 -0.3151
 3728TIP3   OH211147   1.019   1.208   2.844 -0.4631 -0.1418 -0.7102
 3728TIP3    H111148   1.062   1.283   2.885 -0.0280 -0.2112 -1.0211
 3728TIP3    H211149   0.994   1.240   2.757 -0.3641 -0.3239 -0.8068
 3729TIP3   OH211150   4.388   0.014   2.197 -0.2425  0.1906 -0.1657
 3729TIP3    H111151   4.311   0.045   2.150  0.1085  0.9303 -0.2686
 3729TIP3    H211152   4.462   0.049   2.147  0.1670 -0.4511 -0.0297
 3730TIP3   OH211153   2.157   2.339   0.363  0.1199  0.0325 -0.1168
 3730TIP3    H111154   2.082   2.390   0.334 -0.5972  0.0122  1.6114
 3730TIP3    H211155   2.172   2.367   0.453  1.7000 -0.5379 -0.1726
 3731TIP3   OH211156   0.142   2.260   1.412 -0.2682 -0.1165  0.3457
 3731TIP3    H111157   0.156   2.261   1.507 -0.2392 -1.1229  0.3643
 3731TIP3    H211158   0.222   2.222   1.377 -0.7433 -0.8306  0.0144
 3732TIP3   OH211159   1.693   1.846   5.343  0.0593 -0.2455 -0.3098
 3732TIP3    H111160   1.678   1.752   5.349  0.6306 -0.3035  0.2731
 3732TIP3    H211161   1.624   1.884   5.399  2.2001 -0.5383  2.7850
 3733TIP3   OH211162   6.571   1.316   4.465  0.0444  0.1246 -0.3147
 3733TIP3    H111163   6.483   1.329   4.432 -0.3641  1.0442  1.0800
 3733TIP3    H211164   6.610   1.252   4.405 -1.8906 -1.0713 -0.3567
 3734TIP3   OH211165   1.640   0.680   0.085  0.0217 -0.4975  0.1845
 3734TIP3    H111166   1.733   0.683   0.105  0.0413  2.1667 -0.0199
 3734TIP3    H211167   1.598   0.724   0.158 -1.1389 -1.7319  0.3128
 3735TIP3   OH211168   1.198   3.701   0.089 -0.2266 -0.5372 -0.2294
 3735TIP3    H111169   1.131   3.669   0.149 -0.1597 -0.4106 -0.0865
 3735TIP3    H211170   1.191   3.797   0.095  1.0835 -0.4906  1.0440
 3736TIP3   OH211171   6.017   1.646   5.763 -0.7041 -0.7436  0.3041
 3736TIP3    H111172   6.000   1.728   5.717 -2.7137  0.5477  3.0209
 3736TIP3    H211173   6.088   1.667   5.823 -2.1423 -0.4522  1.9971
 3737TIP3   OH211174   4.913   4.025   2.649  0.0612 -0.3972  0.1965
 3737TIP3    H111175   4.996   3.999   2.690  0.7297  0.5271 -0.5118
 3737TIP3    H211176   4.892   4.109   2.689  0.2531  0.0785 -0.6750
 3738TIP3   OH211177   2.598   5.489   2.166 -0.1766 -0.2487  0.0779
 3738TIP3    H111178   2.600   5.397   2.192  1.1486 -0.4696 -0.7470
 3738TIP3    H211179   2.557   5.533   2.241 -0.4754 -1.4419  0.6493
 3739TIP3   OH211180   0.521   4.801   1.240  0.2468 -0.8354  0.6416
 3739TIP3    H111181   0.486   4.879   1.198 -0.6828 -2.2863 -1.4727
 3739TIP3    H211182   0.598   4.778   1.189  0.4825 -1.3199  1.2008
 3740TIP3   OH211183   1.310   0.186   4.981  0.6416 -0.2665 -0.1768
 3740TIP3    H111184   1.374   0.247   5.017  0.8461 -0.1519 -0.7315
 3740TIP3    H211185   1.279   0.137   5.057  0.1972  0.7811  0.3306
 3741TIP3   OH211186   6.092   0.066   2.258  0.0087  0.0782 -0.0109
 3741TIP3    H111187   6.179   0.079   2.221  1.0354  0.8843  2.4414
 3741TIP3    H211188   6.046   0.148   2.240 -0.0085 -0.0863 -0.7203
 3742TIP3   OH211189   6.221   3.615   0.304 -0.1754  0.1357 -0.2190
 3742TIP3    H111190   6.156   3.632   0.372  0.1202  1.4369 -0.2345
 3742TIP3    H211191   6.237   3.521   0.309 -0.7751  0.0774  0.9536
 3743TIP3   OH211192   6.387   2.242   0.957 -0.2207 -0.2747  0.5818
 3743TIP3    H111193   6.308   2.192   0.976 -0.2561  0.4959  2.6459
 3743TIP3    H211194   6.432   2.191   0.889 -1.2229 -2.0597  1.1987
 3744TIP3   OH211195   3.210   6.080   4.763  0.0762  0.0023  0.1613
 3744TIP3    H111196   3.139   6.016   4.767 -1.4739  1.5844 -0.6583
 3744TIP3    H211197   3.230   6.089   4.670  0.3187  0.6402  0.2659
 3745TIP3   OH211198   4.869   2.757   3.805  0.4055  0.3989  0.4843
 3745TIP3    H111199   4.790   2.709   3.829  1.6538 -1.3970  1.2170
 3745TIP3    H211200   4.928   2.746   3.880  1.6495  1.0346 -0.3569
 3746TIP3   OH211201   0.084   2.310   5.194 -0.0334 -0.3867 -0.0950
 3746TIP3    H111202   0.020   2.364   5.147  0.0113 -0.8800 -0.7368
 3746TIP3    H211203   0.034   2.266   5.262 -0.4613 -1.0807 -0.8479
 3747TIP3   OH211204   2.186   4.726   5.861 -0.6319  0.0203 -0.6397
 3747TIP3    H111205   2.205   4.632   5.858  0.2807  0.1433  0.7331
 3747TIP3    H211206   2.114   4.737   5.799 -0.1939 -1.4437 -1.4536
 3748TIP3   OH211207   0.879   5.600   2.341  0.6402  0.0520 -0.6427
 3748TIP3    H111208   0.841   5.512   2.331  0.8238 -0.1359  0.2425
 3748TIP3    H211209   0.892   5.630   2.251  0.6318 -0.8537 -0.9644
 3749TIP3   OH211210   6.347   3.745   2.368  0.0069  0.2405  0.2655
 3749TIP3    H111211   6.292   3.823   2.362  0.3782  0.3899 -1.9024
 3749TIP3    H211212   6.291   3.679   2.409 -0.8463  1.1789  0.6437
 3750TIP3   OH211213   5.614   2.664   2.849 -0.3352 -0.1736  0.4339
 3750TIP3    H111214   5.704   2.677   2.820 -0.4664 -2.9689 -1.5952
 3750TIP3    H211215   5.616   2.580   2.896 -1.6425  0.4589  1.6913
 3751TIP3   OH211216   2.150   5.811   1.349 -0.6552 -0.2260 -0.6591
 3751TIP3    H111217   2.089   5.779   1.282  1.2781  0.9690 -3.1337
 3751TIP3    H211218   2.234   5.771   1.326  0.0569  0.1208  1.1839
 3752TIP3   OH211219   1.132   2.494   5.386 -0.2189  1.0098 -0.1956
 3752TIP3    H111220   1.074   2.570   5.397  0.0243  1.3789 -1.2873
 3752TIP3    H211221   1.197   2.524   5.322  1.2127  0.6132  1.0446
 3753TIP3   OH211222   0.056   2.224   5.818 -0.1887 -0.5063  0.2920
 3753TIP3    H111223   0.101   2.267   5.745  0.5859 -0.3074  0.8710
 3753TIP3    H211224  -0.015   2.283   5.842 -0.0147 -0.2388  0.1471
 3754TIP3   OH211225   0.419   5.292   3.533  0.4125  0.3248 -0.1870
 3754TIP3    H111226   0.331   5.280   3.569  1.3244 -1.6553  1.5937
 3754TIP3    H211227   0.405   5.344   3.454 -2.2600  0.7154  0.4262
 3755TIP3   OH211228   6.767   3.312   1.229  0.4390 -0.1884  0.4356
 3755TIP3    H111229   6.720   3.324   1.311  0.2573  0.8936  0.1832
 3755TIP3    H211230   6.735   3.228   1.195 -0.5640  0.0417  0.7702
 3756TIP3   OH211231   3.363   2.527   2.019  0.2859 -0.1250  0.1297
 3756TIP3    H111232   3.369   2.533   2.114 -0.3902  0.7136  0.1261
 3756TIP3    H211233   3.342   2.435   2.002 -1.1069  0.0418  0.8730
 3757TIP3   OH211234   1.107   0.966   2.830 -0.2961 -0.1313 -0.0868
 3757TIP3    H111235   1.165   0.967   2.753 -0.4036 -1.3777 -0.2170
 3757TIP3    H211236   1.060   1.049   2.827 -0.3017 -0.1633 -1.3770
 3758TIP3   OH211237   0.925   0.168   4.083 -0.0189  0.0315  0.5515
 3758TIP3    H111238   0.850   0.110   4.090 -0.3036  0.1645 -1.1275
 3758TIP3    H211239   0.888   0.252   4.055  0.6352  0.4004  0.7635
 3759TIP3   OH211240   5.024   6.057   1.462  0.2761  0.3586  0.2075
 3759TIP3    H111241   5.014   6.034   1.555  0.0293  0.6715  0.2580
 3759TIP3    H211242   4.987   6.145   1.455 -0.5122 -0.0057 -0.3552
 3760TIP3   OH211243   4.928   0.436   1.854  0.3364  0.1050 -0.7130
 3760TIP3    H111244   4.891   0.475   1.775  0.9270  2.4944  0.0953
 3760TIP3    H211245   4.858   0.441   1.919  0.9409  1.5363 -0.1204
 3761TIP3   OH211246   5.334   3.985   1.884 -0.3140 -0.2850 -0.2242
 3761TIP3    H111247   5.332   3.923   1.957  0.3444 -1.9320 -1.5271
 3761TIP3    H211248   5.427   3.996   1.865 -0.4638 -2.1294 -2.5399
 3762TIP3   OH211249   4.664   4.254   0.801  0.4346 -0.8417 -0.0312
 3762TIP3    H111250   4.655   4.174   0.749 -0.8730 -0.1599 -0.9066
 3762TIP3    H211251   4.574   4.278   0.824  0.6188  1.3217 -1.2942
 3763TIP3   OH211252   4.931   3.324   1.314 -0.0713  0.0492  0.1983
 3763TIP3    H111253   4.855   3.267   1.329 -0.4684  0.7287  0.8584
 3763TIP3    H211254   4.942   3.371   1.397 -0.9610  2.3618 -0.9158
 3764TIP3   OH211255   6.782   2.877   4.344 -0.2554  0.6487 -0.5894
 3764TIP3    H111256   6.686   2.882   4.346 -0.2360  0.9204  0.6689
 3764TIP3    H211257   6.802   2.784   4.356 -0.3535  0.6654 -0.2987
 3765TIP3   OH211258   2.832   5.576   2.000 -0.3391 -0.5137 -0.3610
 3765TIP3    H111259   2.764   5.531   2.050 -0.7097  0.2879 -0.1352
 3765TIP3    H211260   2.860   5.511   1.935 -0.8602 -1.0724 -0.0410
 3766TIP3   OH211261   0.330   2.867   4.850  0.0356  0.1426 -0.7562
 3766TIP3    H111262   0.293   2.840   4.934  1.1909  1.2370  0.1455
 3766TIP3    H211263   0.269   2.833   4.785 -0.9306 -0.6702  0.5234
 3767TIP3   OH211264   3.541   5.115   1.462  0.2339  0.4543  0.0602
 3767TIP3    H111265   3.541   5.206   1.435 -0.9449  0.0363 -1.5312
 3767TIP3    H211266   3.460   5.105   1.513 -0.7510 -0.1433 -1.5631
 3768TIP3   OH211267   4.551   0.237   0.507 -0.4129 -0.4012 -0.0734
 3768TIP3    H111268   4.582   0.286   0.431  0.7366  1.2775  1.4036
 3768TIP3    H211269   4.609   0.161   0.512  1.3075  0.9041  0.6497
 3769TIP3   OH211270   3.123   3.197   0.579  0.4345 -0.2564 -0.3447
 3769TIP3    H111271   3.046   3.235   0.537 -0.5014 -0.3325  1.2291
 3769TIP3    H211272   3.196   3.250   0.548 -0.3095  0.1701 -1.4268
 3770TIP3   OH211273   7.073   0.985   4.792 -0.0514 -0.3031 -0.4071
 3770TIP3    H111274   7.149   0.965   4.736  0.0316 -1.4798  0.0889
 3770TIP3    H211275   7.095   1.069   4.833  0.8686 -0.4952 -0.4772
 3771TIP3   OH211276   1.765   1.337   5.386  0.1083  0.4818  0.0977
 3771TIP3    H111277   1.801   1.287   5.460 -0.6012  0.0777  0.1856
 3771TIP3    H211278   1.692   1.386   5.424  1.8038  2.9500  0.3794
 3772TIP3   OH211279   0.430   2.163   0.720 -0.5460  0.1413 -0.1171
 3772TIP3    H111280   0.427   2.252   0.683 -2.0975 -0.6306 -2.0397
 3772TIP3    H211281   0.354   2.159   0.778 -1.4180 -0.3738 -1.2532
 3773TIP3   OH211282   5.798   2.727   0.796 -0.1786 -0.3407 -0.0326
 3773TIP3    H111283   5.738   2.654   0.809 -1.3545  0.6473  0.2645
 3773TIP3    H211284   5.836   2.711   0.710 -1.4159 -0.6163 -0.5497
 3774TIP3   OH211285   6.091   0.042   1.242  0.0266 -0.0951 -0.0888
 3774TIP3    H111286   5.998   0.022   1.236  0.0687  0.0722 -1.7120
 3774TIP3    H211287   6.134  -0.043   1.231  0.0773  0.0075 -0.7421
 3775TIP3   OH211288   4.608   4.990   2.830 -0.0902  0.1798 -0.0874
 3775TIP3    H111289   4.607   4.894   2.830 -2.5836  0.1171 -0.2238
 3775TIP3    H211290   4.700   5.014   2.826  0.5781 -2.2112 -0.5079
 3776TIP3   OH211291   3.420   5.423   0.490 -0.2393 -0.6204  0.3966
 3776TIP3    H111292   3.362   5.389   0.559  0.9619  0.7904  2.2012
 3776TIP3    H211293   3.508   5.414   0.526  0.7444 -2.5118 -2.1973
 3777TIP3   OH211294   6.612   5.520   5.710  0.1329 -0.0905 -0.2198
 3777TIP3    H111295   6.586   5.549   5.622  1.2349  0.1122 -0.4931
 3777TIP3    H211296   6.642   5.430   5.698 -0.3072 -0.2739  0.0621
 3778TIP3   OH211297   1.941   5.177   4.147 -0.2718 -0.0657  0.3978
 3778TIP3    H111298   2.009   5.228   4.103 -0.1093 -1.1028 -0.6002
 3778TIP3    H211299   1.939   5.212   4.236 -1.3975  2.8730 -0.6555
 3779TIP3   OH211300   6.218   1.000   4.545  0.1140  0.1631 -0.5377
 3779TIP3    H111301   6.313   0.999   4.532  0.1821 -0.6700 -0.0614
 3779TIP3    H211302   6.188   1.078   4.498  1.0238  0.4029 -0.7419
 3780TIP3   OH211303   2.537   3.443   2.744  0.0082  0.0871  0.1231
 3780TIP3    H111304   2.456   3.435   2.693  1.0823  2.3361 -2.1730
 3780TIP3    H211305   2.565   3.352   2.757 -1.3540 -0.6759 -1.7001
 3781TIP3   OH211306   1.310   0.257   3.743  0.1116 -0.2982 -0.3534
 3781TIP3    H111307   1.215   0.262   3.758  0.0992 -0.4755 -0.3759
 3781TIP3    H211308   1.349   0.286   3.826  0.0441  2.3957 -1.1530
 3782TIP3   OH211309   3.651   5.689   3.771 -0.6690  0.0284 -0.3133
 3782TIP3    H111310   3.612   5.626   3.712  0.7724  0.1984 -1.5055
 3782TIP3    H211311   3.699   5.636   3.835  1.6396 -0.1601 -2.0810
 3783TIP3   OH211312   2.779   3.053   0.630 -0.5406  0.2695  0.7553
 3783TIP3    H111313   2.775   2.957   0.625 -2.9156  0.3433  0.0658
 3783TIP3    H211314   2.841   3.071   0.701 -0.3503 -1.7682  1.1604
 3784TIP3   OH211315   2.169   1.899   2.802 -0.2248  0.3899  0.0602
 3784TIP3    H111316   2.216   1.945   2.872  0.0140  0.2331 -0.0009
 3784TIP3    H211317   2.126   1.969   2.753  0.9498  0.6364 -0.6385
 3785TIP3   OH211318   3.797   0.208   3.752 -0.2257  0.0595  0.0296
 3785TIP3    H111319   3.844   0.131   3.721 -3.0378 -2.1723  0.9406
 3785TIP3    H211320   3.736   0.229   3.682  1.0390  2.1146 -0.5751
 3786TIP3   OH211321   4.348   3.626   4.211 -0.0258  0.0396  0.5223
 3786TIP3    H111322   4.304   3.654   4.291  0.7085  0.5376  0.7613
 3786TIP3    H211323   4.384   3.540   4.232 -0.0940  0.0361  0.6237
 3787TIP3   OH211324   0.081   1.175   5.098  0.2606 -0.0360  0.5299
 3787TIP3    H111325   0.066   1.212   5.185  1.9398 -2.1025  1.8151
 3787TIP3    H211326   0.123   1.090   5.116  3.2013  0.6437 -2.3459
 3788TIP3   OH211327   4.528   3.748   4.533 -0.4220  0.1950 -0.6474
 3788TIP3    H111328   4.438   3.768   4.561 -1.1510  0.1118 -2.7138
 3788TIP3    H211329   4.555   3.674   4.587 -1.1394  0.9719  0.8214
 3789TIP3   OH211330   6.866   3.516   1.001  0.3759 -0.4329 -0.6992
 3789TIP3    H111331   6.853   3.477   1.088 -0.0290 -0.3223 -0.7098
 3789TIP3    H211332   6.797   3.479   0.947  1.5695 -1.7273 -1.3964
 3790TIP3   OH211333   2.724   6.644   3.763 -0.5689 -0.3262  0.3012
 3790TIP3    H111334   2.802   6.603   3.798  0.4911  2.0227  0.9042
 3790TIP3    H211335   2.658   6.634   3.832 -0.1966 -0.5747  0.6244
 3791TIP3   OH211336   0.252   6.619   2.080 -0.1922 -0.2170 -0.4820
 3791TIP3    H111337   0.344   6.642   2.092 -0.6330  0.9218  0.9781
 3791TIP3    H211338   0.253   6.526   2.057  1.3660  0.0198 -1.5054
 3792TIP3   OH211339   2.719   2.423   1.781 -0.2441 -0.5859 -0.0891
 3792TIP3    H111340   2.725   2.482   1.706  2.1409 -0.3820  0.2085
 3792TIP3    H211341   2.744   2.477   1.856 -1.1018 -1.1901  0.6605
 3793TIP3   OH211342   3.549   1.720   4.538 -0.4546  0.3833  0.2461
 3793TIP3    H111343   3.597   1.688   4.614 -0.2824  0.0531  0.0019
 3793TIP3    H211344   3.618   1.738   4.473 -0.6757 -0.4125 -0.2267
 3794TIP3   OH211345   2.085   1.340   3.935 -0.6661 -0.1680 -0.0782
 3794TIP3    H111346   2.090   1.406   3.866  0.1516  1.6682  1.6203
 3794TIP3    H211347   2.104   1.389   4.016  1.2386 -2.7003  1.1420
 3795TIP3   OH211348   1.302   1.059   3.510  0.0480  1.1420  0.4319
 3795TIP3    H111349   1.350   1.091   3.587  1.2129  1.1692 -0.2754
 3795TIP3    H211350   1.351   0.980   3.484 -2.5384 -1.1303  1.9423
 3796TIP3   OH211351   6.214   1.837   2.724  0.0205 -0.0715 -0.0286
 3796TIP3    H111352   6.267   1.822   2.802 -0.1363 -0.3379  0.0301
 3796TIP3    H211353   6.127   1.803   2.747  0.0392 -0.3892 -0.4038
 3797TIP3   OH211354   5.521   5.935   2.030 -0.4441 -0.6770  0.6186
 3797TIP3    H111355   5.574   6.013   2.041 -1.2195 -0.0047 -0.2324
 3797TIP3    H211356   5.438   5.967   1.996 -0.6801 -1.9027 -0.0176
 3798TIP3   OH211357   4.006   6.347   0.466 -0.1271 -0.0060 -0.5589
 3798TIP3    H111358   4.090   6.304   0.448  0.0500  0.2427 -0.3412
 3798TIP3    H211359   4.022   6.439   0.447 -0.4735 -0.0151 -0.9095
 3799TIP3   OH211360   3.880   6.368   3.512  0.2167  0.1616  0.2175
 3799TIP3    H111361   3.901   6.276   3.496  0.7005  0.2667  0.2058
 3799TIP3    H211362   3.795   6.381   3.471  1.0825  0.2485 -1.6648
 3800TIP3   OH211363   5.716   3.372   1.839  0.0324  0.1244 -0.1986
 3800TIP3    H111364   5.753   3.292   1.801 -0.1403  0.7718 -1.8277
 3800TIP3    H211365   5.639   3.390   1.785 -1.1331  0.2648  1.4571
 3801TIP3   OH211366   2.732   6.324   1.667  0.1165 -0.4743 -0.4061
 3801TIP3    H111367   2.694   6.237   1.657  0.6124 -0.7267 -0.1360
 3801TIP3    H211368   2.733   6.361   1.578 -0.8313 -0.4272 -0.4026
 3802TIP3   OH211369   2.298   1.199   0.478 -0.0043  0.4048  0.1823
 3802TIP3    H111370   2.212   1.161   0.463  0.5321 -1.2003  0.9445
 3802TIP3    H211371   2.359   1.134   0.443  0.9140  1.8078 -0.9483
 3803TIP3   OH211372   4.211   4.331   0.247 -0.2742 -0.1089  0.0003
 3803TIP3    H111373   4.165   4.412   0.224  1.4207  0.5842 -1.0801
 3803TIP3    H211374   4.222   4.336   0.342 -1.9623 -0.0819  0.2377
 3804TIP3   OH211375   0.314   5.831   1.297 -0.0501 -0.2358 -0.6503
 3804TIP3    H111376   0.265   5.853   1.218  0.2254  0.7746 -0.5475
 3804TIP3    H211377   0.251   5.840   1.368 -0.4097 -1.5521 -0.7812
 3805TIP3   OH211378   1.449   2.368   5.293 -0.2331 -0.2880 -0.0914
 3805TIP3    H111379   1.520   2.396   5.236 -0.1790  0.3523  0.2760
 3805TIP3    H211380   1.369   2.393   5.247 -0.2598 -1.7051 -0.8618
 3806TIP3   OH211381   0.678   0.524   2.709 -0.5777 -0.0881 -0.0047
 3806TIP3    H111382   0.758   0.566   2.739 -1.4112  0.3995  1.6930
 3806TIP3    H211383   0.621   0.596   2.681 -1.2877 -0.2075  1.0729
 3807TIP3   OH211384   4.895   6.095   5.699 -0.4208 -0.3853  0.1012
 3807TIP3    H111385   4.896   6.090   5.795 -0.4172  1.3353  0.2224
 3807TIP3    H211386   4.987   6.089   5.673 -0.5143 -2.4928  0.0441
 3808TIP3   OH211387   1.473   2.358   0.772 -0.2392 -0.1175 -0.2586
 3808TIP3    H111388   1.466   2.306   0.852 -1.8699 -0.0356 -0.3007
 3808TIP3    H211389   1.447   2.299   0.702 -1.4454  0.5107 -0.3849
 3809TIP3   OH211390   0.893   3.975   2.339  0.5252 -0.4938 -0.7625
 3809TIP3    H111391   0.913   4.057   2.293  1.1735  0.1781  0.6709
 3809TIP3    H211392   0.800   3.981   2.361  0.2914 -0.6724 -1.6476
 3810TIP3   OH211393   6.186   2.032   5.506  0.1078  0.0764 -0.5450
 3810TIP3    H111394   6.277   2.043   5.532  0.2918 -0.8288 -0.7595
 3810TIP3    H211395   6.183   2.066   5.416 -0.1835  1.7636  0.0705
 3811TIP3   OH211396   6.751   5.441   1.625  0.1052 -0.5370  0.2192
 3811TIP3    H111397   6.707   5.437   1.540 -0.4908 -2.5580  0.5597
 3811TIP3    H211398   6.741   5.532   1.653  0.6300  0.2685 -2.0038
 3812TIP3   OH211399   0.449   3.836   2.938  0.2341  0.1265  0.4189
 3812TIP3    H111400   0.419   3.889   2.864  1.3620  1.0949  0.6157
 3812TIP3    H211401   0.503   3.767   2.899  1.6695  1.2315  0.3599
 3813TIP3   OH211402   3.825   1.276   2.725  0.0521  0.5247 -0.0116
 3813TIP3    H111403   3.822   1.372   2.717 -1.5055  0.3803 -1.7861
 3813TIP3    H211404   3.733   1.251   2.736  0.5021 -0.7584  1.0389
 3814TIP3   OH211405   3.078   4.706   0.746 -0.0691  0.2440 -0.3196
 3814TIP3    H111406   3.070   4.744   0.658  1.6561  0.8935 -0.2411
 3814TIP3    H211407   3.146   4.638   0.737  3.5291  3.2554  1.2596
 3815TIP3   OH211408   6.063   2.325   5.435  0.0155  0.5924  0.4425
 3815TIP3    H111409   6.114   2.375   5.498  0.4204  0.8099 -0.0506
 3815TIP3    H211410   6.119   2.319   5.358  0.2101 -1.1153  0.6819
 3816TIP3   OH211411   5.811   0.933   5.578 -0.1755  0.4837  0.0043
 3816TIP3    H111412   5.797   0.883   5.658  0.5262  1.5204  0.7959
 3816TIP3    H211413   5.894   0.979   5.592  0.5397 -0.2035 -1.7915
 3817TIP3   OH211414   6.728   4.242   3.470 -0.2558 -0.1557 -0.3381
 3817TIP3    H111415   6.644   4.279   3.494  0.1865 -0.0107  1.0847
 3817TIP3    H211416   6.772   4.225   3.554  0.2049 -2.3809 -0.9430
 3818TIP3   OH211417   7.034   6.474   2.407  0.1990 -0.0108  0.5584
 3818TIP3    H111418   6.972   6.404   2.427  2.1386 -2.2078 -0.7391
 3818TIP3    H211419   7.045   6.471   2.312  0.7141  1.7614  0.5156
 3819TIP3   OH211420   5.530   2.823   5.596  0.0562 -0.0410  0.3194
 3819TIP3    H111421   5.528   2.813   5.501  0.7724  0.3869  0.2496
 3819TIP3    H211422   5.517   2.734   5.630  0.1101 -0.2458 -0.1840
 3820TIP3   OH211423   2.560   4.521   4.060  0.4533  0.9022 -0.6960
 3820TIP3    H111424   2.644   4.562   4.081  0.4753  1.5672 -1.9796
 3820TIP3    H211425   2.562   4.509   3.965  0.4431 -2.0931 -0.4410
 3821TIP3   OH211426   4.482   4.179   3.875  0.2344  1.0838 -0.5084
 3821TIP3    H111427   4.461   4.258   3.925 -1.7137  0.5869 -0.4366
 3821TIP3    H211428   4.396   4.140   3.856  1.1268 -0.7074 -1.0379
 3822TIP3   OH211429   3.332   1.092   5.290  0.0494  0.0029 -0.5314
 3822TIP3    H111430   3.422   1.077   5.262  0.2042 -0.6609  0.2662
 3822TIP3    H211431   3.338   1.163   5.354 -0.0044  0.0450 -0.5735
 3823TIP3   OH211432   3.420   0.501   0.645  0.4214 -0.2081 -0.7050
 3823TIP3    H111433   3.435   0.579   0.592  0.4348  0.9912  1.0010
 3823TIP3    H211434   3.333   0.514   0.683  0.9240 -0.4102  0.5604
 3824TIP3   OH211435   0.140   0.272   4.388 -1.0919  0.1457 -0.0636
 3824TIP3    H111436   0.112   0.183   4.371 -0.9604  0.0987 -0.0378
 3824TIP3    H211437   0.221   0.263   4.439 -2.3309  0.2808  2.0429
 3825TIP3   OH211438   3.351   2.903   0.022 -0.1995  0.4309  0.3213
 3825TIP3    H111439   3.390   2.816   0.022 -1.4614 -0.1560 -0.2773
 3825TIP3    H211440   3.309   2.910   0.108 -3.4798 -1.1993 -0.9543
 3826TIP3   OH211441   4.100   5.319   4.471  0.0147 -0.2540  0.2551
 3826TIP3    H111442   4.026   5.266   4.500  0.8402 -0.5875  1.8734
 3826TIP3    H211443   4.099   5.396   4.529  0.0626  0.4854 -0.6955
 3827TIP3   OH211444   2.594   3.666   0.030  0.0871  0.5519  0.0565
 3827TIP3    H111445   2.570   3.735   0.091  1.8805  0.9314  0.3774
 3827TIP3    H211446   2.643   3.711  -0.039 -0.0635 -0.1882 -0.5474
 3828TIP3   OH211447   6.703   2.412   1.742  0.6255 -0.7986  0.6376
 3828TIP3    H111448   6.734   2.365   1.664  2.3586 -1.9211  1.9367
 3828TIP3    H211449   6.620   2.451   1.714  0.8295 -1.7542 -1.5493
 3829TIP3   OH211450   6.541   4.076   4.211 -0.0630 -0.3055 -0.2744
 3829TIP3    H111451   6.463   4.023   4.195  0.6922 -1.9707  1.2514
 3829TIP3    H211452   6.531   4.106   4.302  1.6868 -1.7321  0.4374
 3830TIP3   OH211453   1.759   6.478   3.457  0.2448  0.2160  0.0518
 3830TIP3    H111454   1.843   6.441   3.429 -0.3312 -0.1719 -1.2326
 3830TIP3    H211455   1.746   6.443   3.545  0.9465 -0.5356 -0.1283
 3831TIP3   OH211456   0.903   3.683   1.481 -0.1933  0.0501 -0.0566
 3831TIP3    H111457   0.865   3.751   1.426  2.6267 -0.1126 -2.4717
 3831TIP3    H211458   0.979   3.725   1.522  0.5189 -1.1152 -0.1336
 3832TIP3   OH211459   1.129   2.745   5.787  0.2900 -0.5587 -0.4215
 3832TIP3    H111460   1.169   2.803   5.852 -0.3864 -0.9918  0.3964
 3832TIP3    H211461   1.102   2.668   5.837  0.7858 -1.4086 -1.4175
 3833TIP3   OH211462   1.079   1.225   1.100  0.2288 -0.0197  0.1122
 3833TIP3    H111463   1.105   1.256   1.187 -1.4501 -0.3497  0.7644
 3833TIP3    H211464   1.039   1.302   1.058  0.8526  0.0845 -0.3058
 3834TIP3   OH211465   4.742   4.879   4.098  0.1318  0.7624 -0.5513
 3834TIP3    H111466   4.755   4.843   4.185 -0.7450  1.9607  0.0899
 3834TIP3    H211467   4.814   4.941   4.086  0.1430  0.7384 -0.6088
 3835TIP3   OH211468   3.778   6.770   4.418 -0.2465 -0.0032  0.0003
 3835TIP3    H111469   3.825   6.698   4.376 -1.3851 -1.4353  1.0102
 3835TIP3    H211470   3.807   6.767   4.509  1.1272  2.1146 -0.3252
 3836TIP3   OH211471   3.473   4.438   5.497 -1.1217 -0.0191 -0.3400
 3836TIP3    H111472   3.455   4.471   5.585  0.1094  1.2172 -0.5152
 3836TIP3    H211473   3.549   4.488   5.468 -1.3023 -0.6399 -1.9811
 3837TIP3   OH211474   6.991   3.719   3.042 -0.3261  0.3667  0.1088
 3837TIP3    H111475   7.059   3.785   3.029  0.6152 -0.4751  0.5998
 3837TIP3    H211476   7.037   3.644   3.081 -1.2444 -0.7917 -0.9136
 3838TIP3   OH211477   5.203   4.492   5.558 -0.0578  0.2419  0.1808
 3838TIP3    H111478   5.162   4.405   5.559  1.2518 -0.4238 -0.5742
 3838TIP3    H211479   5.253   4.493   5.477  0.2261  1.5876  0.3558
 3839TIP3   OH211480   1.897   0.811   1.805 -0.2253  0.0398  0.5396
 3839TIP3    H111481   1.867   0.821   1.896  0.5818  1.0706  0.7105
 3839TIP3    H211482   1.844   0.874   1.756 -1.5951 -1.4476  0.0496
 3840TIP3   OH211483   3.189   2.293   2.835  0.1779  0.6352 -0.5421
 3840TIP3    H111484   3.276   2.300   2.875 -0.1052  1.1478 -0.0066
 3840TIP3    H211485   3.135   2.251   2.902  0.5260 -1.8473 -1.6894
 3841TIP3   OH211486   6.998   5.759   1.527  0.2105 -0.1376 -0.3282
 3841TIP3    H111487   7.008   5.763   1.622  0.2580  0.0514 -0.3398
 3841TIP3    H211488   6.903   5.763   1.513  0.1462 -1.2202 -0.2479
 3842TIP3   OH211489   0.445   1.930   0.621 -0.3669 -0.0130  0.1459
 3842TIP3    H111490   0.461   2.022   0.642  0.2386  0.0104 -0.3865
 3842TIP3    H211491   0.413   1.891   0.703 -1.4045  0.8380  0.1676
 3843TIP3   OH211492   3.701   5.153   3.004  0.1832  0.5190 -1.0885
 3843TIP3    H111493   3.687   5.228   3.062 -0.4979 -0.9972  0.7729
 3843TIP3    H211494   3.615   5.113   2.994  0.4822  0.1319 -2.3298
 3844TIP3   OH211495   6.042   0.451   4.955  0.2084  0.2438 -0.0444
 3844TIP3    H111496   6.076   0.367   4.987  0.1397 -0.0213 -0.6637
 3844TIP3    H211497   6.093   0.470   4.876 -1.1001 -0.1822 -1.0258
 3845TIP3   OH211498   5.001   5.763   0.296 -0.5050 -0.0770 -0.2179
 3845TIP3    H111499   5.003   5.851   0.259 -0.4664  0.1222  0.2529
 3845TIP3    H211500   4.910   5.734   0.283 -0.9447  0.6597  1.0608
 3846TIP3   OH211501   3.982   2.199   0.334  0.4820  0.1758  0.2658
 3846TIP3    H111502   4.061   2.174   0.288  0.6155 -0.6737  0.9257
 3846TIP3    H211503   3.913   2.197   0.268  1.0581  1.2967 -0.3970
 3847TIP3   OH211504   2.119   5.122   2.699  0.2426  0.1619 -0.2058
 3847TIP3    H111505   2.197   5.072   2.673 -0.4300 -0.0660 -1.9604
 3847TIP3    H211506   2.100   5.092   2.788  0.9782 -1.3062 -0.5054
 3848TIP3   OH211507   1.613   0.315   4.533 -0.2329 -0.6266 -0.4396
 3848TIP3    H111508   1.643   0.231   4.569  1.0806 -0.6215 -1.4438
 3848TIP3    H211509   1.631   0.378   4.602 -0.7113 -1.0755  0.1082
 3849TIP3   OH211510   6.655   5.078  -0.003 -0.9089  0.3261 -0.3502
 3849TIP3    H111511   6.597   5.048   0.067 -0.2212  0.0464  0.1035
 3849TIP3    H211512   6.742   5.053   0.026 -0.4793  1.4406 -0.6698
 3850TIP3   OH211513   1.362   3.876   5.080  0.1523 -0.3337 -0.0759
 3850TIP3    H111514   1.402   3.889   5.166 -1.1378 -1.2240  0.6893
 3850TIP3    H211515   1.436   3.856   5.022  1.3428  2.6774  0.2383
 3851TIP3   OH211516   6.596   3.787   3.850  0.4675 -0.1200  0.8996
 3851TIP3    H111517   6.541   3.863   3.863 -0.0870 -0.4058  0.3018
 3851TIP3    H211518   6.642   3.804   3.767  1.9493  0.5008  1.8011
 3852TIP3   OH211519   6.542   6.063   4.742 -0.0498  0.4103 -0.1698
 3852TIP3    H111520   6.514   6.059   4.651 -1.5157 -1.2788  0.2961
 3852TIP3    H211521   6.592   6.144   4.748  3.0171 -0.9757 -3.2534
 3853TIP3   OH211522   6.579   6.794   2.386 -0.1768 -0.0717  0.0531
 3853TIP3    H111523   6.650   6.743   2.425  0.6788  0.0311 -1.3057
 3853TIP3    H211524   6.502   6.774   2.440  0.2569 -2.3760 -0.0866
 3854TIP3   OH211525   3.798   2.654   3.529 -0.2224 -0.3076  1.0123
 3854TIP3    H111526   3.848   2.581   3.494  0.5159  0.6696 -0.0392
 3854TIP3    H211527   3.760   2.620   3.610 -2.1603 -2.7476 -0.7283
 3855TIP3   OH211528   4.130   2.526   3.389  0.1660 -0.5645 -0.1516
 3855TIP3    H111529   4.162   2.555   3.304  1.1666 -2.0980 -0.3471
 3855TIP3    H211530   4.160   2.592   3.451 -1.2217  0.9745 -1.0376
 3856TIP3   OH211531   4.536   4.378   1.418 -0.1819  0.2325  0.1893
 3856TIP3    H111532   4.514   4.457   1.468 -0.6419  0.3578 -0.2070
 3856TIP3    H211533   4.457   4.358   1.368 -0.2489 -0.7693  0.6571
 3857TIP3   OH211534   3.874   3.105   0.750 -0.0854  0.2096 -0.4435
 3857TIP3    H111535   3.968   3.125   0.748 -0.2737  1.2637  0.4352
 3857TIP3    H211536   3.847   3.127   0.839 -1.3564  0.8330 -0.9630
 3858TIP3   OH211537   4.178   6.292   0.047  0.4230 -0.2572 -0.2147
 3858TIP3    H111538   4.095   6.247   0.061  0.0906  0.8417  1.6699
 3858TIP3    H211539   4.181   6.307  -0.048  0.7020 -4.3367 -1.0576
 3859TIP3   OH211540   4.876   5.130   1.516  0.3823  0.6299  0.2793
 3859TIP3    H111541   4.852   5.221   1.534 -1.7631  0.2086 -0.1260
 3859TIP3    H211542   4.821   5.080   1.576 -0.6049 -0.4846 -1.5033
 3860TIP3   OH211543   1.015   4.408   0.644  0.3841  0.6557  0.2852
 3860TIP3    H111544   1.108   4.390   0.650 -0.1038 -2.3212  0.6221
 3860TIP3    H211545   0.974   4.321   0.635 -2.2936  1.8905 -0.6792
 3861TIP3   OH211546   6.170   4.925   5.625  0.2010  0.1532 -0.1249
 3861TIP3    H111547   6.252   4.963   5.593 -0.2699  1.9035  0.6349
 3861TIP3    H211548   6.127   4.891   5.547  0.2463  2.0299 -1.0195
 3862TIP3   OH211549   5.510   4.937   5.452  0.0082 -0.6636 -0.6403
 3862TIP3    H111550   5.501   4.919   5.545 -1.2137  0.3832 -0.5415
 3862TIP3    H211551   5.454   5.013   5.436  3.7247  2.2421 -1.2910
 3863TIP3   OH211552   3.741   1.250   1.893 -0.7162  0.5062 -0.1062
 3863TIP3    H111553   3.780   1.251   1.980  0.8446  0.7286 -0.7761
 3863TIP3    H211554   3.660   1.201   1.903  0.0804 -0.5995  1.2023
 3864TIP3   OH211555   4.029   0.361   1.859 -0.4127 -0.2703 -0.2340
 3864TIP3    H111556   4.101   0.423   1.852 -1.3447  0.7631 -1.1446
 3864TIP3    H211557   4.020   0.325   1.770 -2.6371  1.5597 -0.8430
 3865TIP3   OH211558   4.745   2.439   4.933  0.0073 -0.3256  0.1874
 3865TIP3    H111559   4.722   2.384   4.858  0.7069 -0.2388 -0.0917
 3865TIP3    H211560   4.781   2.378   4.998  1.2777 -0.1332 -0.3261
 3866TIP3   OH211561   1.129   5.168   0.896  0.5943  0.1935 -0.3579
 3866TIP3    H111562   1.217   5.202   0.883  0.7532 -0.2767 -0.5198
 3866TIP3    H211563   1.133   5.077   0.866  1.2382 -1.3677  3.7582
 3867TIP3   OH211564   6.575   2.249   1.959  0.0141  0.0924  0.4953
 3867TIP3    H111565   6.480   2.237   1.947  0.3397 -1.1212 -1.2423
 3867TIP3    H211566   6.603   2.297   1.881  1.3213 -2.5579 -0.7729
 3868TIP3   OH211567   3.375   5.277   3.815 -0.5061 -0.1447 -0.2950
 3868TIP3    H111568   3.299   5.219   3.823 -0.5480  0.1734  2.3495
 3868TIP3    H211569   3.361   5.345   3.880  1.4701  0.5911 -0.5578
 3869TIP3   OH211570   2.161   5.339   5.490  0.2977 -0.7276 -0.2879
 3869TIP3    H111571   2.113   5.393   5.427  1.0369 -1.0854 -1.1826
 3869TIP3    H211572   2.249   5.377   5.491  0.4480 -1.0845  0.1098
 3870TIP3   OH211573   5.857   1.070   0.641  0.0475  0.1063  0.1535
 3870TIP3    H111574   5.808   0.989   0.628 -0.0129  0.1246  0.2653
 3870TIP3    H211575   5.800   1.139   0.608 -0.2164  0.1794  0.7542
 3871TIP3   OH211576   2.239   3.044   0.639  0.0973  0.1074  0.3011
 3871TIP3    H111577   2.214   2.960   0.678  1.3012  0.1690  1.2628
 3871TIP3    H211578   2.185   3.109   0.684 -0.8508 -0.1406 -0.4584
 3872TIP3   OH211579   1.843   4.929   3.108 -0.2549 -0.1284 -0.0647
 3872TIP3    H111580   1.775   4.909   3.043 -0.1400  0.5906 -0.4121
 3872TIP3    H211581   1.913   4.969   3.057  1.3028 -2.6222 -0.0533
 3873TIP3   OH211582   3.627   0.307   4.197  0.0420 -0.1098  0.1507
 3873TIP3    H111583   3.572   0.375   4.160  0.2305  1.2439  2.1820
 3873TIP3    H211584   3.691   0.287   4.129 -0.3919  1.3199 -0.7030
 3874TIP3   OH211585   6.610   6.260   3.006 -0.1009 -0.0982 -0.3478
 3874TIP3    H111586   6.583   6.351   3.009 -0.2547 -0.1522  2.0155
 3874TIP3    H211587   6.575   6.221   3.087  2.9029 -1.3387  0.5181
 3875TIP3   OH211588   4.693   2.561   3.149  0.5838  0.2280  0.5831
 3875TIP3    H111589   4.734   2.612   3.079  0.9164 -1.4143 -0.4909
 3875TIP3    H211590   4.709   2.611   3.228 -0.1572  2.3601 -0.5402
 3876TIP3   OH211591   0.808   3.034   1.906  0.1054  0.3204  0.3056
 3876TIP3    H111592   0.891   3.054   1.862  1.4863 -0.4134  2.4338
 3876TIP3    H211593   0.742   3.084   1.857  1.8847  1.5001 -1.0085
 3877TIP3   OH211594   6.563   3.540   1.115 -0.3845 -0.4626  0.4743
 3877TIP3    H111595   6.630   3.596   1.153 -0.0672 -0.5623  0.0626
 3877TIP3    H211596   6.504   3.600   1.070 -1.3011 -0.2403  1.8962
 3878TIP3   OH211597   0.004   6.132   4.246  0.0643  0.0781 -0.2765
 3878TIP3    H111598   0.086   6.181   4.246  0.9867 -1.4056 -0.0270
 3878TIP3    H211599   0.016   6.065   4.313 -2.5581  1.6773  2.0142
 3879TIP3   OH211600   2.681   6.256   2.567  0.1899  0.6349 -0.2846
 3879TIP3    H111601   2.646   6.342   2.591  1.8179  1.6682 -1.4207
 3879TIP3    H211602   2.772   6.273   2.543  0.8402 -1.5805  0.3763
 3880TIP3   OH211603   0.885   1.074   0.939 -0.6892 -0.4623  0.0249
 3880TIP3    H111604   0.936   1.143   0.982 -1.6967  0.0764  0.3799
 3880TIP3    H211605   0.828   1.040   1.008 -0.7721 -1.0883 -0.3506
 3881TIP3   OH211606   6.283   6.442   2.949 -0.4547 -0.1502  0.3394
 3881TIP3    H111607   6.291   6.353   2.982  0.1013 -0.3271 -0.2353
 3881TIP3    H211608   6.268   6.496   3.026  1.0064 -0.5211  0.9170
 3882TIP3   OH211609   0.571   0.715   4.821  0.2949  0.6382  0.2187
 3882TIP3    H111610   0.576   0.645   4.886 -0.6830 -0.1069 -0.4856
 3882TIP3    H211611   0.491   0.697   4.772  0.7290  1.4882 -0.8449
 3883TIP3   OH211612   3.448   1.823   4.920 -0.6161  0.3447  0.2670
 3883TIP3    H111613   3.487   1.737   4.901 -1.4986  0.0379 -0.2295
 3883TIP3    H211614   3.396   1.843   4.842 -0.3633  1.3747  0.3516
 3884TIP3   OH211615   1.901   4.631   1.136 -0.0605  0.4443 -0.2467
 3884TIP3    H111616   1.974   4.646   1.076  0.8667  0.4968  0.8695
 3884TIP3    H211617   1.880   4.538   1.125 -1.7217  0.9829 -2.6060
 3885TIP3   OH211618   6.755   4.369   5.286  0.0451  0.4232  0.3463
 3885TIP3    H111619   6.720   4.331   5.206 -0.0456  1.1208  0.0552
 3885TIP3    H211620   6.749   4.298   5.350  1.6001 -0.6701 -0.6545
 3886TIP3   OH211621   3.684   3.491   4.327 -0.1169 -0.2274  0.2363
 3886TIP3    H111622   3.630   3.529   4.397 -0.5334 -0.8382  0.2518
 3886TIP3    H211623   3.628   3.426   4.285 -0.1968  0.7909 -1.3052
 3887TIP3   OH211624   5.577   0.496   4.631  0.4729 -0.3575 -0.2578
 3887TIP3    H111625   5.626   0.527   4.707 -0.4123  0.2783  0.0675
 3887TIP3    H211626   5.551   0.576   4.585 -2.6415 -0.4522  1.0887
 3888TIP3   OH211627   5.408   1.475   4.422  0.0392  0.2172 -0.3685
 3888TIP3    H111628   5.448   1.500   4.338 -1.5959  0.0713 -1.2253
 3888TIP3    H211629   5.380   1.384   4.409 -0.4301  0.2672  0.2605
 3889TIP3   OH211630   4.618   4.779   5.820  0.2084 -0.0019 -0.0046
 3889TIP3    H111631   4.675   4.848   5.786  1.7901 -0.6255  1.2544
 3889TIP3    H211632   4.663   4.697   5.799 -0.7997 -0.5834  0.0154
 3890TIP3   OH211633   0.457   6.779   2.973 -0.0806  0.1767 -0.1950
 3890TIP3    H111634   0.378   6.817   3.011 -0.1844 -1.4079  1.3417
 3890TIP3    H211635   0.484   6.712   3.037  1.3481 -0.7096 -1.6452
 3891TIP3   OH211636   1.895   0.357   3.708 -0.2507 -0.5773 -0.2130
 3891TIP3    H111637   1.816   0.399   3.673  0.2480  1.7981  1.2952
 3891TIP3    H211638   1.871   0.265   3.717 -2.0974 -0.3208 -1.8259
 3892TIP3   OH211639   4.819   1.471   2.022 -0.1713 -0.1620  0.1996
 3892TIP3    H111640   4.742   1.454   1.967 -0.0243 -0.0276 -0.0494
 3892TIP3    H211641   4.891   1.427   1.977 -0.2745 -1.0835  0.9282
 3893TIP3   OH211642  -0.020   3.137   4.378  0.0221 -0.4877 -0.3534
 3893TIP3    H111643   0.016   3.053   4.406  1.0858  0.1711  0.3496
 3893TIP3    H211644   0.019   3.201   4.438 -1.1905  0.4492 -0.5253
 3894TIP3   OH211645   1.310   5.100   1.217 -0.4858 -0.3997  0.0688
 3894TIP3    H111646   1.241   5.065   1.160  0.0678  0.4394 -1.1505
 3894TIP3    H211647   1.392   5.074   1.175  0.0036  3.3556 -1.6584
 3895TIP3   OH211648   5.272   0.914   4.330 -0.2952  0.2864 -0.1286
 3895TIP3    H111649   5.296   0.886   4.241  0.0566  1.4273 -0.4036
 3895TIP3    H211650   5.237   0.835   4.371  1.1070 -0.6768 -0.7235
 3896TIP3   OH211651   5.733   4.986   2.475 -0.4325  0.2958 -0.3519
 3896TIP3    H111652   5.687   5.067   2.455  0.9555  1.2849  0.3314
 3896TIP3    H211653   5.821   4.999   2.439 -0.3279 -1.1088 -0.6625
 3897TIP3   OH211654   4.902   2.404   2.355  0.1900  0.2993  0.0660
 3897TIP3    H111655   4.929   2.356   2.277 -0.1138  0.3517 -0.0726
 3897TIP3    H211656   4.807   2.389   2.360  0.2407  0.1253  0.5388
 3898TIP3   OH211657   1.487   3.527   1.666  0.3081 -0.0801 -0.1710
 3898TIP3    H111658   1.440   3.480   1.598 -1.1561  1.3697 -0.2369
 3898TIP3    H211659   1.574   3.543   1.630 -0.2359  0.0844 -1.4323
 3899TIP3   OH211660   3.241   3.448   0.632  0.9240  0.0399  0.2947
 3899TIP3    H111661   3.215   3.540   0.637 -1.5412 -0.5697 -0.2412
 3899TIP3    H211662   3.268   3.435   0.541 -1.9523 -0.4751 -0.5765
 3900TIP3   OH211663   4.935   4.673   2.475 -0.2353  0.2518 -0.7424
 3900TIP3    H111664   4.921   4.593   2.425  0.8403 -0.1285 -0.4609
 3900TIP3    H211665   4.882   4.662   2.553 -0.7240  0.1776 -1.0779
 3901TIP3   OH211666   4.758   3.702   3.553  0.0572  0.5515 -0.2675
 3901TIP3    H111667   4.726   3.709   3.643 -0.4114 -0.8673 -0.2904
 3901TIP3    H211668   4.695   3.644   3.510  1.7124 -0.9582 -0.7821
 3902TIP3   OH211669   1.082   0.439   3.759  0.3236  0.3612 -1.0334
 3902TIP3    H111670   1.059   0.358   3.804 -0.2623  0.0912 -1.8043
 3902TIP3    H211671   1.105   0.500   3.830  0.9364 -0.5192 -0.4620
 3903TIP3   OH211672   5.088   5.579   3.711 -1.0071  0.4522 -0.1697
 3903TIP3    H111673   5.144   5.520   3.661 -0.6498 -0.3734  1.1674
 3903TIP3    H211674   5.000   5.543   3.702 -0.8559 -0.0293  0.2699
 3904TIP3   OH211675   0.635   2.425   5.739 -0.7805 -0.5842  0.2591
 3904TIP3    H111676   0.730   2.437   5.739 -0.7131 -1.0748  0.6560
 3904TIP3    H211677   0.599   2.513   5.741 -0.3965 -0.0065 -4.7996
 3905TIP3   OH211678   4.333   5.233   1.438  0.4011  0.2292  0.2138
 3905TIP3    H111679   4.373   5.233   1.351  0.9739  0.7869  0.4707
 3905TIP3    H211680   4.240   5.216   1.422  0.7868 -1.5819 -0.3547
 3906TIP3   OH211681   4.976   3.717   2.724  0.1039  0.5285  0.0335
 3906TIP3    H111682   5.030   3.638   2.720  1.9980  1.6786  1.0460
 3906TIP3    H211683   4.937   3.725   2.637 -0.4651 -1.6898  0.0216
 3907TIP3   OH211684   3.866   5.725   0.169  0.0987  0.1765 -0.1692
 3907TIP3    H111685   3.921   5.696   0.096 -0.3452 -0.1549 -0.3777
 3907TIP3    H211686   3.776   5.710   0.139 -0.0873 -0.0102  0.4620
 3908TIP3   OH211687   0.447   0.254   4.436 -0.2982 -0.1287  0.2534
 3908TIP3    H111688   0.450   0.254   4.532 -3.4170  0.5890  0.4672
 3908TIP3    H211689   0.520   0.310   4.410  0.4222 -0.0805  2.2112
 3909TIP3   OH211690   5.491   1.104   3.538  0.4838 -0.3070  0.2165
 3909TIP3    H111691   5.470   1.191   3.504  1.3467  0.0918  0.6495
 3909TIP3    H211692   5.453   1.043   3.475  0.2954  0.3919 -0.3586
 3910TIP3   OH211693   7.123   3.001   2.620  0.3180 -0.7363  0.4288
 3910TIP3    H111694   7.101   3.062   2.551  0.1979 -0.6459  0.5459
 3910TIP3    H211695   7.218   3.008   2.630  0.2316 -0.1298  0.8518
 3911TIP3   OH211696   0.327   1.122   1.380  0.7238 -0.1656 -0.5098
 3911TIP3    H111697   0.281   1.055   1.430  1.7888  0.4083  1.3513
 3911TIP3    H211698   0.281   1.127   1.297 -2.6633  0.4402  1.2270
 3912TIP3   OH211699   5.234   0.224   0.631 -0.0892 -0.0589  1.0723
 3912TIP3    H111700   5.296   0.168   0.679 -0.5990 -0.5599  1.1588
 3912TIP3    H211701   5.289   0.280   0.577  0.4236 -0.9856  0.6113
 3913TIP3   OH211702   6.671   4.113   5.129  0.5531  0.0106  0.1606
 3913TIP3    H111703   6.743   4.051   5.139 -0.2365 -1.3154 -1.7211
 3913TIP3    H211704   6.664   4.127   5.034 -2.2752 -0.7783  0.1514
 3914TIP3   OH211705   2.324   2.789   3.427 -0.6495 -0.1056 -0.5892
 3914TIP3    H111706   2.243   2.750   3.459 -1.6566  1.4270 -1.1201
 3914TIP3    H211707   2.331   2.760   3.336 -0.0736 -1.0172 -0.2603
 3915TIP3   OH211708   2.272   2.978   3.980 -0.1568  0.5904  0.6354
 3915TIP3    H111709   2.347   2.987   3.922 -0.5359 -0.1660  0.0103
 3915TIP3    H211710   2.204   3.032   3.938 -1.6352 -2.7818 -1.7546
 3916TIP3   OH211711   7.136   3.070   5.679  0.7905  0.1380  0.1904
 3916TIP3    H111712   7.121   3.030   5.764  1.2001  0.3629  0.3701
 3916TIP3    H211713   7.053   3.112   5.658  0.3452 -0.8243 -0.0183
 3917TIP3   OH211714   2.754   6.008   3.447  0.0828  0.9665  0.3519
 3917TIP3    H111715   2.845   6.035   3.456  0.1835 -0.0269  3.4844
 3917TIP3    H211716   2.713   6.031   3.531 -2.3603  0.6824 -0.6738
 3918TIP3   OH211717   1.012   1.408   0.877  0.0065 -0.7559 -0.2669
 3918TIP3    H111718   0.965   1.470   0.933 -1.3398 -1.1118 -0.9477
 3918TIP3    H211719   1.101   1.442   0.873  0.1089 -0.6384  1.9442
 3919TIP3   OH211720   2.942   3.926   1.108 -0.0522  0.8639  0.2439
 3919TIP3    H111721   2.996   3.930   1.030 -1.6242 -0.2229 -0.9685
 3919TIP3    H211722   2.893   3.844   1.100 -0.5010  0.8737  2.2176
 3920TIP3   OH211723   4.703   2.592   2.665 -0.7543 -0.3084 -0.2589
 3920TIP3    H111724   4.694   2.497   2.665  1.5224 -0.5820  0.7295
 3920TIP3    H211725   4.617   2.625   2.692 -1.4321 -2.0933 -0.1366
 3921TIP3   OH211726   4.928   3.758   3.177  0.1345 -0.2502 -0.3400
 3921TIP3    H111727   4.891   3.705   3.106 -0.9628 -3.8530  2.6362
 3921TIP3    H211728   5.022   3.741   3.173 -0.0776 -1.5431 -0.1276
 3922TIP3   OH211729   5.196   5.676   3.289  0.4721  0.0047  0.1227
 3922TIP3    H111730   5.151   5.752   3.326 -0.5252  0.2156 -1.4362
 3922TIP3    H211731   5.126   5.615   3.267  0.9751 -0.0250 -1.5745
 3923TIP3   OH211732   6.445   1.913   2.944  0.3910 -0.6515 -0.3609
 3923TIP3    H111733   6.491   1.938   3.024  0.3631  0.3738 -0.6541
 3923TIP3    H211734   6.433   1.995   2.897  0.5514 -1.2591 -1.4967
 3924TIP3   OH211735   1.730   3.919   4.843  0.5738 -0.0220 -1.1669
 3924TIP3    H111736   1.647   3.889   4.880 -0.9147  4.1104 -0.6244
 3924TIP3    H211737   1.715   3.923   4.749 -0.2707  1.5484 -1.0042
 3925TIP3   OH211738   0.319   3.532   5.561 -0.2948  0.0039  0.1381
 3925TIP3    H111739   0.336   3.596   5.492  0.9108  0.0822  0.4765
 3925TIP3    H211740   0.239   3.563   5.603 -0.0602  0.9608 -0.0928
 3926TIP3   OH211741   1.239   3.399   2.095  0.1146 -0.5917  0.0926
 3926TIP3    H111742   1.221   3.437   2.009 -0.3928  2.0300  1.2544
 3926TIP3    H211743   1.321   3.352   2.085  0.8519  0.9610 -1.4673
 3927TIP3   OH211744   3.031   1.511   4.353  0.2355  0.1412  0.2113
 3927TIP3    H111745   3.072   1.537   4.436  0.1734  0.4534  0.1467
 3927TIP3    H211746   3.015   1.594   4.307 -0.1825  0.0039  0.1014
 3928TIP3   OH211747   7.140   2.765   5.241  0.0524 -0.1045  0.2484
 3928TIP3    H111748   7.110   2.856   5.233  1.6469  0.4535  0.1948
 3928TIP3    H211749   7.061   2.716   5.263 -0.8565  1.2870  0.2571
 3929TIP3   OH211750   5.538   6.572   5.487  0.1610 -0.4921  0.1294
 3929TIP3    H111751   5.527   6.545   5.579  1.3327 -1.6882 -0.0499
 3929TIP3    H211752   5.597   6.646   5.491 -0.3251 -0.1102  0.3799
 3930TIP3   OH211753   5.699   1.635   5.516  0.5255  0.5381  0.0198
 3930TIP3    H111754   5.758   1.696   5.472  1.0850  0.3717  0.5363
 3930TIP3    H211755   5.720   1.644   5.609  0.5751 -0.4081  0.1058
 3931TIP3   OH211756   2.796   4.236   1.017  0.0385  0.0545  0.0702
 3931TIP3    H111757   2.725   4.175   0.997 -0.2572  0.0754  1.0251
 3931TIP3    H211758   2.757   4.322   1.003  0.0562  0.0544  0.0190
 3932TIP3   OH211759   0.559   6.157   2.020  0.0338 -0.5381  0.2954
 3932TIP3    H111760   0.476   6.111   2.032  0.4788 -1.5295 -0.3257
 3932TIP3    H211761   0.544   6.213   1.944  0.5683 -2.3303 -1.1983
 3933TIP3   OH211762   5.436   5.774   3.544 -0.3077 -0.0330 -0.3141
 3933TIP3    H111763   5.482   5.792   3.626  0.5050  2.3575 -1.2127
 3933TIP3    H211764   5.506   5.757   3.481 -0.9005 -1.2017 -0.6855
 3934TIP3   OH211765   3.473   5.452   5.024 -0.5836 -0.0637 -0.4238
 3934TIP3    H111766   3.508   5.427   5.110 -0.8112 -0.0783 -0.3336
 3934TIP3    H211767   3.394   5.502   5.044 -1.0826 -0.7485 -0.6328
 3935TIP3   OH211768   3.838   0.870   0.733 -0.0775 -0.4300  0.2191
 3935TIP3    H111769   3.870   0.819   0.658  1.4650  0.4929  0.1989
 3935TIP3    H211770   3.743   0.872   0.721  0.1293 -0.1071 -1.8785
 3936TIP3   OH211771   1.682   1.969   1.570 -0.0931 -0.4477 -0.1418
 3936TIP3    H111772   1.700   1.937   1.481 -0.9253 -1.6872  0.1161
 3936TIP3    H211773   1.698   1.894   1.627  0.4013  0.3293  0.7778
 3937TIP3   OH211774   5.446   5.164   3.781 -0.1608  0.1618 -0.6446
 3937TIP3    H111775   5.414   5.226   3.847 -0.4839  0.2353 -0.8703
 3937TIP3    H211776   5.507   5.216   3.728  0.5912 -0.0584 -0.0221
 3938TIP3   OH211777   7.083   0.292   2.570 -0.3742  0.1683  0.4631
 3938TIP3    H111778   7.025   0.326   2.639 -0.6155  0.2229  0.2352
 3938TIP3    H211779   7.142   0.364   2.549  0.5948 -0.2728  1.5641
 3939TIP3   OH211780   0.901   4.935   3.257  0.4177  0.3231  0.0932
 3939TIP3    H111781   0.909   5.030   3.249 -0.1671  0.3829  0.1805
 3939TIP3    H211782   0.984   4.901   3.224  0.8201  0.8828  0.5088
 3940TIP3   OH211783   6.555   2.040   5.798 -0.3696 -0.2837 -0.0599
 3940TIP3    H111784   6.615   2.061   5.726 -1.9252 -0.3369 -1.4248
 3940TIP3    H211785   6.470   2.031   5.757 -0.8828 -3.2442  1.3362
 3941TIP3   OH211786   5.986   2.910   4.827 -0.5675 -0.1673 -0.3530
 3941TIP3    H111787   6.014   2.866   4.747 -1.3444  2.8734 -2.4778
 3941TIP3    H211788   6.064   2.910   4.883  1.0402  0.3868 -2.4700
 3942TIP3   OH211789   4.945   2.698   2.614  0.3397 -0.0562 -0.0318
 3942TIP3    H111790   4.935   2.791   2.630  1.3864 -0.1713  1.4430
 3942TIP3    H211791   4.868   2.658   2.656 -0.1700  0.1273 -0.7656
 3943TIP3   OH211792   4.325   6.424   3.929  0.7139 -0.0048 -0.6730
 3943TIP3    H111793   4.387   6.363   3.889 -1.0963 -0.7361 -2.5907
 3943TIP3    H211794   4.266   6.368   3.979  1.2436  0.6322  0.7220
 3944TIP3   OH211795   5.180   2.540   3.282  0.0102  0.3775 -0.1726
 3944TIP3    H111796   5.274   2.522   3.274  0.0343  0.4565 -0.0745
 3944TIP3    H211797   5.176   2.623   3.330 -0.0859  0.8930 -1.0518
 3945TIP3   OH211798   1.314   0.428   1.361 -0.2519  0.0452  0.6806
 3945TIP3    H111799   1.321   0.501   1.298 -1.8480 -0.0810  0.3138
 3945TIP3    H211800   1.400   0.386   1.358 -0.2636  0.0638 -1.4124
 3946TIP3   OH211801   1.262   5.336   1.368 -0.2295  0.3925 -0.3867
 3946TIP3    H111802   1.293   5.257   1.323  2.5552  0.9950  0.3079
 3946TIP3    H211803   1.228   5.391   1.297 -1.1813 -0.9215 -1.0104
 3947TIP3   OH211804   2.700   3.614   1.680  0.1528 -0.0352 -0.2897
 3947TIP3    H111805   2.695   3.558   1.602 -1.0611 -1.2757  0.6288
 3947TIP3    H211806   2.790   3.646   1.680  0.1046  0.2572 -2.3591
 3948TIP3   OH211807   6.175   3.501   3.087  0.0808  0.0547  0.0509
 3948TIP3    H111808   6.262   3.464   3.100 -0.3630 -1.3705 -0.7670
 3948TIP3    H211809   6.164   3.564   3.157  1.4450 -0.3686  0.6629
 3949TIP3   OH211810   6.159   4.594   3.263 -0.0082 -0.4847  0.4803
 3949TIP3    H111811   6.182   4.647   3.187  2.7573  0.2842  1.7107
 3949TIP3    H211812   6.092   4.646   3.309 -2.0885 -1.1946 -1.5597
 3950TIP3   OH211813   3.301   0.671   5.079 -0.1098  0.2154  0.1769
 3950TIP3    H111814   3.345   0.730   5.017 -0.1866  0.4813  0.3740
 3950TIP3    H211815   3.365   0.601   5.095 -0.6241 -0.6434 -1.3168
 3951TIP3   OH211816   5.544   4.916   3.934 -0.2090 -0.2722  0.0152
 3951TIP3    H111817   5.454   4.905   3.904 -1.3528  3.0688  1.6985
 3951TIP3    H211818   5.587   4.965   3.864 -0.0913 -0.6970 -0.2105
 3952TIP3   OH211819   4.507   1.904   0.651 -0.4404  0.0561 -0.2746
 3952TIP3    H111820   4.476   1.814   0.645 -0.2384  0.0399 -1.2314
 3952TIP3    H211821   4.428   1.958   0.644 -0.4684 -0.0291 -0.6269
 3953TIP3   OH211822   3.284   6.497   0.733 -0.3101  0.3139 -0.1882
 3953TIP3    H111823   3.226   6.449   0.674 -2.6927  2.3059  0.3805
 3953TIP3    H211824   3.303   6.579   0.686 -3.0610  2.4007  1.9959
 3954TIP3   OH211825   3.698   0.975   3.414  0.2223  0.7108  0.3162
 3954TIP3    H111826   3.729   0.884   3.417 -1.5880  0.0477  2.0157
 3954TIP3    H211827   3.741   1.013   3.338  2.0436 -1.1918  0.3058
 3955TIP3   OH211828   0.154   4.522   1.917  0.4142  0.4360  0.2951
 3955TIP3    H111829   0.157   4.497   2.010  0.7746 -0.7547 -0.0155
 3955TIP3    H211830   0.063   4.548   1.902 -0.3735 -2.0107  0.3596
 3956TIP3   OH211831   3.904   3.646   4.382 -0.0352  0.0148  0.2776
 3956TIP3    H111832   3.849   3.568   4.390 -0.4879  0.3006 -0.0414
 3956TIP3    H211833   3.846   3.719   4.406  0.6006  0.1856  1.3658
 3957TIP3   OH211834   6.181   4.262   2.386 -0.3468 -0.4003  0.0044
 3957TIP3    H111835   6.179   4.305   2.300  0.9203 -0.7186 -0.1939
 3957TIP3    H211836   6.210   4.173   2.368 -1.4423 -0.9035  0.6076
 3958TIP3   OH211837   3.195   2.572   5.600  0.0853  0.2427 -0.4564
 3958TIP3    H111838   3.191   2.523   5.518  1.5414 -0.4291 -0.1545
 3958TIP3    H211839   3.198   2.505   5.668 -0.1739  0.7856  0.1034
 3959TIP3   OH211840   1.332   0.435   2.947 -0.2449  0.5225  0.2697
 3959TIP3    H111841   1.366   0.509   2.998  0.4618  0.4516 -0.0915
 3959TIP3    H211842   1.384   0.435   2.867 -0.0237 -0.5543  0.4013
 3960TIP3   OH211843   2.982   5.787   5.719 -0.3178 -0.2954 -0.0620
 3960TIP3    H111844   2.923   5.724   5.678  0.3431 -0.6014 -0.5673
 3960TIP3    H211845   2.941   5.872   5.702 -1.4481 -0.5883  1.0125
 3961TIP3   OH211846   0.665   6.032   1.111 -0.8660 -0.0045 -0.8473
 3961TIP3    H111847   0.745   6.054   1.063 -0.3310 -1.0106 -0.4500
 3961TIP3    H211848   0.638   6.115   1.151  0.5317  0.1745 -0.1866
 3962TIP3   OH211849   6.877   0.532   2.525 -0.0481 -0.3975  0.6675
 3962TIP3    H111850   6.782   0.535   2.508 -0.1248  2.0940  1.0414
 3962TIP3    H211851   6.913   0.482   2.452 -1.4467  0.8051 -0.9551
 3963TIP3   OH211852   6.903   2.800   0.479  0.5827  0.2485  0.3981
 3963TIP3    H111853   6.863   2.742   0.414 -0.4066 -0.7185  1.8063
 3963TIP3    H211854   6.884   2.888   0.448  0.0242 -0.1804 -0.5390
 3964TIP3   OH211855   1.659   6.451   4.621  0.2341 -0.1983  0.2232
 3964TIP3    H111856   1.631   6.541   4.639  2.1680  0.6334 -0.6439
 3964TIP3    H211857   1.683   6.416   4.707 -0.0313  0.2877  0.5018
 3965TIP3   OH211858   4.329   2.808   1.121 -0.5055 -0.3314  0.5256
 3965TIP3    H111859   4.402   2.770   1.073 -1.4538 -0.1768 -1.0994
 3965TIP3    H211860   4.270   2.734   1.138 -1.4272  0.0460 -0.9212
 3966TIP3   OH211861   3.218   2.630   2.886 -0.1676  0.2770  0.6199
 3966TIP3    H111862   3.290   2.666   2.937 -0.5542 -0.4545  1.7168
 3966TIP3    H211863   3.260   2.586   2.812  0.5164 -0.2388  1.3109
 3967TIP3   OH211864   0.093   0.509   3.832 -0.2573 -0.4611 -0.2708
 3967TIP3    H111865   0.111   0.537   3.742  0.2434  0.0275 -0.0214
 3967TIP3    H211866   0.094   0.590   3.883  0.3989 -0.8374  0.3326
 3968TIP3   OH211867   6.502   4.907   2.360 -0.2800 -0.4981 -0.3062
 3968TIP3    H111868   6.415   4.947   2.366 -1.2049 -2.2684 -1.1279
 3968TIP3    H211869   6.485   4.814   2.348  1.7703 -1.3710  2.3470
 3969TIP3   OH211870   5.579   2.963   0.229  0.1843  0.5193  0.1537
 3969TIP3    H111871   5.670   2.945   0.203 -0.2517 -1.5017 -0.1242
 3969TIP3    H211872   5.573   3.058   0.230  1.9325  0.6944 -1.1744
 3970TIP3   OH211873   2.816   4.093   2.700  0.1176  0.1594 -0.0468
 3970TIP3    H111874   2.864   4.016   2.732  1.3492  1.4759  1.4414
 3970TIP3    H211875   2.874   4.131   2.634 -0.1967  0.1933 -0.3069
 3971TIP3   OH211876   4.823   0.241   3.910  0.5949 -0.7186  0.6132
 3971TIP3    H111877   4.857   0.279   3.991 -0.6403  2.2709 -0.1266
 3971TIP3    H211878   4.897   0.246   3.849  0.1572  1.9614  0.1644
 3972TIP3   OH211879   4.684   0.036   5.184  0.3053  0.4217  0.3645
 3972TIP3    H111880   4.646   0.041   5.272  1.2734  0.0442  0.8089
 3972TIP3    H211881   4.771   0.074   5.193 -0.2779  2.2150 -0.8632
 3973TIP3   OH211882   1.233   3.865   1.131 -0.4250  0.0334 -0.5446
 3973TIP3    H111883   1.161   3.817   1.091 -0.6927 -0.3987  0.4148
 3973TIP3    H211884   1.191   3.919   1.199 -0.0331  1.0386 -1.0887
 3974TIP3   OH211885   1.746   5.013   0.841 -0.0356 -0.1045  0.0839
 3974TIP3    H111886   1.722   5.007   0.749 -0.9032 -1.2061  0.3640
 3974TIP3    H211887   1.664   5.003   0.888  0.5145 -0.4600  0.9959
 3975TIP3   OH211888   6.857   5.744   2.920  0.1581 -0.0562  0.0920
 3975TIP3    H111889   6.926   5.691   2.879 -2.4081 -1.7815 -2.3657
 3975TIP3    H211890   6.865   5.829   2.878  0.8266 -0.2133 -0.1176
 3976TIP3   OH211891   4.283   3.573   1.325 -0.6820  0.2896 -0.6831
 3976TIP3    H111892   4.376   3.597   1.325 -0.1126 -1.7257 -0.9662
 3976TIP3    H211893   4.254   3.590   1.414 -0.2891  1.7901 -0.8252
 3977TIP3   OH211894   1.571   3.133   4.526  0.8408  0.0903 -0.0862
 3977TIP3    H111895   1.563   3.042   4.555  2.1959 -0.0473 -0.1025
 3977TIP3    H211896   1.548   3.131   4.433  0.7695 -0.2172 -0.0626
 3978TIP3   OH211897   0.653   6.770   2.479  0.2679  0.4707  0.2750
 3978TIP3    H111898   0.733   6.782   2.531 -0.3065 -0.8400  1.5435
 3978TIP3    H211899   0.619   6.686   2.508 -0.8617  0.3702 -1.2412
 3979TIP3   OH211900   4.617   2.518   1.592 -0.1448  0.9073 -0.3484
 3979TIP3    H111901   4.553   2.507   1.523  0.3440 -2.5711 -0.4275
 3979TIP3    H211902   4.701   2.520   1.547  0.0883  0.0224  0.0192
 3980TIP3   OH211903   5.365   0.453   2.686  0.3858  0.0126  0.3452
 3980TIP3    H111904   5.439   0.509   2.665  0.0257 -0.0329 -1.1438
 3980TIP3    H211905   5.396   0.364   2.665  0.0216 -0.0373  0.0068
 3981TIP3   OH211906   1.409   4.297   2.352  0.2341 -0.2001 -0.5642
 3981TIP3    H111907   1.351   4.220   2.352 -0.4935  0.2059  2.5717
 3981TIP3    H211908   1.484   4.270   2.404  2.4156 -0.2661 -3.4953
 3982TIP3   OH211909   0.791   1.484   0.074  0.2822 -0.3188  0.2568
 3982TIP3    H111910   0.822   1.398   0.102 -0.4329 -0.4683  0.6125
 3982TIP3    H211911   0.773   1.531   0.156  1.3229  0.4164  0.0770
 3983TIP3   OH211912   2.089   4.324   4.310  0.3303  0.1836  0.3979
 3983TIP3    H111913   2.079   4.327   4.215  1.1052 -0.8930  0.2610
 3983TIP3    H211914   2.144   4.399   4.332  1.4408 -0.4240 -0.2059
 3984TIP3   OH211915   2.204   6.267   4.973 -0.1145 -0.4336  0.4831
 3984TIP3    H111916   2.187   6.353   5.011  0.6730  0.9614 -2.0709
 3984TIP3    H211917   2.150   6.266   4.894  1.0564 -1.6523 -0.3331
 3985TIP3   OH211918   4.814   6.566   1.839 -0.3542 -0.0044 -0.0787
 3985TIP3    H111919   4.899   6.607   1.826 -0.5294  0.1809 -0.6993
 3985TIP3    H211920   4.786   6.594   1.925 -1.8061  3.6580 -1.5511
 3986TIP3   OH211921   0.286   3.593   4.282  0.0174 -0.0510 -0.1347
 3986TIP3    H111922   0.231   3.611   4.206 -0.6145  0.5128  0.4447
 3986TIP3    H211923   0.372   3.629   4.258 -0.6995  2.0758  0.2013
 3987TIP3   OH211924   5.308   2.213   4.005  0.2109 -0.1270 -0.6669
 3987TIP3    H111925   5.221   2.194   4.039 -0.4842  0.1787 -2.1891
 3987TIP3    H211926   5.368   2.188   4.076 -1.0847 -0.6507  0.2767
 3988TIP3   OH211927   2.480   6.551   3.071  0.5279  0.3206  1.0824
 3988TIP3    H111928   2.407   6.576   3.014  0.4640  0.7752  1.3616
 3988TIP3    H211929   2.512   6.469   3.034  2.6163  2.1770 -1.5916
 3989TIP3   OH211930   6.543   4.581   5.547 -0.0778 -0.2565 -0.2724
 3989TIP3    H111931   6.501   4.625   5.621  1.4821  1.0504 -0.1042
 3989TIP3    H211932   6.470   4.542   5.498 -1.2105 -0.5294  1.5211
 3990TIP3   OH211933   0.790   1.219   5.130 -0.0605  0.7414 -0.0086
 3990TIP3    H111934   0.716   1.193   5.075 -0.1038 -0.0636  0.4120
 3990TIP3    H211935   0.770   1.183   5.216  1.1973 -0.1858 -0.0822
 3991TIP3   OH211936   3.504   1.212   0.862 -0.2112  0.0308  0.2239
 3991TIP3    H111937   3.533   1.276   0.797 -0.2820 -1.5361 -1.4211
 3991TIP3    H211938   3.451   1.263   0.923  0.0388  1.6068 -0.8152
 3992TIP3   OH211939   4.498   5.476   4.179  0.4425 -0.2906  0.7984
 3992TIP3    H111940   4.452   5.476   4.263 -0.1591 -0.8558  0.4794
 3992TIP3    H211941   4.444   5.422   4.122 -0.1504  1.5884 -0.5145
 3993TIP3   OH211942   1.260   6.260   1.279 -0.0873  1.0402 -0.8866
 3993TIP3    H111943   1.333   6.320   1.266 -0.9730  2.4899  0.5056
 3993TIP3    H211944   1.209   6.299   1.350 -0.1701 -1.8798  0.8067
 3994TIP3   OH211945   3.900   1.057   3.254  0.1924  0.2802 -0.2328
 3994TIP3    H111946   3.975   1.029   3.202  2.6648 -0.1435  3.2031
 3994TIP3    H211947   3.923   1.145   3.284 -1.0662  0.4661  0.2561
 3995TIP3   OH211948   3.717   1.532   0.527  0.5577  0.3855 -0.0462
 3995TIP3    H111949   3.756   1.606   0.572  0.9065  0.3727 -0.3208
 3995TIP3    H211950   3.723   1.555   0.434 -2.4912  1.6161 -0.0677
 3996TIP3   OH211951   0.334   5.441   1.580  1.1826 -0.2120 -0.2805
 3996TIP3    H111952   0.394   5.369   1.599  0.7309 -0.4164  0.3854
 3996TIP3    H211953   0.283   5.452   1.660  0.3171 -0.0471 -0.8447
 3997TIP3   OH211954   6.620   6.762   3.261  0.2918  0.2625  0.0745
 3997TIP3    H111955   6.577   6.764   3.346  1.2797  0.4571  0.5760
 3997TIP3    H211956   6.549   6.773   3.198 -0.5326 -0.5266  0.8354
 3998TIP3   OH211957   4.180   5.531   0.368  0.1458 -0.2134 -0.1419
 3998TIP3    H111958   4.193   5.529   0.273  1.0349  0.1939 -0.0394
 3998TIP3    H211959   4.139   5.616   0.384 -1.7394 -1.0337 -0.3402
 3999TIP3   OH211960   6.770   3.023   0.363  0.2802  0.1666 -0.1778
 3999TIP3    H111961   6.702   2.966   0.326  1.1343 -1.0129  0.0209
 3999TIP3    H211962   6.748   3.110   0.329  0.0092 -0.5711 -2.0611
 4000TIP3   OH211963   3.411   2.093   4.735 -0.0406  0.3393  0.6624
 4000TIP3    H111964   3.397   2.000   4.720 -0.9463  0.5269  0.2774
 4000TIP3    H211965   3.330   2.135   4.706  0.7568  1.3527 -0.2080
 4001TIP3   OH211966   2.731   4.940   5.146 -0.2386 -0.5341  0.2419
 4001TIP3    H111967   2.822   4.966   5.156 -0.3921 -0.3101  1.0937
 4001TIP3    H211968   2.707   4.904   5.231 -1.2531  0.3684  0.3520
 4002TIP3   OH211969   2.609   3.238   3.709  0.1391 -0.0664 -0.1745
 4002TIP3    H111970   2.693   3.280   3.723  0.4770 -1.0991  1.0453
 4002TIP3    H211971   2.544   3.303   3.738  0.5779  0.1646  0.2906
 4003TIP3   OH211972   5.625   3.864   4.970  0.6243  0.2542 -0.1039
 4003TIP3    H111973   5.613   3.835   5.060 -1.6889 -0.5891 -0.6018
 4003TIP3    H211974   5.638   3.959   4.976  0.3306  0.2233  1.1191
 4004TIP3   OH211975   2.093   6.563   4.649 -0.1640 -0.0165 -0.5110
 4004TIP3    H111976   2.159   6.626   4.676 -0.5145  0.0500  0.2183
 4004TIP3    H211977   2.100   6.559   4.554 -0.3836  1.3871 -0.5971
 4005TIP3   OH211978   5.296   2.636   5.645 -0.3030 -0.0263 -0.2180
 4005TIP3    H111979   5.389   2.629   5.668  0.1288 -0.4584 -1.9695
 4005TIP3    H211980   5.256   2.557   5.681  0.4611 -0.9761 -1.3759
 4006TIP3   OH211981   2.451   4.993   1.396 -0.1754  0.4086  0.6019
 4006TIP3    H111982   2.387   5.008   1.466 -0.1860  0.9171  0.4925
 4006TIP3    H211983   2.414   5.038   1.320 -1.4316 -2.2669 -0.4857
 4007TIP3   OH211984   5.875   3.203   5.169 -0.2139  0.5269 -0.2185
 4007TIP3    H111985   5.879   3.214   5.264 -1.6612  0.1816 -0.1050
 4007TIP3    H211986   5.951   3.251   5.137 -0.3204  1.5956  1.0296
 4008TIP3   OH211987   1.782   5.871   0.993 -0.0253 -0.4107  0.0237
 4008TIP3    H111988   1.751   5.954   0.957  0.9912 -0.4473 -1.0106
 4008TIP3    H211989   1.811   5.893   1.081 -0.5814  0.1467  0.0766
 4009TIP3   OH211990   6.431   6.429   0.548 -0.3980  0.0600 -0.3217
 4009TIP3    H111991   6.393   6.488   0.613  2.2030 -1.3329  2.6916
 4009TIP3    H211992   6.371   6.355   0.544 -0.0041 -0.3790  1.4399
 4010TIP3   OH211993   2.111   3.383   2.741 -0.0571  0.0819  0.1051
 4010TIP3    H111994   2.041   3.415   2.685  1.0986  0.4897 -1.1853
 4010TIP3    H211995   2.191   3.400   2.691  0.9078 -1.0873  1.1657
 4011TIP3   OH211996   6.226   4.592   2.657 -0.8170  0.4922 -0.4899
 4011TIP3    H111997   6.133   4.612   2.669 -1.1599 -2.2189  3.6944
 4011TIP3    H211998   6.271   4.662   2.705 -0.9633  0.2054  0.0869
 4012TIP3   OH211999   0.904   6.140   5.144  0.4037  0.3357 -0.0647
 4012TIP3    H112000   0.877   6.223   5.105 -1.1908  0.0058  0.2739
 4012TIP3    H212001   0.880   6.074   5.078  2.6315  0.1763 -0.8018
 4013TIP3   OH212002   4.152   2.900   4.711  0.0504 -0.0301 -0.4323
 4013TIP3    H112003   4.060   2.875   4.707 -0.1874  0.8475 -0.5967
 4013TIP3    H212004   4.161   2.971   4.648  0.8805 -0.2115 -0.5358
 4014TIP3   OH212005   2.277   0.755   0.368 -0.0671  0.5270 -0.2587
 4014TIP3    H112006   2.345   0.745   0.301  1.3761  3.2788  0.6395
 4014TIP3    H212007   2.324   0.791   0.444 -2.0154 -0.4817  1.5233
 4015TIP3   OH212008   2.163   5.553   3.315  0.2654  0.2297 -0.0889
 4015TIP3    H112009   2.169   5.606   3.236 -1.8958  1.1755  0.2964
 4015TIP3    H212010   2.252   5.552   3.350  0.7875  1.8475 -1.2413
 4016TIP3   OH212011   4.879   2.543   0.038 -0.0749 -0.7002 -0.2013
 4016TIP3    H112012   4.953   2.596   0.067 -0.4435 -0.5736  0.5142
 4016TIP3    H212013   4.856   2.490   0.113 -0.9812 -0.4318 -0.2770
 4017TIP3   OH212014   3.997   6.059   0.399  0.1872  0.6768  0.3875
 4017TIP3    H112015   3.978   6.129   0.337  0.9763  0.9320  0.4203
 4017TIP3    H212016   3.965   6.092   0.483  0.8455  1.1366  0.4623
 4018TIP3   OH212017   4.142   3.967   3.071 -0.4210 -0.5840 -0.1711
 4018TIP3    H112018   4.146   3.875   3.098  1.9722 -0.0583  1.5982
 4018TIP3    H212019   4.226   3.983   3.028  0.5393  1.4318  2.1919
 4019TIP3   OH212020   0.912   5.054   2.051 -0.1126  0.3108  0.1811
 4019TIP3    H112021   0.975   5.098   1.994 -0.4527 -0.0449 -0.4709
 4019TIP3    H212022   0.965   5.000   2.109  0.3771  1.9705  1.3882
 4020TIP3   OH212023   2.011   2.046   1.639 -0.2079  0.2487  0.1508
 4020TIP3    H112024   1.947   2.109   1.672  0.4029  1.2177 -0.4683
 4020TIP3    H212025   2.017   1.979   1.707 -1.3240  0.5383  0.5390
 4021TIP3   OH212026   5.962   1.846   0.406 -0.5797 -0.1380  0.4229
 4021TIP3    H112027   5.883   1.792   0.404 -0.3759 -0.4819  1.2321
 4021TIP3    H212028   6.010   1.816   0.484 -0.0075  0.5658  0.3537
 4022TIP3   OH212029   3.583   4.184   0.627  0.5986  0.3021 -0.5335
 4022TIP3    H112030   3.554   4.113   0.570  0.2568  0.4488 -0.5400
 4022TIP3    H212031   3.660   4.221   0.582 -0.2286  1.0312 -1.3896
 4023TIP3   OH212032   6.014   0.875   1.551  0.8210  0.7131 -0.2507
 4023TIP3    H112033   6.092   0.824   1.571  1.3066  1.3848 -0.3914
 4023TIP3    H212034   5.957   0.862   1.626  1.7238  1.4627  0.5934
 4024TIP3   OH212035   0.252   0.197   2.799  0.5519 -0.3070 -0.0493
 4024TIP3    H112036   0.326   0.251   2.827  1.3086 -0.7433 -1.1828
 4024TIP3    H212037   0.187   0.209   2.869  0.2796  2.8553 -0.7049
 4025TIP3   OH212038   0.471   1.229   5.629  0.6247 -0.2574  1.3486
 4025TIP3    H112039   0.388   1.273   5.612  1.5644  0.8435 -0.8653
 4025TIP3    H212040   0.484   1.237   5.724 -2.0060 -0.9650  1.8468
 4026TIP3   OH212041   0.534   0.844   3.760  0.7073  0.5050  0.1518
 4026TIP3    H112042   0.605   0.829   3.822 -0.0341  0.8712  1.1336
 4026TIP3    H212043   0.539   0.937   3.738  2.6071 -0.1144 -2.4951
 4027TIP3   OH212044   3.514   5.877   2.514  0.3637 -0.7223 -0.8058
 4027TIP3    H112045   3.448   5.809   2.501 -1.0669  0.2855  0.7802
 4027TIP3    H212046   3.584   5.832   2.561 -0.3479 -1.2228 -0.1957
 4028TIP3   OH212047   5.924   2.746   2.896 -0.0770  0.5016 -0.4588
 4028TIP3    H112048   5.952   2.657   2.917  0.5921  0.7715 -0.1923
 4028TIP3    H212049   5.888   2.780   2.977 -3.5785 -0.6856 -1.3554
 4029TIP3   OH212050   6.270   3.124   0.408  0.4709  0.4437  0.7501
 4029TIP3    H112051   6.190   3.123   0.355 -0.3132  1.2279  1.8588
 4029TIP3    H212052   6.338   3.156   0.349 -0.2338  0.6625  0.0414
 4030TIP3   OH212053   1.270   3.151   3.374  0.5812  0.0928 -0.0867
 4030TIP3    H112054   1.242   3.235   3.412 -0.5462  0.4455 -1.5829
 4030TIP3    H212055   1.365   3.159   3.367  0.4420  1.6139 -0.9168
 4031TIP3   OH212056   4.183   6.536   1.184  0.0354 -0.0733  0.3136
 4031TIP3    H112057   4.254   6.576   1.234  0.1821 -2.4410  2.1805
 4031TIP3    H212058   4.108   6.594   1.198  1.5381  2.6211 -1.9221
 4032TIP3   OH212059   1.594   5.097   5.094 -0.1474 -0.1786  0.1927
 4032TIP3    H112060   1.631   5.110   5.006  0.4157  1.0833  0.5849
 4032TIP3    H212061   1.670   5.083   5.150 -0.2115  1.9322  0.9228
 4033TIP3   OH212062   1.697   3.592   1.531 -0.6088  0.4236  0.0498
 4033TIP3    H112063   1.698   3.624   1.441  0.5191 -0.6144 -0.3353
 4033TIP3    H212064   1.773   3.534   1.536 -0.3710  0.8342  1.8110
 4034TIP3   OH212065   4.532   0.168   4.037 -0.3244  0.1434  0.6322
 4034TIP3    H112066   4.460   0.226   4.063 -0.3574  0.8296 -0.8945
 4034TIP3    H212067   4.547   0.188   3.944  0.3226 -1.6055  0.3213
 4035TIP3   OH212068   1.406   5.213   3.563  0.8152 -0.2591  0.1356
 4035TIP3    H112069   1.407   5.181   3.654  2.4697 -0.5083  0.0473
 4035TIP3    H212070   1.315   5.241   3.549  0.3514 -0.9180  1.6179
 4036TIP3   OH212071   3.095   5.200   5.742  0.4365  0.1325 -0.2557
 4036TIP3    H112072   3.109   5.281   5.792  0.8831  1.0363 -1.7734
 4036TIP3    H212073   3.000   5.194   5.731  0.4198  0.6508 -0.4208
 4037TIP3   OH212074   0.152   3.937   3.098 -0.0861 -0.4581  0.3973
 4037TIP3    H112075   0.211   3.910   3.028  0.0102  0.6687  0.0218
 4037TIP3    H212076   0.137   3.857   3.150  1.3503 -0.8694  0.2121
 4038TIP3   OH212077   2.885   3.221   3.124 -0.1976  0.0842 -0.0274
 4038TIP3    H112078   2.979   3.227   3.144 -0.1982  1.3996 -0.3686
 4038TIP3    H212079   2.842   3.233   3.209 -0.0771  0.4454 -0.0150
 4039TIP3   OH212080   1.213   0.753   0.137 -0.0006  0.1622  0.0455
 4039TIP3    H112081   1.227   0.848   0.136 -0.8052  0.3028  0.5287
 4039TIP3    H212082   1.216   0.730   0.230  1.9792 -0.5940 -0.1802
 4040TIP3   OH212083   1.377   1.295   0.704  0.1163  0.1663 -0.5910
 4040TIP3    H112084   1.375   1.271   0.611 -1.4034  0.9978 -0.8078
 4040TIP3    H212085   1.354   1.388   0.705  0.8290  0.3578  0.5863
 4041TIP3   OH212086   3.465   4.586   3.883 -0.0607  0.5505  0.2062
 4041TIP3    H112087   3.542   4.613   3.933 -0.6159  0.3256  1.2098
 4041TIP3    H212088   3.500   4.559   3.798  1.0067  0.1427  0.7580
 4042TIP3   OH212089   0.923   1.871   4.568 -0.2503  0.1345  0.6530
 4042TIP3    H112090   0.904   1.900   4.658 -0.5358  0.5478  0.4594
 4042TIP3    H212091   0.983   1.797   4.580  0.0878  0.4811  1.1733
 4043TIP3   OH212092   4.353   5.822   1.286 -0.0431 -0.0973 -0.1905
 4043TIP3    H112093   4.403   5.871   1.220  1.2552 -1.2150 -0.0741
 4043TIP3    H212094   4.330   5.888   1.352 -0.5319  0.8412 -1.2759
 4044TIP3   OH212095   4.660   3.775   4.299  0.3522  0.3270  1.0575
 4044TIP3    H112096   4.610   3.765   4.380  2.1999 -2.6469  1.9682
 4044TIP3    H212097   4.746   3.806   4.328  1.2273 -1.3608  0.3567
 4045TIP3   OH212098   5.335   1.676   0.547 -0.1449 -0.4439 -0.4311
 4045TIP3    H112099   5.299   1.750   0.596 -0.0897 -0.6847 -0.0225
 4045TIP3    H212100   5.430   1.684   0.557 -0.1628 -1.3465  0.8022
 4046TIP3   OH212101   4.975   5.993   4.885 -0.3952 -0.0075  0.4573
 4046TIP3    H112102   5.024   5.930   4.938 -1.5723 -1.3979 -0.0207
 4046TIP3    H212103   5.034   6.015   4.813 -0.1210 -0.9444  0.3805
 4047TIP3   OH212104   1.275   4.402   0.475 -0.3292  0.2261 -0.1146
 4047TIP3    H112105   1.291   4.360   0.559  3.0550  0.5903 -0.4612
 4047TIP3    H212106   1.345   4.466   0.466 -1.5510  1.3513 -2.5157
 4048TIP3   OH212107   3.209   5.734   3.628 -0.0945  0.4027 -0.2218
 4048TIP3    H112108   3.143   5.670   3.601  1.9748 -1.8658 -0.2923
 4048TIP3    H212109   3.256   5.755   3.548  1.1888 -0.3906  0.3030
 4049TIP3   OH212110   1.374   6.544   1.683  0.0244 -0.0210 -0.5066
 4049TIP3    H112111   1.407   6.528   1.771  0.8911 -2.0416 -1.1242
 4049TIP3    H212112   1.354   6.457   1.649 -3.7814  0.9251 -1.0807
 4050TIP3   OH212113   2.485   0.436   2.643  0.2495  0.7961 -0.3128
 4050TIP3    H112114   2.518   0.416   2.730 -3.4050  0.2117  1.1423
 4050TIP3    H212115   2.503   0.357   2.592 -0.6647 -0.3194  1.0032
 4051TIP3   OH212116   5.030   0.628   3.889  0.5817 -0.5805  0.4118
 4051TIP3    H112117   4.978   0.552   3.915  0.4916 -0.1886  1.4068
 4051TIP3    H212118   5.119   0.594   3.878  0.1596 -1.2499 -1.2855
 4052TIP3   OH212119   1.733   5.446   5.550  0.4966 -0.0407  0.3952
 4052TIP3    H112120   1.775   5.371   5.593 -0.7987 -0.6138  0.7002
 4052TIP3    H212121   1.763   5.522   5.601  2.5159 -0.2087 -0.4367
 4053TIP3   OH212122   0.260   0.567   2.793  0.4104  0.8102 -0.3984
 4053TIP3    H112123   0.355   0.557   2.784  0.2588 -2.5410  0.4263
 4053TIP3    H212124   0.240   0.523   2.876 -1.8694  1.5376 -0.5067
 4054TIP3   OH212125   5.477   6.490   5.747  0.0806 -0.1116  0.0860
 4054TIP3    H112126   5.501   6.397   5.738 -0.1207 -0.1314 -0.2370
 4054TIP3    H212127   5.382   6.490   5.747  0.0635  0.2002 -1.0751
 4055TIP3   OH212128   2.575   3.103   0.271  0.2006 -1.0040 -0.0920
 4055TIP3    H112129   2.648   3.106   0.333 -0.5969 -2.3589  0.9594
 4055TIP3    H212130   2.500   3.134   0.321 -0.0759 -0.1230 -1.0132
 4056TIP3   OH212131   5.098   5.986   2.930 -1.0968  0.1088  0.1127
 4056TIP3    H112132   5.031   5.979   2.998 -1.5442  0.6990 -0.2537
 4056TIP3    H212133   5.123   6.078   2.930  1.1906 -0.4234  1.6059
 4057TIP3   OH212134   1.965   3.484   3.866  0.1624  0.0333  0.6941
 4057TIP3    H112135   1.939   3.444   3.784 -2.4825  1.9785  0.4567
 4057TIP3    H212136   1.913   3.439   3.933  1.6625 -0.9533  1.2521
 4058TIP3   OH212137   2.008   0.082   2.855  0.1802 -0.4698 -0.5429
 4058TIP3    H112138   2.079   0.144   2.836 -0.5687  0.1130 -1.5823
 4058TIP3    H212139   1.937   0.109   2.797 -0.1188 -2.4233 -1.1690
 4059TIP3   OH212140   5.459   3.622   1.223  1.0345 -0.0761  0.1275
 4059TIP3    H112141   5.552   3.619   1.198  0.5356 -2.0624 -1.8473
 4059TIP3    H212142   5.419   3.551   1.173 -1.8886  1.8274 -0.5011
 4060TIP3   OH212143   3.000   0.198   0.367 -0.2445 -0.6699 -0.1200
 4060TIP3    H112144   2.981   0.125   0.426 -0.2358  0.6628  1.6057
 4060TIP3    H212145   2.996   0.275   0.422 -0.5773  0.7012 -1.9615
 4061TIP3   OH212146   1.702   1.053   3.074 -0.1917  0.8491 -0.0446
 4061TIP3    H112147   1.620   1.061   3.123  0.0452  1.3629  0.2840
 4061TIP3    H212148   1.677   1.067   2.982 -0.3724  1.7572  0.1292
 4062TIP3   OH212149   6.726   3.268   2.084 -0.3708  0.0569 -0.0427
 4062TIP3    H112150   6.787   3.198   2.062 -1.3442 -0.6540 -0.5313
 4062TIP3    H212151   6.647   3.224   2.114 -0.9019  0.9481 -0.0793
 4063TIP3   OH212152   2.690   3.602   4.090  0.0413  0.2896  0.0123
 4063TIP3    H112153   2.666   3.691   4.114  2.2348  0.8098  0.4599
 4063TIP3    H212154   2.742   3.611   4.010 -0.6418 -0.7104 -0.5724
 4064TIP3   OH212155   3.835   4.794   2.755 -0.0072  0.0118  0.3991
 4064TIP3    H112156   3.822   4.789   2.661  1.6323 -0.2338  0.1560
 4064TIP3    H212157   3.907   4.856   2.767 -0.3386  0.2230  1.5160
 4065TIP3   OH212158   1.348   4.438   4.975 -0.1974  0.5014  0.2517
 4065TIP3    H112159   1.291   4.514   4.969 -1.5563 -0.4377  0.6902
 4065TIP3    H212160   1.381   4.440   5.065 -1.0024  0.0866  0.5761
 4066TIP3   OH212161   2.585   5.634   0.334 -0.0118  0.3441 -0.2134
 4066TIP3    H112162   2.660   5.686   0.305 -0.4852  0.7841 -0.6696
 4066TIP3    H212163   2.620   5.546   0.346  0.7453  0.7141  0.3365
 4067TIP3   OH212164   6.441   1.169   0.657  0.0867  0.0471 -0.1729
 4067TIP3    H112165   6.499   1.239   0.627  0.1798 -0.5388 -1.4514
 4067TIP3    H212166   6.379   1.212   0.715  0.8603  0.9693 -0.0161
 4068TIP3   OH212167   4.116   4.023   1.233 -0.0494 -0.0650 -0.1906
 4068TIP3    H112168   4.104   4.104   1.283  1.2367  1.5715 -2.3529
 4068TIP3    H212169   4.205   3.995   1.253 -0.5345 -1.0380  0.6462
 4069TIP3   OH212170   5.531   1.063   0.354  0.2973  0.7265  0.3767
 4069TIP3    H112171   5.606   1.069   0.294 -0.5275  0.2002 -0.7405
 4069TIP3    H212172   5.461   1.025   0.301 -0.5437  0.4954  1.6183
 4070TIP3   OH212173   2.909   2.417   0.748 -0.2043  0.2448  0.6003
 4070TIP3    H112174   2.956   2.334   0.747  1.3641  1.0466 -1.8888
 4070TIP3    H212175   2.823   2.397   0.711  0.8393 -0.0164 -1.8471
 4071TIP3   OH212176   2.801   6.607   1.726  0.2158  0.4132 -0.1621
 4071TIP3    H112177   2.865   6.666   1.767 -0.6592  1.4252 -0.2027
 4071TIP3    H212178   2.766   6.657   1.653 -0.8706  0.0200  0.0664
 4072TIP3   OH212179   5.698   6.391   2.251 -0.4776 -1.0893 -0.4506
 4072TIP3    H112180   5.721   6.472   2.297 -1.3233 -1.4083  0.5984
 4072TIP3    H212181   5.781   6.348   2.235 -0.1481 -1.2095  1.3241
 4073TIP3   OH212182   2.290   5.845   2.319 -0.9507 -0.2848  0.4056
 4073TIP3    H112183   2.241   5.878   2.244 -0.2218 -1.8255 -0.8060
 4073TIP3    H212184   2.235   5.776   2.355 -1.4148  0.6178  1.4864
 4074TIP3   OH212185   5.394   6.565   1.975 -0.0815 -0.2189  0.2124
 4074TIP3    H112186   5.435   6.630   1.918  1.3499 -1.6643 -0.4806
 4074TIP3    H212187   5.391   6.485   1.922 -1.2980 -0.8759  1.2184
 4075TIP3   OH212188   4.936   1.681   3.982 -0.0182  0.3830 -0.6449
 4075TIP3    H112189   4.906   1.653   4.069 -0.0255  0.8956 -0.4812
 4075TIP3    H212190   4.862   1.728   3.945  0.9630  2.8360  0.2987
 4076TIP3   OH212191   1.790   1.280   3.389 -0.1405  0.4104  0.1643
 4076TIP3    H112192   1.718   1.250   3.445 -0.4276 -0.8328 -0.8210
 4076TIP3    H212193   1.756   1.272   3.300  0.3349  2.2867 -0.2186
 4077TIP3   OH212194   3.446   1.325   1.486 -0.0572  0.0234 -0.0051
 4077TIP3    H112195   3.495   1.246   1.511 -0.9753 -0.2084  1.1751
 4077TIP3    H212196   3.390   1.342   1.561 -0.5670  1.2606 -0.6469
 4078TIP3   OH212197   7.112   2.209   5.428  0.0155  0.0801  0.2630
 4078TIP3    H112198   7.077   2.263   5.499  0.6859  0.0758  0.6095
 4078TIP3    H212199   7.173   2.149   5.472 -1.8535 -2.0579  0.1170
 4079TIP3   OH212200   0.693   1.180   4.294 -0.2602 -0.3760  0.0290
 4079TIP3    H112201   0.628   1.116   4.264 -1.2573  0.5362  0.1860
 4079TIP3    H212202   0.668   1.198   4.385  0.4583 -0.3052  0.2206
 4080TIP3   OH212203   2.389   3.365   5.140 -0.4969 -0.3938  0.0690
 4080TIP3    H112204   2.464   3.373   5.081 -0.8760 -1.9154 -0.6840
 4080TIP3    H212205   2.392   3.444   5.194 -0.6691  1.6047 -2.5880
 4081TIP3   OH212206   2.115   4.785   2.977  0.4121  0.3322 -0.2337
 4081TIP3    H112207   2.107   4.771   3.071 -0.0252  1.5750 -0.0583
 4081TIP3    H212208   2.059   4.718   2.937 -1.1034  1.1110  0.4975
 4082TIP3   OH212209   5.320   5.072   2.304 -0.0161 -0.2573  0.3895
 4082TIP3    H112210   5.362   4.993   2.271 -1.1183 -0.8488  0.3722
 4082TIP3    H212211   5.373   5.144   2.267  0.8218 -0.9643  0.1787
 4083TIP3   OH212212   6.913   5.491   5.565  0.0418 -0.0560  0.1664
 4083TIP3    H112213   6.919   5.568   5.621 -0.8206 -0.7182  1.1954
 4083TIP3    H212214   6.997   5.488   5.519  0.2449  1.2494  0.4153
 4084TIP3   OH212215   1.008   5.811   5.702  0.0050 -0.6765 -0.5259
 4084TIP3    H112216   1.020   5.887   5.759 -0.2049 -0.8184 -0.2931
 4084TIP3    H212217   0.941   5.758   5.745 -0.2119 -0.7490 -0.9399
 4085TIP3   OH212218   3.049   0.379   1.423  0.5030  0.0010  0.1183
 4085TIP3    H112219   3.048   0.367   1.328 -1.4543 -0.1417  0.1279
 4085TIP3    H212220   3.077   0.295   1.457  1.4840  0.1302 -0.3191
 4086TIP3   OH212221   1.111   1.226   4.104 -0.0671  0.1407 -0.1679
 4086TIP3    H112222   1.187   1.269   4.144  0.1642  0.1967 -0.6583
 4086TIP3    H212223   1.037   1.283   4.125  0.0164  0.0576  0.3620
 4087TIP3   OH212224   3.924   1.102   3.580 -0.2592 -0.0017  0.2066
 4087TIP3    H112225   3.842   1.097   3.531  0.1764 -1.0516 -0.4670
 4087TIP3    H212226   3.952   1.193   3.571  0.0192 -0.2325 -1.9078
 4088TIP3   OH212227   6.362   0.914   5.361  0.3846  0.3756 -0.2425
 4088TIP3    H112228   6.453   0.921   5.333  0.1190  1.1987 -0.9572
 4088TIP3    H212229   6.332   0.830   5.328  1.1781 -0.3895  0.9174
 4089TIP3   OH212230   6.050   1.931   4.556  0.6757  0.6471 -0.0973
 4089TIP3    H112231   6.137   1.961   4.583  0.5383 -0.6573  1.9987
 4089TIP3    H212232   5.995   2.010   4.562  1.6766  1.4859 -1.4629
 4090TIP3   OH212233   6.841   1.543   0.945 -0.0347 -0.3130  0.3009
 4090TIP3    H112234   6.755   1.547   0.986 -0.6958  1.7651 -1.0850
 4090TIP3    H212235   6.889   1.617   0.981  0.1660  0.1870 -0.9202
 4091TIP3   OH212236   0.548   2.706   5.665 -0.0097  0.5889 -0.2779
 4091TIP3    H112237   0.457   2.694   5.640  0.1124 -0.8855 -0.0801
 4091TIP3    H212238   0.590   2.742   5.586 -0.4341 -0.2456 -0.8970
 4092TIP3   OH212239   2.486   1.562   5.581 -0.0250 -0.7161 -0.0133
 4092TIP3    H112240   2.444   1.498   5.525 -1.8055  0.7660 -0.4632
 4092TIP3    H212241   2.462   1.537   5.670  0.1115 -1.2334 -0.1230
 4093TIP3   OH212242   4.292   3.020   4.086  0.2461  0.2040  0.4182
 4093TIP3    H112243   4.327   3.047   4.171 -0.2873  0.4782  0.5566
 4093TIP3    H212244   4.227   3.087   4.065 -0.3066 -0.3776  0.2489
 4094TIP3   OH212245   6.073   4.083   4.851  0.3751  0.2032 -0.3377
 4094TIP3    H112246   6.018   4.004   4.850  0.1233  0.3814 -0.7137
 4094TIP3    H212247   6.040   4.134   4.925 -0.2635  0.5116 -0.8230
 4095TIP3   OH212248   3.113   4.152   3.136  0.5646 -0.0154 -0.4379
 4095TIP3    H112249   3.047   4.212   3.172  2.5606  1.5034  0.9057
 4095TIP3    H212250   3.066   4.069   3.125 -1.1091  0.4363  2.2732
 4096TIP3   OH212251   6.336   6.042   3.441 -0.4678  0.1439  0.3494
 4096TIP3    H112252   6.373   6.053   3.354 -2.0421 -0.0758 -0.3741
 4096TIP3    H212253   6.297   5.955   3.441 -0.8810  0.3128  1.1236
 4097TIP3   OH212254   5.143   4.327   3.163 -0.7023  0.2146 -0.0387
 4097TIP3    H112255   5.221   4.334   3.218  0.4332  0.0391 -1.5483
 4097TIP3    H212256   5.101   4.245   3.190 -0.2018  0.1645  0.5991
 4098TIP3   OH212257   1.932   0.480   2.811 -0.5021 -0.7167 -0.2141
 4098TIP3    H112258   2.010   0.477   2.754 -0.3218  0.7563 -0.0868
 4098TIP3    H212259   1.906   0.389   2.821  1.8163 -1.3737  0.5561
 4099TIP3   OH212260   4.164   6.516   1.967 -0.4713 -0.1985  0.4741
 4099TIP3    H112261   4.180   6.593   1.912  1.9615 -0.8373  0.1527
 4099TIP3    H212262   4.166   6.549   2.057 -0.3394  0.2436  0.3081
 4100TIP3   OH212263   0.773   3.825   2.582 -0.1511 -0.3117 -0.0394
 4100TIP3    H112264   0.808   3.868   2.660  2.2741 -1.1401 -0.5803
 4100TIP3    H212265   0.761   3.897   2.519  0.2271  0.0668  0.3102
 4101TIP3   OH212266   6.258   4.029   0.789  0.2245  0.0973 -0.3253
 4101TIP3    H112267   6.347   3.997   0.803 -0.5186 -1.0981  2.2926
 4101TIP3    H212268   6.266   4.124   0.787  1.6269 -0.0129 -0.8865
 4102TIP3   OH212269   6.519   0.279   3.387  0.1892 -0.1135 -0.4129
 4102TIP3    H112270   6.555   0.192   3.375  0.8751 -0.1501  1.4654
 4102TIP3    H212271   6.464   0.272   3.466  1.1648  1.3584  0.4690
 4103TIP3   OH212272   3.654   0.335   3.097 -0.1146  0.7005  0.1822
 4103TIP3    H112273   3.723   0.332   3.031 -0.0737  1.5040  0.1828
 4103TIP3    H212274   3.630   0.428   3.104 -0.7941  0.5056  0.5963
 4104TIP3   OH212275   2.168   2.874   4.893  0.4119 -0.1713  0.3047
 4104TIP3    H112276   2.145   2.835   4.808 -1.3433  0.4597  0.4684
 4104TIP3    H212277   2.240   2.934   4.872 -0.1311  0.1269 -0.7674
 4105TIP3   OH212278   4.613   5.703   3.881  0.4318 -0.0153  0.4680
 4105TIP3    H112279   4.680   5.669   3.940 -0.0555 -0.5947  0.7103
 4105TIP3    H212280   4.545   5.635   3.882 -0.4033  0.8064  0.6674
 4106TIP3   OH212281   4.874   6.355   2.854 -0.1685  0.2322 -0.1521
 4106TIP3    H112282   4.850   6.381   2.942  1.6691 -0.8234  0.7246
 4106TIP3    H212283   4.868   6.259   2.854  1.5153  0.0852 -0.5806
 4107TIP3   OH212284   0.043   4.276   5.577 -0.3197 -0.0934  0.4610
 4107TIP3    H112285  -0.044   4.298   5.543  0.1053  0.5106 -0.2928
 4107TIP3    H212286   0.103   4.329   5.524  0.5708 -1.1264  0.4028
 4108TIP3   OH212287   3.891   0.217   2.055  0.1686  0.3048 -0.1532
 4108TIP3    H112288   3.885   0.254   2.144 -2.5848  0.3686 -0.2635
 4108TIP3    H212289   3.916   0.291   2.000  1.7432  0.3034  0.5182
 4109TIP3   OH212290   3.371   4.116   1.989 -0.1750  0.3373 -0.0803
 4109TIP3    H112291   3.320   4.093   1.910  0.9760 -0.5222 -0.6026
 4109TIP3    H212292   3.305   4.130   2.056 -1.2306  1.7044 -1.3352
 4110TIP3   OH212293   6.555   5.536   3.162  0.9880 -0.0825  0.2229
 4110TIP3    H112294   6.485   5.509   3.222  0.1058  0.0873 -0.7070
 4110TIP3    H212295   6.588   5.454   3.125  0.5333 -0.0941 -0.1575
 4111TIP3   OH212296   5.959   3.027   5.716  0.3839  0.2274 -0.2494
 4111TIP3    H112297   5.966   3.122   5.709 -1.3964  0.3867 -0.2343
 4111TIP3    H212298   5.879   3.005   5.668 -0.5476 -0.9686  1.7082
 4112TIP3   OH212299   0.918   2.598   0.319 -0.1667  0.9253 -0.2014
 4112TIP3    H112300   0.920   2.533   0.389 -0.1092  0.2889 -0.7838
 4112TIP3    H212301   0.939   2.680   0.362 -1.3385  0.7477  0.7588
 4113TIP3   OH212302   6.019   1.884   3.272 -1.1733  0.0883  0.3354
 4113TIP3    H112303   5.990   1.965   3.314 -0.0701 -0.4587  2.2766
 4113TIP3    H212304   6.115   1.886   3.278 -1.0923 -1.0215 -0.2450
 4114TIP3   OH212305   5.002   4.943   2.503 -0.0716  0.1779 -0.0361
 4114TIP3    H112306   5.001   4.852   2.533  0.3791 -0.0093 -0.5666
 4114TIP3    H212307   4.971   4.939   2.412  0.1464  0.5251 -0.1282
 4115TIP3   OH212308   1.714   4.940   5.628 -0.0937  0.3031  0.0678
 4115TIP3    H112309   1.624   4.931   5.661  0.0641 -2.3967  0.0095
 4115TIP3    H212310   1.705   4.944   5.533 -0.1490 -0.6897  0.0205
 4116TIP3   OH212311   6.221   1.767   5.323  0.2846  0.3575  0.3620
 4116TIP3    H112312   6.212   1.852   5.279 -2.4696 -0.4419 -0.8628
 4116TIP3    H212313   6.228   1.704   5.252  1.7947 -0.5369  1.2491
 4117TIP3   OH212314   6.859   6.672   4.842  0.3959  0.2137  0.1320
 4117TIP3    H112315   6.820   6.751   4.804  0.7376  0.9423  1.2472
 4117TIP3    H212316   6.790   6.635   4.897  0.1452 -0.4342 -0.5983
 4118TIP3   OH212317   0.116   1.449   4.476  0.0163  0.0019  0.1068
 4118TIP3    H112318   0.056   1.520   4.498 -1.4075 -1.3267  0.7630
 4118TIP3    H212319   0.200   1.475   4.514 -1.2152 -0.0415  3.1464
 4119TIP3   OH212320   3.106   6.180   2.526 -0.3189 -0.0597  0.1250
 4119TIP3    H112321   3.194   6.214   2.540 -0.4451  0.1194  0.4964
 4119TIP3    H212322   3.117   6.085   2.519  0.1384  0.0955 -1.7236
 4120TIP3   OH212323   4.364   3.012   0.148 -0.5901 -0.2169  0.4153
 4120TIP3    H112324   4.442   3.024   0.202 -0.5391 -1.0284  0.5310
 4120TIP3    H212325   4.296   2.986   0.210 -1.0461  0.7909  0.3618
 4121TIP3   OH212326   3.428   1.718   1.523 -0.2855  0.0915  0.4453
 4121TIP3    H112327   3.515   1.757   1.511 -0.6121  1.0516  1.0415
 4121TIP3    H212328   3.382   1.780   1.581 -0.8869 -1.1046  1.2959
 4122TIP3   OH212329   0.754   5.316   1.628  0.0297 -0.7565 -0.3925
 4122TIP3    H112330   0.785   5.247   1.687  0.0736 -0.3577  0.0589
 4122TIP3    H212331   0.724   5.270   1.551  0.4920 -1.2499 -0.2821
 4123TIP3   OH212332   5.003   4.392   3.591  0.0968  0.4013  0.1427
 4123TIP3    H112333   4.974   4.426   3.506 -0.9552  0.4377  0.5044
 4123TIP3    H212334   4.996   4.467   3.650  0.3705  0.2509  0.3713
 4124TIP3   OH212335   2.076   0.212   4.103  0.1212  0.2466  0.4830
 4124TIP3    H112336   2.076   0.142   4.038 -0.4079  0.5564  0.1365
 4124TIP3    H212337   2.167   0.240   4.109  0.7010 -1.6816  1.9835
 4125TIP3   OH212338   2.595   3.429   1.890  0.6665 -0.5586 -0.1518
 4125TIP3    H112339   2.602   3.474   1.974  2.2289  0.3469 -0.7132
 4125TIP3    H212340   2.643   3.486   1.829  2.1094 -2.6006 -1.0418
 4126TIP3   OH212341   0.237   2.233   2.643  0.2164  0.2010  0.1561
 4126TIP3    H112342   0.242   2.320   2.683 -1.4883  0.2206  0.4094
 4126TIP3    H212343   0.144   2.212   2.644  0.6284 -1.7542  0.3321
 4127TIP3   OH212344   5.931   1.556   2.597 -0.4208 -0.1445  0.4805
 4127TIP3    H112345   5.923   1.651   2.592 -0.9529 -0.1196  1.5198
 4127TIP3    H212346   5.848   1.526   2.633 -0.5336 -1.0820 -0.5019
 4128TIP3   OH212347   2.900   1.110   0.124 -0.0950 -0.1158 -0.2788
 4128TIP3    H112348   2.895   1.016   0.111  1.6556 -0.3529  0.4563
 4128TIP3    H212349   2.899   1.147   0.036 -3.2257 -0.5908 -0.5526
 4129TIP3   OH212350   3.280   1.076   1.642  0.1204 -0.1621 -0.5384
 4129TIP3    H112351   3.294   1.017   1.715 -0.1328 -1.3967 -1.4492
 4129TIP3    H212352   3.222   1.144   1.676 -0.1774 -0.8356  0.3339
 4130TIP3   OH212353   4.646   6.406   0.044 -0.4741  0.0704 -0.3228
 4130TIP3    H112354   4.675   6.495   0.065 -1.7864  0.4541 -0.0237
 4130TIP3    H212355   4.722   6.365   0.002  0.5781  0.9097  0.6913
 4131TIP3   OH212356   0.941   4.568   0.288  0.3025 -0.2695  0.1455
 4131TIP3    H112357   0.974   4.593   0.202 -2.4610  0.1808 -0.8976
 4131TIP3    H212358   1.002   4.608   0.350  2.2479 -0.4345 -1.5477
 4132TIP3   OH212359   0.610   4.703   3.491  0.3218 -0.3206  0.2625
 4132TIP3    H112360   0.685   4.762   3.501  0.3110  0.3024 -2.6081
 4132TIP3    H212361   0.641   4.634   3.432 -1.8643  1.0880 -2.7647
 4133TIP3   OH212362   5.594   6.031   1.271 -0.0945 -0.4252 -0.0368
 4133TIP3    H112363   5.616   6.123   1.259  2.5219 -0.8270  0.9886
 4133TIP3    H212364   5.575   5.999   1.182  1.8067  0.4751 -0.8066
 4134TIP3   OH212365   3.959   3.644   3.834 -0.1866 -0.6357 -0.5872
 4134TIP3    H112366   4.035   3.595   3.805  0.7025  0.8891 -0.9239
 4134TIP3    H212367   3.943   3.614   3.923  0.9062 -0.8653 -0.4602
 4135TIP3   OH212368   2.358   1.769   0.911  0.1641 -0.2896 -0.7968
 4135TIP3    H112369   2.306   1.724   0.845  0.3950 -0.6094 -0.7665
 4135TIP3    H212370   2.294   1.802   0.974 -0.1478  0.8533 -1.6581
 4136TIP3   OH212371   3.570   0.966   0.746 -0.1263  0.1432 -0.1177
 4136TIP3    H112372   3.545   1.041   0.800  0.0763  0.2719 -0.2006
 4136TIP3    H212373   3.489   0.915   0.736  0.2714 -1.0065  2.0455
 4137TIP3   OH212374   2.000   0.755   3.716  0.3161 -0.0829  0.0814
 4137TIP3    H112375   1.955   0.723   3.637  2.1638  0.9917 -1.4967
 4137TIP3    H212376   1.951   0.833   3.741 -0.1675 -0.3220 -0.0907
 4138TIP3   OH212377   5.852   1.953   5.785 -0.0266 -0.2605 -0.2633
 4138TIP3    H112378   5.883   2.034   5.827 -0.7377 -1.1543  2.1986
 4138TIP3    H212379   5.930   1.919   5.740  1.0147  0.4723  0.8941
 4139TIP3   OH212380   0.783   3.151   5.865 -0.3816  0.0979 -0.3014
 4139TIP3    H112381   0.776   3.057   5.847  1.0018 -0.2231  0.6523
 4139TIP3    H212382   0.703   3.173   5.912  0.5486 -1.2978  2.0979
 4140TIP3   OH212383   1.088   0.571   4.832 -0.0563 -0.2244  0.1594
 4140TIP3    H112384   1.023   0.626   4.875  0.8874  0.3334  0.9137
 4140TIP3    H212385   1.072   0.483   4.866  1.0002  0.2905  2.1290
 4141TIP3   OH212386   1.093   0.534   0.042  0.1906  0.0458 -0.7099
 4141TIP3    H112387   1.142   0.508  -0.036  0.8570 -0.3487 -0.1754
 4141TIP3    H212388   1.140   0.610   0.076  1.4984 -1.3310  0.7527
 4142TIP3   OH212389   1.061   6.202   0.697 -0.5276  0.8922 -0.0781
 4142TIP3    H112390   0.989   6.233   0.751 -1.7070 -0.4464 -0.8173
 4142TIP3    H212391   1.068   6.109   0.717 -1.0040  0.3537 -2.1778
 4143TIP3   OH212392   6.221   6.650   0.996 -0.2928  0.5233  0.0597
 4143TIP3    H112393   6.128   6.670   1.010 -0.6862 -1.2823  0.3862
 4143TIP3    H212394   6.262   6.669   1.080 -0.4909  0.7310  0.1107
 4144TIP3   OH212395   4.892   4.340   0.063  0.1638 -0.1965  0.1602
 4144TIP3    H112396   4.884   4.436   0.064  0.5063 -0.1473  1.8430
 4144TIP3    H212397   4.805   4.309   0.086  0.1278 -0.2695 -0.0822
 4145TIP3   OH212398   5.299   1.614   5.285  0.5721 -0.1450  0.1191
 4145TIP3    H112399   5.264   1.660   5.209  2.3029  1.6975  0.3629
 4145TIP3    H212400   5.380   1.573   5.254 -0.5760 -2.6100  0.0839
 4146TIP3   OH212401   2.645   6.414   1.035 -0.2772 -0.1515  0.3671
 4146TIP3    H112402   2.645   6.477   0.963 -0.5149 -0.2124  0.3111
 4146TIP3    H212403   2.580   6.349   1.009 -1.6071  0.7007  1.3801
 4147TIP3   OH212404   0.951   5.072   2.440  0.1687 -0.1445  0.2008
 4147TIP3    H112405   0.948   5.153   2.491  1.4460 -0.4411  0.7699
 4147TIP3    H212406   0.867   5.070   2.394  0.4585  1.9592 -0.5243
 4148TIP3   OH212407   2.816   1.660   3.710 -0.4477  0.3641 -0.6939
 4148TIP3    H112408   2.778   1.573   3.720  0.2157  0.2036  0.6127
 4148TIP3    H212409   2.754   1.718   3.755 -0.6440  0.5092 -1.1461
 4149TIP3   OH212410   6.331   1.154   4.762 -0.5475 -0.0994  0.2029
 4149TIP3    H112411   6.299   1.185   4.847 -1.7158 -0.2130 -0.1715
 4149TIP3    H212412   6.256   1.108   4.724  0.2741 -0.9125 -0.4718
 4150TIP3   OH212413   4.583   4.487   2.649  0.5927  0.5020 -0.2345
 4150TIP3    H112414   4.612   4.465   2.738  1.1405  0.4059 -0.4331
 4150TIP3    H212415   4.664   4.496   2.599  0.4075  2.4620 -0.2835
 4151TIP3   OH212416   6.252   6.112   5.512 -0.0819  0.1761  0.3052
 4151TIP3    H112417   6.169   6.087   5.553  0.6509 -0.2032  1.6264
 4151TIP3    H212418   6.302   6.153   5.583  0.4239  1.4695 -0.7547
 4152TIP3   OH212419   3.388   3.385   5.752  0.4641 -0.5446 -0.1023
 4152TIP3    H112420   3.462   3.324   5.759  1.9786  1.2191  0.0298
 4152TIP3    H212421   3.372   3.392   5.658  0.2876 -1.1068 -0.1202
 4153TIP3   OH212422   6.909   2.399   2.206  0.2993 -0.2500  0.1378
 4153TIP3    H112423   6.935   2.490   2.194 -0.4097 -0.2068 -1.1577
 4153TIP3    H212424   6.966   2.368   2.276  1.2609  0.8973 -0.0981
 4154TIP3   OH212425   5.782   0.482   4.348  0.7898  0.7658  0.7438
 4154TIP3    H112426   5.806   0.451   4.435  1.5827  0.0957  0.3029
 4154TIP3    H212427   5.823   0.568   4.341  0.3182  1.0347  1.2007
 4155TIP3   OH212428   3.416   1.407   4.482 -0.3822 -0.0574  0.0795
 4155TIP3    H112429   3.448   1.482   4.532 -0.0766  0.1690 -0.4496
 4155TIP3    H212430   3.492   1.349   4.475 -0.4202 -0.0842 -0.1290
 4156TIP3   OH212431   3.084   0.527   0.290 -0.1145 -0.6985 -0.0862
 4156TIP3    H112432   3.017   0.492   0.349  0.7148 -0.4617  1.0268
 4156TIP3    H212433   3.133   0.450   0.262  1.0890 -0.5899  1.5837
 4157TIP3   OH212434   0.908   1.018   2.341 -0.2015  0.8969 -0.1794
 4157TIP3    H112435   1.003   1.024   2.325 -0.6766  1.2643 -3.8268
 4157TIP3    H212436   0.882   1.107   2.364  0.0807  1.2905 -1.3155
 4158TIP3   OH212437   2.259   5.445   4.810 -0.1600 -0.0811  0.4642
 4158TIP3    H112438   2.189   5.465   4.871 -0.5582  1.4940 -0.4681
 4158TIP3    H212439   2.261   5.519   4.749  1.1975 -0.8889 -0.5447
 4159TIP3   OH212440   5.865   2.142   1.198  0.1243 -0.0157  0.1766
 4159TIP3    H112441   5.770   2.140   1.204  0.1220 -0.8298 -0.0236
 4159TIP3    H212442   5.883   2.161   1.106  0.1014 -4.1264 -0.8764
 4160TIP3   OH212443   0.143   1.655   1.114  0.3123  0.3295 -0.0918
 4160TIP3    H112444   0.084   1.675   1.042 -1.4838 -1.9208  0.6182
 4160TIP3    H212445   0.152   1.559   1.113  0.6149  0.2502  2.3312
 4161TIP3   OH212446   2.744   0.264   0.624 -0.8560  0.5231  0.2134
 4161TIP3    H112447   2.669   0.221   0.583  1.0465  0.0765 -3.1924
 4161TIP3    H212448   2.787   0.194   0.674 -2.2550  0.6175  1.6036
 4162TIP3   OH212449   2.840   4.930   4.870  0.1710 -0.1035 -0.6531
 4162TIP3    H112450   2.811   4.935   4.961  2.7728  0.4061  0.2366
 4162TIP3    H212451   2.827   5.018   4.835  1.3034  0.3453 -0.0051
 4163TIP3   OH212452   6.893   0.666   4.365 -0.8116 -0.7454  0.0352
 4163TIP3    H112453   6.937   0.582   4.380  0.4202 -0.3481 -1.1672
 4163TIP3    H212454   6.807   0.642   4.329 -0.8244 -1.4969  0.5499
 4164TIP3   OH212455   6.359   1.338   0.363  0.1919 -0.3708 -0.4447
 4164TIP3    H112456   6.374   1.294   0.279  0.0318  0.0312 -0.6859
 4164TIP3    H212457   6.350   1.266   0.426 -1.2867 -0.7505 -1.0292
 4165TIP3   OH212458   4.660   4.656   3.424  0.6197 -0.4108  0.2282
 4165TIP3    H112459   4.749   4.645   3.390  0.1055  1.5694 -2.0450
 4165TIP3    H212460   4.656   4.747   3.451 -0.9388 -0.2270 -0.5108
 4166TIP3   OH212461   6.866   5.237   1.137  0.5965  0.1826 -0.2678
 4166TIP3    H112462   6.940   5.216   1.080 -0.0813 -0.3821 -0.9688
 4166TIP3    H212463   6.814   5.156   1.140  1.2620 -0.2523  2.2083
 4167TIP3   OH212464   4.132   5.641   2.094  0.3934  0.7673 -1.2473
 4167TIP3    H112465   4.082   5.561   2.078 -2.5401  2.5355 -1.7630
 4167TIP3    H212466   4.190   5.649   2.018  0.7318 -0.8517 -1.1726
 4168TIP3   OH212467   5.433   2.098   4.204  0.0916  0.5327 -0.1085
 4168TIP3    H112468   5.510   2.066   4.158  0.3717  0.7349  0.2172
 4168TIP3    H212469   5.466   2.131   4.287 -0.4012  0.2298  0.2164
 4169TIP3   OH212470   2.328   5.507   0.706 -0.4392 -0.3056 -0.6985
 4169TIP3    H112471   2.353   5.421   0.672  0.7291 -1.2622  2.2592
 4169TIP3    H212472   2.403   5.564   0.688 -0.0325 -0.6781 -0.2136
 4170TIP3   OH212473   5.662   0.065   3.344  0.3166  0.5096  0.0079
 4170TIP3    H112474   5.624  -0.019   3.371  2.4879 -0.6573 -0.2745
 4170TIP3    H212475   5.722   0.087   3.415  0.2124  1.5288 -0.2105
 4171TIP3   OH212476   2.479   6.743   1.637 -0.1965  0.0728 -0.6203
 4171TIP3    H112477   2.499   6.729   1.729 -1.5283 -1.0640 -0.4612
 4171TIP3    H212478   2.450   6.834   1.632 -1.0673 -0.1360  0.2886
 4172TIP3   OH212479   1.867   2.680   2.385  0.4283 -0.2041 -0.1037
 4172TIP3    H112480   1.874   2.696   2.480  2.4597  0.9863 -0.4015
 4172TIP3    H212481   1.935   2.615   2.367 -0.5116 -1.0581 -0.6430
 4173TIP3   OH212482   6.208   5.927   2.822 -0.3605  0.2737  0.1451
 4173TIP3    H112483   6.278   5.864   2.803  1.7011  1.5438  2.8239
 4173TIP3    H212484   6.193   5.972   2.739  1.8075 -0.2975 -0.6340
 4174TIP3   OH212485   3.275   0.796   4.656 -0.6719 -0.1069  0.1699
 4174TIP3    H112486   3.306   0.721   4.605 -0.1823 -0.0781  0.4093
 4174TIP3    H212487   3.265   0.867   4.593 -2.9886 -0.8677 -0.3915
 4175TIP3   OH212488   4.078   0.955   2.460  0.1225  0.1630  0.4738
 4175TIP3    H112489   4.075   1.025   2.525  0.3932  1.0870 -0.4776
 4175TIP3    H212490   4.014   0.980   2.394  1.1457  0.2113 -0.5370
 4176TIP3   OH212491   2.200   6.272   2.074 -0.2765  0.1892 -0.2699
 4176TIP3    H112492   2.153   6.278   2.157 -0.2849 -0.8814 -0.1818
 4176TIP3    H212493   2.281   6.321   2.088  0.7121 -1.6838  1.1101
 4177TIP3   OH212494   4.237   6.057   4.347 -0.2809 -0.1189 -0.2300
 4177TIP3    H112495   4.327   6.029   4.368 -0.1401 -0.0593 -0.7328
 4177TIP3    H212496   4.246   6.149   4.322 -0.6255  0.1601  0.6293
 4178TIP3   OH212497   3.862   2.452   3.899  0.0855 -0.1264 -0.1726
 4178TIP3    H112498   3.837   2.363   3.873 -1.8223  0.4675 -0.5321
 4178TIP3    H212499   3.799   2.508   3.855  0.0935  1.2901  1.5102
 4179TIP3   OH212500   5.631   4.948   4.800 -0.6628 -0.1562 -0.0658
 4179TIP3    H112501   5.710   4.976   4.755  0.1060 -2.1348 -0.0525
 4179TIP3    H212502   5.575   4.914   4.731 -1.7664  1.6671 -0.1417
 4180TIP3   OH212503   3.701   5.004   3.382  0.2419 -0.4942 -0.8094
 4180TIP3    H112504   3.611   4.978   3.361  0.3485 -0.2868 -1.5464
 4180TIP3    H212505   3.749   4.994   3.300  0.1562  2.5983 -1.3701
 4181TIP3   OH212506   1.083   2.964   3.256 -0.4850  0.9482 -0.2280
 4181TIP3    H112507   1.031   2.913   3.318  0.7418  0.8126  0.7192
 4181TIP3    H212508   1.150   3.007   3.309  0.7135  0.6931 -1.4653
 4182TIP3   OH212509   5.980   1.921   0.943  0.7419 -0.3033 -0.5510
 4182TIP3    H112510   5.890   1.946   0.924  0.0316 -3.9450 -2.9478
 4182TIP3    H212511   5.973   1.861   1.017  1.3061 -0.0001 -0.2450
 4183TIP3   OH212512   5.782   0.501   2.870  0.1371  0.7452 -0.4246
 4183TIP3    H112513   5.724   0.492   2.945  0.1086  1.7485 -0.3172
 4183TIP3    H212514   5.755   0.431   2.810 -0.0568  0.1472  0.3467
 4184TIP3   OH212515   1.374   2.823   5.318  0.1264 -0.1787 -0.1538
 4184TIP3    H112516   1.298   2.860   5.273 -0.7726 -1.6501  0.0811
 4184TIP3    H212517   1.337   2.776   5.393  1.5096  1.4306  1.6441
 4185TIP3   OH212518   0.272   1.391   1.152 -0.1618 -0.1870 -0.2743
 4185TIP3    H112519   0.199   1.356   1.202  0.0045 -1.0517 -0.6332
 4185TIP3    H212520   0.333   1.423   1.219  0.1840 -1.5759  0.0993
 4186TIP3   OH212521   4.235   2.761   2.169 -0.1669  0.9387 -0.4934
 4186TIP3    H112522   4.252   2.772   2.075 -1.0506  1.4633 -0.6044
 4186TIP3    H212523   4.158   2.704   2.173 -0.6415  1.5943 -0.1158
 4187TIP3   OH212524   1.839   4.187   5.605 -0.3353  0.2094 -0.4695
 4187TIP3    H112525   1.918   4.176   5.552  1.9660 -2.0733  2.9881
 4187TIP3    H212526   1.866   4.246   5.676 -1.9809 -0.0639  0.4247
 4188TIP3   OH212527   3.992   6.640   5.273  0.3830 -0.6889 -0.2575
 4188TIP3    H112528   4.017   6.591   5.195  0.5820  0.7679 -1.1369
 4188TIP3    H212529   3.897   6.632   5.277  0.1080  0.9918 -1.9257
 4189TIP3   OH212530   0.234   6.433   1.498 -0.3585  0.2142  0.6131
 4189TIP3    H112531   0.322   6.417   1.530 -0.1198 -0.7978 -0.4751
 4189TIP3    H212532   0.181   6.443   1.577  0.6498  0.4474  1.2775
 4190TIP3   OH212533   4.306   1.333   0.505 -0.0626  0.1475 -0.3047
 4190TIP3    H112534   4.356   1.272   0.560  1.1975  1.4282  0.0331
 4190TIP3    H212535   4.278   1.402   0.565  1.2111  1.4932 -1.1726
 4191TIP3   OH212536   1.319   2.844   1.261  0.0409 -0.2766  0.1181
 4191TIP3    H112537   1.413   2.832   1.270 -0.1077 -0.6833  1.3462
 4191TIP3    H212538   1.310   2.919   1.202  1.1627  0.5950  0.9897
 4192TIP3   OH212539   1.038   3.828   4.836  0.4291 -0.0887  0.3683
 4192TIP3    H112540   1.116   3.784   4.868  0.0450 -0.3258  1.0067
 4192TIP3    H212541   1.050   3.920   4.860  2.2568  0.6968 -2.8999
 4193TIP3   OH212542   1.662   1.473   4.228  0.1681 -0.1563  0.3254
 4193TIP3    H112543   1.595   1.489   4.295  0.3685 -2.1352  1.0823
 4193TIP3    H212544   1.635   1.525   4.153 -2.6219 -1.3531  0.3632
 4194TIP3   OH212545   2.570   0.743   3.872  0.5035 -0.4391  0.4225
 4194TIP3    H112546   2.622   0.813   3.832  0.9603 -1.2498 -0.4593
 4194TIP3    H212547   2.526   0.701   3.798 -0.0986 -0.8133  0.9880
 4195TIP3   OH212548   1.744   0.393   0.287 -0.1359  0.1929  0.0612
 4195TIP3    H112549   1.818   0.406   0.227  0.4208  0.9024  0.8866
 4195TIP3    H212550   1.681   0.341   0.236  1.0978 -0.7992 -0.5024
 4196TIP3   OH212551   0.931   3.244   4.937 -0.0081  0.0338  0.3882
 4196TIP3    H112552   0.890   3.197   4.864  1.6923 -1.6594  0.4241
 4196TIP3    H212553   0.911   3.190   5.014  1.1369 -0.1207  0.5975
 4197TIP3   OH212554   2.630   5.808   3.332 -0.1875 -0.3489 -0.1534
 4197TIP3    H112555   2.694   5.766   3.274 -0.5619 -2.8538  1.1158
 4197TIP3    H212556   2.677   5.882   3.370  1.0376 -0.4875 -1.3085
 4198TIP3   OH212557   2.753   5.344   3.675 -0.1544 -0.4343 -0.2192
 4198TIP3    H112558   2.719   5.328   3.587  0.6818  1.3576 -0.9295
 4198TIP3    H212559   2.726   5.268   3.726 -0.2840 -1.7369 -2.1313
 4199TIP3   OH212560   5.211   4.054   1.509  0.4580  0.8335 -0.4417
 4199TIP3    H112561   5.262   4.048   1.428  0.6453  0.4637 -0.3000
 4199TIP3    H212562   5.220   3.967   1.549 -0.9860  0.4804 -0.8361
 4200TIP3   OH212563   5.892   2.220   2.376  0.2304  0.3549 -0.0447
 4200TIP3    H112564   5.800   2.208   2.354  0.1980  0.3395  0.0948
 4200TIP3    H212565   5.892   2.298   2.432  0.3069  0.3777 -0.0769
 4201TIP3   OH212566   6.377   2.801   5.424 -0.0108  0.3589  0.1966
 4201TIP3    H112567   6.282   2.787   5.423  0.0664 -0.2489 -1.2223
 4201TIP3    H212568   6.390   2.876   5.366  0.4428 -0.1643 -0.3912
 4202TIP3   OH212569   1.052   3.819   2.834 -0.0837  0.5749  0.0765
 4202TIP3    H112570   1.024   3.750   2.894  0.2433  1.1297  0.8810
 4202TIP3    H212571   1.130   3.857   2.874  0.5380  0.5238 -1.0398
 4203TIP3   OH212572   2.032   5.268   1.531 -0.5834  0.1252  0.0534
 4203TIP3    H112573   2.065   5.296   1.616  0.5364  0.6145 -0.5268
 4203TIP3    H212574   2.084   5.317   1.468 -0.5972 -1.1138 -0.9470
 4204TIP3   OH212575   0.638   1.481   3.271 -0.3386 -0.0420 -0.1995
 4204TIP3    H112576   0.659   1.388   3.284  0.0892  0.1432  0.5018
 4204TIP3    H212577   0.713   1.515   3.222 -0.7836 -0.1909 -1.0058
 4205TIP3   OH212578   4.634   6.382   5.131  0.1435  0.4131  0.2163
 4205TIP3    H112579   4.690   6.422   5.064  0.5016  0.5292  0.5763
 4205TIP3    H212580   4.647   6.438   5.208  0.4207 -0.2257  0.6363
 4206TIP3   OH212581   6.490   5.974   4.396 -0.3680 -0.0875 -0.0925
 4206TIP3    H112582   6.426   5.903   4.384  0.2912 -0.3809 -2.3696
 4206TIP3    H212583   6.446   6.052   4.362 -1.1220  0.7014  2.4813
 4207TIP3   OH212584   4.351   1.097   5.353 -0.3281  0.0982  0.5256
 4207TIP3    H112585   4.286   1.027   5.342 -1.7448  1.3599  0.4997
 4207TIP3    H212586   4.342   1.123   5.445 -1.2428  1.5398  0.0656
 4208TIP3   OH212587   4.735   5.897   1.913 -0.3682 -0.2075 -0.5566
 4208TIP3    H112588   4.767   5.807   1.913 -0.3401 -0.1953 -0.1554
 4208TIP3    H212589   4.778   5.938   1.988 -3.2556 -0.8666  1.6102
 4209TIP3   OH212590   6.578   0.595   5.178  0.7956  0.5089  0.5661
 4209TIP3    H112591   6.563   0.503   5.200 -0.4652  1.0894  2.2817
 4209TIP3    H212592   6.533   0.606   5.093 -0.0941 -0.1770  0.9274
 4210TIP3   OH212593   4.023   3.785   0.334  0.6710  0.1886 -0.2593
 4210TIP3    H112594   3.956   3.720   0.313  1.6603 -0.3715 -1.8911
 4210TIP3    H212595   3.974   3.859   0.369 -0.6458 -0.7924  0.0678
 4211TIP3   OH212596   3.618   3.264   5.784 -0.4165 -0.1646 -0.0125
 4211TIP3    H112597   3.703   3.302   5.760 -0.4468 -0.0273  0.0916
 4211TIP3    H212598   3.603   3.296   5.874 -2.2170  2.7395 -1.1954
 4212TIP3   OH212599   1.160   1.037   3.124 -0.1279 -0.1646  0.1111
 4212TIP3    H112600   1.074   1.069   3.150 -0.5180 -2.4111  1.8450
 4212TIP3    H212601   1.151   1.018   3.030 -1.1405  0.6894  0.0139
 4213TIP3   OH212602   0.403   1.516   0.928 -0.1825  0.2125  0.1303
 4213TIP3    H112603   0.343   1.460   0.977 -0.2336 -0.0155 -0.1906
 4213TIP3    H212604   0.465   1.548   0.993 -0.4514  0.1810  0.4043
 4214TIP3   OH212605   0.421   1.441   5.342  0.8658 -0.4126  0.2104
 4214TIP3    H112606   0.439   1.378   5.272 -1.0458  0.5017 -1.1761
 4214TIP3    H212607   0.443   1.526   5.304  1.3468 -0.0251  1.3112
 4215TIP3   OH212608   6.798   0.448   3.539  0.4613  0.3301  0.3629
 4215TIP3    H112609   6.819   0.357   3.518  0.2577  0.3526  0.0696
 4215TIP3    H212610   6.782   0.447   3.634 -0.2377 -0.0712  0.2487
 4216TIP3   OH212611   5.129   4.359   0.745 -0.1874 -0.0325 -0.3331
 4216TIP3    H112612   5.085   4.344   0.662 -1.1383 -1.0948  0.3381
 4216TIP3    H212613   5.138   4.272   0.784  0.1918  0.4479  0.6983
 4217TIP3   OH212614   3.163   6.299   1.179 -0.0554 -0.0729 -0.0631
 4217TIP3    H112615   3.107   6.349   1.119  0.1668 -0.2085 -0.3826
 4217TIP3    H212616   3.200   6.365   1.238 -0.9427 -0.0321  0.4789
 4218TIP3   OH212617   1.545   6.540   5.824 -0.1268 -0.1934  0.6362
 4218TIP3    H112618   1.593   6.621   5.840 -1.2728  0.7285 -0.3417
 4218TIP3    H212619   1.611   6.478   5.792  0.5025  0.9030 -0.2555
 4219TIP3   OH212620   5.779   4.538   0.802 -0.0857 -0.7469 -0.2027
 4219TIP3    H112621   5.873   4.539   0.820 -0.2372 -0.2884  0.6225
 4219TIP3    H212622   5.755   4.630   0.796 -0.5545 -0.8506  0.0198
 4220TIP3   OH212623   2.079   5.619   2.034 -0.0676 -0.1568  0.7605
 4220TIP3    H112624   2.070   5.531   2.072 -0.5564 -1.0627 -1.3568
 4220TIP3    H212625   1.999   5.633   1.984  0.5544  0.9954  0.0374
 4221TIP3   OH212626   6.983   2.172   3.069 -0.3446 -0.2399  0.0119
 4221TIP3    H112627   6.933   2.162   3.150  0.6204 -1.1826  0.5172
 4221TIP3    H212628   7.067   2.130   3.088 -0.2589 -0.8631 -1.6200
 4222TIP3   OH212629   1.141   6.632   1.900 -0.0439 -0.0799  0.3692
 4222TIP3    H112630   1.173   6.636   1.810  0.4450 -0.8951  0.4961
 4222TIP3    H212631   1.206   6.682   1.951  0.7908 -1.2845  0.5464
 4223TIP3   OH212632   3.356   6.692   0.547  0.4936 -0.2373  0.3669
 4223TIP3    H112633   3.379   6.731   0.463 -0.8390 -1.1345 -0.4687
 4223TIP3    H212634   3.436   6.696   0.599  0.9613  1.6421 -0.4114
 4224TIP3   OH212635   6.490   0.549   3.855  0.1416  0.6639 -0.4028
 4224TIP3    H112636   6.400   0.517   3.849 -0.6137  2.7404 -0.7742
 4224TIP3    H212637   6.543   0.475   3.824 -1.3824 -0.6920  0.0432
 4225TIP3   OH212638   6.625   6.733   3.970 -0.4998  0.5480 -0.6041
 4225TIP3    H112639   6.715   6.759   3.989 -0.4489  0.1801 -0.3285
 4225TIP3    H212640   6.621   6.641   3.995 -1.1649  0.7669  0.1605
 4226TIP3   OH212641   6.290   5.612   4.772 -0.2286  0.0641 -0.3582
 4226TIP3    H112642   6.297   5.704   4.798  0.3599 -0.1448  0.2610
 4226TIP3    H212643   6.332   5.564   4.843 -1.1700 -0.7445 -0.3264
 4227TIP3   OH212644   1.540   5.042   3.385  0.4395 -0.9041 -0.6627
 4227TIP3    H112645   1.518   5.105   3.453  2.5109 -1.0468  0.2215
 4227TIP3    H212646   1.545   5.093   3.305  0.1311 -0.3126 -0.3127
 4228TIP3   OH212647   6.571   6.639   5.679 -0.1701 -0.1958  0.3094
 4228TIP3    H112648   6.644   6.595   5.724 -0.7726 -0.9972  0.5147
 4228TIP3    H212649   6.605   6.658   5.592 -0.2723 -2.1130 -0.1812
 4229TIP3   OH212650   3.606   4.510   3.088  0.0058 -0.5464 -0.1399
 4229TIP3    H112651   3.651   4.584   3.048 -1.3461 -0.1284 -0.9297
 4229TIP3    H212652   3.677   4.453   3.119  1.0675  0.3484 -0.8456
 4230TIP3   OH212653   2.287   1.777   4.841 -0.4878  0.0647 -0.5657
 4230TIP3    H112654   2.219   1.715   4.866 -1.0018 -0.1698 -2.4351
 4230TIP3    H212655   2.357   1.723   4.804  0.0976  0.4374 -0.0535
 4231TIP3   OH212656   0.108   4.176   5.271 -0.3713  0.3875  0.0004
 4231TIP3    H112657   0.184   4.219   5.310  0.5380 -0.5108 -0.7342
 4231TIP3    H212658   0.037   4.240   5.279  1.0512  2.2657 -1.5653
 4232TIP3   OH212659   0.594   3.724   1.330  0.5661  0.3783 -0.0923
 4232TIP3    H112660   0.531   3.760   1.267 -1.5207 -0.5296  1.3251
 4232TIP3    H212661   0.595   3.630   1.312 -0.9808 -0.0857  1.8678
 4233TIP3   OH212662   1.681   2.308   5.654  0.4069 -0.2548 -0.6917
 4233TIP3    H112663   1.718   2.384   5.610  0.5126 -0.1992 -0.5085
 4233TIP3    H212664   1.645   2.254   5.583  1.5447 -0.6944 -0.9526
 4234TIP3   OH212665   0.749   2.357   3.898  0.0085 -0.3781  0.3317
 4234TIP3    H112666   0.683   2.317   3.841  0.6695 -1.1232  0.0858
 4234TIP3    H212667   0.705   2.367   3.982 -0.9488  0.6388 -0.2551
 4235TIP3   OH212668   1.974   3.098   3.704  0.2524  0.0515 -0.1600
 4235TIP3    H112669   2.016   3.129   3.784 -0.4773 -0.2997  0.3723
 4235TIP3    H212670   1.928   3.174   3.669 -1.4797 -0.3646  1.1050
 4236TIP3   OH212671   3.169   2.347   5.413  0.6580  0.0826  0.1902
 4236TIP3    H112672   3.196   2.310   5.497 -0.5909  0.5303  0.8097
 4236TIP3    H212673   3.230   2.309   5.349  2.0707  0.2754  1.3774
 4237TIP3   OH212674   2.538   0.611   3.073  0.0873 -0.6751  0.2590
 4237TIP3    H112675   2.529   0.705   3.061  0.1019 -0.6905  0.1246
 4237TIP3    H212676   2.471   0.589   3.138 -1.7392 -0.9712 -1.5955
 4238TIP3   OH212677   1.684   0.650   4.353 -0.1172 -0.1664  0.3177
 4238TIP3    H112678   1.709   0.682   4.440 -1.3045 -1.4301  1.1626
 4238TIP3    H212679   1.762   0.604   4.322 -0.2213 -1.2151  1.4932
 4239TIP3   OH212680   0.330   0.826   5.420  0.1370  0.1634  0.4869
 4239TIP3    H112681   0.242   0.859   5.440  0.6997  0.9477  1.7731
 4239TIP3    H212682   0.385   0.904   5.421  0.8429 -0.3080 -0.4320
 4240TIP3   OH212683   1.024   3.991   3.506 -0.0616  0.8549 -0.2604
 4240TIP3    H112684   0.947   3.961   3.456  0.4394 -3.0056  0.9615
 4240TIP3    H212685   0.994   3.992   3.597  0.5685  2.3656 -0.0380
 4241TIP3   OH212686   4.412   6.585   5.298  0.4544  0.0181  0.0620
 4241TIP3    H112687   4.336   6.630   5.334 -0.2245 -0.3555 -0.8909
 4241TIP3    H212688   4.487   6.634   5.333 -0.2673  2.3214 -1.4662
 4242TIP3   OH212689   0.971   6.530   4.119 -0.2636 -0.1554 -0.3397
 4242TIP3    H112690   0.965   6.489   4.033 -1.2526 -1.2557  0.2287
 4242TIP3    H212691   0.893   6.586   4.124  0.0613  0.3017 -0.3508
 4243TIP3   OH212692   6.440   2.705   5.839 -0.4067  0.2975  0.1981
 4243TIP3    H112693   6.391   2.629   5.809  0.0247 -0.5387  1.5261
 4243TIP3    H212694   6.393   2.736   5.916  0.5294  0.1342  0.8583
 4244TIP3   OH212695   5.601   4.473   0.597 -0.4365 -0.3380  0.0095
 4244TIP3    H112696   5.524   4.440   0.644  0.4447 -0.4356  1.4495
 4244TIP3    H212697   5.656   4.510   0.666  0.3217  0.7115 -1.1313
 4245TIP3   OH212698   2.884   2.912   1.189 -0.7745  0.5546  0.4551
 4245TIP3    H112699   2.869   2.878   1.277 -1.0043 -0.0003  0.2082
 4245TIP3    H212700   2.878   2.835   1.132 -1.4694  1.0262 -0.1310
 4246TIP3   OH212701   2.063   0.976   4.806 -0.5711  0.1848 -0.5249
 4246TIP3    H112702   1.967   0.978   4.796 -0.6354 -1.1285 -0.3356
 4246TIP3    H212703   2.078   0.926   4.886  0.3056 -0.9640 -1.3743
 4247TIP3   OH212704   6.810   1.811   0.556 -0.0131  0.2080 -0.0839
 4247TIP3    H112705   6.899   1.815   0.520  0.0162 -1.5444 -0.2689
 4247TIP3    H212706   6.798   1.719   0.581 -1.5357  0.5534  0.5665
 4248TIP3   OH212707   2.927   6.454   0.335  0.4482 -0.4280 -0.6114
 4248TIP3    H112708   2.879   6.377   0.304  0.8070 -0.8186 -0.2001
 4248TIP3    H212709   3.018   6.437   0.311  0.8443 -1.0397  1.2174
 4249TIP3   OH212710   6.160   0.668   1.635 -0.0149  0.2413 -0.1977
 4249TIP3    H112711   6.247   0.664   1.595  1.9203  0.8394  3.5332
 4249TIP3    H212712   6.153   0.587   1.686 -0.7303  1.1118  1.1505
 4250TIP3   OH212713   1.843   4.600   1.639 -0.6652 -0.1526 -0.3016
 4250TIP3    H112714   1.891   4.606   1.556 -1.0828  1.9017 -0.4449
 4250TIP3    H212715   1.795   4.518   1.633 -0.8697  0.0662 -2.2155
 4251TIP3   OH212716   0.394   0.212   3.280  0.3061 -0.7131 -0.0284
 4251TIP3    H112717   0.383   0.132   3.228 -0.0598 -1.2075  0.8019
 4251TIP3    H212718   0.462   0.261   3.233  0.1377 -1.2484 -0.8552
 4252TIP3   OH212719   5.884   5.914   3.985 -0.3789  0.3083  0.5134
 4252TIP3    H112720   5.960   5.941   4.036  0.6326  0.3687 -0.9570
 4252TIP3    H212721   5.915   5.837   3.936 -0.4979  1.6677 -1.8191
 4253TIP3   OH212722   2.077   2.283   1.478  0.8427 -0.3984  0.0869
 4253TIP3    H112723   2.106   2.284   1.570  1.2606 -1.9725  0.0068
 4253TIP3    H212724   2.005   2.220   1.476  0.2016  0.3343 -0.5054
 4254TIP3   OH212725   0.169   3.297   0.162 -0.3179 -0.0206 -0.0570
 4254TIP3    H112726   0.191   3.361   0.095 -0.3372  0.0745  0.0270
 4254TIP3    H212727   0.253   3.265   0.194 -0.2958  0.4239  0.3419
 4255TIP3   OH212728   3.862   2.093   0.589  0.0028 -0.2228 -0.0823
 4255TIP3    H112729   3.843   2.079   0.681  3.1024  1.1867  0.8956
 4255TIP3    H212730   3.821   2.177   0.569 -0.8231 -0.6145 -0.0727
 4256TIP3   OH212731   5.409   1.811   5.845  0.0324 -0.4930 -0.3261
 4256TIP3    H112732   5.421   1.806   5.750  0.9983  0.0627 -0.2470
 4256TIP3    H212733   5.469   1.745   5.880  0.2973 -0.1295 -0.0774
 4257TIP3   OH212734   4.396   0.771   3.233  0.1681 -0.1787  0.0750
 4257TIP3    H112735   4.456   0.740   3.165  1.7060  0.3925  1.1119
 4257TIP3    H212736   4.351   0.693   3.264  1.3148 -0.8185  0.1498
 4258TIP3   OH212737   6.479   3.213   2.171 -0.1506 -0.3009 -0.1686
 4258TIP3    H112738   6.514   3.132   2.209  0.7971 -0.0052 -0.4035
 4258TIP3    H212739   6.426   3.251   2.241 -1.1595 -1.4511 -0.2705
 4259TIP3   OH212740   6.941   0.631   2.972  0.2661 -0.6753 -0.5078
 4259TIP3    H112741   6.992   0.619   3.053  0.6570  1.5772 -0.3553
 4259TIP3    H212742   6.883   0.704   2.991  0.7450  0.2714 -2.4152
 4260TIP3   OH212743   6.096   2.986   0.626  0.4013 -0.1325 -0.3958
 4260TIP3    H112744   6.150   2.917   0.665 -0.2606 -0.5062 -0.1211
 4260TIP3    H212745   6.159   3.049   0.591  1.0152 -0.8026 -0.5240
 4261TIP3   OH212746   7.083   4.050   5.002 -0.1927  0.3818  0.1533
 4261TIP3    H112747   7.079   4.100   4.921  0.1488  1.1510  0.5990
 4261TIP3    H212748   7.104   4.115   5.069  2.5928 -0.6957  0.4323
 4262TIP3   OH212749   5.301   5.047   3.350 -0.2576  0.3823  0.0701
 4262TIP3    H112750   5.364   5.114   3.376 -1.1141  0.8515  0.9901
 4262TIP3    H212751   5.225   5.096   3.319 -0.8935 -0.1485  0.7507
 4263TIP3   OH212752   1.223   1.637   2.513  0.6455  0.5306  0.3461
 4263TIP3    H112753   1.177   1.720   2.513 -0.1378  0.1118 -0.5665
 4263TIP3    H212754   1.270   1.635   2.430 -0.2800 -0.4341 -0.1743
 4264TIP3   OH212755   2.626   1.099   2.697 -0.4159  0.5849  0.1093
 4264TIP3    H112756   2.648   1.006   2.697 -0.9238  0.4585  0.1179
 4264TIP3    H212757   2.533   1.101   2.720 -0.8474  0.9866 -1.5342
 4265TIP3   OH212758   1.036   5.306   1.610 -0.0921 -0.0288  0.5715
 4265TIP3    H112759   1.109   5.367   1.598  0.6220 -0.8604  0.5128
 4265TIP3    H212760   0.958   5.361   1.613  0.6215  0.9773  1.6604
 4266TIP3   OH212761   6.742   1.095   4.843 -0.1995  0.7025  0.1670
 4266TIP3    H112762   6.785   1.173   4.807  1.4856  1.0570  2.6802
 4266TIP3    H212763   6.764   1.097   4.936 -1.8819 -1.6823  0.6949
 4267TIP3   OH212764   7.121   3.592   4.488  0.5924  0.3831 -0.0705
 4267TIP3    H112765   7.201   3.613   4.535  0.4608  2.6777 -0.7672
 4267TIP3    H212766   7.149   3.574   4.399  0.4980 -0.6673  0.0986
 4268TIP3   OH212767   1.003   3.558   2.976 -0.0647  0.2939 -0.6900
 4268TIP3    H112768   1.079   3.500   2.987 -0.8293 -0.4345  1.0561
 4268TIP3    H212769   0.929   3.499   2.965 -0.8680  0.8647  1.1647
 4269TIP3   OH212770   5.958   2.280   0.929  0.0943  0.0293 -0.2321
 4269TIP3    H112771   5.882   2.235   0.891 -1.0945  0.7145  1.2341
 4269TIP3    H212772   5.953   2.369   0.894  1.4936 -0.4514 -1.8089
 4270TIP3   OH212773   3.643   2.654   5.784 -0.5949 -0.3574  0.3803
 4270TIP3    H112774   3.573   2.708   5.822 -2.6758 -2.8540  0.3855
 4270TIP3    H212775   3.646   2.576   5.840  1.9985 -0.5258  0.1365
 4271TIP3   OH212776   2.886   3.365   0.811  0.4382 -0.0676  0.2518
 4271TIP3    H112777   2.883   3.423   0.887 -0.1992 -1.2818  1.1808
 4271TIP3    H212778   2.974   3.328   0.813  0.8385  0.8299 -0.3299
 4272TIP3   OH212779   4.693   2.060   0.527 -0.0111 -0.4244  0.3178
 4272TIP3    H112780   4.633   1.991   0.555 -2.5710  0.1782 -3.0109
 4272TIP3    H212781   4.774   2.014   0.504 -0.1131 -1.6570  2.1983
 4273TIP3   OH212782   2.217   1.760   1.763 -0.1914  0.4422  0.4819
 4273TIP3    H112783   2.168   1.719   1.691 -0.0358  3.3011 -1.4711
 4273TIP3    H212784   2.271   1.690   1.799 -1.0353 -1.3804 -1.5319
 4274TIP3   OH212785   4.240   6.413   4.653  0.7212 -0.3284  0.3884
 4274TIP3    H112786   4.275   6.480   4.712  0.5071 -0.3936  0.5887
 4274TIP3    H212787   4.318   6.373   4.614  0.8549  1.1591 -1.0100
 4275TIP3   OH212788   3.214   2.197   0.870 -0.1107 -0.8526  0.5042
 4275TIP3    H112789   3.151   2.203   0.798  1.7899  1.3817 -1.0806
 4275TIP3    H212790   3.300   2.200   0.829  1.1980  3.8015  2.7913
 4276TIP3   OH212791   1.283   3.639   0.462  0.1337 -0.5733  0.5737
 4276TIP3    H112792   1.299   3.569   0.400 -1.3617 -1.1188  0.7579
 4276TIP3    H212793   1.205   3.683   0.429  1.4903  1.5652  0.0161
 4277TIP3   OH212794   4.407   6.072   2.463  0.5100  1.1054  0.6278
 4277TIP3    H112795   4.398   5.986   2.502  1.5392  1.2548  1.2279
 4277TIP3    H212796   4.317   6.107   2.461 -0.0844 -0.4191 -0.7163
 4278TIP3   OH212797   5.853   6.760   4.379  0.4434 -0.0371 -0.0050
 4278TIP3    H112798   5.949   6.756   4.385  0.5772  2.2052 -0.0656
 4278TIP3    H212799   5.833   6.727   4.291  1.0842 -1.0657  0.2156
 4279TIP3   OH212800   5.825   5.847   5.204  0.1097  0.5294 -0.6572
 4279TIP3    H112801   5.860   5.758   5.208 -1.0425 -0.0117  4.1878
 4279TIP3    H212802   5.730   5.835   5.196 -0.1213  1.2157  0.7588
 4280TIP3   OH212803   6.885   2.691   3.501 -0.0915 -0.0339 -0.2155
 4280TIP3    H112804   6.908   2.779   3.529  0.0728  0.2112 -1.0829
 4280TIP3    H212805   6.813   2.665   3.559  0.9071  0.0400  1.0968
 4281TIP3   OH212806   6.442   2.834   2.404 -0.2634  0.4887  0.2772
 4281TIP3    H112807   6.444   2.827   2.500 -0.7224 -1.5685  0.1878
 4281TIP3    H212808   6.353   2.863   2.383 -0.2212  0.7523  0.4571
 4282TIP3   OH212809   2.634   5.873   5.155  0.2724  0.8004  0.1012
 4282TIP3    H112810   2.564   5.873   5.221 -0.8109  3.0211 -0.9248
 4282TIP3    H212811   2.591   5.848   5.074  0.9588  0.9232 -0.3055
 4283TIP3   OH212812   3.444   3.845   3.964 -0.2935  0.3150  0.6736
 4283TIP3    H112813   3.508   3.791   4.010  0.5317  1.3335  0.7633
 4283TIP3    H212814   3.417   3.792   3.889 -0.2698 -0.6153  1.3090
 4284TIP3   OH212815   2.379   4.728   2.997  0.2073 -0.8074  0.0994
 4284TIP3    H112816   2.401   4.703   2.908  1.1472 -0.4742  0.2287
 4284TIP3    H212817   2.289   4.761   2.991  0.1847 -0.9890 -0.6762
 4285TIP3   OH212818   4.854   0.585   3.270 -0.2555  0.1125  0.0432
 4285TIP3    H112819   4.927   0.646   3.274 -0.7787  0.7690 -0.2761
 4285TIP3    H212820   4.883   0.515   3.212 -0.1426  0.7229 -0.6414
 4286TIP3   OH212821   6.526   2.614   3.848  0.5789  0.9487 -0.0140
 4286TIP3    H112822   6.557   2.644   3.933  0.0472  1.8227 -0.1112
 4286TIP3    H212823   6.605   2.605   3.795  0.8648  0.9082  0.4100
 4287TIP3   OH212824   2.964   2.911   2.063 -0.3667 -0.6475  0.2629
 4287TIP3    H112825   2.936   2.820   2.066 -0.6167 -0.6296 -0.9172
 4287TIP3    H212826   3.055   2.907   2.034 -1.3133 -0.4572 -3.2205
 4288TIP3   OH212827   3.008   5.538   0.781 -0.0090 -0.2877 -0.0371
 4288TIP3    H112828   2.976   5.507   0.696 -1.3080 -0.3867  0.4774
 4288TIP3    H212829   3.067   5.468   0.810 -0.9094 -1.0823 -0.0730
 4289TIP3   OH212830   0.756   0.620   3.044 -0.3773 -0.0081  0.3219
 4289TIP3    H112831   0.802   0.536   3.037 -0.8252 -0.3740  1.5275
 4289TIP3    H212832   0.788   0.671   2.970  1.0497 -0.6931  0.4353
 4290TIP3   OH212833   4.702   6.039   2.252 -0.5103  0.5025  0.1353
 4290TIP3    H112834   4.778   6.049   2.194  1.1849  0.3107  2.1807
 4290TIP3    H212835   4.670   5.951   2.235 -1.5762  1.2454 -2.1349
 4291TIP3   OH212836   0.996   1.654   4.187 -0.5316  0.4913  0.1601
 4291TIP3    H112837   1.013   1.616   4.101 -0.1446  0.1724  0.3729
 4291TIP3    H212838   0.967   1.743   4.169 -0.2177  0.5044 -0.2865
 4292TIP3   OH212839   6.849   6.155   0.985 -0.1260  0.1370  0.2451
 4292TIP3    H112840   6.929   6.106   1.003  0.6778  0.6480 -1.6891
 4292TIP3    H212841   6.805   6.105   0.916 -0.8949  0.4732  0.4783
 4293TIP3   OH212842   0.243   6.284   4.230 -0.1717 -0.6121  0.0124
 4293TIP3    H112843   0.322   6.316   4.273 -0.5529  0.5881 -0.1421
 4293TIP3    H212844   0.275   6.240   4.151  0.3592 -0.3957  0.1008
 4294TIP3   OH212845   3.118   6.069   4.135  0.5154 -0.2116 -0.7241
 4294TIP3    H112846   3.107   6.156   4.172  0.0259 -0.4704 -0.2644
 4294TIP3    H212847   3.197   6.077   4.081  0.6144  0.4488 -0.4968
 4295TIP3   OH212848   3.353   6.683   5.096  0.5393 -0.4377  0.5004
 4295TIP3    H112849   3.259   6.698   5.099  0.7204  0.8129  0.6554
 4295TIP3    H212850   3.363   6.588   5.087 -0.7146 -0.6847  1.5089
 4296TIP3   OH212851   0.709   0.393   3.780  0.3373  0.2915 -0.0592
 4296TIP3    H112852   0.776   0.376   3.714 -0.4537 -2.1197 -0.3497
 4296TIP3    H212853   0.758   0.422   3.857  1.7848 -1.5630 -0.2047
 4297TIP3   OH212854   1.050   3.096   5.531 -0.0702  0.0590 -0.2379
 4297TIP3    H112855   1.144   3.112   5.539  0.0416 -0.5968 -0.2344
 4297TIP3    H212856   1.010   3.161   5.589  0.4117 -0.0318  0.2018
 4298TIP3   OH212857   0.968   5.727   1.604  0.3687 -0.1660  0.2034
 4298TIP3    H112858   1.032   5.772   1.660  1.0011 -2.2188  1.2313
 4298TIP3    H212859   0.956   5.786   1.530  2.0736  1.1242  0.8788
 4299TIP3   OH212860   3.852   1.486   3.013 -0.2792  0.1089 -0.5106
 4299TIP3    H112861   3.925   1.424   3.015 -0.3855 -0.0037  0.4848
 4299TIP3    H212862   3.848   1.516   2.922  0.7937 -0.1327 -0.6467
 4300TIP3   OH212863   5.910   1.663   3.168  0.5254 -0.7382  0.5247
 4300TIP3    H112864   5.942   1.747   3.200  0.0063 -0.8399  1.3332
 4300TIP3    H212865   5.817   1.676   3.152  0.9293 -0.3864 -2.0275
 4301TIP3   OH212866   1.506   4.516   2.709 -0.2817  0.0012 -0.7278
 4301TIP3    H112867   1.447   4.555   2.773  0.7467  0.1536  0.1597
 4301TIP3    H212868   1.498   4.571   2.631 -2.7244 -1.0877 -1.3452
 4302TIP3   OH212869   4.871   3.072  -0.031 -0.2377  0.0597  0.1772
 4302TIP3    H112870   4.874   3.161   0.003 -1.2250 -0.0748  0.6708
 4302TIP3    H212871   4.849   3.018   0.046 -1.5363 -0.3702 -0.4604
 4303TIP3   OH212872   6.874   0.175   5.017 -0.1027  0.7919 -0.6014
 4303TIP3    H112873   6.803   0.238   5.026 -1.2878 -0.6438  0.7508
 4303TIP3    H212874   6.856   0.109   5.085  1.8428 -0.2632 -1.0359
 4304TIP3   OH212875   6.716   3.584   3.959  0.1913  0.3124  0.8155
 4304TIP3    H112876   6.697   3.669   3.918  1.2195 -0.1146 -0.6354
 4304TIP3    H212877   6.745   3.529   3.886  0.6371 -0.9557  1.9177
 4305TIP3   OH212878   0.431   0.989   0.116 -0.3422  0.2859  0.2046
 4305TIP3    H112879   0.411   0.903   0.154  3.3806 -1.0622 -0.5084
 4305TIP3    H212880   0.358   1.007   0.057 -1.8346 -1.7586  1.3069
 4306TIP3   OH212881   4.887   0.459   1.060  0.0747  0.5470  0.3099
 4306TIP3    H112882   4.931   0.542   1.079 -0.2917  0.3765  2.1572
 4306TIP3    H212883   4.951   0.392   1.084 -0.1143  0.3026  0.1327
 4307TIP3   OH212884   5.377   5.208   5.248  0.3373  0.5766  0.3174
 4307TIP3    H112885   5.383   5.298   5.216  1.5736  0.5516  0.4304
 4307TIP3    H212886   5.417   5.210   5.335 -0.7495  0.1554  0.8439
 4308TIP3   OH212887   5.940   0.684   0.447 -0.9152  0.1514 -0.1687
 4308TIP3    H112888   5.868   0.683   0.510  0.0772  0.9789  1.0168
 4308TIP3    H212889   5.986   0.601   0.461  0.1889  0.9654  1.3062
 4309TIP3   OH212890   5.778   3.144   0.566 -0.5940  0.5187 -0.0629
 4309TIP3    H112891   5.691   3.183   0.573 -0.5513  0.6126 -0.0462
 4309TIP3    H212892   5.833   3.216   0.534 -0.1662  0.9572  1.5849
 4310TIP3   OH212893   3.886   5.469   1.566  0.1667  0.3790 -0.2354
 4310TIP3    H112894   3.878   5.517   1.484 -0.8671  0.0065 -0.3802
 4310TIP3    H212895   3.961   5.411   1.553  1.0470  1.4980 -0.2785
 4311TIP3   OH212896   6.722   4.731   1.343  0.0767 -0.2022  0.2590
 4311TIP3    H112897   6.676   4.759   1.422 -0.0344  1.3399 -0.3146
 4311TIP3    H212898   6.653   4.714   1.279  0.2245  0.5685 -0.1185
 4312TIP3   OH212899   4.164   6.152   5.798  0.2841 -0.1924  0.4095
 4312TIP3    H112900   4.177   6.241   5.766 -0.7583  0.4387  1.6309
 4312TIP3    H212901   4.162   6.098   5.719  2.4317  0.6195 -0.2755
 4313TIP3   OH212902   6.916   2.107   2.297  0.5244 -0.1124 -0.2107
 4313TIP3    H112903   6.934   2.130   2.206  0.8399  2.5808  0.4246
 4313TIP3    H212904   6.821   2.097   2.301  0.2743  1.6726 -0.5416
 4314TIP3   OH212905   0.160   4.102   1.861 -0.0207 -0.2838 -0.0536
 4314TIP3    H112906   0.158   4.027   1.920  0.7058 -2.0131 -2.0915
 4314TIP3    H212907   0.068   4.117   1.838 -0.0364 -2.2841 -1.5840
 4315TIP3   OH212908   1.256   1.531   0.776 -0.2675 -0.3337 -0.7166
 4315TIP3    H112909   1.343   1.550   0.811 -0.4111 -1.2263  0.1758
 4315TIP3    H212910   1.219   1.616   0.755  1.8095  0.0315 -3.6699
 4316TIP3   OH212911   1.937   1.780   2.868 -0.1863  0.9105 -0.0686
 4316TIP3    H112912   2.022   1.808   2.834  0.1509 -0.3014 -0.2477
 4316TIP3    H212913   1.932   1.821   2.955  0.5826  0.9794 -0.0501
 4317TIP3   OH212914   5.107   2.528   0.999  0.3901 -0.4493 -0.3065
 4317TIP3    H112915   5.157   2.575   0.932  0.1356  0.5025  0.1494
 4317TIP3    H212916   5.021   2.570   0.998  0.2986 -0.6140  0.4158
 4318TIP3   OH212917   2.360   2.536   3.220  0.4199 -0.2434 -0.0849
 4318TIP3    H112918   2.438   2.581   3.189  0.0044  0.0895 -0.6671
 4318TIP3    H212919   2.288   2.597   3.203  0.2037  0.1476  1.9499
 4319TIP3   OH212920   6.642   0.242   2.573 -0.1758 -0.4109 -0.0545
 4319TIP3    H112921   6.637   0.156   2.533  0.6052 -0.7083  0.4511
 4319TIP3    H212922   6.594   0.233   2.656 -2.4449  0.4069 -1.1861
 4320TIP3   OH212923   1.378   3.808   4.740  0.9281 -0.6562  0.6926
 4320TIP3    H112924   1.339   3.895   4.732  1.2232 -0.3740  2.0358
 4320TIP3    H212925   1.314   3.750   4.698 -0.1573 -0.0040  1.3694
 4321TIP3   OH212926   2.482   4.727   2.380  0.5324 -0.1302 -0.2510
 4321TIP3    H112927   2.399   4.744   2.424 -0.6269 -1.1178 -1.9588
 4321TIP3    H212928   2.499   4.634   2.395  1.2629  0.0288 -0.0445
 4322TIP3   OH212929   6.373   2.436   3.101  0.7871  0.0231 -0.0508
 4322TIP3    H112930   6.288   2.441   3.144  1.3277  1.8608  0.9019
 4322TIP3    H212931   6.352   2.439   3.008 -0.1888  1.3783  0.1724
 4323TIP3   OH212932   6.614   2.466   2.156 -0.1915  0.0121 -0.0543
 4323TIP3    H112933   6.586   2.396   2.096  0.0734 -0.9670  0.9233
 4323TIP3    H212934   6.709   2.469   2.147 -0.3082  1.2108 -1.0979
 4324TIP3   OH212935   4.627   4.986   0.779  0.7304  0.2674 -0.0699
 4324TIP3    H112936   4.630   4.985   0.875  1.9474  0.8851 -0.0921
 4324TIP3    H212937   4.699   4.929   0.752 -0.0628 -0.5050 -0.6341
 4325TIP3   OH212938   6.291   6.587   0.745 -0.3878 -0.4914  0.2240
 4325TIP3    H112939   6.318   6.622   0.830  0.7420  1.1679 -0.7659
 4325TIP3    H212940   6.211   6.637   0.724  1.9787  2.8109 -1.8288
 4326TIP3   OH212941   4.879   2.366   4.232 -0.4167  0.7400 -0.0358
 4326TIP3    H112942   4.941   2.423   4.185 -1.2686 -0.3531 -2.7022
 4326TIP3    H212943   4.935   2.304   4.278  0.4776  1.8813  0.4945
 4327TIP3   OH212944   3.917   2.858   0.970  0.0726 -0.1377  0.0980
 4327TIP3    H112945   3.864   2.936   0.987 -3.1567 -1.9569 -0.7402
 4327TIP3    H212946   3.929   2.817   1.056 -1.8032 -0.7558  0.1133
 4328TIP3   OH212947   5.869   3.186   4.746 -0.2965  0.2735 -0.1047
 4328TIP3    H112948   5.900   3.114   4.801 -0.6848  0.9170  0.9940
 4328TIP3    H212949   5.817   3.144   4.677  2.1188 -0.7516 -1.4081
 4329TIP3   OH212950   6.674   5.924   5.217 -0.4796 -0.2306 -0.0748
 4329TIP3    H112951   6.683   5.928   5.122  0.5992  3.7916  0.0391
 4329TIP3    H212952   6.580   5.930   5.233 -0.5495  1.7073 -0.9489
 4330TIP3   OH212953   3.938   6.056   1.534 -0.4673  0.5114  0.2587
 4330TIP3    H112954   3.899   6.021   1.454 -1.7655  0.0225  1.0767
 4330TIP3    H212955   3.889   6.014   1.605  1.5540 -0.1233  1.3485
 4331TIP3   OH212956   2.737   0.534   4.705  0.1394  0.4971  0.0966
 4331TIP3    H112957   2.661   0.533   4.763  0.4443 -0.2356  0.4910
 4331TIP3    H212958   2.804   0.582   4.755 -0.4366  2.3052 -0.7647
 4332TIP3   OH212959   3.573   1.498   5.443 -0.0767 -0.0977 -0.4317
 4332TIP3    H112960   3.594   1.441   5.369  0.2741  1.4634 -1.5772
 4332TIP3    H212961   3.618   1.580   5.424 -2.7620  1.5207 -0.2164
 4333TIP3   OH212962   3.160   2.769   4.103 -0.3142 -0.3275 -0.2878
 4333TIP3    H112963   3.250   2.738   4.115  0.1144  1.5300  2.0511
 4333TIP3    H212964   3.163   2.824   4.025  0.9579  0.8357  0.5430
 4334TIP3   OH212965   5.237   0.191   4.802  0.1930  0.1333  0.1093
 4334TIP3    H112966   5.289   0.155   4.875  1.9482 -1.1239 -1.6621
 4334TIP3    H212967   5.261   0.283   4.799 -0.8560  0.5098  1.8483
 4335TIP3   OH212968   1.055   2.871   3.696  0.3729 -0.4792  0.3487
 4335TIP3    H112969   1.111   2.810   3.744  0.0918  0.7510  2.4076
 4335TIP3    H212970   1.038   2.941   3.759 -2.4527 -0.1826 -0.6292
 4336TIP3   OH212971   1.867   0.663   1.069  0.1819 -0.2686 -0.5942
 4336TIP3    H112972   1.783   0.626   1.045 -1.3000  1.6644  1.2395
 4336TIP3    H212973   1.866   0.752   1.033  1.4299 -0.2010 -0.5268
 4337TIP3   OH212974   3.608   0.244   0.780  0.1272 -0.0470 -0.3018
 4337TIP3    H112975   3.580   0.154   0.765 -0.4792 -0.2634  1.8881
 4337TIP3    H212976   3.553   0.296   0.721 -0.5631 -0.9737 -0.4979
 4338TIP3   OH212977   2.658   1.272   0.608  0.2112  0.6963 -0.1089
 4338TIP3    H112978   2.702   1.354   0.634 -0.9338  1.2155  0.2242
 4338TIP3    H212979   2.574   1.300   0.573  0.4914 -0.2144 -1.6465
 4339TIP3   OH212980   6.938   4.562   3.176 -0.0802  0.8397  0.1360
 4339TIP3    H112981   6.945   4.575   3.081 -0.5674  0.9821  0.1166
 4339TIP3    H212982   7.024   4.588   3.210  0.6913 -0.8308 -0.4319
 4340TIP3   OH212983   6.452   0.725   4.410 -0.3572  0.2406  0.1954
 4340TIP3    H112984   6.530   0.681   4.374  0.2092  2.0687 -0.9481
 4340TIP3    H212985   6.391   0.729   4.336 -0.9117  0.2484  0.6520
 4341TIP3   OH212986   2.104   3.816   0.401  0.3326 -0.2968 -0.0165
 4341TIP3    H112987   2.188   3.782   0.369  0.3877 -0.8021  0.6416
 4341TIP3    H212988   2.095   3.901   0.358 -0.8203 -1.9786 -3.3669
 4342TIP3   OH212989   3.455   2.562   3.908  0.0809  0.2136  0.8761
 4342TIP3    H112990   3.489   2.620   3.976  0.2911  1.1933 -0.0415
 4342TIP3    H212991   3.369   2.598   3.886 -0.5957 -0.9083  1.5680
 4343TIP3   OH212992   3.927   2.436   2.793 -0.3212 -0.3405 -0.0850
 4343TIP3    H112993   3.870   2.501   2.752 -1.3730 -0.3987  1.2355
 4343TIP3    H212994   3.887   2.418   2.878  0.1639 -2.4096 -0.2327
 4344TIP3   OH212995   3.239   5.656   1.198 -0.0549  0.1507  0.5520
 4344TIP3    H112996   3.243   5.624   1.108 -1.4842  0.0681  0.4934
 4344TIP3    H212997   3.264   5.748   1.192 -2.9469  0.9845 -0.4457
 4345TIP3   OH212998   1.049   3.265   3.235 -0.3912 -0.2756 -0.2154
 4345TIP3    H112999   1.040   3.237   3.144 -0.3100 -0.6302 -0.1144
 4345TIP3    H213000   1.120   3.211   3.270 -0.2280  0.0606 -0.0219
 4346TIP3   OH213001   6.287   1.443   5.828  0.1653 -0.1850 -0.1321
 4346TIP3    H113002   6.205   1.441   5.877 -0.2129  0.3206 -0.7390
 4346TIP3    H213003   6.320   1.532   5.839  0.6653 -0.4018  0.1551
 4347TIP3   OH213004   2.814   5.846   0.778  0.3388  0.5815 -0.1187
 4347TIP3    H113005   2.905   5.828   0.754  0.8205  0.9512  1.3677
 4347TIP3    H213006   2.805   5.812   0.866 -1.2783 -0.3663 -0.6170
 4348TIP3   OH213007   0.301   2.715   3.554  0.3795  0.3648  0.2325
 4348TIP3    H113008   0.222   2.747   3.511 -0.7404 -1.7582  0.5564
 4348TIP3    H213009   0.268   2.655   3.622  2.2622 -0.4329  0.4962
 4349TIP3   OH213010   3.502   2.860   0.323 -0.0168 -0.3584 -0.5888
 4349TIP3    H113011   3.504   2.864   0.419 -1.7050 -2.7371 -0.3576
 4349TIP3    H213012   3.408   2.861   0.301  0.2203 -2.2743 -1.9906
 4350TIP3   OH213013   0.117   4.197   2.633 -0.0709 -0.1539 -0.0375
 4350TIP3    H113014   0.058   4.134   2.593  0.0497 -0.0225 -0.4256
 4350TIP3    H213015   0.175   4.144   2.688 -1.4466 -0.1532  1.4862
 4351TIP3   OH213016   2.554   4.450   1.736  0.4774  0.5820 -0.3227
 4351TIP3    H113017   2.481   4.508   1.756  0.3913  0.4595 -0.2818
 4351TIP3    H213018   2.570   4.462   1.642  0.4297  0.6367 -0.3233
 4352TIP3   OH213019   5.996   4.196   5.108  0.1976 -0.0397 -0.1717
 4352TIP3    H113020   6.018   4.265   5.171  0.3297  1.3367 -1.6738
 4352TIP3    H213021   6.044   4.119   5.139 -2.7253 -0.6562  3.6465
 4353TIP3   OH213022   4.732   5.328   0.067  0.1010 -0.1227 -0.2515
 4353TIP3    H113023   4.804   5.392   0.062  0.7186 -0.8818 -1.5707
 4353TIP3    H213024   4.661   5.368   0.017 -0.4026  0.6095  1.0160
 4354TIP3   OH213025   2.186   2.398   0.632  1.2292  0.1651  0.0660
 4354TIP3    H113026   2.117   2.436   0.687  0.7540 -2.0538  1.0998
 4354TIP3    H213027   2.263   2.396   0.689  1.3203 -0.1763 -0.0696
 4355TIP3   OH213028   4.079   1.713   3.508 -0.3611  0.2097 -0.2958
 4355TIP3    H113029   4.153   1.774   3.509 -2.4014  3.0647 -3.2138
 4355TIP3    H213030   4.017   1.749   3.572 -0.7513  0.0473 -0.5755
 4356TIP3   OH213031   4.145   6.166   2.427  0.0569 -0.1162  0.6904
 4356TIP3    H113032   4.153   6.209   2.342  2.7953 -0.8389  0.4846
 4356TIP3    H213033   4.091   6.226   2.479 -1.2426  0.5807 -1.3585
 4357TIP3   OH213034   6.428   1.751   4.383 -0.2328  0.0411  0.0623
 4357TIP3    H113035   6.520   1.725   4.375 -0.3948 -0.1568 -1.6752
 4357TIP3    H213036   6.381   1.668   4.394 -0.2503  0.0773  0.2457
 4358TIP3   OH213037   3.509   5.714   0.176 -0.0237 -0.7770  0.5680
 4358TIP3    H113038   3.535   5.712   0.268 -1.1340 -0.5387  0.9041
 4358TIP3    H213039   3.484   5.624   0.155 -3.3437 -0.2588  1.6270
 4359TIP3   OH213040   5.753   2.678   5.253 -0.2452 -0.6004  0.5969
 4359TIP3    H113041   5.679   2.729   5.288 -0.6297  0.1712 -1.2030
 4359TIP3    H213042   5.817   2.745   5.228 -0.3931 -1.0202 -1.0024
 4360TIP3   OH213043   0.674   2.166   1.542  0.5629  0.1805 -0.6923
 4360TIP3    H113044   0.631   2.136   1.462  1.1415 -2.2671 -0.1885
 4360TIP3    H213045   0.734   2.095   1.565 -1.3685 -0.4710  3.2697
 4361TIP3   OH213046   0.207   3.442   4.761 -0.5813  0.0300 -0.4733
 4361TIP3    H113047   0.248   3.502   4.698  1.0325  1.4179  1.7713
 4361TIP3    H213048   0.223   3.355   4.725  1.9549  0.6730 -1.1248
 4362TIP3   OH213049   0.874   2.432   2.458 -0.9770  0.2540 -0.3693
 4362TIP3    H113050   0.789   2.388   2.465 -0.8283  0.0385  0.2209
 4362TIP3    H213051   0.892   2.462   2.547 -1.7818  2.8921 -1.0191
 4363TIP3   OH213052   5.268   6.223   4.560  0.3575  0.3566  0.3313
 4363TIP3    H113053   5.273   6.255   4.470  3.5442 -0.2532  0.1971
 4363TIP3    H213054   5.238   6.299   4.611 -0.7676  0.9112 -1.0787
 4364TIP3   OH213055   5.114   5.130   1.653 -0.3265 -0.4660 -0.0802
 4364TIP3    H113056   5.112   5.224   1.669 -0.6008 -0.1727 -1.6304
 4364TIP3    H213057   5.041   5.114   1.593 -0.0133 -1.5861 -0.1861
 4365TIP3   OH213058   2.670   0.027   5.716  0.0447  0.3731  0.1818
 4365TIP3    H113059   2.676   0.011   5.622 -1.3609 -0.7184  0.2482
 4365TIP3    H213060   2.625   0.111   5.723 -0.8769 -0.0817 -0.1285
 4366TIP3   OH213061   0.244   0.088   5.355 -0.4445  0.4084 -0.0060
 4366TIP3    H113062   0.259   0.099   5.261 -1.6568  0.8770 -0.1713
 4366TIP3    H213063   0.202   0.003   5.362  1.5087 -0.5627  0.3626
 4367TIP3   OH213064   6.428   4.070   2.566  0.1728 -0.8026 -0.1001
 4367TIP3    H113065   6.433   4.159   2.600  1.5532 -0.4493 -1.1068
 4367TIP3    H213066   6.509   4.028   2.597  0.0693 -1.3572 -0.5542
 4368TIP3   OH213067   2.327   4.335   0.674 -0.0125  0.1582 -0.0853
 4368TIP3    H113068   2.315   4.409   0.615  1.2206  0.5599  0.1397
 4368TIP3    H213069   2.416   4.345   0.708  0.6630 -2.0842 -0.9894
 4369TIP3   OH213070   4.017   5.910   3.714 -0.0363  0.1526  0.1815
 4369TIP3    H113071   4.103   5.907   3.754 -0.3394  2.8376  1.2730
 4369TIP3    H213072   3.963   5.850   3.766  0.8734 -0.6463  0.2214
 4370TIP3   OH213073   5.117   1.973   3.589  0.0355 -0.0528 -0.3773
 4370TIP3    H113074   5.212   1.972   3.590  0.0643 -1.4510 -1.2201
 4370TIP3    H213075   5.091   1.911   3.657 -0.2833  0.5293  0.0387
 4371TIP3   OH213076   1.930   4.604   2.885 -0.5343 -0.1018  0.5696
 4371TIP3    H113077   1.916   4.587   2.978  2.4449 -1.0960  0.9363
 4371TIP3    H213078   1.871   4.543   2.840 -1.4092 -0.1813  1.7775
 4372TIP3   OH213079   6.345   5.941   1.223  0.2928 -0.0939 -0.4483
 4372TIP3    H113080   6.386   5.858   1.247  0.6230  0.1258 -0.2514
 4372TIP3    H213081   6.397   5.973   1.149 -0.9079 -0.9213 -1.7058
 4373TIP3   OH213082   5.289   0.404   4.199  0.0921 -0.0823 -0.3625
 4373TIP3    H113083   5.302   0.469   4.269  0.2956 -0.0014 -0.4745
 4373TIP3    H213084   5.328   0.324   4.233 -0.5365 -0.2616 -0.0501
 4374TIP3   OH213085   0.726   2.655   4.057  0.2019 -0.8207  0.1659
 4374TIP3    H113086   0.811   2.692   4.033 -0.1954  0.0941  0.1211
 4374TIP3    H213087   0.746   2.567   4.088  1.1901 -0.5365  0.3684
 4375TIP3   OH213088   0.809   4.190   3.961  0.1455  0.3951  0.1180
 4375TIP3    H113089   0.716   4.188   3.935 -0.3334  0.7383  1.6704
 4375TIP3    H213090   0.847   4.260   3.909 -0.5545  0.5086 -0.2555
 4376TIP3   OH213091   4.578   1.688   5.462  0.5127 -0.5746  0.1418
 4376TIP3    H113092   4.498   1.738   5.477  1.3545  1.9440 -2.7356
 4376TIP3    H213093   4.626   1.694   5.545 -1.0414  0.2727  1.0083
 4377TIP3   OH213094   2.229   6.787   0.590 -0.4932  0.2709 -0.8882
 4377TIP3    H113095   2.207   6.742   0.508  0.0996 -1.1492 -0.2926
 4377TIP3    H213096   2.324   6.781   0.596 -0.6611 -1.3118  0.8004
 4378TIP3   OH213097   6.763   6.132   1.777  0.2329  0.4487 -0.2315
 4378TIP3    H113098   6.831   6.088   1.826  0.3950 -0.8886 -1.5890
 4378TIP3    H213099   6.808   6.203   1.731  0.6139 -0.0702 -0.6687
 4379TIP3   OH213100   3.189   2.683   2.325  0.0117 -0.0351 -0.0070
 4379TIP3    H113101   3.257   2.618   2.340  0.4641  0.5536  0.5316
 4379TIP3    H213102   3.157   2.705   2.413  0.0701  0.6826 -0.1589
 4380TIP3   OH213103   5.433   0.349   5.283  0.1327  0.2699 -0.3473
 4380TIP3    H113104   5.444   0.286   5.354 -0.7753  0.9249  0.3901
 4380TIP3    H213105   5.508   0.332   5.225  0.2004 -1.1144  0.1019
 4381TIP3   OH213106   2.921   4.647   0.995 -0.4216  0.2385  0.3661
 4381TIP3    H113107   2.984   4.658   1.066  0.0336 -0.1398  0.0281
 4381TIP3    H213108   2.975   4.630   0.918 -0.9575 -1.9934  0.4123
 4382TIP3   OH213109   3.643   2.267   2.344  0.8484  0.0617 -0.0957
 4382TIP3    H113110   3.653   2.188   2.397  0.1422 -0.2442 -0.4070
 4382TIP3    H213111   3.634   2.235   2.254 -1.7691  0.3033  0.0056
 4383TIP3   OH213112   2.044   1.095   2.363  0.1737 -0.1421  0.0568
 4383TIP3    H113113   2.120   1.043   2.336 -0.0445 -0.2602 -0.3400
 4383TIP3    H213114   2.043   1.169   2.302 -0.5290 -0.5981 -0.5011
 4384TIP3   OH213115   4.622   3.808   0.533 -0.4635 -0.2886  0.4004
 4384TIP3    H113116   4.624   3.818   0.438  2.2460 -1.2899  0.2857
 4384TIP3    H213117   4.556   3.740   0.549 -0.0262 -1.0451 -0.8889
 4385TIP3   OH213118   2.921   1.795   4.023  0.2439 -0.4443  0.0343
 4385TIP3    H113119   2.835   1.790   4.064 -0.4106 -0.7166 -1.2936
 4385TIP3    H213120   2.910   1.858   3.952  0.5136 -2.0548 -1.5052
 4386TIP3   OH213121   6.459   2.232   3.672  0.2732 -0.2987 -0.6632
 4386TIP3    H113122   6.494   2.191   3.751  0.9666 -0.9755 -1.2981
 4386TIP3    H213123   6.422   2.315   3.702  1.4606 -0.0512  0.2080
 4387TIP3   OH213124   2.220   2.749   3.128 -0.1969  0.2055  0.8032
 4387TIP3    H113125   2.196   2.841   3.121  1.5657  0.6878  0.5993
 4387TIP3    H213126   2.160   2.704   3.069  0.8309  1.6165 -1.4835
 4388TIP3   OH213127   1.317   3.447   4.209 -0.2166  0.0083  0.0787
 4388TIP3    H113128   1.277   3.363   4.187  1.7307 -0.4779 -1.8928
 4388TIP3    H213129   1.411   3.433   4.200  0.5214  1.2731  3.9241
 4389TIP3   OH213130   3.080   0.946   2.141  0.1085 -0.7773 -0.3112
 4389TIP3    H113131   3.080   0.940   2.237 -0.2326 -0.7885 -0.3085
 4389TIP3    H213132   3.113   0.861   2.111 -1.1961 -1.3431 -0.2223
 4390TIP3   OH213133   5.528   1.631   4.206 -0.2381  0.1733 -0.0343
 4390TIP3    H113134   5.503   1.698   4.270 -1.0164 -0.1439  0.0002
 4390TIP3    H213135   5.481   1.656   4.126  1.0403  0.7980 -0.6232
 4391TIP3   OH213136   1.807   1.615   1.894 -0.0595  0.0483 -0.0925
 4391TIP3    H113137   1.803   1.529   1.936 -1.9230  0.5849  0.9753
 4391TIP3    H213138   1.804   1.597   1.800 -0.9501 -1.0681  0.1276
 4392TIP3   OH213139   1.839   6.314   1.331  0.3875  0.3245 -0.0195
 4392TIP3    H113140   1.789   6.251   1.382 -0.1989  0.4871 -0.3793
 4392TIP3    H213141   1.804   6.306   1.242  0.9947  0.4532 -0.2716
 4393TIP3   OH213142   4.209   1.045   0.130 -0.2744 -0.0377 -0.2136
 4393TIP3    H113143   4.230   1.118   0.072  1.0725 -0.9157 -0.8945
 4393TIP3    H213144   4.277   1.047   0.197 -0.3052 -0.5764 -0.1620
 4394TIP3   OH213145   2.954   6.739   2.144  0.0869 -0.2294 -0.0078
 4394TIP3    H113146   2.862   6.756   2.123  0.1787  1.1399  0.5780
 4394TIP3    H213147   2.967   6.781   2.229  1.0240 -1.2324  0.3706
 4395TIP3   OH213148   2.424   1.163   1.707  0.2271 -0.1566 -0.5265
 4395TIP3    H113149   2.509   1.188   1.669  0.0023 -0.7865 -1.4732
 4395TIP3    H213150   2.360   1.209   1.653 -0.0771 -0.5243 -0.4778
 4396TIP3   OH213151   5.648   5.569   4.404  0.3867  0.2753  0.2432
 4396TIP3    H113152   5.625   5.662   4.404  1.7063  0.6356  0.8517
 4396TIP3    H213153   5.696   5.557   4.486 -1.1000 -1.3169  0.9300
 4397TIP3   OH213154   0.804   5.263   3.770  0.6845  0.1623  0.1024
 4397TIP3    H113155   0.732   5.324   3.783  1.1818  0.8087 -0.1037
 4397TIP3    H213156   0.804   5.243   3.677  0.1763 -0.6017  0.2584
 4398TIP3   OH213157   5.963   1.182   1.371 -0.2534 -0.2347  0.2783
 4398TIP3    H113158   5.909   1.193   1.449  0.1989  0.6583  0.4710
 4398TIP3    H213159   5.947   1.260   1.319 -0.4642 -0.7710 -0.4821
 4399TIP3   OH213160   0.237   5.057   1.897  0.3775 -0.0244 -0.4635
 4399TIP3    H113161   0.145   5.081   1.907  0.5768  0.3715  0.6682
 4399TIP3    H213162   0.242   4.967   1.929  0.3291 -0.1613 -0.8391
 4400TIP3   OH213163   2.084   2.185   5.175 -0.3323  0.0879 -0.0703
 4400TIP3    H113164   2.151   2.251   5.193  0.0280 -0.4360  0.5838
 4400TIP3    H213165   2.130   2.101   5.185 -0.9286 -0.2711 -0.2674
 4401TIP3   OH213166  -0.012   2.473   1.296 -0.0217 -0.1717  0.3170
 4401TIP3    H113167  -0.020   2.501   1.387 -1.5019 -1.0771  0.4976
 4401TIP3    H213168   0.056   2.405   1.299  0.3184  0.1795  0.6555
 4402TIP3   OH213169   3.718   2.290   4.168 -0.6479 -0.4591 -0.3710
 4402TIP3    H113170   3.759   2.264   4.085 -1.8375  1.5769 -1.6688
 4402TIP3    H213171   3.628   2.257   4.161 -1.6027  2.0663 -1.2119
 4403TIP3   OH213172   0.666   2.730   2.032 -0.2306 -0.3499 -0.4468
 4403TIP3    H113173   0.699   2.815   2.003 -2.5450  0.7588 -0.0560
 4403TIP3    H213174   0.706   2.716   2.118 -0.4331  0.7258 -0.1673
 4404TIP3   OH213175   2.569   6.183   5.156 -0.1540  0.3609 -0.4720
 4404TIP3    H113176   2.525   6.117   5.210  0.4971  0.8944  0.7254
 4404TIP3    H213177   2.540   6.266   5.192  0.7656  0.7231 -0.5600
 4405TIP3   OH213178   4.921   5.262   0.380 -0.3600 -0.2255  0.0233
 4405TIP3    H113179   4.952   5.209   0.454 -2.2727  0.2876  1.2531
 4405TIP3    H213180   5.000   5.304   0.347  0.9259 -2.3078  0.2119
 4406TIP3   OH213181   1.380   3.509   4.944  0.1015  0.4783  0.0178
 4406TIP3    H113182   1.339   3.518   4.858 -0.1825 -0.9144 -0.0119
 4406TIP3    H213183   1.449   3.444   4.931 -0.1951 -0.0257  0.9245
 4407TIP3   OH213184   2.163   6.260   4.059 -0.1010  0.8369 -0.1136
 4407TIP3    H113185   2.229   6.198   4.088 -4.0113 -2.6075  2.6611
 4407TIP3    H213186   2.158   6.246   3.964  0.8523 -1.3615  0.0895
 4408TIP3   OH213187   3.841   1.548   2.742  0.3125  0.5951 -0.2424
 4408TIP3    H113188   3.871   1.594   2.663  1.0397  0.5634  0.0071
 4408TIP3    H213189   3.755   1.586   2.761  1.6085  3.2095  0.9933
 4409TIP3   OH213190   5.881   0.291   5.278 -0.1397  0.1142 -0.1039
 4409TIP3    H113191   5.902   0.354   5.347  0.4444 -0.2490  0.0531
 4409TIP3    H213192   5.961   0.285   5.225 -0.7083  0.6881 -1.0513
 4410TIP3   OH213193   1.673   1.735   5.844 -0.1380  0.5005 -0.1578
 4410TIP3    H113194   1.767   1.746   5.859 -0.2694 -0.2971  1.3474
 4410TIP3    H213195   1.667   1.698   5.755  1.1055 -1.3878  0.4864
 4411TIP3   OH213196   3.353   1.568   0.198  0.1873  0.2444  0.0921
 4411TIP3    H113197   3.384   1.506   0.263  2.4170 -0.2900 -1.3668
 4411TIP3    H213198   3.276   1.526   0.159 -0.4334  0.0335  1.4700
 4412TIP3   OH213199   4.607   2.642   3.861  0.2443  0.2058 -0.3474
 4412TIP3    H113200   4.667   2.592   3.916 -0.4889 -0.5612 -0.2236
 4412TIP3    H213201   4.557   2.696   3.922  0.9565  1.0252 -0.4713
 4413TIP3   OH213202   4.210   3.575   0.329 -0.0122 -0.0392 -0.4869
 4413TIP3    H113203   4.160   3.575   0.247 -0.6066 -0.3488 -0.1321
 4413TIP3    H213204   4.146   3.551   0.396  0.0408  1.9330  0.3430
 4414TIP3   OH213205   4.764   5.627   3.151 -0.4170  0.1983  0.3144
 4414TIP3    H113206   4.751   5.642   3.245  1.0054  0.3204  0.5138
 4414TIP3    H213207   4.696   5.563   3.127  0.2575 -1.1529  1.8038
 4415TIP3   OH213208   4.220   0.071   3.873 -0.4429 -0.1067 -0.0795
 4415TIP3    H113209   4.184   0.103   3.791 -0.9412 -1.1930 -0.2998
 4415TIP3    H213210   4.291   0.013   3.847  0.5068  0.8473  0.3168
 4416TIP3   OH213211   3.495   0.412   1.305 -0.1875 -0.0757  0.3943
 4416TIP3    H113212   3.469   0.339   1.362  0.1007 -0.6698 -0.2192
 4416TIP3    H213213   3.540   0.370   1.232  2.3370  0.8474  1.2944
 4417TIP3   OH213214   1.092   4.614   0.510  0.1010  0.6337  0.1972
 4417TIP3    H113215   1.181   4.604   0.545 -0.0600  0.1457  0.4654
 4417TIP3    H213216   1.043   4.540   0.546 -0.9764  2.0408  1.8267
 4418TIP3   OH213217   6.831   2.943   2.444  0.0511 -0.3583  0.0627
 4418TIP3    H113218   6.905   2.998   2.418  0.2693  0.4271  2.1557
 4418TIP3    H213219   6.859   2.902   2.526 -1.1822 -1.4358 -0.0151
 4419TIP3   OH213220   2.650   3.996   4.857 -0.4762 -0.1966 -0.1460
 4419TIP3    H113221   2.723   3.934   4.850 -0.1893  0.1235 -0.0365
 4419TIP3    H213222   2.572   3.941   4.865 -0.0561 -0.5899  1.8830
 4420TIP3   OH213223   3.663   2.131   4.822 -0.8229 -0.1131 -0.1888
 4420TIP3    H113224   3.710   2.076   4.759  0.0185 -0.8423  1.0276
 4420TIP3    H213225   3.571   2.117   4.801 -0.5753 -0.7542 -0.9133
 4421TIP3   OH213226   0.262   4.638   4.525  0.3760  0.5835  0.2866
 4421TIP3    H113227   0.209   4.574   4.572  0.5772 -1.5518 -2.1511
 4421TIP3    H213228   0.346   4.595   4.511  0.2314  0.9361 -2.1611
 4422TIP3   OH213229   1.091   1.761   0.097 -0.1174  0.1647  0.3270
 4422TIP3    H113230   1.077   1.747   0.004  0.0932  2.2984 -0.0904
 4422TIP3    H213231   1.019   1.818   0.124  0.9168  1.2274  0.9720
 4423TIP3   OH213232   1.952   5.218   1.168 -0.2241 -0.2907 -0.1974
 4423TIP3    H113233   1.994   5.132   1.165  0.6960  0.0687  1.3810
 4423TIP3    H213234   1.897   5.215   1.246  1.4827  1.2455  1.1453
 4424TIP3   OH213235   7.084   3.781   4.927  0.0059 -0.3032 -0.4416
 4424TIP3    H113236   7.095   3.874   4.906 -0.5031  0.1972  1.3323
 4424TIP3    H213237   7.159   3.760   4.982  0.7034 -1.2679 -1.7115
 4425TIP3   OH213238   1.676   1.365   1.089 -0.2587  0.0923 -0.6031
 4425TIP3    H113239   1.765   1.384   1.118 -1.0922  0.4797  1.9232
 4425TIP3    H213240   1.685   1.286   1.035  1.4797 -0.5813  0.5758
 4426TIP3   OH213241   6.967   5.483   1.914  0.0617  0.6103 -0.1272
 4426TIP3    H113242   6.943   5.573   1.893 -1.0249  0.5878  0.8969
 4426TIP3    H213243   6.913   5.461   1.989 -1.2775 -1.6314 -1.6356
 4427TIP3   OH213244   0.204   1.079   1.135  0.5449  0.0469  0.4722
 4427TIP3    H113245   0.111   1.089   1.154  0.1789 -0.9102 -0.6823
 4427TIP3    H213246   0.211   1.097   1.041  1.7389  1.3450  0.7741
 4428TIP3   OH213247   6.921   2.924   4.600 -0.3888 -0.0314  0.0202
 4428TIP3    H113248   6.845   2.924   4.542  0.3190  1.0882 -0.9695
 4428TIP3    H213249   6.908   3.000   4.657 -0.6915 -0.6624  0.7998
 4429TIP3   OH213250   6.104   3.960   4.226  0.0303 -0.1111 -0.4500
 4429TIP3    H113251   6.112   4.018   4.301  1.1352 -0.6439 -0.1362
 4429TIP3    H213252   6.194   3.948   4.195 -0.1757 -1.5581 -0.5630
 4430TIP3   OH213253   4.664   3.655   2.609  0.4999  0.1388 -0.3723
 4430TIP3    H113254   4.690   3.568   2.578 -2.1928 -0.2341 -1.8377
 4430TIP3    H213255   4.710   3.665   2.693 -0.2344 -3.3464  0.6101
 4431TIP3   OH213256   1.489   5.794   4.304  0.2361 -0.0965  0.1535
 4431TIP3    H113257   1.483   5.762   4.395 -0.1343  0.6858  0.4079
 4431TIP3    H213258   1.574   5.838   4.300  0.2041 -0.0348  0.1531
 4432TIP3   OH213259   1.257   3.506   1.825  0.1722  0.0213  0.3729
 4432TIP3    H113260   1.325   3.548   1.773 -0.8608  1.0373 -0.1981
 4432TIP3    H213261   1.186   3.491   1.764 -0.7334  0.4415  1.2902
 4433TIP3   OH213262   7.009   5.990   1.380  0.7912 -0.1227  0.4815
 4433TIP3    H113263   7.001   6.061   1.444 -1.0862 -0.2652  0.4464
 4433TIP3    H213264   7.030   5.912   1.432  2.2160  0.2988  0.5837
 4434TIP3   OH213265   4.333   4.332   1.236 -0.7593  0.1544 -0.1104
 4434TIP3    H113266   4.328   4.414   1.186 -1.7387  1.0420  1.3733
 4434TIP3    H213267   4.244   4.317   1.266  0.0135  0.4683  2.5742
 4435TIP3   OH213268   2.322   6.470   2.669  0.2364  0.1266 -0.1318
 4435TIP3    H113269   2.231   6.494   2.687  0.5600  0.3552  1.3872
 4435TIP3    H213270   2.329   6.380   2.702  0.4629 -0.0451 -0.6370
 4436TIP3   OH213271   6.751   2.539   3.718  0.0822  0.5460 -0.2893
 4436TIP3    H113272   6.781   2.490   3.795  3.1301  0.8399 -1.1617
 4436TIP3    H213273   6.738   2.473   3.651  1.4418  0.6136 -0.6504
 4437TIP3   OH213274   0.343   6.469   5.270 -0.1840 -0.6448  0.3213
 4437TIP3    H113275   0.357   6.404   5.201  0.8477  0.9923 -1.1092
 4437TIP3    H213276   0.257   6.505   5.251  1.1113  1.6522 -1.8932
 4438TIP3   OH213277   5.773   3.110   2.116 -0.0022  0.0792  0.0088
 4438TIP3    H113278   5.759   3.191   2.166  0.5192  0.0895  0.1417
 4438TIP3    H213279   5.850   3.128   2.062 -0.3798 -0.0434 -0.5709
 4439TIP3   OH213280   5.111   0.098   2.276  0.1844 -0.6930 -0.8052
 4439TIP3    H113281   5.105   0.060   2.364 -1.0690 -0.9044 -0.9709
 4439TIP3    H213282   5.035   0.156   2.269  1.2958  0.7920 -1.0749
 4440TIP3   OH213283   3.956   4.674   5.176  0.2438  0.3398  0.1468
 4440TIP3    H113284   4.002   4.616   5.115  0.1233 -1.5858  1.7775
 4440TIP3    H213285   3.874   4.628   5.194 -0.9387  2.1742 -0.2503
 4441TIP3   OH213286   5.126   5.310   5.371 -0.1088 -0.3366 -0.3519
 4441TIP3    H113287   5.192   5.253   5.330  0.1129  1.4571 -2.7046
 4441TIP3    H213288   5.165   5.337   5.454  0.7955 -1.6810 -0.3095
 4442TIP3   OH213289   7.106   0.518   1.482  0.0072 -0.5435  0.2082
 4442TIP3    H113290   7.104   0.537   1.389  1.0288  0.0542  0.2907
 4442TIP3    H213291   7.030   0.564   1.518  0.5578  0.6380 -0.0937
 4443TIP3   OH213292   2.243   5.657   5.801  0.3081 -0.0837 -0.0209
 4443TIP3    H113293   2.225   5.683   5.891 -1.4400  1.5920 -0.7741
 4443TIP3    H213294   2.214   5.566   5.795 -1.7930  0.4967  0.5623
 4444TIP3   OH213295   7.113   0.652   2.067 -0.4206 -0.2781 -0.4862
 4444TIP3    H113296   7.180   0.584   2.056  1.5475  1.3722  0.5024
 4444TIP3    H213297   7.107   0.694   1.981  0.2436 -0.0879 -0.4474
 4445TIP3   OH213298   1.842   3.618   3.604 -0.5968 -0.5618 -0.1651
 4445TIP3    H113299   1.832   3.523   3.597 -0.5436 -0.5448 -0.4932
 4445TIP3    H213300   1.801   3.652   3.525 -0.7364 -0.3025  0.0198
 4446TIP3   OH213301   0.277   5.329   0.592 -0.2706 -0.5415  0.3044
 4446TIP3    H113302   0.241   5.376   0.517 -1.1055  1.0123  1.6037
 4446TIP3    H213303   0.364   5.367   0.605 -0.4734 -0.1709  0.6256
 4447TIP3   OH213304   6.936   3.238   4.415  0.4075  0.5636  0.5085
 4447TIP3    H113305   7.028   3.222   4.391  0.1145 -1.6696  0.6475
 4447TIP3    H213306   6.924   3.191   4.497 -0.2887  2.8162  1.7735
 4448TIP3   OH213307   4.055   3.136   0.207 -0.2951 -0.3721 -0.2627
 4448TIP3    H113308   4.011   3.093   0.133 -1.2844  0.5615 -0.2476
 4448TIP3    H213309   4.081   3.065   0.264  3.0897 -1.4408 -2.7853
 4449TIP3   OH213310   1.020   3.056   3.892  0.5716  0.0669  0.0670
 4449TIP3    H113311   1.057   3.117   3.956  0.9544 -1.5221  1.4150
 4449TIP3    H213312   0.928   3.082   3.885  0.3745 -0.0550  1.7071
 4450TIP3   OH213313   0.352   4.372   0.923 -0.4032 -0.2461 -0.1328
 4450TIP3    H113314   0.383   4.444   0.977 -0.6328 -0.8379  0.8097
 4450TIP3    H213315   0.267   4.401   0.890  0.2937  0.6286 -1.2282
 4451TIP3   OH213316   0.832   3.082   1.157 -0.1843  0.1949  0.3137
 4451TIP3    H113317   0.835   3.030   1.237 -0.4418 -1.5008 -0.7373
 4451TIP3    H213318   0.753   3.052   1.112  0.7315  0.0336 -1.2545
 4452TIP3   OH213319   5.835   4.300   0.179  0.5029 -0.2469  0.2118
 4452TIP3    H113320   5.835   4.312   0.084  2.3209  2.2393  0.4209
 4452TIP3    H213321   5.789   4.377   0.213 -0.4829 -1.3012  1.3885
 4453TIP3   OH213322   2.682   0.383   3.168  0.3820  0.0854  0.2551
 4453TIP3    H113323   2.622   0.422   3.105  1.9236 -0.8090 -1.9022
 4453TIP3    H213324   2.683   0.444   3.242 -3.2336  0.0432  0.5278
 4454TIP3   OH213325   2.208   0.611   5.774 -0.3234  0.2253  0.2533
 4454TIP3    H113326   2.133   0.643   5.825  0.0111 -0.3475  1.1368
 4454TIP3    H213327   2.192   0.643   5.685 -0.5046  1.9926  0.8665
 4455TIP3   OH213328   7.037   2.731   4.754  0.5230 -0.1450 -0.0040
 4455TIP3    H113329   6.997   2.803   4.705  1.9514  0.2765 -0.5880
 4455TIP3    H213330   7.001   2.739   4.842  0.5495  1.2029 -0.0965
 4456TIP3   OH213331   2.979   5.275   4.966  0.0331  0.5682 -0.0856
 4456TIP3    H113332   2.895   5.239   4.992 -0.3278  1.3670 -0.1173
 4456TIP3    H213333   3.038   5.199   4.961 -0.9843 -0.1748 -1.3461
 4457TIP3   OH213334   0.308   0.326   2.222  0.2812  0.2533 -0.5780
 4457TIP3    H113335   0.340   0.357   2.307  0.9217 -0.5140 -0.5157
 4457TIP3    H213336   0.223   0.288   2.241  1.2915 -1.8141  0.1666
 4458TIP3   OH213337   2.356   5.747   4.296 -0.1356 -0.3582  0.0958
 4458TIP3    H113338   2.409   5.797   4.233 -0.2189  0.9499  1.0211
 4458TIP3    H213339   2.399   5.661   4.300  2.0285  0.6854  0.8999
 4459TIP3   OH213340   0.879   1.379   4.177  0.5338 -0.9265 -0.5710
 4459TIP3    H113341   0.894   1.466   4.216  0.6330 -0.7274 -1.0490
 4459TIP3    H213342   0.837   1.329   4.247 -0.4750 -0.1808 -0.6274
 4460TIP3   OH213343   1.344   5.366  -0.018 -0.1082 -0.7975 -0.0606
 4460TIP3    H113344   1.295   5.391   0.060 -0.8551 -0.2828 -0.6777
 4460TIP3    H213345   1.398   5.292   0.010 -1.8156 -1.9120  0.4658
 4461TIP3   OH213346   0.890   3.691   5.581 -0.6972  0.4904 -0.1210
 4461TIP3    H113347   0.844   3.624   5.633 -1.6814  0.2204 -1.2906
 4461TIP3    H213348   0.976   3.698   5.622 -1.9015  1.4034  2.5356
 4462TIP3   OH213349   3.852   6.542   1.401  0.2331  0.3897 -0.1201
 4462TIP3    H113350   3.928   6.589   1.367  0.1591  0.2819 -0.4454
 4462TIP3    H213351   3.857   6.552   1.496  0.3305  0.8739 -0.1764
 4463TIP3   OH213352   4.896   3.051   3.997 -0.2745  0.0497  0.6025
 4463TIP3    H113353   4.977   3.004   3.975 -1.8933 -2.1095 -1.2665
 4463TIP3    H213354   4.921   3.110   4.068  2.7050 -1.2276  0.7711
 4464TIP3   OH213355   1.139   6.690   1.446 -0.6018  0.1891 -0.3174
 4464TIP3    H113356   1.098   6.710   1.362 -0.3324 -1.0070 -0.7542
 4464TIP3    H213357   1.217   6.745   1.449 -0.4609  0.0229 -0.9843
 4465TIP3   OH213358   1.536   0.591   2.371 -0.6088 -0.1470 -0.1339
 4465TIP3    H113359   1.450   0.620   2.341 -1.0342 -0.2481  0.9349
 4465TIP3    H213360   1.542   0.623   2.461 -0.1299 -1.3913  0.2957
 4466TIP3   OH213361   6.951   4.069   2.319  0.2951 -0.8498 -0.7038
 4466TIP3    H113362   6.893   4.062   2.395  0.0220  0.9302 -0.7098
 4466TIP3    H213363   6.901   4.028   2.248  0.3683 -2.1251 -0.0470
 4467TIP3   OH213364   2.749   1.272   4.495  0.3364 -0.6454 -0.1470
 4467TIP3    H113365   2.654   1.263   4.497  0.2425  0.2803  1.4604
 4467TIP3    H213366   2.781   1.194   4.539  0.2170 -0.1951  0.7711
 4468TIP3   OH213367   2.079   2.537   5.345  0.3873  0.5462  0.1630
 4468TIP3    H113368   2.055   2.546   5.438  1.4044 -0.5062  0.5539
 4468TIP3    H213369   2.122   2.451   5.340 -0.5228  0.1549 -1.4808
 4469TIP3   OH213370   0.343   3.364   2.622  0.3967 -0.2291  0.1094
 4469TIP3    H113371   0.372   3.273   2.627  0.0361 -0.4908 -1.6793
 4469TIP3    H213372   0.329   3.379   2.528 -0.6539  1.3247  0.4787
 4470TIP3   OH213373   5.422   4.368   3.747 -0.3067  0.3173  0.4333
 4470TIP3    H113374   5.495   4.357   3.686 -0.0375  1.7526  0.4572
 4470TIP3    H213375   5.372   4.441   3.711 -1.0430  0.1482  1.0862
 4471TIP3   OH213376   5.387   1.283   3.725 -0.1373  0.0333  0.0484
 4471TIP3    H113377   5.448   1.222   3.684  1.3521 -0.1546  2.3724
 4471TIP3    H213378   5.379   1.253   3.815  0.2279  2.9162  1.1404
 4472TIP3   OH213379   0.039   4.359   3.016  0.0444 -0.1325 -0.7764
 4472TIP3    H113380   0.101   4.428   3.040 -1.2432  0.6430  0.4666
 4472TIP3    H213381   0.011   4.321   3.099 -0.9196 -0.6568 -1.3232
 4473TIP3   OH213382   4.211   6.069   1.051 -0.1870 -0.2304 -0.2200
 4473TIP3    H113383   4.160   6.148   1.068 -1.5761 -1.5060  2.0139
 4473TIP3    H213384   4.295   6.086   1.093  0.6212  1.0879 -2.1945
 4474TIP3   OH213385   6.916   4.753   5.167  0.5274  0.9243  0.8549
 4474TIP3    H113386   6.974   4.800   5.108  2.3059 -0.3965  1.4385
 4474TIP3    H213387   6.828   4.785   5.146  1.2250  1.4845 -1.5303
 4475TIP3   OH213388   6.414   0.375   1.719 -0.5538  0.0004 -0.1499
 4475TIP3    H113389   6.427   0.379   1.624 -1.9494 -0.3306 -0.3785
 4475TIP3    H213390   6.342   0.313   1.730 -0.9881  0.7011  1.0691
 4476TIP3   OH213391   5.558   6.751   4.182 -0.0582  0.1912  0.3342
 4476TIP3    H113392   5.486   6.688   4.172 -0.5041  0.9270 -1.4988
 4476TIP3    H213393   5.637   6.701   4.160  0.0361 -0.6197  2.3517
 4477TIP3   OH213394   4.665   2.609   5.335  0.1159 -0.3130 -0.0645
 4477TIP3    H113395   4.594   2.640   5.390  1.0547 -0.1116  1.0800
 4477TIP3    H213396   4.720   2.557   5.395  0.2776 -1.4886 -1.1978
 4478TIP3   OH213397   3.639   4.064   4.953 -0.0514 -0.0995 -0.5273
 4478TIP3    H113398   3.558   4.096   4.992  0.2546 -0.1477  0.1736
 4478TIP3    H213399   3.653   3.978   4.994 -0.4599 -0.8111 -1.8141
 4479TIP3   OH213400   0.499   2.953   5.827 -0.4287  0.2024  0.3349
 4479TIP3    H113401   0.497   2.969   5.732  0.4244 -2.3179 -0.1752
 4479TIP3    H213402   0.589   2.930   5.846 -0.4615  1.2250  1.9161
 4480TIP3   OH213403   6.471   3.947   5.658 -0.6400  0.1217  0.0655
 4480TIP3    H113404   6.541   3.951   5.593 -0.2172  1.2576  0.5636
 4480TIP3    H213405   6.480   4.028   5.709  0.0294 -1.3868  2.5628
 4481TIP3   OH213406   4.894   6.014   1.722  0.0384  0.1737  0.2200
 4481TIP3    H113407   4.824   5.998   1.785 -1.8402  0.0444 -1.7960
 4481TIP3    H213408   4.954   6.073   1.768  1.3147 -3.3929  3.8387
 4482TIP3   OH213409   0.925   1.370   4.473 -0.7091  0.5219  0.3280
 4482TIP3    H113410   0.878   1.345   4.553  1.6736  0.1233  1.7023
 4482TIP3    H213411   0.990   1.301   4.461 -0.4665  1.0053 -1.5430
 4483TIP3   OH213412   5.228   0.830   0.138  0.1293 -0.2904  0.7395
 4483TIP3    H113413   5.152   0.887   0.149  0.1974 -0.5119  2.8483
 4483TIP3    H213414   5.301   0.890   0.124 -0.0847  0.0328  0.9898
 4484TIP3   OH213415   4.383   1.139   0.678  1.1013 -0.3468  0.2984
 4484TIP3    H113416   4.449   1.116   0.743  0.8122 -0.5429  0.5251
 4484TIP3    H213417   4.321   1.066   0.679 -1.0093  1.3079  2.5495
 4485TIP3   OH213418   0.526   4.912   0.661 -0.2058 -0.2442 -0.1938
 4485TIP3    H113419   0.439   4.940   0.633  0.6716  1.5120 -1.3304
 4485TIP3    H213420   0.513   4.824   0.696 -2.3756 -0.1293 -0.5914
 4486TIP3   OH213421   2.517   2.179   5.564  0.0849  0.0922  0.2542
 4486TIP3    H113422   2.480   2.092   5.550  0.3338  0.3314 -2.2105
 4486TIP3    H213423   2.579   2.167   5.636  0.1431 -1.7603 -0.0687
 4487TIP3   OH213424   6.629   3.066   2.836 -0.0807  0.2323 -0.3010
 4487TIP3    H113425   6.705   3.031   2.882  0.0478 -1.1266 -1.4744
 4487TIP3    H213426   6.657   3.152   2.806  0.6733  0.1302  0.0830
 4488TIP3   OH213427   3.875   3.303   0.371  0.6480 -0.3750 -0.7874
 4488TIP3    H113428   3.929   3.344   0.438  2.3964  0.1998 -2.4492
 4488TIP3    H213429   3.935   3.248   0.321 -0.2742  0.1637 -2.6067
 4489TIP3   OH213430   3.079   6.424   3.944  0.1792  0.0870  0.0846
 4489TIP3    H113431   3.132   6.494   3.907 -1.0687  0.0728 -1.9390
 4489TIP3    H213432   3.007   6.469   3.988 -0.6376  0.1512 -1.2385
 4490TIP3   OH213433   4.827   0.199   1.571  0.5458  0.2064 -0.2399
 4490TIP3    H113434   4.914   0.181   1.538  1.0254  0.0831  1.0404
 4490TIP3    H213435   4.807   0.288   1.542  1.0904  0.2233 -0.5517
 4491TIP3   OH213436   6.350   2.317   1.327 -0.2775  0.2700 -0.3176
 4491TIP3    H113437   6.427   2.272   1.294  0.0531 -0.6246  1.5633
 4491TIP3    H213438   6.277   2.260   1.303 -0.0420 -0.3714  0.4448
 4492TIP3   OH213439   3.189   4.656   2.806  0.0948 -0.1243  0.2700
 4492TIP3    H113440   3.102   4.649   2.844  0.1938  1.7895  0.9516
 4492TIP3    H213441   3.186   4.733   2.749  1.9770  1.7102  2.4164
 4493TIP3   OH213442   1.887   5.350   2.551  0.8962  0.3069 -0.1972
 4493TIP3    H113443   1.958   5.285   2.556  0.7731  0.2328  0.6477
 4493TIP3    H213444   1.862   5.351   2.458  0.4168 -1.3723 -0.1137
 4494TIP3   OH213445   6.805   5.390   4.635 -0.1379  0.1268 -0.0211
 4494TIP3    H113446   6.744   5.430   4.698 -0.2342 -0.4592  0.2585
 4494TIP3    H213447   6.890   5.395   4.678 -0.0206  0.7161 -0.3070
 4495TIP3   OH213448   6.359   0.999   3.149 -0.1502  0.0749  1.2871
 4495TIP3    H113449   6.394   1.080   3.114 -2.7414  0.2163 -1.4258
 4495TIP3    H213450   6.414   0.930   3.111 -0.3269  0.4321  0.3591
 4496TIP3   OH213451   1.467   1.125   1.594  0.2850  0.4140 -0.1056
 4496TIP3    H113452   1.376   1.099   1.608 -0.4268  0.9364 -3.2144
 4496TIP3    H213453   1.509   1.047   1.558  0.7989  0.5204  0.2510
 4497TIP3   OH213454   1.652   0.079   3.052  0.2225  0.1355  0.0932
 4497TIP3    H113455   1.653   0.090   2.957  0.1104  0.1628  0.0949
 4497TIP3    H213456   1.560   0.087   3.076  0.2307 -0.0303  0.1846
 4498TIP3   OH213457   6.190   0.432   0.296 -0.4706  0.4121 -0.4778
 4498TIP3    H113458   6.205   0.441   0.390 -1.6698 -0.5942 -0.1601
 4498TIP3    H213459   6.256   0.488   0.256 -0.3634  1.4096  0.9802
 4499TIP3   OH213460   6.761   6.566   3.125 -0.1440 -0.3220 -0.4042
 4499TIP3    H113461   6.718   6.642   3.165  0.9823  0.8623 -1.3669
 4499TIP3    H213462   6.694   6.527   3.069 -0.2949  0.9399 -1.1455
 4500TIP3   OH213463   2.395   1.564   3.912  0.3205  0.0107  0.6340
 4500TIP3    H113464   2.313   1.608   3.933 -0.1371  0.4400 -1.7960
 4500TIP3    H213465   2.406   1.500   3.982 -0.7441  1.6546  2.4089
 4501TIP3   OH213466   4.038   5.028   5.180 -0.2056  0.7271  0.6678
 4501TIP3    H113467   4.129   5.022   5.150  1.0508  0.7646  4.0203
 4501TIP3    H213468   3.987   4.982   5.113  2.1527  1.1731 -1.6092
 4502TIP3   OH213469   2.123   0.600   1.101  0.5049 -0.4477  0.5336
 4502TIP3    H113470   2.028   0.604   1.097  0.5659  1.1731  0.0655
 4502TIP3    H213471   2.149   0.564   1.016  0.3292 -0.5140  0.5073
 4503TIP3   OH213472   1.698   2.114   3.035 -0.2939 -0.2338 -0.0993
 4503TIP3    H113473   1.752   2.036   3.051  3.6917  1.7216 -2.4579
 4503TIP3    H213474   1.751   2.187   3.069 -1.2433  1.8838 -2.8266
 4504TIP3   OH213475   4.266   5.711   1.877 -0.7462  0.1824 -0.3652
 4504TIP3    H113476   4.283   5.729   1.785  0.4722  0.9571 -0.0119
 4504TIP3    H213477   4.209   5.783   1.906 -0.4931  0.3707 -0.3308
 4505TIP3   OH213478   3.870   1.958   0.826 -0.3266 -0.4957 -0.2413
 4505TIP3    H113479   3.914   1.890   0.775  1.2632 -0.2529  0.7179
 4505TIP3    H213480   3.823   1.911   0.894  1.0264 -0.6809  0.6135
 4506TIP3   OH213481   3.788   2.866   0.006  0.1560 -0.3923 -0.0900
 4506TIP3    H113482   3.792   2.885   0.099  0.5715  0.6190 -0.3062
 4506TIP3    H213483   3.723   2.927  -0.029  0.6282 -0.1795 -0.6038
 4507TIP3   OH213484   0.894   5.764   3.600  0.5336  0.2541  0.3159
 4507TIP3    H113485   0.911   5.827   3.670  0.0407  1.2574 -0.4438
 4507TIP3    H213486   0.878   5.681   3.646 -1.6145  1.2495  1.5314
 4508TIP3   OH213487   3.986   4.756   1.453 -0.2667  0.1057 -0.1344
 4508TIP3    H113488   3.923   4.704   1.402 -1.8727 -0.3031  2.1112
 4508TIP3    H213489   4.070   4.713   1.438 -1.1728 -1.7455 -0.1948
 4509TIP3   OH213490   6.107   3.232   1.849 -0.1821  0.7993  0.3252
 4509TIP3    H113491   6.198   3.255   1.869 -0.5842  1.6751  1.2832
 4509TIP3    H213492   6.063   3.317   1.838 -1.1017  0.4318  0.9942
 4510TIP3   OH213493   3.571   2.596   4.561  0.0614  0.4330 -0.2047
 4510TIP3    H113494   3.613   2.613   4.476 -1.6970  0.1866 -1.1811
 4510TIP3    H213495   3.537   2.507   4.553  1.2294 -0.1989  1.3900
 4511TIP3   OH213496   4.197   4.240   5.303 -0.0390 -0.0794 -0.8087
 4511TIP3    H113497   4.215   4.153   5.267  0.2739 -0.2151 -0.3435
 4511TIP3    H213498   4.230   4.235   5.393 -1.4726  0.0222 -0.2624
 4512TIP3   OH213499   4.979   1.215   2.067  0.1260  0.4999 -0.1518
 4512TIP3    H113500   4.887   1.188   2.070  0.3048 -0.1601 -0.4610
 4512TIP3    H213501   5.018   1.179   2.147 -0.0603  1.4662  0.3865
 4513TIP3   OH213502   1.366   5.770   3.861 -0.4316  0.4097 -0.0486
 4513TIP3    H113503   1.404   5.689   3.828 -0.6150  0.0621  0.5770
 4513TIP3    H213504   1.327   5.746   3.946  0.0504  1.2844  0.4320
 4514TIP3   OH213505   5.697   3.304  -0.009 -0.4290  0.2937  0.1951
 4514TIP3    H113506   5.697   3.288   0.086 -3.2141  1.0681  0.4172
 4514TIP3    H213507   5.679   3.397  -0.018 -0.7651  0.1257 -1.1004
 4515TIP3   OH213508   0.530   3.772   1.066 -0.3304 -0.3059  0.1074
 4515TIP3    H113509   0.466   3.722   1.015 -0.2295 -1.5150  1.1174
 4515TIP3    H213510   0.484   3.853   1.088 -1.2407 -0.7999  0.1219
 4516TIP3   OH213511   2.814   1.975   3.475  0.1845  0.2537  0.3248
 4516TIP3    H113512   2.756   2.037   3.430 -0.4925  0.0465  0.8769
 4516TIP3    H213513   2.754   1.909   3.510  0.5698  0.9185  2.3435
 4517TIP3   OH213514   4.694   3.288   5.694 -0.4326 -0.2193  0.2316
 4517TIP3    H113515   4.622   3.241   5.653  0.0715 -1.2997  0.5541
 4517TIP3    H213516   4.730   3.227   5.758  1.5013 -0.1404 -0.7025
 4518TIP3   OH213517   6.320   4.575   1.823  0.0780  0.0658  0.2863
 4518TIP3    H113518   6.333   4.484   1.796  1.3253  0.1641  0.5165
 4518TIP3    H213519   6.226   4.588   1.815 -0.2746 -1.5437  1.1924
 4519TIP3   OH213520   2.564   6.627   3.985 -0.0832  0.2917 -0.1039
 4519TIP3    H113521   2.508   6.550   3.972  0.1417  0.0778  0.1670
 4519TIP3    H213522   2.549   6.653   4.075 -1.8470  1.9448 -0.8213
 4520TIP3   OH213523   5.067   6.594   4.043 -0.3043 -0.2302 -0.6180
 4520TIP3    H113524   5.025   6.574   4.127  0.2289 -0.2957 -0.3628
 4520TIP3    H213525   5.097   6.508   4.010 -1.1476 -0.3051 -1.2271
 4521TIP3   OH213526   6.571   1.957   3.219 -0.0245  0.0545 -0.1990
 4521TIP3    H113527   6.528   1.985   3.300  0.7340 -1.5628  0.8025
 4521TIP3    H213528   6.578   1.862   3.227 -0.0188 -0.1548 -2.2246
 4522TIP3   OH213529   5.660   2.955   0.782 -0.2859 -0.2586  0.2332
 4522TIP3    H113530   5.716   3.032   0.782 -0.9903  0.2857 -1.0723
 4522TIP3    H213531   5.719   2.882   0.764  0.1991  0.1199  0.2734
 4523TIP3   OH213532   4.637   1.152   5.275  0.1424  0.1536 -0.8588
 4523TIP3    H113533   4.550   1.115   5.257  0.1982 -0.3076 -0.2028
 4523TIP3    H213534   4.698   1.083   5.249  0.2379 -0.3569  0.6641
 4524TIP3   OH213535   6.839   3.867   4.350 -0.2630 -0.1121  0.3450
 4524TIP3    H113536   6.886   3.830   4.275 -0.8644  0.7305 -0.4801
 4524TIP3    H213537   6.805   3.792   4.397 -0.0492 -0.6604 -0.3593
 4525TIP3   OH213538   5.917   5.809   5.715 -0.0277 -0.2165 -0.1349
 4525TIP3    H113539   5.835   5.818   5.765 -0.0446 -2.2535  0.2537
 4525TIP3    H213540   5.915   5.720   5.680  2.9187 -1.0866  1.5429
 4526TIP3   OH213541   5.964   2.290   0.576  0.0840 -0.3731  0.3455
 4526TIP3    H113542   5.969   2.217   0.515  0.7549  1.3470 -1.7865
 4526TIP3    H213543   6.052   2.328   0.575  0.7813 -1.4770  4.0927
 4527TIP3   OH213544   7.064   6.226   2.804  0.2206  0.7267  0.8144
 4527TIP3    H113545   7.012   6.297   2.843 -0.9644  0.8071 -0.8461
 4527TIP3    H213546   7.012   6.197   2.729  1.6113 -0.6132  0.3457
 4528TIP3   OH213547   6.732   3.157   3.916  0.3155  0.0255 -0.2838
 4528TIP3    H113548   6.665   3.189   3.855 -0.3628 -0.4862  0.1700
 4528TIP3    H213549   6.683   3.136   3.996  1.0609 -0.1440  0.1403
 4529TIP3   OH213550   6.673   6.696   1.645 -0.4393  0.1100 -0.3765
 4529TIP3    H113551   6.754   6.646   1.652 -1.0864 -0.9208 -0.0309
 4529TIP3    H213552   6.605   6.630   1.629 -1.6936  0.5749  2.4252
 4530TIP3   OH213553   1.469   5.297   1.549 -0.4209  0.4936  0.9293
 4530TIP3    H113554   1.396   5.334   1.498  0.3165 -1.0474 -1.4453
 4530TIP3    H213555   1.540   5.360   1.536 -0.2954  0.2079  0.1611
 4531TIP3   OH213556   6.861   5.619   4.813 -0.7049  1.0036 -0.0154
 4531TIP3    H113557   6.937   5.604   4.757  0.9715  0.6270  2.2240
 4531TIP3    H213558   6.805   5.678   4.763  0.9872  1.1719 -1.8080
 4532TIP3   OH213559   4.622   3.155   4.608 -0.1550 -0.2487 -0.5840
 4532TIP3    H113560   4.606   3.066   4.641  0.9543  0.7556  3.1610
 4532TIP3    H213561   4.716   3.160   4.595 -0.3446  0.0618 -1.9946
 4533TIP3   OH213562   0.050   0.478   4.218 -0.3739  0.5424 -0.4170
 4533TIP3    H113563   0.088   0.412   4.275  1.0427  1.5171 -0.1624
 4533TIP3    H213564   0.058   0.442   4.130  1.3031  0.7557 -0.3809
 4534TIP3   OH213565   1.817   3.226   0.613  0.5178 -0.4843 -0.1961
 4534TIP3    H113566   1.807   3.161   0.544 -0.8841  0.2669 -0.7351
 4534TIP3    H213567   1.761   3.193   0.684 -1.6373  0.9229 -1.1187
 4535TIP3   OH213568   2.329   1.170   4.958 -0.2915  0.2321 -0.2149
 4535TIP3    H113569   2.342   1.211   4.873  0.7063  0.2637 -0.0581
 4535TIP3    H213570   2.415   1.137   4.982 -0.2032  1.6122  1.5048
 4536TIP3   OH213571   0.351   0.537   5.845 -0.1690 -0.4336  0.0747
 4536TIP3    H113572   0.271   0.588   5.834  0.5554  0.5419 -0.9025
 4536TIP3    H213573   0.409   0.568   5.776  1.7200  0.1487  1.8336
 4537TIP3   OH213574   2.265   6.532   4.166  0.4988  0.7076 -0.4214
 4537TIP3    H113575   2.266   6.626   4.181  0.2075  0.7499 -0.6510
 4537TIP3    H213576   2.267   6.522   4.071 -1.9853  0.5647 -0.5338
 4538TIP3   OH213577   6.314   6.704   5.426  0.1021 -0.2217 -0.3933
 4538TIP3    H113578   6.356   6.785   5.395  0.8174 -0.1728  0.6388
 4538TIP3    H213579   6.380   6.636   5.410  0.6446 -0.1457  1.2393
 4539TIP3   OH213580   5.357   1.178   4.425 -0.2209  0.1455 -0.3202
 4539TIP3    H113581   5.337   1.194   4.517  2.0103 -2.0860  0.6530
 4539TIP3    H213582   5.307   1.100   4.402  1.3949 -1.0272 -0.0594
 4540TIP3   OH213583   3.031   1.738   1.566 -0.0976  0.4069  1.1255
 4540TIP3    H113584   2.997   1.737   1.656 -1.1699  0.9722  0.7310
 4540TIP3    H213585   3.081   1.656   1.559  1.6395  1.2208  2.8352
 4541TIP3   OH213586   4.995   2.438   5.216  0.3541  0.0336  0.4588
 4541TIP3    H113587   4.964   2.371   5.277  0.5642 -1.3022 -0.8362
 4541TIP3    H213588   5.086   2.452   5.241  0.6894 -1.1339 -0.0646
 4542TIP3   OH213589   6.717   2.647   2.377 -0.4593  0.1010  0.1421
 4542TIP3    H113590   6.717   2.619   2.286  1.2403 -0.6008  0.3182
 4542TIP3    H213591   6.736   2.740   2.374 -1.9394  0.4095 -0.2651
 4543TIP3   OH213592   4.962   2.912   1.225 -0.2383 -0.0653  0.1245
 4543TIP3    H113593   4.873   2.883   1.204  0.0021 -0.9280  0.2532
 4543TIP3    H213594   4.975   2.989   1.171 -1.3926  0.6166  0.7774
 4544TIP3   OH213595   6.365   3.348   0.947 -0.5244 -0.5997 -0.0949
 4544TIP3    H113596   6.440   3.289   0.956 -1.1909 -1.2799  1.3970
 4544TIP3    H213597   6.295   3.292   0.914 -0.6448 -0.1926 -0.5320
 4545TIP3   OH213598   5.619   6.228   5.686 -0.3796 -0.0306  0.2848
 4545TIP3    H113599   5.678   6.288   5.731 -1.0590 -0.4669  1.8180
 4545TIP3    H213600   5.625   6.253   5.594 -1.0921  2.8019  0.9130
 4546TIP3   OH213601   2.802   6.735   1.383  0.5803  0.3562  0.1656
 4546TIP3    H113602   2.824   6.644   1.361 -0.2183  0.1763  0.1142
 4546TIP3    H213603   2.717   6.750   1.343 -0.0799  0.5942  1.6103
 4547TIP3   OH213604   4.164   0.999   1.059 -0.4514 -0.2537  0.1132
 4547TIP3    H113605   4.113   0.956   0.990  0.2738  0.9933 -1.2445
 4547TIP3    H213606   4.207   0.927   1.105 -1.3889 -1.1490 -0.3553
 4548TIP3   OH213607   5.978   5.175   2.054  0.9789  0.2666  0.4573
 4548TIP3    H113608   6.017   5.257   2.084  4.1056 -0.4917 -1.0983
 4548TIP3    H213609   5.948   5.195   1.965 -0.5298  0.2871  0.9310
 4549TIP3   OH213610   4.194   4.935   4.642  0.1363 -0.3685 -0.3152
 4549TIP3    H113611   4.190   4.961   4.733 -1.3489 -0.2431 -0.3981
 4549TIP3    H213612   4.176   4.841   4.643 -0.1229 -0.3211 -0.4990
 4550TIP3   OH213613   0.129   6.574   5.515 -0.1829 -0.0202 -0.8242
 4550TIP3    H113614   0.169   6.654   5.481  0.3522 -0.1645 -0.5467
 4550TIP3    H213615   0.162   6.567   5.605 -3.7715  1.9215  0.8863
 4551TIP3   OH213616   1.955   0.380   1.452  0.2523  0.5549  0.3275
 4551TIP3    H113617   1.883   0.332   1.493 -0.6298  0.6643 -1.0076
 4551TIP3    H213618   1.954   0.466   1.495 -3.6435  2.4011 -2.7150
 4552TIP3   OH213619   4.266   0.124   4.910 -0.0242 -0.3173 -0.6488
 4552TIP3    H113620   4.173   0.146   4.903  0.1202  0.3208 -0.6771
 4552TIP3    H213621   4.305   0.162   4.832  0.2460 -0.6799 -0.6906
 4553TIP3   OH213622   2.817   3.710   1.956  0.4881  0.3098  0.2816
 4553TIP3    H113623   2.846   3.720   1.866  0.7739  0.5376  0.3958
 4553TIP3    H213624   2.842   3.792   1.999 -0.1308  0.4264  0.4399
 4554TIP3   OH213625   5.424   3.406   3.205  0.3430 -0.4809 -0.2022
 4554TIP3    H113626   5.422   3.474   3.272 -0.7418  1.3397 -1.9804
 4554TIP3    H213627   5.499   3.429   3.150  1.8839 -2.5588  0.8498
 4555TIP3   OH213628   5.022   3.638   4.932  0.2744 -0.6924 -0.0073
 4555TIP3    H113629   4.999   3.724   4.969  1.1818 -1.0951  1.6154
 4555TIP3    H213630   5.117   3.636   4.935  0.2451 -1.9870  0.5360
 4556TIP3   OH213631   0.705   5.374   3.278  0.0399  0.3140 -0.0553
 4556TIP3    H113632   0.686   5.463   3.309 -1.0970  0.6968 -1.7232
 4556TIP3    H213633   0.759   5.387   3.200  1.1623 -0.5429  0.5500
 4557TIP3   OH213634   2.055   1.373   1.492  0.0761 -0.4310  0.5369
 4557TIP3    H113635   2.025   1.354   1.403  0.9538  1.3527 -0.1785
 4557TIP3    H213636   2.010   1.308   1.546 -2.4231 -0.0081 -0.8751
 4558TIP3   OH213637   0.601   4.162   4.526 -0.7161 -0.4436 -0.1925
 4558TIP3    H113638   0.657   4.125   4.458 -1.9493 -0.7101 -1.1045
 4558TIP3    H213639   0.577   4.088   4.581 -1.4838 -0.6475 -0.7801
 4559TIP3   OH213640   3.948   5.136   2.884 -0.1399  0.2667  0.5303
 4559TIP3    H113641   3.855   5.145   2.864 -0.2230  0.2903  0.9219
 4559TIP3    H213642   3.990   5.129   2.798 -0.5880 -0.5882  0.3664
 4560TIP3   OH213643   3.999   0.644   4.512 -0.2665 -0.1392  0.4249
 4560TIP3    H113644   3.941   0.600   4.450 -0.8024 -1.0403  1.5361
 4560TIP3    H213645   4.021   0.728   4.470  0.2880 -1.1846 -1.4573
 4561TIP3   OH213646   6.976   0.063   1.342 -0.2298 -0.1186  0.1390
 4561TIP3    H113647   6.958   0.144   1.294  0.5458  0.2344  0.4397
 4561TIP3    H213648   6.907   0.003   1.312 -1.3992  0.9242  0.6175
 4562TIP3   OH213649   1.600   0.224   0.117 -0.0416  0.1393  0.7358
 4562TIP3    H113650   1.670   0.179   0.164 -0.0272 -0.5098  0.1030
 4562TIP3    H213651   1.547   0.153   0.080 -0.9196  0.6249  1.0377
 4563TIP3   OH213652   0.076   3.328   2.729 -0.1329 -0.3479 -0.2569
 4563TIP3    H113653   0.162   3.351   2.764 -0.3994 -1.2269  1.0675
 4563TIP3    H213654   0.016   3.389   2.772 -0.3536 -0.8243  0.1255
 4564TIP3   OH213655   4.304   2.020   0.258  0.6968  0.1038  0.2104
 4564TIP3    H113656   4.370   2.088   0.244 -0.1748  0.9795  0.2181
 4564TIP3    H213657   4.230   2.047   0.204 -0.0048 -0.3536  0.9169
 4565TIP3   OH213658   3.495   6.637   4.466  0.5083  0.0034 -0.3734
 4565TIP3    H113659   3.435   6.709   4.449 -0.9513 -0.9302  0.5562
 4565TIP3    H213660   3.579   6.679   4.484 -0.1464  1.4256 -0.5095
 4566TIP3   OH213661   0.269   5.727   2.823  0.0097  0.4775  0.3154
 4566TIP3    H113662   0.251   5.729   2.917  0.3443 -1.5863  0.4743
 4566TIP3    H213663   0.360   5.698   2.817 -0.5276 -1.1454 -0.6252
 4567TIP3   OH213664   6.059   4.033   5.654  0.0233 -0.4996  0.1111
 4567TIP3    H113665   6.097   4.059   5.738 -0.6400 -0.2736  0.3529
 4567TIP3    H213666   5.966   4.054   5.663 -0.4951 -2.6048  0.1860
 4568TIP3   OH213667   4.642   4.235   1.703 -0.3054 -0.0918  0.2947
 4568TIP3    H113668   4.682   4.149   1.719  0.0068 -0.5816 -2.6258
 4568TIP3    H213669   4.629   4.238   1.609 -2.1804  2.3042  0.5466
 4569TIP3   OH213670   7.173   4.722   0.077 -0.5834  0.4164  0.0697
 4569TIP3    H113671   7.106   4.766   0.129 -1.5617 -0.9311 -0.0110
 4569TIP3    H213672   7.253   4.729   0.130 -1.3319 -0.0326  1.2797
 4570TIP3   OH213673   0.656   3.144   2.591 -0.0830  0.2665 -0.1593
 4570TIP3    H113674   0.749   3.145   2.568  0.0013 -0.0113  0.1656
 4570TIP3    H213675   0.611   3.161   2.509  0.2371 -0.0619 -0.4070
 4571TIP3   OH213676   0.648   4.522   1.449 -0.4884 -0.0598  0.0406
 4571TIP3    H113677   0.561   4.516   1.409  0.3991 -0.4836 -1.9465
 4571TIP3    H213678   0.708   4.527   1.375  1.2963 -1.1097  1.3392
 4572TIP3   OH213679   5.248   0.266   5.831  0.6716 -0.1126 -0.1546
 4572TIP3    H113680   5.310   0.339   5.837  1.7682 -1.0821  0.7411
 4572TIP3    H213681   5.297   0.190   5.863 -0.9718 -0.9150  0.5928
 4573TIP3   OH213682   2.939   3.685   4.405 -0.4518 -0.4749  0.3972
 4573TIP3    H113683   2.885   3.763   4.420 -1.4094 -1.0540 -0.0005
 4573TIP3    H213684   3.029   3.716   4.419 -0.7600  0.8627 -0.4165
 4574TIP3   OH213685   0.040   0.866   1.857  0.6257  0.0644 -0.0374
 4574TIP3    H113686   0.131   0.848   1.836 -0.0049 -1.6258 -1.6557
 4574TIP3    H213687  -0.007   0.855   1.774 -1.1376  0.1964  0.8786
 4575TIP3   OH213688   4.933   2.441   4.672 -0.3110  0.6031  0.2854
 4575TIP3    H113689   4.980   2.481   4.745 -0.8683  0.9044  0.4861
 4575TIP3    H213690   4.995   2.441   4.599  0.3917 -0.0801  0.8687
 4576TIP3   OH213691   4.253   4.178   4.087 -0.4624  0.1405  0.8277
 4576TIP3    H113692   4.309   4.100   4.085  0.9216  1.1104 -1.5874
 4576TIP3    H213693   4.285   4.228   4.163  1.0345  0.0096  0.3068
 4577TIP3   OH213694   1.281   6.347   2.101 -0.0268  0.1654  0.5566
 4577TIP3    H113695   1.259   6.322   2.012 -1.4289  0.2259  0.8538
 4577TIP3    H213696   1.329   6.430   2.092 -0.2110  0.1991 -0.1336
 4578TIP3   OH213697   3.965   6.100   3.525 -0.0400  0.1032  0.0777
 4578TIP3    H113698   3.986   6.029   3.586 -1.0522  0.6656  1.1167
 4578TIP3    H213699   3.965   6.058   3.438 -2.0961 -1.5204  0.8001
 4579TIP3   OH213700   7.055   4.327   1.944  0.1574  0.1948 -0.2901
 4579TIP3    H113701   7.103   4.369   1.873 -0.4196 -1.7491 -1.9257
 4579TIP3    H213702   6.963   4.343   1.924 -0.0323 -0.9290 -0.3834
 4580TIP3   OH213703   7.100   4.855   4.097  0.3522  0.4989  0.2868
 4580TIP3    H113704   7.162   4.890   4.161  0.3476  0.5347  0.2711
 4580TIP3    H213705   7.016   4.855   4.143  0.0158  2.0798 -0.2672
 4581TIP3   OH213706   4.466   4.547   4.973 -0.1101  0.3830 -0.1933
 4581TIP3    H113707   4.558   4.522   4.981 -0.3437 -1.2436 -1.9960
 4581TIP3    H213708   4.418   4.481   5.023 -0.4280 -0.2625 -1.3059
 4582TIP3   OH213709   3.328   1.387   3.583  0.2479  0.1802  0.1591
 4582TIP3    H113710   3.378   1.306   3.590 -1.0084 -0.5585  1.1214
 4582TIP3    H213711   3.283   1.395   3.667 -1.5024  0.6041 -0.7554
 4583TIP3   OH213712   7.126   1.313   2.275 -0.0524  0.2831 -0.0717
 4583TIP3    H113713   7.162   1.241   2.327 -1.5722 -1.2968 -1.0842
 4583TIP3    H213714   7.084   1.370   2.338 -1.2615 -1.2303  0.5624
 4584TIP3   OH213715   4.252   1.947   1.965  0.3184 -0.0049 -0.4179
 4584TIP3    H113716   4.250   1.851   1.964  0.5509 -0.0484  0.9840
 4584TIP3    H213717   4.300   1.969   2.045  0.2344  1.2876 -0.6978
 4585TIP3   OH213718   6.289   3.136   3.659 -0.0870 -0.2886 -0.0735
 4585TIP3    H113719   6.346   3.199   3.704 -1.3221  0.0154  1.1201
 4585TIP3    H213720   6.324   3.050   3.684 -1.9034 -0.2190  3.2635
 4586TIP3   OH213721   0.027   2.558   4.435 -0.0765 -0.6598  0.1293
 4586TIP3    H113722  -0.040   2.495   4.408 -2.0179  1.0726  0.6207
 4586TIP3    H213723   0.031   2.548   4.530 -2.3661  1.5934  0.6045
 4587TIP3   OH213724   5.014   5.975   4.380 -0.2582  0.6087  0.4371
 4587TIP3    H113725   4.944   5.929   4.333 -1.1051 -0.5004  2.6161
 4587TIP3    H213726   5.082   5.989   4.315 -0.6589 -2.3003 -0.7317
 4588TIP3   OH213727   6.538   3.728   4.200  0.0755  0.3206 -0.1154
 4588TIP3    H113728   6.578   3.708   4.285 -1.1773 -1.6242  0.0900
 4588TIP3    H213729   6.563   3.655   4.144 -1.0006  0.3913 -0.7207
 4589TIP3   OH213730   5.657   2.096   4.694 -0.0068  0.1753 -0.7348
 4589TIP3    H113731   5.571   2.079   4.655  0.9017 -1.6350 -2.1115
 4589TIP3    H213732   5.657   2.044   4.774  0.0791 -0.4980 -1.1609
 4590TIP3   OH213733   0.387   5.524   3.346  0.1594  0.1946 -0.0585
 4590TIP3    H113734   0.332   5.452   3.314  0.2325 -0.3024  0.9186
 4590TIP3    H213735   0.406   5.576   3.267 -0.7794 -0.2460 -0.5942
 4591TIP3   OH213736   0.630   0.161   2.938 -0.4116  0.2760  0.3940
 4591TIP3    H113737   0.648   0.146   2.845 -0.3414  0.1469  0.4268
 4591TIP3    H213738   0.538   0.137   2.949 -0.0659 -1.0417  0.6270
 4592TIP3   OH213739   4.010   0.177   1.657 -0.0922  0.1419 -0.0359
 4592TIP3    H113740   4.040   0.245   1.597  2.0924 -0.2723  0.4934
 4592TIP3    H213741   4.075   0.107   1.649 -0.5142 -0.5229  1.7545
 4593TIP3   OH213742   4.427   2.257   4.193  0.1444  0.1163 -0.3944
 4593TIP3    H113743   4.358   2.291   4.250  0.4764  1.1616 -0.5937
 4593TIP3    H213744   4.401   2.167   4.174 -1.4695  0.6723 -0.9323
 4594TIP3   OH213745   1.794   1.637   3.736  0.3795 -0.0172  0.0303
 4594TIP3    H113746   1.760   1.717   3.778  1.5382  0.6962 -0.3353
 4594TIP3    H213747   1.746   1.631   3.653  2.5254  2.2004 -1.5155
 4595TIP3   OH213748   3.803   2.331   1.042  0.0817 -0.5855  0.2468
 4595TIP3    H113749   3.733   2.268   1.021  1.1379 -1.5696 -0.4518
 4595TIP3    H213750   3.845   2.349   0.958  0.5292  0.1793  0.6223
 4596TIP3   OH213751   6.355   4.915   3.534 -0.0055 -0.4946  0.0685
 4596TIP3    H113752   6.355   4.850   3.464  0.2209  0.0705 -0.4633
 4596TIP3    H213753   6.316   4.870   3.609  0.7002 -1.4344 -0.1160
 4597TIP3   OH213754   3.099   6.495   2.277  0.1177 -0.0051  0.5595
 4597TIP3    H113755   3.050   6.570   2.247 -0.2518 -0.0949  0.9253
 4597TIP3    H213756   3.046   6.458   2.348  0.1926 -0.7315  0.2438
 4598TIP3   OH213757   3.797   5.671   0.689  0.7961  0.2096  0.6239
 4598TIP3    H113758   3.804   5.718   0.606 -0.5159  0.7686  0.8155
 4598TIP3    H213759   3.795   5.579   0.664 -0.5175  0.4049 -0.0554
 4599TIP3   OH213760   4.786   5.899   4.250 -0.6347  0.3804  0.2180
 4599TIP3    H113761   4.797   5.969   4.186  1.1134  0.0475  0.0944
 4599TIP3    H213762   4.812   5.820   4.203  4.1110  0.4966  2.1138
 4600TIP3   OH213763   0.391   0.072   0.216  0.3631  0.3192  0.0826
 4600TIP3    H113764   0.483   0.073   0.244  0.3243  0.4344  0.2069
 4600TIP3    H213765   0.353  -0.003   0.260  0.4222  0.2088 -0.0515
 4601TIP3   OH213766   4.087   3.132   4.956  0.2525  0.0739  0.4489
 4601TIP3    H113767   4.149   3.205   4.952  0.5811 -0.2176  0.1116
 4601TIP3    H213768   4.101   3.084   4.874 -3.0666  2.1213 -1.5789
 4602TIP3   OH213769   5.460   1.881   1.473 -0.7080 -0.4859 -0.2679
 4602TIP3    H113770   5.512   1.937   1.532 -0.1590 -0.9128 -0.3441
 4602TIP3    H213771   5.386   1.937   1.447 -0.0896  0.2679 -0.4651
 4603TIP3   OH213772   6.528   5.658   2.050 -0.2842  0.0490  0.7868
 4603TIP3    H113773   6.599   5.670   2.113 -0.4942  1.1149  0.8403
 4603TIP3    H213774   6.551   5.716   1.977 -2.0517  1.9258  1.6393
 4604TIP3   OH213775   1.723   4.560   1.928 -0.2920  0.2095 -0.0535
 4604TIP3    H113776   1.815   4.568   1.950 -0.1103 -0.3660 -0.5925
 4604TIP3    H213777   1.689   4.493   1.988 -0.4107  0.5489  0.2679
 4605TIP3   OH213778   1.273   2.890   3.483  0.6389 -0.0400  0.0096
 4605TIP3    H113779   1.190   2.913   3.524  0.8140 -0.4902  0.6360
 4605TIP3    H213780   1.301   2.971   3.440  0.4700  0.4697  0.8198
 4606TIP3   OH213781   1.130   0.985   1.277 -0.0560  0.0445  0.4104
 4606TIP3    H113782   1.110   1.054   1.340  2.9615  1.0232  0.4517
 4606TIP3    H213783   1.098   1.018   1.194 -2.1917 -0.3404  1.0160
 4607TIP3   OH213784   5.238   1.395   2.605  0.7471 -0.1832 -0.3335
 4607TIP3    H113785   5.235   1.321   2.666  2.4919  0.0293  0.0637
 4607TIP3    H213786   5.158   1.386   2.553 -1.1004 -0.0675  2.2873
 4608TIP3   OH213787   3.219   0.988   1.907  0.1057  0.4026  0.3876
 4608TIP3    H113788   3.226   0.903   1.863  0.2804  0.8084 -0.4033
 4608TIP3    H213789   3.162   0.972   1.982 -0.1138 -0.3450  0.0735
 4609TIP3   OH213790   4.345   0.341   5.841  0.6083  0.3332  0.5126
 4609TIP3    H113791   4.286   0.404   5.883  2.3644  1.1978  1.7650
 4609TIP3    H213792   4.318   0.342   5.749 -3.8936 -2.2246  1.5027
 4610TIP3   OH213793   5.377   5.653   5.007 -0.1411 -0.2562 -0.4886
 4610TIP3    H113794   5.419   5.633   4.924  1.3218 -0.2742  0.2204
 4610TIP3    H213795   5.356   5.567   5.044  0.9112 -0.3270 -0.0210
 4611TIP3   OH213796   4.314   5.011   0.573  0.2073  0.3320 -0.9686
 4611TIP3    H113797   4.290   5.103   0.589  2.6256  0.9830 -0.7486
 4611TIP3    H213798   4.358   5.012   0.488  3.1838  0.0247  0.4645
 4612TIP3   OH213799   0.639   5.763   1.146 -0.3211  0.2984 -0.2077
 4612TIP3    H113800   0.613   5.773   1.238  0.6750 -0.4335  0.1681
 4612TIP3    H213801   0.644   5.853   1.114 -1.9346  0.5229  0.0649
 4613TIP3   OH213802   0.865   0.453   3.451 -0.4125  0.1773 -0.3974
 4613TIP3    H113803   0.907   0.538   3.463 -0.3486 -0.1537  2.2288
 4613TIP3    H213804   0.938   0.394   3.432 -0.3732  0.5434 -1.4703
 4614TIP3   OH213805   6.573   0.218   0.536  0.3509  0.2646 -0.2545
 4614TIP3    H113806   6.647   0.241   0.480 -0.5627 -0.5755 -1.8706
 4614TIP3    H213807   6.605   0.145   0.589  0.8145  0.1891 -0.6271
 4615TIP3   OH213808   7.075   4.861   0.534  0.1745  0.0813 -0.3430
 4615TIP3    H113809   7.146   4.800   0.558 -0.7898 -1.2142 -0.6467
 4615TIP3    H213810   6.995   4.811   0.551 -0.6622  1.4192 -0.2702
 4616TIP3   OH213811   5.924   0.021   4.077 -0.1682  0.2341 -0.1335
 4616TIP3    H113812   6.012  -0.017   4.069 -0.9271 -1.4958 -0.5692
 4616TIP3    H213813   5.920   0.053   4.167  1.0373  0.7136 -0.2287
 4617TIP3   OH213814   6.638   4.681   4.710 -0.1614  0.1913  0.5926
 4617TIP3    H113815   6.609   4.770   4.689  1.2953  0.2331 -1.7189
 4617TIP3    H213816   6.725   4.694   4.748 -0.1829 -0.2139  0.7749
 4618TIP3   OH213817   3.714   4.810   1.007 -0.0178 -0.2275 -0.4757
 4618TIP3    H113818   3.772   4.756   0.953  1.2615  0.9390 -0.3067
 4618TIP3    H213819   3.688   4.752   1.079  1.0000 -0.7504 -0.5100
 4619TIP3   OH213820   0.330   2.438   1.257  0.2833  0.0153 -0.1331
 4619TIP3    H113821   0.331   2.534   1.256  0.1357  0.0235  0.2268
 4619TIP3    H213822   0.349   2.415   1.347  0.8961 -0.3094 -0.3427
 4620TIP3   OH213823   2.050   1.785   3.644  0.0927  0.1303 -0.3370
 4620TIP3    H113824   2.103   1.848   3.594  1.2283 -0.8429 -0.4129
 4620TIP3    H213825   1.969   1.777   3.595  0.8145 -0.1020 -1.5515
 4621TIP3   OH213826   4.117   4.672   4.660  0.2285 -0.4423  0.0327
 4621TIP3    H113827   4.094   4.579   4.670 -0.0599 -0.4222 -0.4091
 4621TIP3    H213828   4.033   4.717   4.656  0.3085 -0.3782 -1.7089
 4622TIP3   OH213829   4.436   3.672   1.786  0.6797 -0.5209  0.0855
 4622TIP3    H113830   4.378   3.623   1.843  0.0423  0.4479  0.2970
 4622TIP3    H213831   4.518   3.679   1.835  1.0018 -1.9216 -0.2279
 4623TIP3   OH213832   0.975   6.397   3.847  0.3332  0.6962 -0.0365
 4623TIP3    H113833   1.060   6.371   3.882 -0.6583 -1.3835  1.1020
 4623TIP3    H213834   0.966   6.347   3.766 -0.3462 -0.2578  0.5961
 4624TIP3   OH213835   5.015   5.541   0.597 -0.0945 -0.3405 -0.7625
 4624TIP3    H113836   4.964   5.551   0.517 -0.4685  0.6983 -0.4070
 4624TIP3    H213837   5.067   5.462   0.582 -1.3636 -1.1062 -1.3645
 4625TIP3   OH213838   4.954   2.949   2.685  0.4220 -0.3570  0.2307
 4625TIP3    H113839   5.038   2.991   2.669  0.5373 -0.7343 -0.1688
 4625TIP3    H213840   4.903   3.015   2.734  0.9623 -0.1501  0.5244
 4626TIP3   OH213841   2.184   0.402   2.280  0.5957  0.1726 -0.3194
 4626TIP3    H113842   2.098   0.424   2.244  0.7969  0.8359 -0.3914
 4626TIP3    H213843   2.196   0.310   2.256  1.0550  0.7761 -2.6652
 4627TIP3   OH213844   0.348   0.431   3.425  0.1721  0.1932 -0.0137
 4627TIP3    H113845   0.342   0.353   3.370 -0.7361  1.8225 -2.3867
 4627TIP3    H213846   0.442   0.443   3.439  0.5253  0.2283 -2.0695
 4628TIP3   OH213847   1.562   1.255   1.302  0.3161  0.5096 -0.3747
 4628TIP3    H113848   1.542   1.170   1.263  1.7837  0.1116 -0.3100
 4628TIP3    H213849   1.630   1.292   1.247 -0.7014  1.9385 -0.7402
 4629TIP3   OH213850   2.113   1.160   0.841  0.5021 -0.0397 -0.0969
 4629TIP3    H113851   2.167   1.228   0.801  0.5984 -0.0671 -0.0151
 4629TIP3    H213852   2.058   1.128   0.770  1.0306 -0.4428 -0.3386
 4630TIP3   OH213853   4.080   4.535   2.423  0.0584  0.1718  0.3486
 4630TIP3    H113854   4.102   4.619   2.382 -0.4943 -0.1148 -0.5734
 4630TIP3    H213855   4.001   4.506   2.378 -0.7393 -0.0408  1.8473
 4631TIP3   OH213856   0.634   4.981   2.058  0.4021  0.1879 -0.0112
 4631TIP3    H113857   0.595   4.955   1.975 -0.9582  1.6381  0.1231
 4631TIP3    H213858   0.716   5.025   2.033 -0.1817  0.9506 -0.6389
 4632TIP3   OH213859   5.398   0.333   4.506  0.2137 -0.2174  0.2719
 4632TIP3    H113860   5.391   0.246   4.547  1.2604 -0.6169 -0.3436
 4632TIP3    H213861   5.471   0.375   4.553 -0.0259  0.1747  0.2960
 4633TIP3   OH213862   2.298   2.569   4.965  0.5015  0.2133  0.3188
 4633TIP3    H113863   2.298   2.478   4.934 -0.1851  0.7496 -1.3701
 4633TIP3    H213864   2.252   2.618   4.897  1.8540  2.0328  0.6416
 4634TIP3   OH213865   0.022   0.303   2.884  0.2182 -0.2698  0.1358
 4634TIP3    H113866   0.036   0.364   2.957  0.1303 -0.9302  0.7102
 4634TIP3    H213867  -0.038   0.349   2.826 -1.1472 -0.4297  1.3508
 4635TIP3   OH213868   6.656   1.176   4.253  0.4065 -0.5781 -0.1640
 4635TIP3    H113869   6.581   1.121   4.276  2.2079 -1.6383  4.1902
 4635TIP3    H213870   6.712   1.119   4.201 -1.1999 -0.0958 -2.5787
 4636TIP3   OH213871   2.647   1.628   4.972  0.0649 -0.0934 -0.1446
 4636TIP3    H113872   2.598   1.572   5.031  1.8726 -2.2481 -0.5429
 4636TIP3    H213873   2.586   1.649   4.902 -1.3717  0.5089  1.2067
 4637TIP3   OH213874   2.310   0.386   3.931 -0.2208 -0.9320 -0.0306
 4637TIP3    H113875   2.374   0.443   3.974  0.4054 -2.4809  1.2149
 4637TIP3    H213876   2.226   0.431   3.940  0.4268  0.3194 -0.1364
 4638TIP3   OH213877   3.467   0.159   2.956 -0.5794  0.0775  0.3673
 4638TIP3    H113878   3.464   0.208   2.874 -1.4494  0.2036  0.4586
 4638TIP3    H213879   3.493   0.223   3.022  2.5552 -0.5374 -0.1317
 4639TIP3   OH213880   3.128   2.813   0.777 -0.5813  0.1537  0.1546
 4639TIP3    H113881   3.222   2.821   0.789  0.0630  0.7766 -3.8320
 4639TIP3    H213882   3.104   2.731   0.820  2.1886 -1.0940 -0.5035
 4640TIP3   OH213883   2.388   6.308   0.836 -0.1246  0.6783  0.8435
 4640TIP3    H113884   2.337   6.262   0.902  0.5788 -0.8860  0.3586
 4640TIP3    H213885   2.401   6.243   0.767  0.4110  1.8083 -0.1583
 4641TIP3   OH213886   0.977   0.646   2.211 -0.4969 -0.1728 -0.0780
 4641TIP3    H113887   0.884   0.635   2.190 -0.0327 -0.4156 -2.2215
 4641TIP3    H213888   1.014   0.559   2.203  0.4843  0.3872 -2.5763
 4642TIP3   OH213889   0.713   2.490   5.308  0.1849 -0.4017  0.4086
 4642TIP3    H113890   0.659   2.463   5.235  1.0059 -2.3107  0.4482
 4642TIP3    H213891   0.682   2.437   5.382  1.1993 -0.5508  0.7434
 4643TIP3   OH213892   5.994   0.803   5.244  0.4665 -0.3256 -0.4642
 4643TIP3    H113893   6.083   0.786   5.272  0.9702 -0.4089 -2.0178
 4643TIP3    H213894   5.974   0.891   5.276  1.2357 -0.1691 -0.4104
 4644TIP3   OH213895   6.395   3.962   4.932  0.0518  0.1753 -0.1505
 4644TIP3    H113896   6.457   3.898   4.968 -1.7013 -1.8361 -0.5052
 4644TIP3    H213897   6.449   4.038   4.910  2.0862 -0.7922  1.1789
 4645TIP3   OH213898   4.657   0.712   3.441  0.1367  0.2804 -0.3451
 4645TIP3    H113899   4.695   0.799   3.431 -1.2753  0.7397 -2.3312
 4645TIP3    H213900   4.724   0.652   3.407  1.0979  0.5321  0.9988
 4646TIP3   OH213901   3.249   5.271   5.244 -0.3607 -0.2368 -0.0772
 4646TIP3    H113902   3.235   5.352   5.195  1.0218  0.8321  1.1952
 4646TIP3    H213903   3.341   5.274   5.269 -0.7492 -1.2825  1.6162
 4647TIP3   OH213904   1.677   6.691   2.748  0.0841 -0.5054 -0.0408
 4647TIP3    H113905   1.693   6.781   2.778  0.5804 -1.4396  2.7512
 4647TIP3    H213906   1.588   6.672   2.776  0.1937 -1.0921 -0.0729
 4648TIP3   OH213907   5.366   0.142   5.048  0.5566  0.3089 -0.5187
 4648TIP3    H113908   5.340   0.086   5.121 -0.0142 -0.3829 -1.2342
 4648TIP3    H213909   5.398   0.223   5.089 -1.0720  0.4964  0.4613
 4649TIP3   OH213910   3.022   0.136   2.792 -0.3101  0.1423 -0.6399
 4649TIP3    H113911   2.977   0.072   2.847 -1.5192  1.1720 -0.3703
 4649TIP3    H213912   3.007   0.220   2.835  1.5505  0.5993 -0.7900
 4650TIP3   OH213913   1.904   3.273   2.394  0.2819  0.6804 -0.1277
 4650TIP3    H113914   1.867   3.277   2.482  1.0939 -1.9499  0.4346
 4650TIP3    H213915   1.837   3.231   2.341  1.2572 -1.4668  0.2392
 4651TIP3   OH213916   6.490   1.498   3.527 -0.2279  0.0612  0.3183
 4651TIP3    H113917   6.478   1.489   3.621  0.0463 -0.5235  0.3074
 4651TIP3    H213918   6.576   1.537   3.517  1.5706 -3.4618  0.2922
 4652TIP3   OH213919   3.419   2.792   5.832 -0.3867 -0.1151  0.5243
 4652TIP3    H113920   3.438   2.858   5.899 -0.3532 -1.7588  2.1842
 4652TIP3    H213921   3.325   2.802   5.815 -0.2861  0.6817  0.3714
 4653TIP3   OH213922   1.922   2.129   4.959  0.0082 -0.1296 -0.2829
 4653TIP3    H113923   1.970   2.055   4.923 -1.0740 -0.6023 -0.8041
 4653TIP3    H213924   1.960   2.143   5.045  1.8465  0.2633 -1.1053
 4654TIP3   OH213925   0.839   3.721   5.150  0.1500 -0.3037  0.0013
 4654TIP3    H113926   0.794   3.637   5.144  1.6385 -1.0674 -1.0800
 4654TIP3    H213927   0.774   3.780   5.189 -0.5188 -2.2286  2.0104
 4655TIP3   OH213928   2.284   4.830   5.366  0.4219 -0.0269 -0.0544
 4655TIP3    H113929   2.320   4.749   5.329  0.2202  0.6698 -1.8563
 4655TIP3    H213930   2.190   4.825   5.348  0.4125  0.6274 -0.1780
 4656TIP3   OH213931   7.164   6.179   3.204 -0.0407  0.0609 -0.4205
 4656TIP3    H113932   7.150   6.266   3.167 -0.1066 -0.3968 -1.5036
 4656TIP3    H213933   7.079   6.135   3.193 -0.5535  0.4203  1.7360
 4657TIP3   OH213934   4.741   1.271   1.503 -0.6694  0.1001 -0.4929
 4657TIP3    H113935   4.708   1.358   1.526 -0.7105  0.0360 -0.3049
 4657TIP3    H213936   4.798   1.285   1.428  1.3397  0.6550  1.0466
 4658TIP3   OH213937   0.781   1.266   4.661 -0.2823  0.5106 -0.0890
 4658TIP3    H113938   0.819   1.195   4.713  0.5176  0.5669 -0.5700
 4658TIP3    H213939   0.692   1.238   4.643  0.4838 -1.1231 -1.5998
 4659TIP3   OH213940   3.688   0.244   1.434 -0.1241 -0.0669  0.2265
 4659TIP3    H113941   3.723   0.213   1.518 -0.7728 -2.6354 -0.3567
 4659TIP3    H213942   3.738   0.323   1.414  0.2214  0.4877  2.8822
 4660TIP3   OH213943   2.816   6.272   0.598  0.1511 -0.3290  0.1352
 4660TIP3    H113944   2.821   6.269   0.502 -0.7276 -0.6479  0.0795
 4660TIP3    H213945   2.895   6.227   0.628  0.8933  0.5735 -0.4154
 4661TIP3   OH213946   6.471   2.081   0.723  0.3475  0.5488 -0.7948
 4661TIP3    H113947   6.478   1.985   0.724  0.4413  0.5147  1.6287
 4661TIP3    H213948   6.393   2.098   0.671  0.1581 -0.8562 -1.0300
 4662TIP3   OH213949   5.861   1.750   0.076  0.0012  0.1253  0.4789
 4662TIP3    H113950   5.884   1.657   0.082 -0.8428 -0.1245 -0.0248
 4662TIP3    H213951   5.940   1.796   0.104  0.2969 -0.7501  1.1299
 4663TIP3   OH213952   0.080   4.081   5.782  0.2733  0.3100  0.3148
 4663TIP3    H113953   0.058   4.141   5.710  0.3249 -0.6437 -0.5195
 4663TIP3    H213954   0.011   4.096   5.846 -0.6077  0.1715 -0.5657
 4664TIP3   OH213955   4.710   1.814   2.892 -0.0547  0.8345  0.1763
 4664TIP3    H113956   4.795   1.859   2.890  1.0649 -1.0738 -2.8163
 4664TIP3    H213957   4.714   1.759   2.970  0.5067  2.3149  1.2532
 4665TIP3   OH213958   5.604   2.533   5.084 -0.0910 -0.1323 -0.4146
 4665TIP3    H113959   5.571   2.476   5.153 -2.4700 -0.4861 -1.7176
 4665TIP3    H213960   5.671   2.586   5.126  0.1308 -1.8669  1.5632
 4666TIP3   OH213961   0.144   5.520   5.069  0.2158  0.4235 -0.0422
 4666TIP3    H113962   0.181   5.572   4.997  1.3352 -2.0373 -1.3555
 4666TIP3    H213963   0.050   5.523   5.055  0.4485 -2.9451 -4.0092
 4667TIP3   OH213964   2.095   4.755   3.977  0.3530 -0.0072 -0.0166
 4667TIP3    H113965   2.190   4.761   3.987  0.4899  0.4418 -1.3435
 4667TIP3    H213966   2.082   4.728   3.887 -0.7958  1.2984 -0.2846
 4668TIP3   OH213967   6.862   6.010   2.070  0.1928  0.7225 -0.2330
 4668TIP3    H113968   6.883   5.945   2.138 -0.2776  0.4656 -0.3268
 4668TIP3    H213969   6.885   5.966   1.988 -0.6325  0.4627 -0.3318
 4669TIP3   OH213970   3.036   2.316   3.974  0.7154 -0.2612 -0.1905
 4669TIP3    H113971   2.975   2.390   3.982 -1.1241 -1.9078  3.5421
 4669TIP3    H213972   3.119   2.350   4.009  0.4435  0.5244 -0.2844
 4670TIP3   OH213973   4.117   4.455   5.894 -0.7923  0.5411 -0.0164
 4670TIP3    H113974   4.206   4.432   5.866 -0.5493  3.6208 -2.2309
 4670TIP3    H213975   4.062   4.432   5.818 -1.4018  1.5613  0.1065
 4671TIP3   OH213976   3.210   2.151   3.246 -0.3604  0.3868 -0.1012
 4671TIP3    H113977   3.184   2.128   3.335  1.5054 -0.0901  0.3572
 4671TIP3    H213978   3.201   2.069   3.197 -0.6655  0.4722 -0.1946
 4672TIP3   OH213979   3.687   5.381   3.180  0.5663 -0.2771 -0.3520
 4672TIP3    H113980   3.690   5.462   3.130  0.5793 -0.0351  0.0322
 4672TIP3    H213981   3.763   5.387   3.239  1.0106 -0.9123 -0.8421
 4673TIP3   OH213982   6.136   0.745   4.462 -0.3992 -0.3109  0.0294
 4673TIP3    H113983   6.201   0.814   4.476 -0.3588 -0.1687 -0.7687
 4673TIP3    H213984   6.066   0.788   4.412  0.2758 -1.1529 -1.7429
 4674TIP3   OH213985   6.587   4.526   2.626 -0.1213  0.1907  0.0274
 4674TIP3    H113986   6.602   4.615   2.593  2.8670 -0.1209  0.2862
 4674TIP3    H213987   6.635   4.470   2.566 -0.6972 -1.1330  0.7618
 4675TIP3   OH213988   2.184   5.810   3.735  0.3860 -0.0236  0.2566
 4675TIP3    H113989   2.240   5.853   3.670 -0.4135 -1.1857 -1.2930
 4675TIP3    H213990   2.135   5.745   3.684 -2.6258  1.1423  1.4168
 4676TIP3   OH213991   5.466   1.720   2.013  0.3523  0.2762 -0.0757
 4676TIP3    H113992   5.417   1.795   2.046 -0.8854 -0.8116  0.6566
 4676TIP3    H213993   5.530   1.701   2.081 -1.5072 -1.3130  1.3450
 4677TIP3   OH213994   4.775   5.871   1.068 -0.3283 -0.0341  0.1773
 4677TIP3    H113995   4.822   5.813   1.128 -0.2713 -0.1781 -0.0039
 4677TIP3    H213996   4.818   5.955   1.077  0.3007 -0.2871 -0.3611
 4678TIP3   OH213997   4.206   6.023   1.462 -0.4662 -0.0446 -0.0897
 4678TIP3    H113998   4.209   6.077   1.383 -0.2040 -0.8761 -0.6645
 4678TIP3    H213999   4.124   6.046   1.505  0.5356  2.2691  0.7417
 4679TIP3   OH214000   5.752   3.890   3.625  0.2901 -0.2334 -0.6554
 4679TIP3    H114001   5.743   3.834   3.548 -2.4393  0.2164 -0.7626
 4679TIP3    H214002   5.671   3.942   3.627  1.1734  1.2114  1.3983
 4680TIP3   OH214003   4.676   1.017   3.440 -0.2903 -0.0850  0.8541
 4680TIP3    H114004   4.710   1.045   3.525 -0.1416 -0.1463  0.8141
 4680TIP3    H214005   4.610   1.083   3.418  0.8319  0.8671  0.2313
 4681TIP3   OH214006   6.639   3.965   0.035  0.0603 -0.6821  0.0225
 4681TIP3    H114007   6.645   4.025   0.109  0.4488  0.4744 -0.9068
 4681TIP3    H214008   6.666   4.018  -0.041 -1.5628 -1.4386 -1.1479
 4682TIP3   OH214009   3.540   4.817   2.702  0.1796  0.0706 -0.5806
 4682TIP3    H114010   3.553   4.911   2.693  0.3897  0.2620  1.3038
 4682TIP3    H214011   3.628   4.781   2.706  0.1907  0.2110  1.9711
 4683TIP3   OH214012   6.493   4.461   2.114 -0.1481  0.4818 -0.7598
 4683TIP3    H114013   6.511   4.433   2.204 -1.4719  1.5243 -0.1234
 4683TIP3    H214014   6.417   4.409   2.088  0.3207  0.0766 -1.3550
 4684TIP3   OH214015   3.161   2.372   1.065  0.7257 -0.2549  0.3537
 4684TIP3    H114016   3.193   2.331   1.145  0.3706  1.3284  1.3521
 4684TIP3    H214017   3.189   2.313   0.995  3.5182 -0.2995  1.3817
 4685TIP3   OH214018   2.369   1.358   5.424 -0.5622 -0.0500  0.0188
 4685TIP3    H114019   2.365   1.264   5.440 -2.0322  0.2040  1.4746
 4685TIP3    H214020   2.277   1.384   5.411 -0.3345  1.3746  0.9995
 4686TIP3   OH214021   7.210   0.111   1.551 -0.3417  0.0415  0.1161
 4686TIP3    H114022   7.125   0.099   1.510 -0.6524 -1.6991  1.1793
 4686TIP3    H214023   7.258   0.168   1.491 -0.9186 -2.0032 -2.4512
 4687TIP3   OH214024   3.681   2.734   1.309  0.7845 -0.3104  0.0234
 4687TIP3    H114025   3.666   2.645   1.343 -0.6355 -0.3847 -0.7372
 4687TIP3    H214026   3.667   2.791   1.384 -1.0374 -0.5613 -0.0751
 4688TIP3   OH214027   3.011   1.474   1.902  0.2185 -0.3791  0.0660
 4688TIP3    H114028   3.060   1.416   1.961  0.0898  0.0470  0.6064
 4688TIP3    H214029   3.075   1.537   1.871  0.2966 -0.6346 -0.2866
 4689TIP3   OH214030   6.181   1.597   5.522 -0.1360  0.2687 -0.1867
 4689TIP3    H114031   6.107   1.620   5.577 -0.1787  2.5760 -1.1046
 4689TIP3    H214032   6.188   1.669   5.459  1.7106 -0.8235 -1.3369
 4690TIP3   OH214033   2.533   5.289   1.005 -0.0352 -0.0547 -0.0705
 4690TIP3    H114034   2.569   5.229   1.069 -0.4618  0.7218  0.9211
 4690TIP3    H214035   2.509   5.367   1.055  0.9991  1.1821 -1.3778
 4691TIP3   OH214036   0.603   6.735   0.521  0.8114  0.6294 -0.2693
 4691TIP3    H114037   0.547   6.683   0.579 -1.5750  1.6347 -1.5077
 4691TIP3    H214038   0.601   6.688   0.438 -0.2764  1.9165 -1.0213
 4692TIP3   OH214039   5.459   3.614   1.734  0.0019  0.5863 -0.2206
 4692TIP3    H114040   5.397   3.577   1.798  1.3652 -0.0800  0.7638
 4692TIP3    H214041   5.457   3.553   1.661 -0.2448  0.3750 -0.0419
 4693TIP3   OH214042   4.089   5.127   3.115  0.0767 -0.3595  0.0489
 4693TIP3    H114043   4.085   5.213   3.157 -0.2098 -0.8119  0.9861
 4693TIP3    H214044   4.046   5.139   3.031 -1.0582  0.1402  0.6779
 4694TIP3   OH214045   3.117   3.100   2.257 -0.7459 -0.1424  0.5395
 4694TIP3    H114046   3.056   3.172   2.272  0.5497  0.6094  2.7941
 4694TIP3    H214047   3.064   3.021   2.266 -1.6440  0.5009  1.0720
 4695TIP3   OH214048   2.796   1.566   1.296  0.5630 -0.6766  0.6572
 4695TIP3    H114049   2.810   1.499   1.363  0.0483  0.1185  1.5953
 4695TIP3    H214050   2.787   1.647   1.346 -0.2497 -0.1220 -0.3574
 4696TIP3   OH214051   3.921   2.328   5.262 -0.9693 -0.4890 -0.5174
 4696TIP3    H114052   3.852   2.374   5.311  1.2057  1.5684  0.8327
 4696TIP3    H214053   3.955   2.394   5.201 -0.1033 -1.3981 -1.0429
 4697TIP3   OH214054   6.950   6.056   3.129  0.3667  0.5514 -0.1583
 4697TIP3    H114055   6.906   6.036   3.046 -1.5308  1.3183  0.6047
 4697TIP3    H214056   6.893   6.120   3.171  0.8726 -0.3828  2.0861
 4698TIP3   OH214057   4.637   0.574   1.130  0.7357 -0.0659  0.2348
 4698TIP3    H114058   4.712   0.514   1.125  2.2387  1.6088  1.1970
 4698TIP3    H214059   4.662   0.637   1.198 -2.1251 -0.1460  1.4873
 4699TIP3   OH214060   0.217   5.587   4.779  0.1507  0.3301  0.1298
 4699TIP3    H114061   0.299   5.636   4.787 -0.2801  1.0480  0.1597
 4699TIP3    H214062   0.212   5.564   4.686  0.1118  0.7573  0.0280
 4700TIP3   OH214063   3.074   4.276   4.880 -0.6194 -0.3606  0.1382
 4700TIP3    H114064   2.992   4.314   4.912 -0.0936  1.0695 -0.1738
 4700TIP3    H214065   3.046   4.198   4.831 -1.5705 -1.5393  2.4268
 4701TIP3   OH214066   3.689   1.485   5.164  0.0784  0.3663  0.9406
 4701TIP3    H114067   3.742   1.410   5.191 -1.3256 -0.7932  0.6492
 4701TIP3    H214068   3.616   1.446   5.115  0.9707  2.1423 -2.0719
 4702TIP3   OH214069   0.303   3.054   2.684  0.2022 -0.5001 -0.1018
 4702TIP3    H114070   0.352   2.987   2.637 -0.7873 -1.8055  0.6625
 4702TIP3    H214071   0.250   3.096   2.616  1.0799 -0.2265 -0.6413
 4703TIP3   OH214072   6.205   2.622   2.678  0.4097  0.4156  0.7875
 4703TIP3    H114073   6.150   2.566   2.732 -0.4444 -0.1494 -0.6006
 4703TIP3    H214074   6.215   2.573   2.596  2.3136  0.8693  0.6989
 4704TIP3   OH214075   0.708   1.770   4.039  0.0628 -0.3653  0.0710
 4704TIP3    H114076   0.676   1.782   4.128 -0.1897 -0.2690 -0.0299
 4704TIP3    H214077   0.752   1.852   4.018 -0.3195 -0.1934 -0.0714
 4705TIP3   OH214078   0.676   3.305   3.034 -0.3945  0.2570 -0.1585
 4705TIP3    H114079   0.742   3.320   2.966  0.0849 -0.5791  0.1077
 4705TIP3    H214080   0.618   3.239   2.995 -0.0799 -0.2733  0.2553
 4706TIP3   OH214081   3.755   0.732   2.969  0.1710 -0.4103  0.0445
 4706TIP3    H114082   3.687   0.780   2.921  1.1660  0.7974 -0.2256
 4706TIP3    H214083   3.829   0.731   2.909  1.1764  0.4263  1.2266
 4707TIP3   OH214084   0.683   1.178   0.379 -0.0563 -0.3323  0.1116
 4707TIP3    H114085   0.658   1.240   0.447 -0.3535  0.1995 -0.4776
 4707TIP3    H214086   0.666   1.092   0.418  1.1095 -0.0883  1.2258
 4708TIP3   OH214087   7.071   1.723   1.726 -0.3700  0.0746  0.5811
 4708TIP3    H114088   7.009   1.788   1.759  1.3312  2.8869 -1.3019
 4708TIP3    H214089   7.030   1.688   1.647 -0.2090  0.8289  0.1569
 4709TIP3   OH214090   4.203   1.138   4.623  0.6167 -0.0457 -0.3320
 4709TIP3    H114091   4.157   1.204   4.675 -0.0890 -1.7960  1.3675
 4709TIP3    H214092   4.166   1.147   4.535 -1.4553  0.0272  0.4963
 4710TIP3   OH214093   2.698   1.784   4.170 -0.0353 -0.4955 -0.1603
 4710TIP3    H114094   2.607   1.812   4.161  0.4174  1.6495  1.1220
 4710TIP3    H214095   2.694   1.688   4.173 -2.0170 -0.5378 -1.9955
 4711TIP3   OH214096   3.377   3.056   2.833  0.7291  0.0093 -0.3852
 4711TIP3    H114097   3.447   3.013   2.783  0.7064  0.5532 -0.8858
 4711TIP3    H214098   3.423   3.113   2.895  0.8384 -1.9990  1.5251
 4712TIP3   OH214099   2.744   2.872   2.250 -0.4852  0.1507  0.0059
 4712TIP3    H114100   2.738   2.958   2.208 -2.2308  0.7295  1.3261
 4712TIP3    H214101   2.833   2.869   2.285 -0.2296  1.1992 -0.5077
 4713TIP3   OH214102   5.424   4.442   2.797 -0.1817  0.3850  0.4283
 4713TIP3    H114103   5.505   4.397   2.773  0.2666  1.4556 -0.1455
 4713TIP3    H214104   5.362   4.372   2.816  0.0967 -0.5131 -1.7164
 4714TIP3   OH214105   3.549   4.493   2.394  0.5893 -0.2790 -0.0666
 4714TIP3    H114106   3.498   4.516   2.472 -0.3795 -0.5628 -0.6047
 4714TIP3    H214107   3.484   4.476   2.326  1.4134 -0.3135 -0.8729
 4715TIP3   OH214108   2.526   2.956   1.320  0.6165  0.1582 -0.3747
 4715TIP3    H114109   2.528   3.042   1.277 -0.1395 -0.2466 -1.2684
 4715TIP3    H214110   2.526   2.893   1.248 -2.3558 -0.5185  0.0786
 4716TIP3   OH214111   5.519   4.290   1.713 -0.2931  0.2624  0.1269
 4716TIP3    H114112   5.451   4.296   1.645 -0.6775  1.4761  0.5893
 4716TIP3    H214113   5.595   4.334   1.674 -0.4104  0.6630  0.3364
 4717TIP3   OH214114   5.727   1.020   2.678 -0.6181 -0.0287  0.4525
 4717TIP3    H114115   5.728   0.980   2.591 -0.0361  0.0706  0.4091
 4717TIP3    H214116   5.717   0.946   2.738  3.8249 -0.8106  0.6170
 4718TIP3   OH214117   0.849   1.689   0.591  0.1533  0.0320  0.1745
 4718TIP3    H114118   0.792   1.655   0.661  2.2904  0.0027  2.0184
 4718TIP3    H214119   0.933   1.704   0.634  2.2431 -1.9244 -2.8119
 4719TIP3   OH214120   4.476   0.425   1.300  0.5352  0.1726 -0.3753
 4719TIP3    H114121   4.540   0.452   1.234  2.2493  0.0243  1.1620
 4719TIP3    H214122   4.392   0.431   1.255  1.3538  2.6900 -1.7641
 4720TIP3   OH214123   5.072   0.777   3.327 -0.0877  0.3050 -0.3036
 4720TIP3    H114124   5.019   0.802   3.403  1.2482  0.7432  0.5333
 4720TIP3    H214125   5.129   0.853   3.312  0.8882 -0.4598 -0.6129
 4721TIP3   OH214126   0.958   6.402   4.649  0.2840 -0.6726 -0.3017
 4721TIP3    H114127   0.932   6.414   4.558  2.5457 -0.5130 -0.9816
 4721TIP3    H214128   0.997   6.314   4.652  1.7385 -0.0512  0.0814
 4722TIP3   OH214129   0.978   6.324   5.525  0.2667 -0.0473 -0.7927
 4722TIP3    H114130   1.048   6.362   5.471  0.6768 -1.0104 -0.9740
 4722TIP3    H214131   0.899   6.372   5.499  0.8212  0.9463 -0.7061
 4723TIP3   OH214132   4.715   0.284   5.519  0.2535  0.3280  0.3485
 4723TIP3    H114133   4.771   0.324   5.453  0.3509 -0.8790 -0.3277
 4723TIP3    H214134   4.766   0.289   5.600  1.8968 -1.7929 -0.4674
 4724TIP3   OH214135   3.247   0.891   3.940 -0.2849 -0.2278 -0.3588
 4724TIP3    H114136   3.166   0.856   3.975 -0.3676  0.6040  0.3027
 4724TIP3    H214137   3.294   0.925   4.016 -0.2522  1.1787 -0.9868
 4725TIP3   OH214138   4.487   1.634   3.496  0.1898  0.0855  0.0552
 4725TIP3    H114139   4.502   1.669   3.584  0.6952  1.4786 -0.5433
 4725TIP3    H214140   4.532   1.696   3.438  0.9021 -1.4595 -1.1161
 4726TIP3   OH214141   5.244   2.756   5.242 -0.7043 -0.1509  0.2203
 4726TIP3    H114142   5.181   2.757   5.169 -0.0377 -2.4747 -0.4704
 4726TIP3    H214143   5.190   2.754   5.320 -1.4961 -0.8952 -0.3283
 4727TIP3   OH214144   6.271   0.741   0.686  0.1600  0.1928 -0.1500
 4727TIP3    H114145   6.263   0.796   0.764 -2.3761 -0.2932  0.0260
 4727TIP3    H214146   6.304   0.657   0.719  1.6253  0.7861 -0.0416
 4728TIP3   OH214147   3.338   0.290   0.493 -0.3056  0.2260 -0.1302
 4728TIP3    H114148   3.333   0.321   0.402 -1.4008  1.0919  0.1896
 4728TIP3    H214149   3.374   0.364   0.542 -1.4855  0.4690  0.4108
 4729TIP3   OH214150   5.188   3.347   0.752 -0.2978 -0.6804 -0.2502
 4729TIP3    H114151   5.233   3.418   0.705 -0.8833 -0.4022 -0.4000
 4729TIP3    H214152   5.259   3.295   0.789  0.1462  0.0887  0.0174
 4730TIP3   OH214153   0.480   0.464   4.235  0.2885 -0.2562 -0.4727
 4730TIP3    H114154   0.484   0.390   4.174  0.5954 -0.8628  0.2816
 4730TIP3    H214155   0.416   0.523   4.195 -0.2664 -1.1116 -0.8792
 4731TIP3   OH214156   4.412   4.714   4.592 -0.2644 -0.5552  0.2103
 4731TIP3    H114157   4.493   4.685   4.634 -0.2631 -1.4572 -0.4012
 4731TIP3    H214158   4.350   4.724   4.664  0.5007  0.5978  0.7450
 4732TIP3   OH214159   3.604   1.549   3.103 -0.0881  0.2191  0.7170
 4732TIP3    H114160   3.632   1.633   3.141  1.9303 -0.1188  0.0815
 4732TIP3    H214161   3.685   1.508   3.072 -1.2010 -1.3343 -0.2930
 4733TIP3   OH214162   3.682   6.617   5.319  0.0091 -0.2456 -0.0097
 4733TIP3    H114163   3.671   6.535   5.271  1.3823  0.0702 -0.9066
 4733TIP3    H214164   3.610   6.672   5.290 -1.1882 -1.2413  0.9220
 4734TIP3   OH214165   3.439   3.265   0.712 -0.1315 -0.3775 -0.2618
 4734TIP3    H114166   3.410   3.356   0.702  0.3599 -0.1367  0.3896
 4734TIP3    H214167   3.534   3.269   0.698 -0.2367 -0.9509 -1.1898
 4735TIP3   OH214168   6.738   5.074   0.343  0.2096 -0.4621  0.1236
 4735TIP3    H114169   6.716   5.052   0.434 -1.9560  2.1711  0.3729
 4735TIP3    H214170   6.661   5.045   0.293 -0.6782  2.0530 -0.1296
 4736TIP3   OH214171   1.868   3.464   2.602 -0.2421  0.2491 -0.5572
 4736TIP3    H114172   1.866   3.557   2.622  0.7028 -0.0377  0.9603
 4736TIP3    H214173   1.781   3.432   2.627 -0.5968  0.7064 -1.1569
 4737TIP3   OH214174   4.397   0.688   4.865 -0.0835 -0.2726  0.0372
 4737TIP3    H114175   4.416   0.678   4.958  1.0889 -1.7501 -0.3140
 4737TIP3    H214176   4.353   0.773   4.858  0.3529  0.1433  1.8488
 4738TIP3   OH214177   2.655   2.235   0.861  0.1456 -0.5521  0.5080
 4738TIP3    H114178   2.593   2.164   0.843 -0.2058 -0.6445  1.9831
 4738TIP3    H214179   2.629   2.304   0.800  0.7962 -1.8114 -1.3063
 4739TIP3   OH214180   3.440   2.707   4.229  0.2248 -0.3424 -0.2519
 4739TIP3    H114181   3.395   2.730   4.311  1.1745  0.6816 -0.0018
 4739TIP3    H214182   3.525   2.672   4.257  0.7147  0.3799 -0.8037
 4740TIP3   OH214183   3.985   5.261   1.028  0.2463  0.4037  0.4560
 4740TIP3    H114184   4.055   5.198   1.012 -0.4117 -0.2948  0.2807
 4740TIP3    H214185   4.024   5.346   1.005  0.8937 -0.0173 -0.0564
 4741TIP3   OH214186   1.753   3.316   1.217  0.5268  0.1429  0.3875
 4741TIP3    H114187   1.789   3.396   1.255  0.3944 -0.4862  1.9529
 4741TIP3    H214188   1.683   3.345   1.159 -1.4223  1.1282  3.0276
 4742TIP3   OH214189   1.836   3.129   4.629  0.0616 -0.3709  0.0426
 4742TIP3    H114190   1.812   3.093   4.714 -0.2606 -1.1435 -0.3737
 4742TIP3    H214191   1.755   3.126   4.577  0.0462  0.8648 -0.0328
 4743TIP3   OH214192   6.102   1.178   3.368 -0.9425  0.0303 -0.0093
 4743TIP3    H114193   6.056   1.162   3.451 -1.8349  1.2514 -0.2397
 4743TIP3    H214194   6.169   1.242   3.391 -1.5437  0.7903 -0.3074
 4744TIP3   OH214195   4.336   1.203   1.491  0.1732  0.2330  0.5730
 4744TIP3    H114196   4.245   1.232   1.488 -0.1486 -0.7523  0.3357
 4744TIP3    H214197   4.343   1.140   1.418 -0.0189 -2.6263  2.8268
 4745TIP3   OH214198   3.680   6.252   0.217  0.6987 -0.8262  0.1322
 4745TIP3    H114199   3.643   6.337   0.242  1.3562 -0.7805  1.0069
 4745TIP3    H214200   3.686   6.203   0.299  0.0372 -1.8524 -0.4056
 4746TIP3   OH214201   3.208   5.366   1.215 -0.2119  0.0287 -0.1943
 4746TIP3    H114202   3.149   5.424   1.166 -0.6323  1.1679  1.5463
 4746TIP3    H214203   3.168   5.280   1.206 -0.9365  0.4091 -0.8496
 4747TIP3   OH214204   4.893   0.843   3.826  0.0831 -0.7301  0.9004
 4747TIP3    H114205   4.944   0.764   3.844  0.5773 -0.6019  0.1172
 4747TIP3    H214206   4.956   0.915   3.834  0.2443 -0.6376 -0.8588
 4748TIP3   OH214207   1.140   0.995   0.499  0.0355  0.1530  0.0818
 4748TIP3    H114208   1.105   1.057   0.435 -0.8723 -0.9279 -0.4985
 4748TIP3    H214209   1.072   0.989   0.567  1.5665  2.3623  1.9748
 4749TIP3   OH214210   6.619   5.593   3.884  0.3566 -0.1391 -0.3752
 4749TIP3    H114211   6.559   5.641   3.941  0.5858 -0.4991  0.1780
 4749TIP3    H214212   6.567   5.522   3.848  0.2674 -0.0346 -0.4555
 4750TIP3   OH214213   1.109   0.153   0.822  0.1125  0.3526  0.0418
 4750TIP3    H114214   1.176   0.208   0.860 -1.0026  0.9750  1.1886
 4750TIP3    H214215   1.069   0.207   0.753  1.2471 -0.2961 -1.1842
 4751TIP3   OH214216   6.262   3.365   3.903  0.0425  0.0906 -0.3863
 4751TIP3    H114217   6.344   3.382   3.950  1.0823  0.4992 -2.2539
 4751TIP3    H214218   6.193   3.391   3.965  1.3473  1.0735  0.7161
 4752TIP3   OH214219   0.309   2.994   4.139  0.4415 -0.0917  0.2313
 4752TIP3    H114220   0.359   2.941   4.078  0.1640 -1.4379  1.1179
 4752TIP3    H214221   0.232   3.022   4.090  0.7593 -0.2277 -0.3465
 4753TIP3   OH214222   6.846   5.083   1.463 -0.2569 -0.9791  0.1067
 4753TIP3    H114223   6.766   5.131   1.445  0.4469  0.3094  0.3207
 4753TIP3    H214224   6.827   5.032   1.542 -0.6811 -0.2363  0.4913
 4754TIP3   OH214225   0.901   2.697   2.968  0.3438 -0.6263 -0.1295
 4754TIP3    H114226   0.895   2.791   2.951 -0.2003 -0.5878  0.2402
 4754TIP3    H214227   0.813   2.673   2.998  0.5442 -1.2073 -0.0036
 4755TIP3   OH214228   5.132   2.860   5.010  0.0087  0.0551  0.7133
 4755TIP3    H114229   5.051   2.820   5.041 -0.2187  1.6010  2.3174
 4755TIP3    H214230   5.105   2.917   4.938 -0.1500 -0.2988  0.4940
 4756TIP3   OH214231   2.506   2.995   3.526 -0.1657 -0.0268  0.6309
 4756TIP3    H114232   2.440   3.064   3.535 -0.4522 -0.4427  1.8947
 4756TIP3    H214233   2.458   2.919   3.496 -0.0684 -0.0221  0.4646
 4757TIP3   OH214234   5.653   4.220   5.226 -0.2596 -0.4312 -0.0472
 4757TIP3    H114235   5.710   4.170   5.284  1.2318  0.0316 -1.0648
 4757TIP3    H214236   5.678   4.311   5.240 -1.9600 -0.0448  0.7295
 4758TIP3   OH214237   1.668   3.316   4.906 -0.0033 -0.1958 -0.2402
 4758TIP3    H114238   1.727   3.242   4.891  1.3663  1.2183 -2.2018
 4758TIP3    H214239   1.592   3.297   4.851 -0.0146 -0.5289 -0.1131
 4759TIP3   OH214240   1.143   4.786   1.827  0.6687 -0.1129  0.5367
 4759TIP3    H114241   1.190   4.704   1.840  1.1990 -0.1009 -1.1067
 4759TIP3    H214242   1.050   4.762   1.834  0.8260 -0.8053  0.3250
 4760TIP3   OH214243   6.258   4.835   2.807 -0.2344 -0.6911  0.1033
 4760TIP3    H114244   6.309   4.909   2.773 -0.0173 -0.4890  0.8561
 4760TIP3    H214245   6.173   4.842   2.763 -0.2866  0.1292  0.3203
 4761TIP3   OH214246   1.106   1.070   5.615  0.0472 -0.8350  0.2768
 4761TIP3    H114247   1.104   1.016   5.536  0.9238 -0.9814  0.3474
 4761TIP3    H214248   1.131   1.009   5.684 -0.1244 -0.5769  0.5663
 4762TIP3   OH214249   6.220   4.081   4.437  0.2297  0.6437 -0.3301
 4762TIP3    H114250   6.296   4.035   4.473 -0.9055 -0.6365  0.5348
 4762TIP3    H214251   6.204   4.152   4.498 -0.6678 -0.5145  0.8386
 4763TIP3   OH214252   5.761   4.783   3.249  0.2793  0.3911 -0.4860
 4763TIP3    H114253   5.667   4.801   3.260 -0.2242 -2.1121 -0.1788
 4763TIP3    H214254   5.771   4.762   3.156  0.3025 -0.4066 -0.3121
 4764TIP3   OH214255   5.787   2.082   2.826 -0.5954  0.5904 -0.2492
 4764TIP3    H114256   5.875   2.088   2.788 -1.0914  1.9149 -1.2346
 4764TIP3    H214257   5.735   2.145   2.777 -2.4961 -1.2571 -0.7105
 4765TIP3   OH214258   3.496   2.076   1.574  0.3500  0.3541  0.3500
 4765TIP3    H114259   3.521   2.159   1.533  0.8295 -0.3108 -0.7482
 4765TIP3    H214260   3.422   2.045   1.522 -0.4197  0.5074  1.3140
 4766TIP3   OH214261   3.744   1.259   1.230 -0.0435 -0.2101  0.5005
 4766TIP3    H114262   3.665   1.304   1.199  1.0416  0.8125 -0.8864
 4766TIP3    H214263   3.752   1.182   1.174  1.0731  0.8206 -0.8157
 4767TIP3   OH214264   5.877   5.208   1.779 -0.2363 -0.0504 -1.0873
 4767TIP3    H114265   5.804   5.148   1.793  0.0357 -0.0186  0.7406
 4767TIP3    H214266   5.873   5.230   1.686 -0.5470 -2.6146 -1.7675
 4768TIP3   OH214267   5.963   4.354   3.495  0.6662 -0.5017 -0.0020
 4768TIP3    H114268   5.987   4.271   3.454  2.5393  0.3064 -0.6278
 4768TIP3    H214269   5.982   4.420   3.429  2.1741  0.6765  1.5125
 4769TIP3   OH214270   3.477   1.406   0.386  0.0005 -0.4115 -0.2139
 4769TIP3    H114271   3.496   1.373   0.473 -0.7290  0.5945  0.3510
 4769TIP3    H214272   3.557   1.451   0.359  0.7342 -1.9187 -0.6850
 4770TIP3   OH214273   5.375  -0.006   2.427 -0.6796  0.0295 -0.1300
 4770TIP3    H114274   5.344   0.026   2.511  0.0733 -0.4543  0.3467
 4770TIP3    H214275   5.470  -0.016   2.439 -0.3772  1.1048 -1.4189
 4771TIP3   OH214276   0.196   4.669   2.435 -0.2329  0.6925 -0.4266
 4771TIP3    H114277   0.196   4.718   2.517  1.1645 -1.5490  1.0265
 4771TIP3    H214278   0.135   4.596   2.451  0.9618 -0.4423 -0.9040
 4772TIP3   OH214279   1.831   2.267   1.694 -0.1283  0.3228 -0.2287
 4772TIP3    H114280   1.820   2.323   1.617 -0.0045  0.2297 -0.3153
 4772TIP3    H214281   1.833   2.328   1.768  0.5384  0.4816 -0.3684
 4773TIP3   OH214282   6.351   3.185   2.473  0.5194 -0.0330  0.3786
 4773TIP3    H114283   6.408   3.205   2.547 -1.7637  1.0285  1.9820
 4773TIP3    H214284   6.320   3.271   2.443 -2.0117 -0.5907  1.1307
 4774TIP3   OH214285   4.196   5.355   0.793 -0.5585 -0.1987  0.6529
 4774TIP3    H114286   4.253   5.278   0.803 -0.4942 -0.2097  0.2215
 4774TIP3    H214287   4.210   5.406   0.873  0.5312  0.1042  0.2846
 4775TIP3   OH214288   3.723   1.480   4.140 -0.0814  0.3457 -0.0775
 4775TIP3    H114289   3.717   1.488   4.235 -0.1121  2.6038 -0.2285
 4775TIP3    H214290   3.640   1.516   4.108 -0.2152 -0.7020 -0.9864
 4776TIP3   OH214291   3.262   5.556   5.128 -0.3354  0.4065  0.5565
 4776TIP3    H114292   3.239   5.572   5.220  0.8671  0.0601  0.9467
 4776TIP3    H214293   3.240   5.637   5.083  1.5801  1.6327  1.6829
 4777TIP3   OH214294   4.568   0.350   3.807  0.5254 -0.6490 -0.0198
 4777TIP3    H114295   4.662   0.338   3.816  0.3486 -2.0240  0.1830
 4777TIP3    H214296   4.558   0.403   3.728  1.4985  0.3843  0.5179
 4778TIP3   OH214297   4.194   3.684   1.556 -0.0350  0.0055 -0.6453
 4778TIP3    H114298   4.200   3.615   1.623  2.0324  0.8056  0.0968
 4778TIP3    H214299   4.107   3.721   1.567 -0.2311 -0.7743  0.7134
 4779TIP3   OH214300   3.103   5.479   3.631  0.4514 -0.2507 -0.5038
 4779TIP3    H114301   3.081   5.433   3.550  1.0942 -0.4911 -0.5552
 4779TIP3    H214302   3.171   5.424   3.671  1.7207  0.9787 -0.8973
 4780TIP3   OH214303   5.282   2.422   5.162 -0.0347  0.1266 -0.1438
 4780TIP3    H114304   5.302   2.476   5.086 -0.0012  0.6582  0.2323
 4780TIP3    H214305   5.327   2.465   5.235 -0.5739 -0.0163  0.2852
 4781TIP3   OH214306   5.902   4.839   0.837  0.3211  0.7025 -1.1582
 4781TIP3    H114307   5.860   4.892   0.769  0.2517 -0.7004 -2.2569
 4781TIP3    H214308   5.974   4.894   0.869 -1.0846  2.3298 -0.6750
 4782TIP3   OH214309   2.978   2.729   4.437  0.3458 -0.4088 -0.2978
 4782TIP3    H114310   3.046   2.668   4.407  1.7195  1.0075 -0.2161
 4782TIP3    H214311   2.978   2.798   4.371 -2.7854 -1.5005 -1.6483
 4783TIP3   OH214312   3.158   2.478   2.643 -0.7993 -0.2503 -0.2915
 4783TIP3    H114313   3.153   2.431   2.726  0.0635 -0.3856 -0.3075
 4783TIP3    H214314   3.134   2.413   2.577  1.5443 -1.0725 -0.4334
 4784TIP3   OH214315   3.628   6.428   5.730 -0.5936  0.5489 -0.2914
 4784TIP3    H114316   3.558   6.469   5.781 -0.0610  0.6333  0.3769
 4784TIP3    H214317   3.673   6.501   5.687 -0.2971  0.5763  0.0669
 4785TIP3   OH214318   2.610   1.999   2.341  0.3762 -0.1275  0.2602
 4785TIP3    H114319   2.618   1.904   2.332 -0.4704 -0.3553  1.6181
 4785TIP3    H214320   2.696   2.028   2.370  0.4452 -0.5762  0.5039
 4786TIP3   OH214321   3.884   6.591   1.691 -0.2118 -0.3201  0.2206
 4786TIP3    H114322   3.853   6.545   1.769 -0.0365  1.1454  1.2087
 4786TIP3    H214323   3.977   6.567   1.684 -0.3229 -0.7531  0.2428
 4787TIP3   OH214324   7.061   0.859   0.664  0.1634 -0.2626 -0.3955
 4787TIP3    H114325   7.124   0.794   0.633  0.0639 -1.0392  0.9538
 4787TIP3    H214326   6.980   0.838   0.618  0.1512 -1.0593 -0.0137
 4788TIP3   OH214327   4.096   4.260   3.418 -0.1769 -0.1744 -0.3122
 4788TIP3    H114328   4.153   4.272   3.343 -1.1621  0.0731 -1.0404
 4788TIP3    H214329   4.059   4.346   3.434  0.8497  0.0328  1.1692
 4789TIP3   OH214330   4.363   2.983   2.306  0.5293  0.1895 -0.0003
 4789TIP3    H114331   4.327   2.907   2.259  0.2673 -0.0081  0.4982
 4789TIP3    H214332   4.303   2.994   2.380  1.4909 -0.1375  0.8460
 4790TIP3   OH214333   4.631   6.737   4.873 -0.4143  0.1393  0.3937
 4790TIP3    H114334   4.596   6.820   4.904 -0.1664 -0.0636  1.2493
 4790TIP3    H214335   4.561   6.699   4.820 -0.6000  0.7982  0.1585
 4791TIP3   OH214336   5.629   6.199   2.008 -1.0290  0.7059 -0.6332
 4791TIP3    H114337   5.640   6.242   2.093  0.0328 -0.1175 -0.3362
 4791TIP3    H214338   5.659   6.264   1.945  1.4883  0.1402 -0.1217
 4792TIP3   OH214339   0.077   4.174   1.292  0.0660 -0.4735 -0.5259
 4792TIP3    H114340   0.099   4.238   1.224 -1.1403  1.5168  0.8761
 4792TIP3    H214341   0.159   4.156   1.336  0.1249  1.7379  0.3672
 4793TIP3   OH214342   0.963   1.265   1.609 -0.2964 -1.4174 -0.0035
 4793TIP3    H114343   0.973   1.360   1.605  0.2916 -1.4939 -0.6172
 4793TIP3    H214344   0.873   1.251   1.636  0.4140 -0.6566  3.1298
 4794TIP3   OH214345   7.052   3.326   1.389  0.0293 -0.0247  0.2820
 4794TIP3    H114346   6.991   3.280   1.331 -1.2144 -0.7828  2.1122
 4794TIP3    H214347   7.084   3.258   1.448  0.0592  1.0013  1.4740
 4795TIP3   OH214348   3.282   2.956   1.554 -0.4319  0.0162 -0.0257
 4795TIP3    H114349   3.246   2.983   1.470  0.4032 -1.1829 -0.7898
 4795TIP3    H214350   3.359   3.012   1.567 -1.0917  0.8507  0.4170
 4796TIP3   OH214351   3.767   2.163   4.461 -0.2518  0.5851 -0.7166
 4796TIP3    H114352   3.785   2.203   4.376  0.9670 -1.3615 -1.4456
 4796TIP3    H214353   3.814   2.218   4.524  0.3000  1.0392 -1.5097
 4797TIP3   OH214354   3.280   1.851   4.698  0.5259 -0.3246  0.8734
 4797TIP3    H114355   3.209   1.884   4.644  0.4727 -0.7221  0.6945
 4797TIP3    H214356   3.309   1.771   4.654  0.3948 -0.7213  1.4969
 4798TIP3   OH214357   0.943   4.026   3.162 -0.3605  0.0190  0.4125
 4798TIP3    H114358   0.884   4.006   3.235  0.8401 -0.7466  1.2214
 4798TIP3    H214359   0.965   3.942   3.124  0.6267  0.2164  0.4932
 4799TIP3   OH214360   2.361   6.569   0.872  0.1130  0.0760  0.2036
 4799TIP3    H114361   2.373   6.482   0.833 -1.1064  0.1397 -0.3660
 4799TIP3    H214362   2.375   6.555   0.965 -1.2806 -1.0187  0.2896
 4800TIP3   OH214363   5.971   3.954   0.086 -0.5053  0.3691 -0.0751
 4800TIP3    H114364   6.036   3.884   0.097  0.7747  1.4457 -0.5361
 4800TIP3    H214365   6.012   4.016   0.026 -2.5409  0.4113 -1.5435
 4801TIP3   OH214366   4.330   0.616   0.041  0.5839  0.3113  0.4858
 4801TIP3    H114367   4.238   0.641   0.050  0.9188  1.5728  0.5122
 4801TIP3    H214368   4.376   0.669   0.106  1.3770 -0.1072  0.2777
 4802TIP3   OH214369   4.600   4.391   2.894 -0.1830  0.1810 -0.0144
 4802TIP3    H114370   4.522   4.433   2.930 -0.8569  0.5577 -1.8416
 4802TIP3    H214371   4.639   4.345   2.969 -2.4219 -0.4269  0.8504
 4803TIP3   OH214372   1.516   2.469   0.510 -0.7680 -0.6701  0.5241
 4803TIP3    H114373   1.504   2.451   0.603  0.5608  0.0476  0.8551
 4803TIP3    H214374   1.600   2.430   0.488  0.0172  1.1168  0.1900
 4804TIP3   OH214375   0.109   0.012   5.823 -0.3098 -0.4782 -0.0781
 4804TIP3    H114376   0.034  -0.019   5.874 -0.4262 -0.5966 -0.3184
 4804TIP3    H214377   0.125   0.101   5.856 -0.4060 -0.5409  0.1372
 4805TIP3   OH214378   7.044   3.207   3.937  0.2399 -0.2811  0.1672
 4805TIP3    H114379   6.949   3.198   3.944 -0.1204  3.0757  1.5185
 4805TIP3    H214380   7.059   3.244   3.850  0.6855 -3.1583 -1.1039
 4806TIP3   OH214381   2.863   5.362   1.838 -0.3381  0.6609 -0.2603
 4806TIP3    H114382   2.873   5.302   1.912  0.0173  0.7267 -0.2520
 4806TIP3    H214383   2.810   5.315   1.774 -2.8311  1.4999  1.0539
 4807TIP3   OH214384   6.544   2.653   4.764  0.5078  0.6314 -0.0864
 4807TIP3    H114385   6.628   2.609   4.777 -0.0160 -0.4951 -0.3165
 4807TIP3    H214386   6.547   2.683   4.673  0.8699  1.0836  0.0707
 4808TIP3   OH214387   4.334   2.737   4.525  0.2185  0.2435  0.7131
 4808TIP3    H114388   4.402   2.798   4.497 -1.5089  1.3378 -1.4660
 4808TIP3    H214389   4.299   2.775   4.605 -0.4403  1.8721 -0.3007
 4809TIP3   OH214390   4.429   3.130   5.245 -0.3297  0.2468  0.0675
 4809TIP3    H114391   4.348   3.094   5.282 -0.1371 -2.2047 -1.6865
 4809TIP3    H214392   4.491   3.058   5.248  0.9762  1.2731 -1.1254
 4810TIP3   OH214393   7.075   0.886   3.810  0.0745 -0.6077 -0.3984
 4810TIP3    H114394   6.999   0.943   3.804  0.9624  0.5979 -0.5150
 4810TIP3    H214395   7.134   0.916   3.741 -0.2371 -2.9632 -1.8202
 4811TIP3   OH214396   6.833   0.044   3.131 -0.5255 -0.3739  0.3876
 4811TIP3    H114397   6.869   0.127   3.099 -1.9886  0.0243 -0.3114
 4811TIP3    H214398   6.789   0.006   3.055 -0.5216 -1.4292  0.9035
 4812TIP3   OH214399   5.193   5.916   1.306 -0.2238 -0.1435 -0.3585
 4812TIP3    H114400   5.146   5.965   1.373  0.2545  0.6062 -0.5460
 4812TIP3    H214401   5.194   5.975   1.230 -1.4060 -1.2703 -1.2842
 4813TIP3   OH214402   4.280   1.546   2.769  0.1760  0.5374 -0.0857
 4813TIP3    H114403   4.220   1.581   2.702  1.0513 -0.2481 -1.3181
 4813TIP3    H214404   4.348   1.613   2.777  0.2852  0.4507 -0.2821
 4814TIP3   OH214405   3.317   1.363   1.740 -0.2056  0.4393  0.4409
 4814TIP3    H114406   3.296   1.454   1.761  0.4647  0.6877  0.0460
 4814TIP3    H214407   3.325   1.320   1.825 -0.8412  0.6714  0.6237
 4815TIP3   OH214408   5.415   6.390   2.187  0.1041  0.3206 -0.6262
 4815TIP3    H114409   5.425   6.435   2.102 -0.5923 -0.1922 -0.9918
 4815TIP3    H214410   5.446   6.454   2.251 -0.5344  1.2008 -1.1644
 4816TIP3   OH214411   1.950   5.184   0.889 -0.5843  0.8425  0.0458
 4816TIP3    H114412   1.933   5.186   0.983  0.6941  1.2115  0.2945
 4816TIP3    H214413   1.871   5.147   0.851  0.1108 -2.7170  1.5720
 4817TIP3   OH214414   6.453   3.353   1.487 -0.3085 -0.2370 -0.0286
 4817TIP3    H114415   6.432   3.344   1.394  1.0952  2.2528 -0.6835
 4817TIP3    H214416   6.369   3.345   1.532 -1.2607  0.1790 -1.6741
 4818TIP3   OH214417   5.835   5.257   4.704 -0.2393 -0.5108  0.3766
 4818TIP3    H114418   5.906   5.197   4.728 -0.6382 -0.4559  1.7663
 4818TIP3    H214419   5.806   5.226   4.618  1.3836 -0.5954 -0.1785
 4819TIP3   OH214420   4.927   4.113   2.980  0.1902 -0.0809  0.2063
 4819TIP3    H114421   4.925   4.179   2.911 -1.0515 -0.7088 -0.3855
 4819TIP3    H214422   4.844   4.124   3.027  0.8078  0.0263  1.3096
 4820TIP3   OH214423   6.823   3.901   2.117  0.2375 -0.2239 -0.6200
 4820TIP3    H114424   6.908   3.920   2.078 -0.5106  2.4775 -1.1851
 4820TIP3    H214425   6.778   3.847   2.053 -0.0357  2.0536 -2.4727
 4821TIP3   OH214426   1.364   2.214   2.794  0.0599  0.1863  0.0993
 4821TIP3    H114427   1.301   2.286   2.788 -0.3953 -0.1581  0.6959
 4821TIP3    H214428   1.318   2.139   2.755  0.2245  0.0156  0.2344
 4822TIP3   OH214429   2.841   1.043   4.680 -0.1521 -0.3653 -0.1032
 4822TIP3    H114430   2.900   1.096   4.735 -1.3788  2.6260 -1.4384
 4822TIP3    H214431   2.771   1.015   4.739 -1.0388  2.1260  0.1301
 4823TIP3   OH214432   6.713   2.516   4.131  0.0575  0.3509  0.2565
 4823TIP3    H114433   6.726   2.569   4.209  0.1973  1.8523 -0.7429
 4823TIP3    H214434   6.632   2.468   4.148  1.4320 -1.3903  2.3713
 4824TIP3   OH214435   1.735   2.111   0.872 -0.2326 -0.3209 -0.9578
 4824TIP3    H114436   1.756   2.070   0.956  0.2936  0.5449 -0.6434
 4824TIP3    H214437   1.662   2.060   0.837  0.4427 -1.5557 -0.6337
 4825TIP3   OH214438   1.861   0.713   4.095  0.3931  0.2517 -0.3229
 4825TIP3    H114439   1.914   0.656   4.039 -1.7947 -0.6900 -1.5582
 4825TIP3    H214440   1.799   0.755   4.035  0.2167  1.9265  0.9524
 4826TIP3   OH214441   5.108   6.165   4.146 -0.0191 -0.1044  0.4124
 4826TIP3    H114442   5.093   6.095   4.084 -2.3752  0.7415 -0.0679
 4826TIP3    H214443   5.104   6.245   4.094  0.7118  0.4940  1.2412
 4827TIP3   OH214444   2.482   6.352   3.764  0.5646  0.4331 -0.0547
 4827TIP3    H114445   2.505   6.359   3.857 -2.1196 -0.7386  0.8166
 4827TIP3    H214446   2.406   6.409   3.753  1.3455  1.2123 -1.7738
 4828TIP3   OH214447   2.945   5.769   0.350 -0.2481  0.0432  0.0871
 4828TIP3    H114448   3.026   5.755   0.301 -1.1629 -0.4180 -1.3398
 4828TIP3    H214449   2.951   5.860   0.380  1.1810 -0.2473  0.7884
 4829TIP3   OH214450  -0.003   6.754   1.637 -0.2673  0.1719 -0.0184
 4829TIP3    H114451   0.049   6.802   1.701 -1.8954  1.0187  0.7466
 4829TIP3    H214452   0.022   6.791   1.553 -1.2873  2.2503  0.5285
 4830TIP3   OH214453   5.447   3.509   2.695 -0.0099  0.0952 -0.3517
 4830TIP3    H114454   5.499   3.540   2.620  0.4358 -1.6100 -0.7962
 4830TIP3    H214455   5.500   3.439   2.733  0.5655  1.9590  2.6247
 4831TIP3   OH214456   4.145   2.540   0.898 -0.4850 -0.3641 -0.6591
 4831TIP3    H114457   4.132   2.544   0.993 -3.8933  1.9178 -1.0437
 4831TIP3    H214458   4.232   2.580   0.885  0.7958 -2.2074  1.4978
 4832TIP3   OH214459   2.956   4.122   3.849  0.1321  0.5567  0.5344
 4832TIP3    H114460   3.048   4.138   3.831  0.7693 -1.1524  1.9648
 4832TIP3    H214461   2.956   4.053   3.916 -2.1707  0.9535  1.0317
 4833TIP3   OH214462   3.869   4.440   4.483  0.1214  0.0406  0.0172
 4833TIP3    H114463   3.779   4.473   4.489  1.0104  2.5203  1.0083
 4833TIP3    H214464   3.901   4.471   4.398  0.8358  1.5148  0.7841
 4834TIP3   OH214465   4.818   5.917   5.381  0.0363 -0.3283  0.1138
 4834TIP3    H114466   4.727   5.943   5.395  0.0788 -0.2691  0.2757
 4834TIP3    H214467   4.866   5.999   5.371  0.3013 -0.2990  1.4027
 4835TIP3   OH214468   2.521   6.759   0.570  0.6356 -0.3206  0.0310
 4835TIP3    H114469   2.581   6.797   0.505 -0.2207  0.3559 -0.3885
 4835TIP3    H214470   2.543   6.666   0.572  1.0672 -0.2491 -0.8175
 4836TIP3   OH214471   2.482   0.579   0.534 -0.3284 -0.2348  0.0391
 4836TIP3    H114472   2.447   0.513   0.475  0.9527 -1.8131  0.9746
 4836TIP3    H214473   2.405   0.614   0.580 -0.9382 -1.8953  0.3395
 4837TIP3   OH214474   6.364   4.714   4.886 -0.4808  0.1730  0.3209
 4837TIP3    H114475   6.294   4.736   4.947 -1.8988 -1.3378 -0.6613
 4837TIP3    H214476   6.340   4.758   4.804 -0.0630 -0.0123  0.0969
 4838TIP3   OH214477   6.209   3.246   4.297 -0.2248  0.3024 -0.3066
 4838TIP3    H114478   6.125   3.285   4.320 -1.4958 -1.8062 -1.0008
 4838TIP3    H214479   6.262   3.318   4.265 -2.1384  1.5645 -0.7842
 4839TIP3   OH214480   1.118   5.338   5.087  0.2281 -0.6358  0.1784
 4839TIP3    H114481   1.050   5.282   5.050  1.4548 -3.9648  2.4672
 4839TIP3    H214482   1.192   5.279   5.103  3.3146  2.5063 -0.9976
 4840TIP3   OH214483   5.140   1.045   1.936 -0.8583 -0.3086 -0.5527
 4840TIP3    H114484   5.168   1.089   1.856  0.5978 -1.4692 -0.7445
 4840TIP3    H214485   5.084   1.108   1.981  1.4679  1.9224 -0.5638
 4841TIP3   OH214486   4.631   4.934   3.435 -0.1798 -0.3625  0.0906
 4841TIP3    H114487   4.659   5.006   3.379  2.7068 -0.3852  1.3267
 4841TIP3    H214488   4.596   4.977   3.513  0.1872 -0.3169  0.2286
 4842TIP3   OH214489   0.902   2.975  -0.010 -0.0201  1.0232 -0.6203
 4842TIP3    H114490   0.962   2.909   0.026 -2.0453 -0.4793  0.2351
 4842TIP3    H214491   0.939   3.059   0.017  1.1731  0.1122  0.7281
 4843TIP3   OH214492   3.403   6.155   2.554  0.4397 -0.5538 -0.0935
 4843TIP3    H114493   3.426   6.062   2.553 -0.0297 -0.6946  1.3355
 4843TIP3    H214494   3.469   6.196   2.497  0.8708 -1.6976 -0.4384
 4844TIP3   OH214495   7.064   2.261   4.623 -0.0364  0.0138  0.8500
 4844TIP3    H114496   7.038   2.246   4.532 -0.4833 -0.1246  0.9952
 4844TIP3    H214497   6.999   2.212   4.674  3.0230 -4.2845  1.1810
 4845TIP3   OH214498   3.170   3.051   1.854  0.4501  0.3296 -0.1837
 4845TIP3    H114499   3.222   3.104   1.914  1.4236 -1.3778  0.5307
 4845TIP3    H214500   3.230   3.031   1.782  0.4401 -0.7208  0.0944
 4846TIP3   OH214501   4.127   5.241   3.409 -0.2140  0.1763  0.0926
 4846TIP3    H114502   4.158   5.231   3.319  1.4244 -0.5696  0.7058
 4846TIP3    H214503   4.192   5.196   3.463 -1.1555  0.5962  1.6669
 4847TIP3   OH214504   4.495   4.282   5.788 -0.0338 -0.1242 -0.0182
 4847TIP3    H114505   4.435   4.347   5.752  0.2310 -0.2536 -0.7054
 4847TIP3    H214506   4.555   4.332   5.842 -0.1277  0.1408 -0.1586
 4848TIP3   OH214507   3.318   5.189   2.600  0.2493  0.1527  0.2029
 4848TIP3    H114508   3.317   5.255   2.669 -1.0436  1.1028 -0.6795
 4848TIP3    H214509   3.399   5.141   2.614  0.2788  0.6854  2.0300
 4849TIP3   OH214510   2.273   2.234   1.013  0.2513 -0.2699 -0.1136
 4849TIP3    H114511   2.185   2.207   0.988  0.0748  0.0323  0.1690
 4849TIP3    H214512   2.264   2.267   1.102  0.6036 -0.0026 -0.1729
 4850TIP3   OH214513   3.055   1.061   4.123 -0.4587 -0.0070 -0.0694
 4850TIP3    H114514   3.010   1.098   4.047  0.7002 -0.7776 -1.1667
 4850TIP3    H214515   3.027   1.116   4.197  0.2627  2.2755 -1.4168
 4851TIP3   OH214516   2.867   5.697   1.009 -0.0612  0.0478  0.2782
 4851TIP3    H114517   2.775   5.707   1.031  0.0920  0.0011  0.9933
 4851TIP3    H214518   2.913   5.716   1.091  0.5684  0.1913 -0.0992
 4852TIP3   OH214519   2.940   2.859   4.944  0.7371 -1.0209 -0.1158
 4852TIP3    H114520   2.956   2.770   4.913  0.7952 -1.6220  1.5526
 4852TIP3    H214521   3.021   2.885   4.988  0.9099  0.0765 -1.0393
 4853TIP3   OH214522   6.333   0.845   5.057  0.2845  0.7455  0.1547
 4853TIP3    H114523   6.247   0.875   5.026 -0.0781  0.7473  1.1229
 4853TIP3    H214524   6.385   0.925   5.063  0.4432  0.7106 -0.6880
 4854TIP3   OH214525   5.951   2.752   4.010  0.7741 -0.2953 -1.0550
 4854TIP3    H114526   5.936   2.838   4.050 -2.1337 -0.6450 -1.1748
 4854TIP3    H214527   5.990   2.699   4.079 -0.5937  0.2051  0.1438
 4855TIP3   OH214528   0.472   0.355   3.950 -0.3652  0.2848  0.5178
 4855TIP3    H114529   0.478   0.274   4.001  0.3455  0.3190  0.4927
 4855TIP3    H214530   0.551   0.355   3.896 -1.6651 -0.3727 -1.5182
 4856TIP3   OH214531   3.490   3.652   1.603  0.0234 -0.1431  0.1710
 4856TIP3    H114532   3.551   3.660   1.529  2.1689 -2.1719  1.5454
 4856TIP3    H214533   3.411   3.614   1.565  0.0128  1.4040 -1.4927
 4857TIP3   OH214534   5.563   1.887   2.853  0.1158 -0.2636 -0.3127
 4857TIP3    H114535   5.505   1.887   2.777 -0.0268  0.0166 -0.2063
 4857TIP3    H214536   5.639   1.940   2.826  1.2969 -2.2814 -1.1683
 4858TIP3   OH214537   6.530   4.614   1.051  0.2692  0.2375  0.4995
 4858TIP3    H114538   6.495   4.530   1.020  1.5726  0.2315 -1.0727
 4858TIP3    H214539   6.481   4.632   1.131 -1.3707 -1.0966 -0.1419
 4859TIP3   OH214540   2.254   3.681   2.797 -0.0211 -0.0677  0.3979
 4859TIP3    H114541   2.189   3.746   2.824 -0.2441  0.6446 -1.6707
 4859TIP3    H214542   2.203   3.604   2.773  0.0514 -0.1498  0.5036
 4860TIP3   OH214543   3.668   1.543   3.503 -0.2821 -0.0576 -0.4910
 4860TIP3    H114544   3.634   1.468   3.553  1.7834 -1.6975 -1.4404
 4860TIP3    H214545   3.748   1.568   3.549 -0.3187  0.8198 -0.8859
 4861TIP3   OH214546   1.918   5.114   3.729  0.2870 -0.0813 -0.1067
 4861TIP3    H114547   1.926   5.055   3.653 -3.7564  1.9603 -2.4338
 4861TIP3    H214548   1.899   5.056   3.802  0.4680 -1.9040 -1.4324
 4862TIP3   OH214549   3.736   6.170   3.706  0.3221 -0.3699  0.4986
 4862TIP3    H114550   3.721   6.139   3.795 -1.3997 -0.1804  0.2991
 4862TIP3    H214551   3.824   6.139   3.685  0.1653 -1.7587  1.7031
 4863TIP3   OH214552   5.368   4.010   0.945 -0.2277 -0.1535 -0.1594
 4863TIP3    H114553   5.409   4.091   0.913 -2.3615  0.3273 -1.8658
 4863TIP3    H214554   5.274   4.025   0.937 -0.7054 -2.6611 -0.1382
 4864TIP3   OH214555   0.559   5.165   5.494 -0.4925  0.3838 -0.0026
 4864TIP3    H114556   0.471   5.141   5.464 -0.4657  1.1188 -0.7149
 4864TIP3    H214557   0.588   5.091   5.547 -0.9808 -0.4784 -0.9172
 4865TIP3   OH214558   2.738   2.591   4.416 -0.1573 -0.1116  0.0440
 4865TIP3    H114559   2.672   2.660   4.419 -1.0607 -0.9295 -0.5077
 4865TIP3    H214560   2.809   2.623   4.473 -0.6754  1.1278  0.0152
 4866TIP3   OH214561   6.002   2.520   3.637 -0.1691 -0.1954 -0.1757
 4866TIP3    H114562   5.998   2.429   3.666  1.7246 -0.2873 -0.0884
 4866TIP3    H214563   5.962   2.519   3.550 -3.7490 -0.3310  1.2922
 4867TIP3   OH214564   5.767   6.109   0.393 -0.6436  0.1169 -0.2102
 4867TIP3    H114565   5.753   6.030   0.444 -2.6744 -0.5038 -1.5893
 4867TIP3    H214566   5.775   6.078   0.303 -0.3215  1.4085 -0.6522
 4868TIP3   OH214567   3.317   1.046   4.148  0.0956 -0.1218 -0.5182
 4868TIP3    H114568   3.224   1.057   4.168  0.0925  0.6002 -0.8915
 4868TIP3    H214569   3.352   1.135   4.148  1.2793 -0.4968  1.8655
 4869TIP3   OH214570   5.227   6.741   1.294 -0.0528  0.6206  0.3381
 4869TIP3    H114571   5.156   6.687   1.328 -0.5494  1.4561  0.6729
 4869TIP3    H214572   5.292   6.742   1.365 -0.2826  0.8973  0.5453
 4870TIP3   OH214573   4.655   3.201   1.913 -0.0323  0.6035 -0.1831
 4870TIP3    H114574   4.571   3.198   1.868  1.2445  0.7883 -2.7324
 4870TIP3    H214575   4.686   3.291   1.901  0.8360  0.3642  0.1712
 4871TIP3   OH214576   2.912   2.338   0.278  0.0171 -0.1276 -0.3187
 4871TIP3    H114577   2.922   2.245   0.298  1.2073  0.0560  0.0142
 4871TIP3    H214578   2.968   2.383   0.341 -1.6271  0.9410  0.4692
 4872TIP3   OH214579   3.670   2.278   5.596 -0.0995 -0.5168  0.1188
 4872TIP3    H114580   3.662   2.346   5.529  1.5704 -0.8744 -0.4846
 4872TIP3    H214581   3.698   2.325   5.674 -0.8030 -0.2737  0.2343
 4873TIP3   OH214582   1.609   5.891   5.734  0.0691 -0.3382 -0.1050
 4873TIP3    H114583   1.556   5.820   5.700 -0.1704 -0.5322  0.6543
 4873TIP3    H214584   1.556   5.970   5.719  0.6432 -0.2097 -1.6032
 4874TIP3   OH214585   2.853   6.442   4.975 -0.4754 -0.9046 -0.3912
 4874TIP3    H114586   2.902   6.422   5.055  0.4857  0.3883 -0.6188
 4874TIP3    H214587   2.765   6.464   5.005  0.3091  1.2102  0.5287
 4875TIP3   OH214588   1.116   0.569   5.195 -0.1719 -0.2054 -0.2673
 4875TIP3    H114589   1.114   0.536   5.285  1.0931 -1.0725 -0.5295
 4875TIP3    H214590   1.044   0.525   5.151 -0.1039 -0.6440  0.0542
 4876TIP3   OH214591   6.913   6.358   4.875 -0.0001 -0.0234 -0.1386
 4876TIP3    H114592   6.963   6.285   4.840 -1.4398 -0.2479 -1.9050
 4876TIP3    H214593   6.976   6.430   4.880  1.1937 -1.0852  0.6804
 4877TIP3   OH214594   1.689   4.002   1.203  0.1909  0.2070  0.1867
 4877TIP3    H114595   1.767   4.036   1.161  0.0793 -0.3745 -0.5044
 4877TIP3    H214596   1.647   3.947   1.137 -0.6683  0.3082  0.6270
 4878TIP3   OH214597   5.605   4.047   1.873 -0.0631  0.0050 -0.5361
 4878TIP3    H114598   5.665   3.991   1.822 -0.9389 -0.3740 -1.1646
 4878TIP3    H214599   5.593   4.125   1.819  0.9718  0.7290  0.2368
 4879TIP3   OH214600   0.522   2.850   3.379  0.5142  0.0335  0.1601
 4879TIP3    H114601   0.533   2.919   3.444 -1.1391  0.7358 -0.2463
 4879TIP3    H214602   0.580   2.875   3.307  1.9561 -0.4700  1.1031
 4880TIP3   OH214603   1.975   3.501   0.199  0.0672  0.0515 -0.0161
 4880TIP3    H114604   2.013   3.504   0.111  0.4959  0.9359  0.1972
 4880TIP3    H214605   1.895   3.554   0.193  2.4702  4.2575  1.2316
 4881TIP3   OH214606   5.649   1.726   5.085  0.5393  0.2362 -0.2120
 4881TIP3    H114607   5.659   1.724   5.180  1.5973  0.2949 -0.3171
 4881TIP3    H214608   5.597   1.648   5.065 -0.8777  0.9423  0.5319
 4882TIP3   OH214609   3.219   1.848   5.076 -0.5146 -0.2620 -0.3611
 4882TIP3    H114610   3.253   1.775   5.128  0.1229 -0.8205 -1.5187
 4882TIP3    H214611   3.297   1.896   5.049 -0.8882  0.4439 -0.2195
 4883TIP3   OH214612   2.616   3.481   0.639  0.4069  0.1506  0.0427
 4883TIP3    H114613   2.537   3.441   0.675  0.8495 -0.5229  0.2651
 4883TIP3    H214614   2.595   3.575   0.636  0.2294  0.2102  1.7536
 4884TIP3   OH214615   2.052   1.417   1.801 -0.0074 -0.7248  0.0701
 4884TIP3    H114616   2.128   1.395   1.855 -1.0136  0.7994  2.2194
 4884TIP3    H214617   2.089   1.463   1.726  1.1994  0.3845  1.2888
 4885TIP3   OH214618   3.516   2.063   5.484  0.4021  0.5491  0.5651
 4885TIP3    H114619   3.569   2.120   5.541  1.5241 -0.1067  0.2065
 4885TIP3    H214620   3.515   2.109   5.400  1.0175  0.2320  0.3737
 4886TIP3   OH214621   6.419   5.304   0.919  0.7023  0.4595  0.4270
 4886TIP3    H114622   6.491   5.241   0.925 -1.1448 -1.7930  0.7819
 4886TIP3    H214623   6.352   5.258   0.869 -0.4905  2.4949  0.0443
 4887TIP3   OH214624   6.210   3.750   1.228  0.0216 -0.2696  0.0228
 4887TIP3    H114625   6.183   3.666   1.192 -1.0667 -0.1134  0.4292
 4887TIP3    H214626   6.258   3.728   1.308  0.7935 -0.5402 -0.5069
 4888TIP3   OH214627   4.488   4.422   4.057  0.1481  0.5648  0.0842
 4888TIP3    H114628   4.437   4.421   4.138  0.2438  0.8596  0.1466
 4888TIP3    H214629   4.557   4.486   4.072  1.1151 -0.4967  0.3517
 4889TIP3   OH214630   6.426   3.937   3.104  0.2610  0.0281  0.0093
 4889TIP3    H114631   6.503   3.897   3.065  1.0713  2.0335 -0.5526
 4889TIP3    H214632   6.366   3.951   3.030  0.1602  0.2376  0.1282
 4890TIP3   OH214633   5.339   0.713   4.749  0.2808  0.1339  0.2756
 4890TIP3    H114634   5.388   0.752   4.678 -0.1651  0.1806 -0.0126
 4890TIP3    H214635   5.268   0.775   4.767 -0.0046 -0.1923  0.3014
 4891TIP3   OH214636   1.429   6.120   1.637 -0.6086 -0.1589 -0.1469
 4891TIP3    H114637   1.334   6.134   1.646 -0.7086 -1.1796  0.5510
 4891TIP3    H214638   1.442   6.108   1.543 -0.9596  1.2945 -0.4175
 4892TIP3   OH214639   2.423   5.454   5.489  0.1621 -0.3401 -0.0843
 4892TIP3    H114640   2.441   5.470   5.397  0.6119  0.4585  0.1310
 4892TIP3    H214641   2.505   5.415   5.522  1.3397  2.5066  0.7068
 4893TIP3   OH214642   3.062   6.550   0.906 -0.3015  0.5954  0.1433
 4893TIP3    H114643   3.125   6.536   0.836  0.3088  0.3814  0.7329
 4893TIP3    H214644   3.015   6.467   0.912  1.4075 -0.3231  1.7256
 4894TIP3   OH214645   4.867   5.545   1.097  0.1479  0.1332  0.4737
 4894TIP3    H114646   4.917   5.613   1.142  1.2536 -1.8545  2.4201
 4894TIP3    H214647   4.775   5.569   1.112  0.4945  1.7167  0.2246
 4895TIP3   OH214648   1.992   4.926   1.900 -0.6125 -0.2324 -0.3835
 4895TIP3    H114649   1.971   4.911   1.992 -1.8141 -0.5168 -0.6805
 4895TIP3    H214650   2.088   4.932   1.897 -0.4026 -2.4023  0.5737
 4896TIP3   OH214651   3.988   3.425   5.159 -0.2418  0.2185 -0.2677
 4896TIP3    H114652   4.065   3.404   5.211  0.7183 -0.5446 -1.9274
 4896TIP3    H214653   3.918   3.371   5.196  0.0803  0.6323  1.0070
 4897TIP3   OH214654   4.815   1.585   1.734 -0.0015  0.2645  0.0530
 4897TIP3    H114655   4.897   1.558   1.693 -0.5454 -0.1379 -0.7937
 4897TIP3    H214656   4.778   1.504   1.769  0.3461  0.5698  1.1539
 4898TIP3   OH214657   6.030   2.502   2.972  0.0577 -0.1745  0.0835
 4898TIP3    H114658   6.100   2.540   3.025 -0.2517  1.3262 -0.5412
 4898TIP3    H214659   6.045   2.407   2.977  0.4128 -0.0392  2.2763
 4899TIP3   OH214660   2.969   4.410   5.769  0.0548 -0.2116 -0.1080
 4899TIP3    H114661   3.039   4.476   5.770 -1.5184  1.6223 -1.9141
 4899TIP3    H214662   2.946   4.399   5.861  1.1456  0.9155  0.3410
 4900TIP3   OH214663   3.726   0.067   4.603  0.1458 -0.3218 -0.1363
 4900TIP3    H114664   3.737   0.076   4.509  0.2736  1.7252  0.0389
 4900TIP3    H214665   3.631   0.064   4.616 -0.0492  2.6227 -0.1667
 4901TIP3   OH214666   6.533   5.346   2.426  0.1120 -0.1109 -0.6433
 4901TIP3    H114667   6.623   5.322   2.406  0.3473 -0.8944  1.1642
 4901TIP3    H214668   6.529   5.346   2.522 -1.2723  1.9763 -0.6434
 4902TIP3   OH214669   0.763   0.620   0.662  0.3557 -0.5134 -0.1095
 4902TIP3    H114670   0.780   0.671   0.582  1.8932 -0.3243  0.2932
 4902TIP3    H214671   0.786   0.679   0.733 -3.2009  0.1562  0.6712
 4903TIP3   OH214672   5.344   2.247   3.737 -0.1827 -0.1354 -0.0380
 4903TIP3    H114673   5.265   2.288   3.702  0.0440  0.5695  0.2631
 4903TIP3    H214674   5.335   2.253   3.832 -0.0506 -0.6011  0.0073
 4904TIP3   OH214675   3.613   3.227   1.376 -0.2311  0.2246 -0.3311
 4904TIP3    H114676   3.569   3.308   1.351 -0.9931  0.1517  0.6820
 4904TIP3    H214677   3.705   3.241   1.351 -0.4133  1.2668 -0.4887
 4905TIP3   OH214678   0.015   0.024   3.131  0.9107  0.0546  0.5562
 4905TIP3    H114679  -0.008   0.076   3.054  1.7687 -0.2878  0.0570
 4905TIP3    H214680   0.079  -0.040   3.099  0.4754 -0.7922  1.3293
 4906TIP3   OH214681   1.703   6.146   3.490 -0.2517 -0.1425 -0.7095
 4906TIP3    H114682   1.703   6.089   3.413 -1.8594 -1.8378  0.4574
 4906TIP3    H214683   1.629   6.206   3.476 -0.9498 -0.8712 -0.2352
 4907TIP3   OH214684   4.008   5.147   3.738  0.1253  0.6332 -0.4970
 4907TIP3    H114685   3.989   5.077   3.676 -1.2824  0.1985  0.3736
 4907TIP3    H214686   4.095   5.127   3.770  0.4423  0.2640 -1.5299
 4908TIP3   OH214687   7.086   1.632   5.234  0.3721  0.6692  0.4634
 4908TIP3    H114688   7.075   1.638   5.139 -0.8918  0.3303  0.5633
 4908TIP3    H214689   7.078   1.538   5.253 -0.5126  0.8324  0.9974
 4909TIP3   OH214690   6.465   4.250   5.678 -0.2370  0.0284  0.2344
 4909TIP3    H114691   6.406   4.321   5.699 -1.3447  0.1029 -2.7134
 4909TIP3    H214692   6.544   4.268   5.730 -1.3289  2.0768  1.2991
 4910TIP3   OH214693   2.988   0.637   3.911  0.3481 -0.0776 -0.2140
 4910TIP3    H114694   2.950   0.558   3.950  0.4973 -0.8718 -1.5983
 4910TIP3    H214695   2.919   0.671   3.854 -0.4130  1.8980  1.7170
 4911TIP3   OH214696   3.930   2.777   1.247  0.0549  0.1305  0.3632
 4911TIP3    H114697   3.954   2.845   1.311 -0.2070 -1.0863  1.8002
 4911TIP3    H214698   3.836   2.762   1.262 -0.3666  0.8408 -1.3308
 4912TIP3   OH214699   3.095   6.625   5.094 -0.3081 -0.5618  0.0688
 4912TIP3    H114700   3.065   6.549   5.145  1.6393 -1.3362  0.1484
 4912TIP3    H214701   3.086   6.597   5.003 -0.0209 -0.7413  0.0913
 4913TIP3   OH214702   1.615   1.278   5.012 -0.4679 -0.1205  0.3282
 4913TIP3    H114703   1.702   1.252   5.043 -0.3707 -0.3677 -0.1459
 4913TIP3    H214704   1.597   1.360   5.058  0.4479  0.4630 -0.3005
 4914TIP3   OH214705   2.315   4.887   1.699 -0.1770  0.0463  1.0447
 4914TIP3    H114706   2.273   4.888   1.785 -0.5626 -0.1550  0.8603
 4914TIP3    H214707   2.273   4.815   1.652 -0.5225  0.6464  0.4166
 4915TIP3   OH214708   6.812   3.809   2.364 -0.0291  0.0457  0.2472
 4915TIP3    H114709   6.858   3.728   2.343  1.7543  0.8452  0.8609
 4915TIP3    H214710   6.785   3.844   2.279 -0.9357 -1.2209 -0.0154
 4916TIP3   OH214711   7.077   3.195   5.376  0.2285  0.7042  0.1044
 4916TIP3    H114712   7.024   3.168   5.451 -0.0808 -1.0707 -0.7016
 4916TIP3    H214713   7.117   3.278   5.403  0.3294 -0.0006  2.3216
 4917TIP3   OH214714   4.411   5.497   1.956 -0.3219 -0.3808 -1.0303
 4917TIP3    H114715   4.499   5.529   1.940 -0.0564  0.8167  2.1539
 4917TIP3    H214716   4.354   5.565   1.920 -0.0821 -1.3094 -3.3913
 4918TIP3   OH214717   1.854   6.056   1.856  0.0047 -0.0426 -0.1171
 4918TIP3    H114718   1.936   6.007   1.860  0.9633  1.4163 -0.8340
 4918TIP3    H214719   1.844   6.093   1.943  0.3221  0.0917 -0.1349
 4919TIP3   OH214720   2.605   2.639   2.354 -0.1163  0.6625  0.2090
 4919TIP3    H114721   2.516   2.604   2.352  0.1202  0.0140 -1.6643
 4919TIP3    H214722   2.594   2.734   2.349 -0.7049  0.5924  0.0812
 4920TIP3   OH214723   5.234   6.534   3.573 -0.6033  0.3904 -0.0102
 4920TIP3    H114724   5.207   6.615   3.617  0.5905  1.2254 -0.7784
 4920TIP3    H214725   5.258   6.475   3.645  0.3429  1.3772  0.5143
 4921TIP3   OH214726   1.208   4.572   4.337  0.0863  0.4708  0.1501
 4921TIP3    H114727   1.129   4.620   4.362 -1.0509 -0.3759 -1.5798
 4921TIP3    H214728   1.219   4.505   4.405 -0.3245  0.9802  0.7242
 4922TIP3   OH214729   2.564   0.535   1.079  0.0869 -0.5633 -0.0955
 4922TIP3    H114730   2.478   0.507   1.049  0.4592 -1.1170 -0.6756
 4922TIP3    H214731   2.570   0.502   1.169 -0.6567  0.2686  0.2747
 4923TIP3   OH214732   2.626   5.308   3.422 -0.4503  0.4633  0.0105
 4923TIP3    H114733   2.641   5.387   3.369  2.7163  0.7842  1.1826
 4923TIP3    H214734   2.672   5.239   3.374 -0.7104 -0.0265  0.4632
 4924TIP3   OH214735   4.123   2.134   5.617  0.1506  0.7621 -0.0347
 4924TIP3    H114736   4.038   2.093   5.632  0.7075 -0.2333  0.4795
 4924TIP3    H214737   4.128   2.144   5.522 -0.9569  1.7620 -0.0081
 4925TIP3   OH214738   0.801   6.287   2.102 -0.3739 -0.2975  0.0460
 4925TIP3    H114739   0.732   6.341   2.140 -0.1062 -0.6151  1.0098
 4925TIP3    H214740   0.870   6.349   2.079 -1.2100  0.1020 -1.5159
 4926TIP3   OH214741   7.209   2.665   0.026  0.1882 -0.2040  0.2097
 4926TIP3    H114742   7.158   2.674  -0.055  1.0656 -0.7017 -0.4045
 4926TIP3    H214743   7.152   2.616   0.085 -0.6684  0.6115  0.0959
 4927TIP3   OH214744   1.180   5.529   5.459  0.3762 -0.2865  0.0132
 4927TIP3    H114745   1.096   5.491   5.485 -0.1661 -0.2842 -1.6259
 4927TIP3    H214746   1.246   5.472   5.501 -0.4354 -1.5402 -0.3696
 4928TIP3   OH214747   1.402   1.703   5.509  0.0933  0.6954 -0.0847
 4928TIP3    H114748   1.322   1.677   5.462  0.2993 -1.6396  0.7256
 4928TIP3    H214749   1.372   1.726   5.596  0.3635 -1.8845  0.7929
 4929TIP3   OH214750   0.842   6.367   2.447 -0.1097 -0.2887 -0.5771
 4929TIP3    H114751   0.866   6.436   2.384 -0.7893  0.3957 -0.1011
 4929TIP3    H214752   0.845   6.286   2.396  2.1884 -0.1366 -0.7984
 4930TIP3   OH214753   4.660   5.258   5.604 -0.2355  0.0400 -0.6332
 4930TIP3    H114754   4.573   5.257   5.563  0.4756 -0.1653 -2.2163
 4930TIP3    H214755   4.717   5.295   5.537  1.0762 -0.7131  0.0338
 4931TIP3   OH214756   5.000   3.707   2.422 -0.7611 -0.6491  0.3221
 4931TIP3    H114757   5.079   3.652   2.429  0.8734  1.3986 -0.7896
 4931TIP3    H214758   4.947   3.665   2.355  0.8055 -0.5425 -1.0469
 4932TIP3   OH214759   0.710   1.326   5.527 -0.5621  0.3818 -0.3819
 4932TIP3    H114760   0.747   1.313   5.614  1.6539  0.1058 -1.2917
 4932TIP3    H214761   0.625   1.283   5.529  0.3017 -1.3755  1.0582
 4933TIP3   OH214762   4.243   0.562   3.328  0.4334 -0.0170  0.2127
 4933TIP3    H114763   4.154   0.580   3.359  0.4746 -0.4266  0.5649
 4933TIP3    H214764   4.284   0.512   3.399  0.8020 -0.2141 -0.1366
 4934TIP3   OH214765   3.075   4.961   0.031 -0.1481  0.8100 -0.9273
 4934TIP3    H114766   2.983   4.945   0.012 -0.6093  1.4594  0.5508
 4934TIP3    H214767   3.104   5.020  -0.038 -0.5171 -0.2480 -2.0255
 4935TIP3   OH214768   4.349   0.860   4.409  0.2522 -0.0229  0.0812
 4935TIP3    H114769   4.281   0.920   4.378  0.1655 -0.8162 -1.3361
 4935TIP3    H214770   4.325   0.775   4.371  2.4634 -0.1523 -1.1472
 4936TIP3   OH214771   4.024   3.068   4.291  0.1810  0.3937  0.3669
 4936TIP3    H114772   3.950   3.097   4.343  1.5997  3.8522  0.7553
 4936TIP3    H214773   4.010   3.107   4.205  1.4024  0.9610  0.3989
 4937TIP3   OH214774   1.096   4.052   4.985 -0.2168  0.1617  0.1144
 4937TIP3    H114775   1.117   4.109   4.911 -0.9995  0.3096 -0.0072
 4937TIP3    H214776   1.044   4.107   5.044 -0.4817 -0.2504  0.2751
 4938TIP3   OH214777   5.798   4.702   5.312  0.8081 -0.6768 -0.6745
 4938TIP3    H114778   5.824   4.730   5.225  0.0016  0.6437 -0.5200
 4938TIP3    H214779   5.704   4.722   5.317  0.9569 -0.1903  0.6825
 4939TIP3   OH214780   4.737   4.383   0.521 -0.1845  0.7040  0.5646
 4939TIP3    H114781   4.756   4.477   0.521  0.5793  0.5571  1.3026
 4939TIP3    H214782   4.719   4.362   0.613  2.2494 -0.3774  0.8541
 4940TIP3   OH214783   6.235   3.055   4.525 -0.2599 -0.2600  0.2197
 4940TIP3    H114784   6.235   3.076   4.431  0.0683 -2.4971 -0.3493
 4940TIP3    H214785   6.246   3.139   4.569  0.1223  0.7846 -1.7597
 4941TIP3   OH214786   5.708   3.501   4.882  0.0809  0.3369 -0.4549
 4941TIP3    H114787   5.643   3.492   4.812 -0.9425  0.5989  0.4504
 4941TIP3    H214788   5.669   3.458   4.958  2.4252 -2.7229 -0.7635
 4942TIP3   OH214789   4.476   5.184   1.662 -0.8707  0.4891 -0.5670
 4942TIP3    H114790   4.414   5.182   1.735  0.1792 -0.2438  0.3374
 4942TIP3    H214791   4.422   5.193   1.584 -2.1488 -0.6807  0.1531
 4943TIP3   OH214792   2.945   5.874   2.248 -0.3328 -0.7377  0.2528
 4943TIP3    H114793   3.012   5.806   2.250  1.1548  0.6772  1.7346
 4943TIP3    H214794   2.920   5.880   2.156  0.6127 -2.2102 -0.1415
 4944TIP3   OH214795   6.787   3.765   5.607  0.6572 -0.5565  0.2107
 4944TIP3    H114796   6.856   3.773   5.673  1.9682  1.5301 -1.2702
 4944TIP3    H214797   6.831   3.780   5.523 -1.4176 -0.1083 -0.8919
 4945TIP3   OH214798   3.162   3.367   0.139  0.1044 -0.0331 -0.1540
 4945TIP3    H114799   3.177   3.279   0.103  0.6370  0.0696 -0.1993
 4945TIP3    H214800   3.089   3.356   0.199  0.2556 -0.5424 -0.0529
 4946TIP3   OH214801   0.089   6.523   0.227 -0.3178  0.8679  0.2958
 4946TIP3    H114802   0.085   6.442   0.177  0.3334  0.7042  0.4990
 4946TIP3    H214803   0.178   6.525   0.263 -0.6615  1.1571  1.1531
 4947TIP3   OH214804   5.635   1.481   2.024 -0.5081 -0.4681  0.1622
 4947TIP3    H114805   5.683   1.406   1.987  1.7076  1.2007 -0.5397
 4947TIP3    H214806   5.635   1.465   2.118  0.4656 -1.0616  0.0787
 4948TIP3   OH214807   6.639   0.271   2.242 -0.7154 -0.1112  0.3462
 4948TIP3    H114808   6.692   0.328   2.187  0.5597 -1.8681 -0.3697
 4948TIP3    H214809   6.671   0.288   2.331 -1.2082  1.1115  0.3118
 4949TIP3   OH214810   4.463   2.639   0.851  0.2583  0.0643 -0.4842
 4949TIP3    H114811   4.417   2.568   0.806  0.4963 -0.1410 -0.4020
 4949TIP3    H214812   4.505   2.597   0.926 -0.8238  0.5492  0.4118
 4950TIP3   OH214813   5.197   6.099   2.144  0.1653  0.3516  0.0318
 4950TIP3    H114814   5.286   6.122   2.170 -0.0636  0.7747  0.4723
 4950TIP3    H214815   5.203   6.082   2.050  0.8605 -0.4184  0.2052
 4951TIP3   OH214816   4.680   2.612   3.593  0.2445  0.4943 -0.0829
 4951TIP3    H114817   4.655   2.686   3.537 -2.3180 -0.8630 -0.8899
 4951TIP3    H214818   4.686   2.649   3.681  0.2227  1.8753 -0.6346
 4952TIP3   OH214819   1.543   0.166   3.353 -0.0689  0.7458 -0.4131
 4952TIP3    H114820   1.615   0.131   3.404 -0.6192 -1.1488 -0.8561
 4952TIP3    H214821   1.465   0.124   3.389 -0.7930  1.6227 -0.9074
 4953TIP3   OH214822   6.919   3.343   2.915 -0.1399 -0.0592  0.3210
 4953TIP3    H114823   6.978   3.329   2.841  0.9391  1.8366  0.7404
 4953TIP3    H214824   6.976   3.349   2.991 -1.0492  0.0336  1.0189
 4954TIP3   OH214825   1.560   6.425   3.073  0.1260  0.2017  0.5454
 4954TIP3    H114826   1.551   6.494   3.139 -1.3822 -0.0250  0.5967
 4954TIP3    H214827   1.618   6.360   3.114  1.8449  1.5431  0.3779
 4955TIP3   OH214828   3.801   5.983   4.459  0.3000  0.4750 -0.0358
 4955TIP3    H114829   3.766   5.999   4.371 -1.1392 -2.3860 -0.0905
 4955TIP3    H214830   3.725   5.958   4.511  1.2716  1.1591  1.8280
 4956TIP3   OH214831   2.624   2.898   2.626 -0.1354  0.2181 -0.4137
 4956TIP3    H114832   2.544   2.904   2.572  0.5973  1.2846 -1.4359
 4956TIP3    H214833   2.673   2.977   2.604  1.4812 -0.7039 -0.2566
 4957TIP3   OH214834   6.123   4.715   5.039 -1.0372 -0.0885  0.3076
 4957TIP3    H114835   6.157   4.683   5.123 -0.2680 -0.9193 -0.3027
 4957TIP3    H214836   6.119   4.637   4.984 -3.6468  0.0276  0.2115
 4958TIP3   OH214837   0.919   0.889   4.760  0.3193 -0.0492  0.5118
 4958TIP3    H114838   0.926   0.849   4.674  1.3633 -0.3333  0.7203
 4958TIP3    H214839   0.827   0.916   4.766  0.3800  0.5507 -0.9342
 4959TIP3   OH214840   3.423   0.462   4.094  0.3830 -0.2715  0.5150
 4959TIP3    H114841   3.398   0.554   4.096  0.3241 -0.2839  0.3332
 4959TIP3    H214842   3.347   0.417   4.058  0.6570 -0.3115 -0.0274
 4960TIP3   OH214843   1.750   2.368   0.845  0.0834  0.1054  0.5212
 4960TIP3    H114844   1.702   2.378   0.927 -1.7821  0.5359 -0.5738
 4960TIP3    H214845   1.744   2.275   0.825 -0.5539  0.2063  0.2397
 4961TIP3   OH214846   3.189   1.408   2.097  0.2405  0.2384 -0.0570
 4961TIP3    H114847   3.260   1.352   2.067 -2.2366 -3.4378  0.3049
 4961TIP3    H214848   3.167   1.375   2.184 -2.2456  0.8364 -0.3790
 4962TIP3   OH214849   6.845   2.378   3.935 -1.5771 -0.0808 -0.5929
 4962TIP3    H114850   6.811   2.428   4.008  0.6316 -1.7137  1.7521
 4962TIP3    H214851   6.839   2.287   3.963  1.2421 -0.6459 -1.5019
 4963TIP3   OH214852   4.716   5.790   0.430  0.2193 -0.3972 -0.0403
 4963TIP3    H114853   4.664   5.789   0.510 -0.0639  0.2018 -0.2120
 4963TIP3    H214854   4.676   5.724   0.374  0.7711 -1.2254  0.5294
 4964TIP3   OH214855   0.681   1.883   0.442 -0.5723  0.0445 -0.6700
 4964TIP3    H114856   0.606   1.871   0.500  0.0377 -0.5362  0.0154
 4964TIP3    H214857   0.748   1.823   0.476  0.7215  1.5910 -0.3735
 4965TIP3   OH214858   3.219   5.053   4.989 -0.7945  0.2034  0.3106
 4965TIP3    H114859   3.273   4.999   5.047 -0.1358 -3.1758 -3.0413
 4965TIP3    H214860   3.279   5.119   4.955 -0.6728  0.8947  1.7825
 4966TIP3   OH214861   4.704   3.729   5.237 -0.0242  0.2044  0.1170
 4966TIP3    H114862   4.612   3.727   5.261  0.2594  0.8403  1.3388
 4966TIP3    H214863   4.706   3.769   5.150 -0.8737  0.4787  0.2216
 4967TIP3   OH214864   0.122   4.274   0.282  0.2795 -0.5655  0.4736
 4967TIP3    H114865   0.140   4.334   0.210  0.8164 -0.6118  0.5667
 4967TIP3    H214866   0.199   4.217   0.286  0.5190 -0.1957  1.4463
 4968TIP3   OH214867   4.948   4.254   5.184  0.0172 -0.0377  0.0087
 4968TIP3    H114868   5.015   4.319   5.163 -0.2145  0.6874  1.4103
 4968TIP3    H214869   4.979   4.173   5.144  0.2512  0.9397 -1.9032
 4969TIP3   OH214870   1.355   2.898   0.142  0.3050  0.0963  0.0596
 4969TIP3    H114871   1.299   2.900   0.064  0.0872  0.1434  0.2141
 4969TIP3    H214872   1.336   2.981   0.187 -0.5368 -0.4865  0.8213
 4970TIP3   OH214873   6.706   5.168   4.885 -0.0877  0.0275  0.0838
 4970TIP3    H114874   6.649   5.245   4.888 -1.0856 -0.7077  0.4612
 4970TIP3    H214875   6.793   5.204   4.864 -0.3801  1.3302  0.9365
 4971TIP3   OH214876   2.364   2.862   5.323  0.2975  0.0836  0.6116
 4971TIP3    H114877   2.371   2.829   5.412  0.9561  0.5715  0.7433
 4971TIP3    H214878   2.364   2.957   5.332 -0.0512  0.1328  0.1217
 4972TIP3   OH214879   1.197   2.007   2.712  0.4821  0.5333 -1.1666
 4972TIP3    H114880   1.198   1.915   2.739  0.3738  0.3399 -1.7983
 4972TIP3    H214881   1.104   2.026   2.696 -0.0217  1.8609  2.5607
 4973TIP3   OH214882   3.788   3.289   2.080  0.0360  0.0522 -0.8535
 4973TIP3    H114883   3.799   3.197   2.055 -0.4611 -0.0564 -0.6852
 4973TIP3    H214884   3.695   3.297   2.102  0.4179  0.1673  0.8738
 4974TIP3   OH214885   3.055   0.476   4.621 -0.1800 -0.0178 -0.6581
 4974TIP3    H114886   3.055   0.524   4.704  0.2726  0.3514 -0.8634
 4974TIP3    H214887   2.965   0.448   4.609 -0.5142  1.0130 -0.6528
 4975TIP3   OH214888   6.384   6.300   1.293  0.3075  0.6939 -0.5182
 4975TIP3    H114889   6.390   6.232   1.226  0.9696  0.2897 -0.0650
 4975TIP3    H214890   6.412   6.257   1.373  0.6480  1.4743 -0.2055
 4976TIP3   OH214891   1.443   4.202   1.717 -0.8511 -0.7129  0.4098
 4976TIP3    H114892   1.396   4.146   1.656 -0.3993  0.3401 -0.9314
 4976TIP3    H214893   1.535   4.175   1.709 -0.4691  0.8764 -1.0321
 4977TIP3   OH214894   3.514   5.723   3.005 -0.0089  0.6574 -0.1052
 4977TIP3    H114895   3.609   5.717   3.019  0.0641 -0.5808 -1.0028
 4977TIP3    H214896   3.477   5.678   3.081  0.2856 -2.4476 -1.6195
 4978TIP3   OH214897   3.707   0.099   4.331 -0.5882  0.0932  0.2779
 4978TIP3    H114898   3.625   0.051   4.341 -1.1995  0.8443 -0.9172
 4978TIP3    H214899   3.680   0.184   4.295  0.8486 -0.3703 -2.1214
 4979TIP3   OH214900   5.017   1.144   4.718  0.2287  0.0445  0.3589
 4979TIP3    H114901   4.998   1.237   4.720  0.6653  0.1258  0.8702
 4979TIP3    H214902   4.934   1.103   4.692 -0.5333  0.4296  2.0512
 4980TIP3   OH214903   2.938   4.568   0.385  0.0536  0.3742 -0.3340
 4980TIP3    H114904   2.885   4.626   0.440  1.2819  1.3392 -0.1293
 4980TIP3    H214905   2.960   4.494   0.442 -0.5411  0.2577 -0.2410
 4981TIP3   OH214906   1.301   6.137   4.971  0.3663  0.0571  0.2804
 4981TIP3    H114907   1.247   6.140   5.050  1.0969 -1.5307  0.8738
 4981TIP3    H214908   1.278   6.054   4.929  2.4221 -0.7524  0.6333
 4982TIP3   OH214909   3.473   1.122   3.522 -0.3671  0.3682  0.1763
 4982TIP3    H114910   3.529   1.063   3.471  0.0910  0.6692  0.3225
 4982TIP3    H214911   3.390   1.075   3.531  0.1820 -0.5139  0.7935
 4983TIP3   OH214912   0.110   6.437   2.529  0.4893  0.2782 -0.1737
 4983TIP3    H114913   0.167   6.361   2.533  1.3812  0.7061 -2.7780
 4983TIP3    H214914   0.032   6.406   2.484  0.6490  0.7600 -0.7987
 4984TIP3   OH214915   5.854   0.807   1.060  0.3180  0.4530  0.1838
 4984TIP3    H114916   5.767   0.845   1.043  0.5676  1.5251  1.1476
 4984TIP3    H214917   5.877   0.840   1.147  1.9131  0.5894 -0.2734
 4985TIP3   OH214918   2.485   6.244   2.363  0.0135  0.4547  0.1476
 4985TIP3    H114919   2.412   6.258   2.423 -0.4100  0.0969 -0.2715
 4985TIP3    H214920   2.563   6.247   2.419 -0.3719  0.1037  0.7237
 4986TIP3   OH214921   3.146   1.717   3.508  0.2514 -0.4028  0.2376
 4986TIP3    H114922   3.139   1.793   3.566  0.7376 -1.5159  1.8207
 4986TIP3    H214923   3.237   1.719   3.476  0.4409 -0.6543  0.7594
 4987TIP3   OH214924   4.483   4.090   3.050  0.6245 -0.1229 -0.1566
 4987TIP3    H114925   4.452   4.057   2.965 -2.2654 -0.7908  1.0420
 4987TIP3    H214926   4.519   4.013   3.094  2.4133  0.2854 -0.8410
 4988TIP3   OH214927   6.043   4.128   1.294  0.7353  0.3067  0.4741
 4988TIP3    H114928   6.058   4.109   1.201  2.0209  0.3312  0.6600
 4988TIP3    H214929   5.963   4.181   1.295 -1.3896 -2.6572 -0.2759
 4989TIP3   OH214930   6.856   0.983   3.162  0.3381 -0.1472  0.6287
 4989TIP3    H114931   6.784   1.027   3.208 -0.9205 -1.3759 -0.0710
 4989TIP3    H214932   6.814   0.944   3.085  2.0425  0.3152 -0.5877
 4990TIP3   OH214933   1.690   2.471   5.148 -0.5858  0.0283 -0.2477
 4990TIP3    H114934   1.687   2.554   5.195  0.1246 -0.9949  1.7242
 4990TIP3    H214935   1.781   2.443   5.156 -0.4263 -0.2111 -2.3074
 4991TIP3   OH214936   4.064   4.266   2.440  0.9738 -0.1300 -0.2554
 4991TIP3    H114937   4.119   4.345   2.432 -0.2558  1.0832  2.0685
 4991TIP3    H214938   4.076   4.239   2.531  0.2242 -1.7849 -0.6205
 4992TIP3   OH214939   4.728   3.137   1.357  0.3648  0.6710  0.8936
 4992TIP3    H114940   4.687   3.074   1.298  1.9076  1.4046 -1.0610
 4992TIP3    H214941   4.779   3.082   1.418  1.4072 -0.0435 -0.5603
 4993TIP3   OH214942   1.244   2.782   1.500 -0.2093  0.8789  0.2845
 4993TIP3    H114943   1.261   2.814   1.412 -0.4744 -0.3953 -0.2386
 4993TIP3    H214944   1.326   2.741   1.527 -0.6695 -0.3059 -0.0721
 4994TIP3   OH214945   2.399   4.648   3.288  0.1565  0.6224 -0.1185
 4994TIP3    H114946   2.476   4.600   3.319 -0.1719  0.0479 -0.1957
 4994TIP3    H214947   2.402   4.638   3.193 -0.9235 -0.8149 -0.0295
 4995TIP3   OH214948   3.064   2.797   1.591 -0.1907  0.4837  0.6115
 4995TIP3    H114949   3.100   2.759   1.670  0.0128  0.4968  0.5262
 4995TIP3    H214950   3.129   2.861   1.563 -0.8953  1.5086  1.2161
 4996TIP3   OH214951   0.204   4.583   4.880  0.4602 -0.2589  0.6349
 4996TIP3    H114952   0.165   4.528   4.812  0.0839 -1.1650  1.5511
 4996TIP3    H214953   0.136   4.589   4.948  0.3821  1.5866  0.4513
 4997TIP3   OH214954   5.088   0.350   0.838  0.0317 -0.7837  0.1474
 4997TIP3    H114955   5.114   0.303   0.759  0.7872  1.7922 -1.2299
 4997TIP3    H214956   5.171   0.367   0.883  0.3457  2.5477 -1.4097
 4998TIP3   OH214957   1.914   0.055   0.788  0.0963  0.3743 -0.1826
 4998TIP3    H114958   1.860  -0.007   0.738 -1.8775  0.2043  1.9975
 4998TIP3    H214959   1.939   0.008   0.867  0.5144  1.6093  0.4530
 4999TIP3   OH214960   5.080   0.641   4.225 -0.0843  0.4369 -0.0192
 4999TIP3    H114961   5.142   0.628   4.297 -0.7387  2.1703  0.9287
 4999TIP3    H214962   5.002   0.677   4.268 -2.0920 -2.3328 -1.0483
 5000TIP3   OH214963   4.960   1.305   5.109 -0.0319 -0.4592 -0.0446
 5000TIP3    H114964   5.010   1.332   5.032 -0.5823 -1.1644 -0.6601
 5000TIP3    H214965   4.875   1.280   5.075 -0.7807  0.5952  0.9731
 5001TIP3   OH214966   0.907   6.270   1.373  0.5179  0.0559  0.7008
 5001TIP3    H114967   0.997   6.283   1.404  1.1045 -0.5193 -0.6963
 5001TIP3    H214968   0.915   6.267   1.278 -0.9911 -0.0236  0.5641
 5002TIP3   OH214969   3.949   1.334   5.209  0.1446  0.1416 -0.1030
 5002TIP3    H114970   3.933   1.271   5.138 -2.1390  0.1058  0.3898
 5002TIP3    H214971   3.999   1.284   5.274  1.2505 -0.1584 -1.1407
 5003TIP3   OH214972   0.812   6.684   1.307 -0.5154 -0.2279  0.4209
 5003TIP3    H114973   0.826   6.596   1.343  0.2704 -0.4853 -0.4771
 5003TIP3    H214974   0.717   6.696   1.308 -0.5980 -0.8678  1.0551
 5004TIP3   OH214975   4.674   1.427   2.273  0.2326  0.6125  0.4087
 5004TIP3    H114976   4.719   1.394   2.195  1.2449 -1.7235  1.8723
 5004TIP3    H214977   4.617   1.355   2.300 -0.7943  1.7257  1.3458
 5005TIP3   OH214978   4.570   5.456   4.861 -0.5048  0.0308  0.3539
 5005TIP3    H114979   4.569   5.361   4.875 -1.3178 -0.0867 -0.4346
 5005TIP3    H214980   4.504   5.490   4.921  1.4031  0.4017  2.3974
 5006TIP3   OH214981   6.945   0.459   2.281 -0.0251  0.6541 -0.2005
 5006TIP3    H114982   6.874   0.433   2.223 -0.5015  1.5826 -0.0565
 5006TIP3    H214983   7.013   0.492   2.222  0.0811  0.2470 -0.3076
 5007TIP3   OH214984   6.352   3.445   2.298 -0.0809  0.2963  0.3049
 5007TIP3    H114985   6.288   3.477   2.362  0.3881  0.8202  0.5184
 5007TIP3    H214986   6.306   3.446   2.214 -0.4336  0.4068  0.4991
 5008TIP3   OH214987   4.774   3.157   4.302 -0.0890 -0.9495 -0.6146
 5008TIP3    H114988   4.692   3.120   4.271 -0.8037 -1.0490  1.2832
 5008TIP3    H214989   4.751   3.246   4.330  0.6700 -0.6171 -1.0308
 5009TIP3   OH214990   0.837   2.479   3.605  0.1437  0.5540  0.5970
 5009TIP3    H114991   0.843   2.535   3.528  0.9864  2.0728  1.6991
 5009TIP3    H214992   0.857   2.538   3.678  1.4512 -1.2683  1.7934
 5010TIP3   OH214993   5.081   2.600   4.872  0.5923  0.1316  0.1248
 5010TIP3    H114994   5.162   2.624   4.917  0.7535  0.7308 -0.4831
 5010TIP3    H214995   5.021   2.574   4.943  1.0970  0.3146  0.6246
 5011TIP3   OH214996   5.480   6.785   0.800  0.3154 -0.3562 -0.2845
 5011TIP3    H114997   5.530   6.729   0.742  2.4869  0.7482  0.4192
 5011TIP3    H214998   5.530   6.786   0.882 -0.6015  1.1686  0.3036
 5012TIP3   OH214999   6.967   6.664   2.767  0.3401 -0.2294  0.5083
 5012TIP3    H115000   7.058   6.672   2.797 -0.1394 -0.5495  2.1431
 5012TIP3    H215001   6.920   6.730   2.818 -0.3751 -0.1535 -0.2334
 5013TIP3   OH215002   4.586   5.902   3.249  0.6552  0.8136 -0.0228
 5013TIP3    H115003   4.495   5.922   3.271  0.6832  0.1908  0.7138
 5013TIP3    H215004   4.629   5.988   3.244 -0.0573  1.1401 -0.8343
 5014TIP3   OH215005   0.918   6.650   3.410 -0.4862 -0.4211 -0.2860
 5014TIP3    H115006   0.940   6.672   3.319  1.7738 -2.0200 -0.1944
 5014TIP3    H215007   0.945   6.727   3.460  0.9627 -0.6365 -0.6869
 5015TIP3   OH215008   2.932   5.474   1.547 -0.5961  0.1573  0.4091
 5015TIP3    H115009   2.877   5.552   1.546 -0.1278  0.6494  3.1994
 5015TIP3    H215010   2.894   5.419   1.616  1.6561  0.0010  1.6221
 5016TIP3   OH215011   0.800   2.737   1.065 -0.2918  0.4261  0.2285
 5016TIP3    H115012   0.763   2.713   1.150 -1.2186  0.1644 -0.2436
 5016TIP3    H215013   0.892   2.710   1.071 -0.8588 -1.6604  0.3795
 5017TIP3   OH215014   2.445   1.788   3.588  0.1096  0.4118  0.0302
 5017TIP3    H115015   2.493   1.760   3.666 -0.6795 -2.7085 -0.4803
 5017TIP3    H215016   2.406   1.872   3.612  0.0223 -0.3721  2.9557
 5018TIP3   OH215017   4.292   0.087   1.340  0.1896  0.0233 -0.4168
 5018TIP3    H115018   4.361   0.125   1.394 -0.4761  0.0193  0.4512
 5018TIP3    H215019   4.284  -0.003   1.370  0.4144 -0.2475 -1.1339
 5019TIP3   OH215020   4.017   0.025   4.390 -0.6785 -0.1646 -0.2108
 5019TIP3    H115021   4.021   0.091   4.321 -1.9312 -0.3898 -0.5236
 5019TIP3    H215022   3.930   0.035   4.428 -1.5635 -2.7040 -1.3620
 5020TIP3   OH215023   4.975   6.365   2.061  0.8403 -0.4828 -0.4073
 5020TIP3    H115024   4.961   6.460   2.058  0.9751 -0.4578 -0.2656
 5020TIP3    H215025   5.011   6.349   2.148 -2.1718 -1.0645  0.8688
 5021TIP3   OH215026   7.150   4.533   1.730  0.3340  0.8977  0.2110
 5021TIP3    H115027   7.189   4.476   1.663  0.8787  1.8727 -0.3463
 5021TIP3    H215028   7.067   4.562   1.692 -1.0227 -1.1816  1.4011
 5022TIP3   OH215029   6.047   5.449   2.089  0.5333  0.2697  0.3872
 5022TIP3    H115030   6.139   5.444   2.117  1.9995 -0.2053 -3.7678
 5022TIP3    H215031   6.035   5.539   2.061 -0.7935  0.6768  2.0930
 5023TIP3   OH215032   1.145   6.243   0.430 -0.1762 -0.0280 -0.3445
 5023TIP3    H115033   1.174   6.152   0.440  1.6814  0.4890 -0.6881
 5023TIP3    H215034   1.138   6.276   0.519  1.0145  0.0278 -0.2602
 5024TIP3   OH215035   3.723   2.964   0.554  0.4977  0.1932  0.0920
 5024TIP3    H115036   3.686   2.878   0.574  2.5502 -0.6708  0.4940
 5024TIP3    H215037   3.769   2.989   0.635  0.2607  1.5137 -0.1513
 5025TIP3   OH215038   0.622   0.066   5.623  0.0117  0.0501 -0.4329
 5025TIP3    H115039   0.646   0.077   5.716  0.4201  0.2677 -0.5626
 5025TIP3    H215040   0.548   0.125   5.610 -0.1285 -0.0751 -0.2129
 5026TIP3   OH215041   4.712   1.090   2.034  0.3737 -0.0185  0.4946
 5026TIP3    H115042   4.667   1.074   1.951  0.9293  0.5964  0.0769
 5026TIP3    H215043   4.692   1.012   2.086 -1.7739  0.5306  0.5854
 5027TIP3   OH215044   3.388   4.088   4.046  0.4703 -0.2271  0.6374
 5027TIP3    H115045   3.407   4.015   3.987 -0.9466 -0.7550  0.8013
 5027TIP3    H215046   3.474   4.123   4.070  1.1118 -0.1631 -1.5144
 5028TIP3   OH215047   1.739   5.144   4.852  0.2747 -0.0987 -0.2285
 5028TIP3    H115048   1.786   5.061   4.846 -1.1011 -1.0321  1.1864
 5028TIP3    H215049   1.714   5.164   4.762  2.6795  0.0707 -0.9325
 5029TIP3   OH215050   4.336   6.630   0.944  0.1631 -0.2196 -0.0186
 5029TIP3    H115051   4.278   6.594   1.010  1.3878 -0.0066  1.2117
 5029TIP3    H215052   4.326   6.725   0.952  0.4658 -0.1877  0.0014
 5030TIP3   OH215053   5.091   0.646   2.961 -0.0187 -0.1118  0.0454
 5030TIP3    H115054   5.150   0.719   2.978  1.2825 -1.6018  2.4825
 5030TIP3    H215055   5.148   0.570   2.951 -1.4227 -1.2170  0.0392
 5031TIP3   OH215056   2.317   1.421   0.687  0.0636  0.3377 -0.3891
 5031TIP3    H115057   2.382   1.432   0.618  0.2186 -0.9541 -0.4768
 5031TIP3    H215058   2.365   1.378   0.759 -0.7401 -0.9405 -0.5867
 5032TIP3   OH215059   4.310   2.253   0.493  0.1291  0.3013  0.1934
 5032TIP3    H115060   4.339   2.201   0.419  0.4079  0.3422  0.2742
 5032TIP3    H215061   4.236   2.204   0.529 -0.5009  0.6698 -0.5753
 5033TIP3   OH215062   5.475   0.840   5.561  0.1798 -0.1137 -0.1515
 5033TIP3    H115063   5.506   0.818   5.473  0.4351 -0.4970  0.0305
 5033TIP3    H215064   5.509   0.928   5.578 -2.1505  1.1371 -1.5037
 5034TIP3   OH215065   5.046   6.019   3.849  0.0945 -0.5577 -0.0346
 5034TIP3    H115066   4.976   5.985   3.793  1.4598  0.8394 -2.7838
 5034TIP3    H215067   5.052   6.112   3.827  3.8187 -0.9150 -1.1783
 5035TIP3   OH215068   3.925   2.248   2.425  0.3230  0.1007 -0.0487
 5035TIP3    H115069   3.877   2.292   2.354  0.8401  0.1473 -0.3735
 5035TIP3    H215070   3.982   2.186   2.379  0.0505 -0.4708  0.3727
 5036TIP3   OH215071   2.242   2.782   2.792 -0.7223  0.4085 -0.4080
 5036TIP3    H115072   2.315   2.827   2.833 -0.6797  2.2501 -2.3420
 5036TIP3    H215073   2.164   2.821   2.831 -0.7543 -1.0351  1.1086
 5037TIP3   OH215074   5.442   4.872   1.963  0.3705  0.1195  0.0974
 5037TIP3    H115075   5.432   4.832   2.049  2.8627 -2.4446 -0.6344
 5037TIP3    H215076   5.505   4.943   1.976 -1.3139  1.5628  0.7712
 5038TIP3   OH215077   1.572   0.229   2.811 -0.4597 -0.4779 -0.1476
 5038TIP3    H115078   1.556   0.315   2.771 -1.0829 -0.6395 -0.2708
 5038TIP3    H215079   1.487   0.186   2.806 -0.2918 -0.8795  0.4573
 5039TIP3   OH215080   4.570   3.620   1.533 -0.3714  1.0488  0.2244
 5039TIP3    H115081   4.656   3.658   1.549 -0.0378 -0.3132  2.0276
 5039TIP3    H215082   4.515   3.656   1.603 -0.0047 -1.6981  2.0942
 5040TIP3   OH215083   1.475   4.016   5.352 -0.4785  0.3824  0.2273
 5040TIP3    H115084   1.555   3.972   5.325 -1.5129  0.1955 -2.9399
 5040TIP3    H215085   1.504   4.098   5.391  1.2722 -0.1366  0.0680
 5041TIP3   OH215086   1.556   1.955   3.323  0.1292 -0.3317 -0.0507
 5041TIP3    H115087   1.527   1.873   3.283  2.5538 -1.9964  1.3178
 5041TIP3    H215088   1.596   2.004   3.251 -3.3620  0.8863 -1.4068
 5042TIP3   OH215089   3.951   5.461   2.954 -0.4686  0.5884  0.0791
 5042TIP3    H115090   3.969   5.499   3.041  0.2852  0.1015  0.1438
 5042TIP3    H215091   4.037   5.435   2.922 -0.7357  0.8390 -0.8579
 5043TIP3   OH215092   6.737   5.834   4.336 -0.2952  0.0652  0.9507
 5043TIP3    H115093   6.797   5.872   4.272  0.4014 -0.5188  1.2385
 5043TIP3    H215094   6.674   5.903   4.353  0.6127  0.9029  1.0446
 5044TIP3   OH215095   3.430   3.711   4.791 -0.3917 -0.8128  0.2768
 5044TIP3    H115096   3.410   3.748   4.877 -1.4031 -0.2792 -0.1659
 5044TIP3    H215097   3.444   3.618   4.807 -2.7444 -1.1328  0.7328
 5045TIP3   OH215098   4.980   6.642   4.595 -0.2710  0.1575  0.5375
 5045TIP3    H115099   4.895   6.634   4.552 -1.3442  3.0617  1.8597
 5045TIP3    H215100   4.966   6.708   4.663  2.9441  0.3914  1.1153
 5046TIP3   OH215101   1.552   3.678   4.333  0.0650 -0.5294 -0.0484
 5046TIP3    H115102   1.474   3.705   4.382  0.8995  1.3792  0.2999
 5046TIP3    H215103   1.526   3.689   4.241 -0.2347 -0.3190  0.0563
 5047TIP3   OH215104   0.584   0.884   3.003  0.3507  0.1260 -0.6060
 5047TIP3    H115105   0.503   0.844   3.037  0.6263  0.5114  0.5346
 5047TIP3    H215106   0.611   0.825   2.932  0.3505 -1.3278  0.5535
 5048TIP3   OH215107   0.321   4.911   5.894  0.2665  0.0159 -0.8573
 5048TIP3    H115108   0.309   4.830   5.844 -0.3288  0.6918 -1.8588
 5048TIP3    H215109   0.308   4.980   5.829  1.8970  0.9162 -0.2811
 5049TIP3   OH215110   6.811   3.552   0.574 -0.0075 -0.1012 -0.4975
 5049TIP3    H115111   6.768   3.603   0.504  0.0438 -0.9232 -1.1399
 5049TIP3    H215112   6.866   3.490   0.527 -0.9072 -1.4951  0.2476
 5050TIP3   OH215113   4.321   0.655   5.487 -0.4482 -0.3991  1.1772
 5050TIP3    H115114   4.399   0.605   5.461  0.0999  0.8675  0.3060
 5050TIP3    H215115   4.261   0.589   5.522  0.3186 -1.6462  0.2264
 5051TIP3   OH215116   4.424   2.528   1.430  0.1461 -0.4974 -0.6489
 5051TIP3    H115117   4.361   2.462   1.399 -0.1977 -0.2366 -0.5192
 5051TIP3    H215118   4.441   2.582   1.352 -1.8963  1.1027 -0.1014
 5052TIP3   OH215119   0.354   0.742   0.134  0.2829 -0.6548  0.1436
 5052TIP3    H115120   0.284   0.701   0.083  0.4836 -0.8770  0.0457
 5052TIP3    H215121   0.418   0.673   0.148  1.9890  0.2439 -2.4621
 5053TIP3   OH215122   0.045   2.104   0.465 -0.3607  0.3064  0.3128
 5053TIP3    H115123   0.088   2.182   0.430 -0.7687  1.1690  1.6671
 5053TIP3    H215124   0.111   2.036   0.460  0.7998  1.3062  1.2358
 5054TIP3   OH215125   6.269   1.747   2.116 -0.4782 -0.1683 -0.1340
 5054TIP3    H115126   6.220   1.773   2.038 -0.8070  0.3274  0.2306
 5054TIP3    H215127   6.270   1.825   2.171  0.1481 -0.3748  0.1597
 5055TIP3   OH215128   1.707   5.951   4.300  0.1208 -0.5347 -0.2601
 5055TIP3    H115129   1.752   5.973   4.381 -1.2434  0.0833  0.3717
 5055TIP3    H215130   1.679   6.036   4.264 -1.1035 -0.9131 -0.2573
 5056TIP3   OH215131   3.357   2.263   0.475  0.1361 -0.6879  0.0929
 5056TIP3    H115132   3.341   2.186   0.420 -0.1350  0.2641 -1.2292
 5056TIP3    H215133   3.443   2.295   0.446  0.5153 -0.8066  1.0431
 5057TIP3   OH215134   0.234   4.558   3.272 -0.0463 -0.1325 -0.4737
 5057TIP3    H115135   0.328   4.546   3.278 -0.1454 -1.0910 -0.5774
 5057TIP3    H215136   0.198   4.499   3.338 -0.5549  0.6973  0.0034
 5058TIP3   OH215137   0.469   2.504   2.967  0.3111  0.1276 -0.1270
 5058TIP3    H115138   0.466   2.409   2.976 -0.5444  0.0408 -1.0680
 5058TIP3    H215139   0.392   2.536   3.014  0.1863  0.2853 -0.4287
 5059TIP3   OH215140   4.664   1.584   2.661 -0.0780 -0.2771  0.3202
 5059TIP3    H115141   4.634   1.666   2.700 -2.2182 -1.6560  1.7479
 5059TIP3    H215142   4.713   1.541   2.731  3.6927  0.9375 -1.2943
 5060TIP3   OH215143   4.167   5.500   3.632  0.2245 -0.0798  0.7122
 5060TIP3    H115144   4.232   5.430   3.626 -0.6365 -0.8608  0.2856
 5060TIP3    H215145   4.084   5.455   3.650 -0.3699  0.8133  0.2985
 5061TIP3   OH215146   3.963   1.591   4.045  0.3587 -0.6942 -0.4996
 5061TIP3    H115147   4.036   1.563   4.101  0.8370  1.0300 -0.2255
 5061TIP3    H215148   3.884   1.567   4.095  0.7775  0.9810  1.0386
 5062TIP3   OH215149   3.794   1.035   0.179  0.3522  0.5871  0.1975
 5062TIP3    H115150   3.744   0.972   0.128 -1.3710  1.0644  1.2258
 5062TIP3    H215151   3.799   0.997   0.267  2.0075  0.4634  0.0828
 5063TIP3   OH215152   2.530   2.227   3.629  0.3153 -0.1820  0.0703
 5063TIP3    H115153   2.551   2.266   3.544  0.2096  1.1607  0.6357
 5063TIP3    H215154   2.565   2.290   3.693 -0.5971 -0.6132  1.0149
 5064TIP3   OH215155   2.968   3.315   5.647  0.1628  1.1768  0.3454
 5064TIP3    H115156   2.874   3.294   5.639  0.7084 -1.5867  0.1149
 5064TIP3    H215157   2.987   3.303   5.740  0.8729 -1.5615 -0.0716
 5065TIP3   OH215158   4.515   4.440   0.359 -0.5731  0.6616 -0.6088
 5065TIP3    H115159   4.596   4.391   0.376 -0.3504  1.3141  0.2861
 5065TIP3    H215160   4.512   4.449   0.263 -0.2191 -0.4142 -0.7315
 5066TIP3   OH215161   0.763   4.438   1.887 -0.3019  0.6257 -0.2929
 5066TIP3    H115162   0.669   4.451   1.900  0.0511  2.5648  0.8180
 5066TIP3    H215163   0.770   4.389   1.806 -2.2566  1.6825 -1.1741
 5067TIP3   OH215164   0.586   2.175   4.266 -0.0310  0.9080 -0.1701
 5067TIP3    H115165   0.503   2.149   4.306 -0.4353 -0.1849 -1.6441
 5067TIP3    H215166   0.648   2.109   4.294  0.3224  1.5904  0.7295
 5068TIP3   OH215167   5.933   0.675   4.260 -0.1865 -0.1533  0.1297
 5068TIP3    H115168   5.941   0.735   4.186 -2.0880 -1.0982 -0.9229
 5068TIP3    H215169   6.007   0.616   4.251  0.8761  1.0945  0.3322
 5069TIP3   OH215170   6.582   4.304   1.271  0.3483  0.2258  0.2145
 5069TIP3    H115171   6.528   4.339   1.200  1.4485  0.2795 -0.6189
 5069TIP3    H215172   6.521   4.253   1.325 -0.2104 -1.3212 -1.7712
 5070TIP3   OH215173   5.326   6.088   4.932 -0.1520  0.3749  0.1772
 5070TIP3    H115174   5.341   6.116   5.022  1.1484  0.1293  0.0515
 5070TIP3    H215175   5.413   6.079   4.895 -0.6829  0.8622 -1.2375
 5071TIP3   OH215176   1.994   1.956   2.306 -0.1878  0.7823 -0.5493
 5071TIP3    H115177   2.055   1.907   2.251  0.8244  0.1364  1.1008
 5071TIP3    H215178   1.937   2.002   2.243 -0.4184 -1.5415 -2.1611
 5072TIP3   OH215179   0.274   6.305   1.958  0.1482  0.3085 -0.1329
 5072TIP3    H115180   0.184   6.318   1.926 -0.0944 -0.8163  0.0382
 5072TIP3    H215181   0.273   6.216   1.994  1.1054  0.6098  0.6652
 5073TIP3   OH215182   2.085   1.887   5.608  0.5495 -0.0739  0.4093
 5073TIP3    H115183   2.016   1.897   5.543 -0.2056  0.9683  1.3367
 5073TIP3    H215184   2.165   1.874   5.556 -0.3535 -1.5925 -0.6684
 5074TIP3   OH215185   0.062   4.064   4.329 -0.2758 -0.2690 -0.0362
 5074TIP3    H115186   0.014   3.981   4.329  0.5560 -0.7726 -0.7042
 5074TIP3    H215187   0.144   4.044   4.373 -0.5263  0.4957  0.7935
 5075TIP3   OH215188   5.524   6.336   0.828 -0.2392  0.4121  0.2496
 5075TIP3    H115189   5.530   6.400   0.900  0.0180 -1.3179  1.8419
 5075TIP3    H215190   5.556   6.384   0.751 -0.4286  2.3131  1.2847
 5076TIP3   OH215191   5.571   1.442   4.970  0.1621 -0.1012  0.2197
 5076TIP3    H115192   5.587   1.466   4.878  1.0106  1.6488  0.7779
 5076TIP3    H215193   5.632   1.370   4.987  0.1475 -0.2997 -0.5159
 5077TIP3   OH215194   1.714   5.555   5.825 -0.5121  0.3560 -0.6322
 5077TIP3    H115195   1.739   5.543   5.917 -0.5172 -2.3615 -0.9076
 5077TIP3    H215196   1.618   5.558   5.826 -0.5723 -1.0734 -0.6462
 5078TIP3   OH215197   2.734   1.727   3.395  0.2472 -0.3018  0.1204
 5078TIP3    H115198   2.684   1.698   3.319  1.7644 -0.6497 -0.8063
 5078TIP3    H215199   2.784   1.802   3.364  0.7379 -0.3274  0.8174
 5079TIP3   OH215200   5.831   3.727   4.610  0.1021  0.3641  0.4445
 5079TIP3    H115201   5.769   3.791   4.574  1.0568  0.9468 -0.2323
 5079TIP3    H215202   5.917   3.758   4.580  0.5234 -1.8937 -0.9766
 5080TIP3   OH215203   1.348   4.120   4.750  0.2402 -0.5446 -0.4074
 5080TIP3    H115204   1.425   4.139   4.804 -0.0428  0.7297 -0.4158
 5080TIP3    H215205   1.282   4.181   4.781 -0.3296 -0.6709 -1.3477
 5081TIP3   OH215206   1.392   3.459   5.559 -0.1503  0.0251  0.2523
 5081TIP3    H115207   1.401   3.371   5.596 -0.3443 -0.4793 -0.8737
 5081TIP3    H215208   1.394   3.446   5.465 -3.0046  0.8936 -0.0182
 5082TIP3   OH215209   1.250   2.169   3.427 -0.2147  0.2213  0.1649
 5082TIP3    H115210   1.231   2.078   3.406  0.7770 -0.2127  1.0693
 5082TIP3    H215211   1.198   2.186   3.507  0.1853  0.2127  0.4293
 5083TIP3   OH215212   6.580   3.682   0.836  0.1033  0.2266 -0.1993
 5083TIP3    H115213   6.597   3.728   0.918  2.3553  0.7083 -0.8698
 5083TIP3    H215214   6.632   3.602   0.841 -0.1596 -0.0012 -0.9388
 5084TIP3   OH215215   5.392   2.998   2.892  0.5466 -0.1826  0.6090
 5084TIP3    H115216   5.441   2.989   2.973  0.3055 -2.0936  0.5805
 5084TIP3    H215217   5.452   3.043   2.833  0.9455  0.6818  1.6427
 5085TIP3   OH215218   3.319   3.938   5.406 -0.6761  0.1336  0.4131
 5085TIP3    H115219   3.364   3.854   5.408  0.5385  0.7578  0.1366
 5085TIP3    H215220   3.229   3.917   5.381 -0.6423 -1.1742  1.3276
 5086TIP3   OH215221   4.201   6.435   5.769 -0.5899  0.3599  0.8040
 5086TIP3    H115222   4.127   6.451   5.828  0.2096 -0.1832  1.9923
 5086TIP3    H215223   4.270   6.494   5.801 -0.8694  1.8014 -1.0770
 5087TIP3   OH215224   4.574   4.393   3.449 -0.0102  0.0857 -0.1253
 5087TIP3    H115225   4.604   4.343   3.526 -0.3132  0.5680  0.3164
 5087TIP3    H215226   4.592   4.484   3.472 -0.5523  0.2719 -0.4225
 5088TIP3   OH215227   0.020   3.627   2.854  0.8955  0.2434  0.2877
 5088TIP3    H115228   0.104   3.620   2.809  1.3622  4.0858  0.1995
 5088TIP3    H215229   0.042   3.635   2.946  0.6159  0.7943  0.3121
 5089TIP3   OH215230   1.352   5.163   2.736 -0.0967  0.0225  0.6370
 5089TIP3    H115231   1.422   5.152   2.673  1.1104 -1.9378  2.1998
 5089TIP3    H215232   1.365   5.250   2.773  0.1387  0.5443 -0.6490
 5090TIP3   OH215233   4.065   4.556   0.137 -0.1683  0.7086  0.2576
 5090TIP3    H115234   4.084   4.648   0.119  0.4661  1.0914  2.6287
 5090TIP3    H215235   3.987   4.537   0.084 -1.4373  3.1608  1.1259
 5091TIP3   OH215236   6.618   5.836   0.270 -0.4027 -0.3181 -0.5240
 5091TIP3    H115237   6.528   5.810   0.293 -0.3524  0.3020  0.4522
 5091TIP3    H215238   6.672   5.787   0.332 -0.2469  1.2942  0.6729
 5092TIP3   OH215239   7.066   4.338   2.240  0.0139  0.2166 -0.6885
 5092TIP3    H115240   7.106   4.338   2.154 -2.0893 -1.2749 -1.7695
 5092TIP3    H215241   7.036   4.248   2.253  0.9671  0.1874  1.9813
 5093TIP3   OH215242   0.676   1.525   4.415 -0.8203 -0.5488  0.4441
 5093TIP3    H115243   0.768   1.499   4.407 -0.3715  0.6401  1.4143
 5093TIP3    H215244   0.652   1.499   4.504 -1.4983 -0.9990  0.1452
 5094TIP3   OH215245   2.877   3.487   4.623 -0.3263 -0.0693 -0.3277
 5094TIP3    H115246   2.794   3.464   4.581 -1.2190 -1.3451  1.9914
 5094TIP3    H215247   2.903   3.569   4.580 -2.3092 -0.0936 -1.7176
 5095TIP3   OH215248   0.097   1.227   5.372 -0.0232  0.2938 -0.3209
 5095TIP3    H115249   0.089   1.164   5.443  0.1834  0.9663  0.3138
 5095TIP3    H215250   0.167   1.286   5.400  0.4404  0.2531 -1.3315
 5096TIP3   OH215251   4.457   6.687   4.480  0.2554  0.3335 -0.3513
 5096TIP3    H115252   4.480   6.764   4.428 -0.2880  0.7478  0.0131
 5096TIP3    H215253   4.421   6.723   4.561 -0.8824 -0.2968 -0.5630
 5097TIP3   OH215254   1.338   0.665   0.684 -0.9413  0.6468  0.1738
 5097TIP3    H115255   1.270   0.664   0.617 -1.7835  0.1383  1.0159
 5097TIP3    H215256   1.411   0.615   0.645 -0.8688  1.5571 -0.8937
 5098TIP3   OH215257   1.463   6.031   0.727  0.1798 -0.3409  0.7973
 5098TIP3    H115258   1.493   5.941   0.718  0.1088 -0.1557 -3.0663
 5098TIP3    H215259   1.370   6.023   0.748  0.5009 -1.0858  2.0288
 5099TIP3   OH215260   1.058   4.318   0.321  0.5741 -0.1002 -0.3900
 5099TIP3    H115261   1.122   4.359   0.380 -1.8006  2.2547  0.7787
 5099TIP3    H215262   1.006   4.392   0.289 -0.5953 -1.7565 -2.5205
 5100TIP3   OH215263   4.046   3.126   2.848 -0.2902  0.0093 -0.2553
 5100TIP3    H115264   4.045   3.222   2.856  1.1795  0.2193 -1.8934
 5100TIP3    H215265   3.996   3.095   2.924  2.6760  1.9311  2.7844
 5101TIP3   OH215266   5.976   3.839   0.775  0.2410 -0.1248  0.6120
 5101TIP3    H115267   6.035   3.873   0.708 -2.9499  0.6448 -2.0929
 5101TIP3    H215268   5.937   3.917   0.814  0.1932 -0.6108  1.5531
 5102TIP3   OH215269   3.487   2.555   0.878 -0.2418  0.0898  0.2884
 5102TIP3    H115270   3.401   2.549   0.836  0.5323  1.2833 -1.6000
 5102TIP3    H215271   3.477   2.626   0.942 -0.4894  0.7708 -0.4805
 5103TIP3   OH215272   0.381   1.273   2.637  0.4639  0.4070 -0.1201
 5103TIP3    H115273   0.335   1.275   2.721  1.5495  1.5809  0.4792
 5103TIP3    H215274   0.469   1.243   2.659  0.6183  0.2628 -0.9145
 5104TIP3   OH215275   1.248   5.781   5.542  0.6704 -0.0429 -0.4733
 5104TIP3    H115276   1.175   5.812   5.597  0.8574  0.2824 -0.4055
 5104TIP3    H215277   1.216   5.699   5.505  1.1126 -1.0552  1.2998
 5105TIP3   OH215278   6.854   2.645   3.039 -0.5034 -0.3878 -0.3167
 5105TIP3    H115279   6.804   2.683   3.111 -0.5186  2.5481 -1.6925
 5105TIP3    H215280   6.796   2.579   3.001 -2.4645  1.2806 -0.4321
 5106TIP3   OH215281   6.245   1.463   3.847  0.0410 -0.4990  0.0928
 5106TIP3    H115282   6.211   1.539   3.799  1.1768 -0.2641 -0.3875
 5106TIP3    H215283   6.250   1.493   3.938 -2.3767 -1.0366  0.4487
 5107TIP3   OH215284   4.125   6.578   2.707 -0.1890  0.4098 -0.2636
 5107TIP3    H115285   4.189   6.507   2.706  1.3456  1.7713 -0.9211
 5107TIP3    H215286   4.072   6.563   2.628  1.4689  1.1582 -1.5600
 5108TIP3   OH215287   6.003   0.120   4.312 -0.2932 -0.5254 -0.7690
 5108TIP3    H115288   5.940   0.128   4.384  0.3839  0.5863 -0.2792
 5108TIP3    H215289   6.068   0.057   4.344  0.8339  1.0865  0.2522
 5109TIP3   OH215290   2.069   1.874   5.142  0.0900 -0.1637  0.0097
 5109TIP3    H115291   2.045   1.858   5.051 -2.5408 -0.0213  0.6196
 5109TIP3    H215292   2.164   1.857   5.145  0.1392 -0.7182 -2.5969
 5110TIP3   OH215293   7.100   6.489   2.130  0.1597  0.3270  0.1140
 5110TIP3    H115294   7.098   6.519   2.039  1.4762 -0.2990 -0.1574
 5110TIP3    H215295   7.066   6.399   2.126 -0.1296  0.4304  0.2913
 5111TIP3   OH215296   3.681   6.025   4.196  0.3610 -0.3080  0.2581
 5111TIP3    H115297   3.604   6.076   4.221 -0.1352 -1.4436  1.1832
 5111TIP3    H215298   3.646   5.941   4.166  1.0994  0.1531 -2.0945
 5112TIP3   OH215299   0.323   0.378   4.751  0.4185  0.0083 -1.0195
 5112TIP3    H115300   0.406   0.425   4.760  1.5345 -1.9680 -0.2817
 5112TIP3    H215301   0.269   0.434   4.695  1.4108  2.4081  0.2962
 5113TIP3   OH215302   2.133   3.669   4.802  0.4969  0.3960  0.8306
 5113TIP3    H115303   2.171   3.719   4.730  2.9655  0.3635  2.0204
 5113TIP3    H215304   2.072   3.731   4.843 -0.8895  0.4387 -1.1461
 5114TIP3   OH215305   4.024   6.472   5.052 -0.4805  0.0319  0.4674
 5114TIP3    H115306   4.038   6.392   5.103  0.6564 -0.5980 -0.7784
 5114TIP3    H215307   3.983   6.442   4.971 -1.0875  0.8651  0.4534
 5115TIP3   OH215308   6.156   2.503   2.220  0.0247 -0.0779  0.4179
 5115TIP3    H115309   6.144   2.592   2.254 -0.7050 -0.1702  0.4340
 5115TIP3    H215310   6.240   2.505   2.174 -0.7259  1.0755 -0.9891
 5116TIP3   OH215311   3.800   4.500   2.307 -0.2378 -0.3314  0.5082
 5116TIP3    H115312   3.713   4.487   2.345 -0.3478  0.9504  0.7467
 5116TIP3    H215313   3.786   4.501   2.213 -0.7847  1.5434  0.5646
 5117TIP3   OH215314   5.829   4.187   2.209  0.3507 -0.0981 -0.5827
 5117TIP3    H115315   5.888   4.185   2.134 -0.6735 -1.4893 -1.4035
 5117TIP3    H215316   5.761   4.250   2.183  1.9409  2.3709  0.8190
 5118TIP3   OH215317   7.156   4.959   1.237  0.5708  0.5087  0.0216
 5118TIP3    H115318   7.086   4.997   1.289  0.1806  0.1055 -0.2022
 5118TIP3    H215319   7.126   4.870   1.217  0.7993  0.5895 -0.7178
 5119TIP3   OH215320   6.826   1.630   3.339  0.2236  0.3776 -0.2019
 5119TIP3    H115321   6.813   1.725   3.335  1.5582  0.6028  0.5690
 5119TIP3    H215322   6.882   1.610   3.264 -0.8859  0.0187 -0.9744
 5120TIP3   OH215323   3.127   0.484   4.341  0.1389  0.3301 -0.4094
 5120TIP3    H115324   3.151   0.508   4.431 -1.7854  0.7417  0.0306
 5120TIP3    H215325   3.052   0.426   4.351  1.1547 -1.2757 -1.7162
 5121TIP3   OH215326   5.849   6.345   5.527 -0.5607  0.0088  0.0550
 5121TIP3    H115327   5.871   6.430   5.488  1.6412 -1.1768 -1.4716
 5121TIP3    H215328   5.815   6.293   5.455 -1.0658 -0.7157  0.7932
 5122TIP3   OH215329   4.121   4.172   4.488  0.2457 -0.4927 -0.7152
 5122TIP3    H115330   4.097   4.124   4.568 -1.7386 -0.3292 -1.1634
 5122TIP3    H215331   4.083   4.120   4.417 -0.9015  1.0890 -1.2901
 5123TIP3   OH215332   6.347   6.271   1.760  0.2517  0.1229  0.3346
 5123TIP3    H115333   6.256   6.284   1.734  0.5271 -0.1081 -0.8061
 5123TIP3    H215334   6.394   6.347   1.724  0.7118 -0.4260 -0.2729
 5124TIP3   OH215335   6.962   1.245   3.924 -0.2292  0.5428  0.2151
 5124TIP3    H115336   6.948   1.186   3.850 -1.6528  0.2392  0.6984
 5124TIP3    H215337   7.021   1.313   3.890 -0.1200 -0.0963 -0.9154
 5125TIP3   OH215338   4.297   3.699   2.872 -0.4737  0.1209 -0.5915
 5125TIP3    H115339   4.241   3.641   2.923 -0.0639 -1.2565 -1.6436
 5125TIP3    H215340   4.266   3.689   2.782  1.1900 -0.3979 -1.1549
 5126TIP3   OH215341   7.105   2.741   1.714 -0.1207  0.1829  0.2597
 5126TIP3    H115342   7.057   2.784   1.643  0.5047  1.0217  0.3203
 5126TIP3    H215343   7.143   2.663   1.673 -0.1778  0.3940 -0.2087
 5127TIP3   OH215344   4.157   4.262   0.622  0.3059  0.0373  0.6389
 5127TIP3    H115345   4.125   4.261   0.713 -2.4741 -0.0325 -0.2487
 5127TIP3    H215346   4.140   4.351   0.592 -0.5215 -0.4350 -0.3360
 5128TIP3   OH215347   6.170   5.784   5.442 -0.2113  0.5865  0.3871
 5128TIP3    H115348   6.167   5.825   5.356 -0.8903  2.1339  1.1128
 5128TIP3    H215349   6.225   5.842   5.495  0.2288 -0.3616  1.0011
 5129TIP3   OH215350   7.105   3.700   3.352  0.4339 -0.5272 -0.0308
 5129TIP3    H115351   7.160   3.691   3.430  0.0890 -1.1229  0.1523
 5129TIP3    H215352   7.018   3.718   3.386  0.5519  0.6663 -0.3282
 5130TIP3   OH215353   5.540   5.692   5.665 -0.0912 -0.2844  0.1364
 5130TIP3    H115354   5.446   5.694   5.646  0.0783  0.7977 -0.6415
 5130TIP3    H215355   5.576   5.766   5.617  1.3607 -1.4129 -0.5979
 5131TIP3   OH215356   3.068   2.159   0.425 -0.2117  0.3510  0.4292
 5131TIP3    H115357   3.148   2.147   0.374  0.0558  1.8206  0.4508
 5131TIP3    H215358   3.025   2.074   0.424  2.0817 -0.9222  1.6687
 5132TIP3   OH215359   1.056   0.101   1.279  0.0079  0.2438  0.0230
 5132TIP3    H115360   1.133   0.138   1.236  0.1877  0.2180  0.3215
 5132TIP3    H215361   0.997   0.176   1.291  0.0270  0.2813 -0.1170
 5133TIP3   OH215362   0.301   2.577   5.646  0.1157  0.0212  0.6882
 5133TIP3    H115363   0.271   2.592   5.735  0.1678 -1.7026  1.0456
 5133TIP3    H215364   0.226   2.537   5.602 -0.3656  2.0898 -0.4680
 5134TIP3   OH215365   4.272   1.645   4.381  0.1277 -0.8065 -0.2287
 5134TIP3    H115366   4.232   1.677   4.300 -0.0661 -0.3466  0.0440
 5134TIP3    H215367   4.273   1.721   4.439 -0.8925 -1.4240  0.6448
 5135TIP3   OH215368   5.197   3.949   4.756  0.1121  0.2042  0.3399
 5135TIP3    H115369   5.207   3.878   4.693 -1.3086  0.7044 -0.4915
 5135TIP3    H215370   5.286   3.982   4.769  0.5042 -0.2171 -1.0633
 5136TIP3   OH215371   4.636   3.406   0.357  0.1800  0.4971  0.1455
 5136TIP3    H115372   4.704   3.472   0.350  0.7668 -0.2294 -1.5436
 5136TIP3    H215373   4.558   3.446   0.319 -0.3850  1.3358  2.0959
 5137TIP3   OH215374   3.775   2.903   0.266 -0.2243  0.5620 -0.3828
 5137TIP3    H115375   3.687   2.866   0.279 -0.0032  0.5389  1.2469
 5137TIP3    H215376   3.789   2.958   0.343  0.3484  2.3186 -1.6623
 5138TIP3   OH215377   3.140   1.529   2.519  0.0348  0.2917 -0.3572
 5138TIP3    H115378   3.163   1.440   2.547  2.3892  0.5810 -1.1494
 5138TIP3    H215379   3.176   1.586   2.587 -0.1494  0.7003 -0.5955
 5139TIP3   OH215380   5.069   5.343   2.909 -0.0239  0.8762 -0.2938
 5139TIP3    H115381   4.994   5.285   2.904  0.1462  0.5561  0.6490
 5139TIP3    H215382   5.072   5.387   2.824 -1.0089  0.5709 -0.4919
 5140TIP3   OH215383   2.474   6.237   4.865  0.2606 -0.4596  0.4166
 5140TIP3    H115384   2.507   6.190   4.942  0.4584 -0.2726  0.4472
 5140TIP3    H215385   2.379   6.230   4.871  0.1461  1.4483  1.9086
 5141TIP3   OH215386   6.649   5.630   5.167  0.1284  0.4622 -0.3277
 5141TIP3    H115387   6.672   5.703   5.109  0.5972 -0.0626 -0.8087
 5141TIP3    H215388   6.708   5.560   5.142 -0.5802 -0.2196 -0.1375
 5142TIP3   OH215389   6.307   3.977   1.970 -0.1751 -0.4652  0.0578
 5142TIP3    H115390   6.313   3.881   1.975 -1.6323 -0.6099  5.0349
 5142TIP3    H215391   6.384   4.008   2.018 -0.6093  0.7987 -0.0380
 5143TIP3   OH215392   4.963   0.123   5.216  0.4218 -0.3581  0.2148
 5143TIP3    H115393   5.019   0.197   5.239  0.7024 -0.2485 -0.7731
 5143TIP3    H215394   5.003   0.086   5.138 -0.1954 -1.0436  0.2106
 5144TIP3   OH215395   0.455   3.235   0.162  0.6010 -0.0623  0.3385
 5144TIP3    H115396   0.510   3.157   0.169  0.6734  0.0618  1.3077
 5144TIP3    H215397   0.441   3.262   0.253 -3.8100 -1.9796  0.4748
 5145TIP3   OH215398   1.854   2.322   3.162 -0.0254 -0.1964 -0.1295
 5145TIP3    H115399   1.855   2.415   3.138  0.9600 -0.2872 -0.5128
 5145TIP3    H215400   1.799   2.318   3.241 -0.9525  0.5425 -0.7179
 5146TIP3   OH215401   1.784   3.694   4.096  1.0350 -0.2639 -0.4933
 5146TIP3    H115402   1.810   3.736   4.014  1.8726 -0.1303 -0.1713
 5146TIP3    H215403   1.811   3.603   4.086 -0.4218 -0.6659 -1.0330
 5147TIP3   OH215404   1.192   1.664   3.614  0.1902  0.1246  0.2154
 5147TIP3    H115405   1.150   1.737   3.570  1.9878  0.5257 -0.9272
 5147TIP3    H215406   1.119   1.609   3.643 -1.1292  0.6262 -1.8934
 5148TIP3   OH215407   5.253   6.476   1.684 -0.0232 -0.5497  0.3235
 5148TIP3    H115408   5.249   6.432   1.599  3.4121 -0.7057  0.0978
 5148TIP3    H215409   5.298   6.413   1.741  0.3208  0.6828  1.4420
 5149TIP3   OH215410   4.939   3.493   3.842  0.3084  0.0347  0.2304
 5149TIP3    H115411   4.988   3.558   3.790  0.1604  0.1054  0.1793
 5149TIP3    H215412   4.920   3.538   3.924  0.7617 -0.1631  0.4485
 5150TIP3   OH215413   0.979   2.827   4.931 -0.1337  0.3058  0.1768
 5150TIP3    H115414   0.906   2.883   4.957  0.1889  0.9943 -0.3766
 5150TIP3    H215415   0.944   2.738   4.937 -0.3439  0.4609  2.0938
 5151TIP3   OH215416   5.113   6.337   3.933 -0.0184 -0.0624 -0.5561
 5151TIP3    H115417   5.200   6.337   3.893  0.5053 -0.6432  0.5315
 5151TIP3    H215418   5.053   6.332   3.859  0.8891 -0.1450 -1.3096
 5152TIP3   OH215419   3.767   1.011   1.070  0.3146 -0.4904 -0.3614
 5152TIP3    H115420   3.856   0.975   1.065  0.1042 -1.1794  0.6386
 5152TIP3    H215421   3.710   0.939   1.044  0.0606  0.1071 -1.5215
 5153TIP3   OH215422   2.784   5.608   5.608 -0.3567  0.2679  0.1348
 5153TIP3    H115423   2.748   5.613   5.520 -1.6928  0.1692  0.6550
 5153TIP3    H215424   2.717   5.562   5.659  0.5993 -0.1001  1.0966
 5154TIP3   OH215425   2.301   3.097   4.677 -0.0002  0.0837 -0.3310
 5154TIP3    H115426   2.362   3.024   4.670  0.2838  0.1150  1.4186
 5154TIP3    H215427   2.288   3.109   4.771 -1.3723  1.1911 -0.6209
 5155TIP3   OH215428   7.013   5.224   2.213 -0.3726 -0.4184 -0.2579
 5155TIP3    H115429   7.108   5.226   2.221 -0.4729  1.2502  1.1147
 5155TIP3    H215430   6.982   5.207   2.302 -1.3760 -0.7676 -0.6566
 5156TIP3   OH215431   2.186   6.056   1.456 -0.3659  0.7851  0.5991
 5156TIP3    H115432   2.246   6.104   1.398  0.6063 -0.6500  0.3594
 5156TIP3    H215433   2.183   5.968   1.420 -1.5552  0.4627  1.4324
 5157TIP3   OH215434   1.234   1.417   4.458 -0.2576 -0.4121  0.4517
 5157TIP3    H115435   1.185   1.499   4.451  1.2540  0.7854  2.5672
 5157TIP3    H215436   1.210   1.382   4.544 -1.8103 -2.9280 -0.8884
 5158TIP3   OH215437   1.283   5.400   1.856  0.3285  0.3231  0.9428
 5158TIP3    H115438   1.276   5.429   1.947  0.4263  2.6470  0.2625
 5158TIP3    H215439   1.236   5.465   1.806 -0.0582 -1.1216 -0.6814
 5159TIP3   OH215440   5.740   1.705   5.768  0.6299 -0.0437 -0.7553
 5159TIP3    H115441   5.741   1.800   5.778  0.7322  0.0470 -1.5656
 5159TIP3    H215442   5.772   1.672   5.851  0.2749  0.6231 -0.3469
 5160TIP3   OH215443   2.747   5.771   0.131 -0.1335  0.3263 -0.0800
 5160TIP3    H115444   2.711   5.855   0.102 -1.2259  0.1428  0.6736
 5160TIP3    H215445   2.819   5.794   0.189 -1.0012  0.7890  0.8474
 5161TIP3   OH215446   1.151   5.695   2.108 -0.0027 -0.3848  0.2681
 5161TIP3    H115447   1.221   5.735   2.055  0.4302  0.6417  1.5672
 5161TIP3    H215448   1.165   5.601   2.099 -0.1324 -0.2667 -1.6722
 5162TIP3   OH215449   1.103   3.654   3.447  0.2346  0.5075 -0.4621
 5162TIP3    H115450   1.111   3.700   3.531 -1.4782 -1.3381  0.8081
 5162TIP3    H215451   1.010   3.633   3.440  0.6540 -1.0981 -1.8634
 5163TIP3   OH215452   3.660   4.755   2.975  0.1548 -0.0316 -0.1514
 5163TIP3    H115453   3.697   4.755   2.886  0.9416 -1.1224  0.1596
 5163TIP3    H215454   3.735   4.765   3.032 -0.3396  0.5403  0.4088
 5164TIP3   OH215455   5.409   5.424   0.200 -0.1914 -0.6202  0.3731
 5164TIP3    H115456   5.438   5.350   0.254  1.2088 -1.7190 -1.7465
 5164TIP3    H215457   5.435   5.502   0.250 -0.1637 -1.5576  1.8725
 5165TIP3   OH215458   6.005   0.617   3.503 -0.1290  0.2128  0.3334
 5165TIP3    H115459   5.923   0.568   3.510 -0.6273  0.5932 -1.9757
 5165TIP3    H215460   6.059   0.566   3.444  0.5294  0.9458  0.2850
 5166TIP3   OH215461   0.608   6.049   3.605  0.3138  0.2596  0.4214
 5166TIP3    H115462   0.654   6.074   3.685  0.5241  0.5370  0.2175
 5166TIP3    H215463   0.528   6.007   3.636  2.4534 -4.0139  0.8835
 5167TIP3   OH215464   0.295   2.040   5.090  0.1970  0.0354 -0.0543
 5167TIP3    H115465   0.336   1.956   5.111  2.1457  1.1050  0.6200
 5167TIP3    H215466   0.290   2.086   5.174 -0.2742  0.8397 -0.5118
 5168TIP3   OH215467   1.351   4.559   2.226 -0.2784  0.2760 -0.7680
 5168TIP3    H115468   1.373   4.472   2.260 -0.4109  0.8019  0.7658
 5168TIP3    H215469   1.436   4.601   2.212 -0.2208  0.0523 -1.0992
 5169TIP3   OH215470   2.612   1.015   2.383 -0.5042 -0.0491  0.0308
 5169TIP3    H115471   2.672   0.968   2.441  0.9925  0.8413 -0.7262
 5169TIP3    H215472   2.581   0.947   2.323 -0.8432 -0.6684  0.8890
 5170TIP3   OH215473   3.085   3.597   0.009  0.0778 -0.2168 -0.5512
 5170TIP3    H115474   3.107   3.528   0.071 -0.1364 -2.7851 -3.1354
 5170TIP3    H215475   3.017   3.648   0.053 -0.5273 -2.2906  1.0681
 5171TIP3   OH215476   2.248   5.047   0.350  0.2094 -0.2710 -0.5416
 5171TIP3    H115477   2.213   4.994   0.420 -1.7651 -2.0071 -2.6853
 5171TIP3    H215478   2.192   5.125   0.347  0.1250 -0.3284 -0.3873
 5172TIP3   OH215479   6.284   3.909   5.453  0.1555 -0.0560  0.5168
 5172TIP3    H115480   6.299   3.983   5.512 -1.2731 -0.4841  1.4662
 5172TIP3    H215481   6.372   3.880   5.428  0.7376  1.6888  0.4561
 5173TIP3   OH215482   4.229   2.209   3.342  0.1109 -0.4275 -0.1929
 5173TIP3    H115483   4.279   2.179   3.418 -1.7053 -1.7909  0.5268
 5173TIP3    H215484   4.205   2.299   3.364  1.6212  0.0283 -0.2683
 5174TIP3   OH215485   2.579   2.750   1.807 -0.3190  0.1022  0.3358
 5174TIP3    H115486   2.545   2.838   1.826 -1.2049 -0.2829  0.5770
 5174TIP3    H215487   2.673   2.764   1.792 -0.5602  1.1958 -0.3294
 5175TIP3   OH215488   3.350   2.517   5.838 -0.4383 -0.2149  0.7784
 5175TIP3    H115489   3.403   2.495   5.915  0.5747 -0.6123 -0.0018
 5175TIP3    H215490   3.381   2.603   5.811 -1.7033  0.5139  1.5541
 5176TIP3   OH215491   4.999   1.383   2.448 -0.0918  0.1009 -0.0844
 5176TIP3    H115492   5.029   1.404   2.360 -0.5755 -2.6364 -1.0166
 5176TIP3    H215493   4.913   1.425   2.455 -0.0762  0.3016 -0.9574
 5177TIP3   OH215494   1.865   5.042   5.161  0.3036 -0.9227 -0.0446
 5177TIP3    H115495   1.910   5.021   5.079 -0.5517 -0.5989 -0.6159
 5177TIP3    H215496   1.924   5.103   5.206  0.8188 -1.1678 -0.3764
 5178TIP3   OH215497   7.153   1.076   0.010  1.2406 -0.2799 -0.0072
 5178TIP3    H115498   7.233   1.128   0.018  1.9523 -1.5831  2.3709
 5178TIP3    H215499   7.172   0.995   0.058 -0.7283 -1.6125 -1.3263
 5179TIP3   OH215500   0.487   5.959   0.919 -0.1750 -0.0838  0.2673
 5179TIP3    H115501   0.538   5.990   0.994 -0.4694 -0.1468  0.4977
 5179TIP3    H215502   0.535   5.991   0.842  0.8906 -1.1961  0.4406
 5180TIP3   OH215503   2.724   1.790   4.688 -0.2576  0.1856 -0.6906
 5180TIP3    H115504   2.667   1.818   4.760  0.0549  0.0876 -0.4034
 5180TIP3    H215505   2.794   1.855   4.685  0.2038 -0.2842 -0.3377
 5181TIP3   OH215506   7.212   1.842   0.962 -0.0593  0.5255  0.1671
 5181TIP3    H115507   7.209   1.916   0.900  1.4061 -0.9593 -1.8187
 5181TIP3    H215508   7.123   1.836   0.996 -0.4677  2.5683 -0.3671
 5182TIP3   OH215509   5.150   2.937   3.920  0.1043 -0.6168 -0.4931
 5182TIP3    H115510   5.203   2.875   3.970 -1.9047 -0.7006  1.6810
 5182TIP3    H215511   5.209   3.011   3.904  0.8860 -0.6548  1.9270
 5183TIP3   OH215512   0.969   6.246   5.808 -0.1195  0.4125  0.4472
 5183TIP3    H115513   1.002   6.229   5.720  0.7396 -1.2004  1.0197
 5183TIP3    H215514   0.902   6.313   5.797 -0.7525 -0.4854 -1.5655
 5184TIP3   OH215515   5.846   2.671   5.609  0.0036 -0.0553 -0.1751
 5184TIP3    H115516   5.913   2.706   5.551 -0.0276 -0.5314 -0.5073
 5184TIP3    H215517   5.795   2.611   5.554 -2.1401  1.9685 -0.5524
 5185TIP3   OH215518   6.666   4.089   4.843 -0.5269  0.4512  0.3589
 5185TIP3    H115519   6.710   4.007   4.820 -2.1396 -0.4690  0.3937
 5185TIP3    H215520   6.713   4.156   4.793  1.0861 -0.4089  0.6439
 5186TIP3   OH215521   1.345   4.286   3.993  0.2820  0.3037 -0.2903
 5186TIP3    H115522   1.317   4.304   3.903  0.8005  3.0060  0.0056
 5186TIP3    H215523   1.334   4.369   4.039  0.7943 -0.7949  1.9611
 5187TIP3   OH215524   3.325   1.765   4.102  0.0620  0.2079 -0.0958
 5187TIP3    H115525   3.260   1.832   4.121  0.3469  0.5188 -0.2196
 5187TIP3    H215526   3.336   1.769   4.007  0.9526  0.8014  0.0169
 5188TIP3   OH215527   5.072   2.272   1.483  0.7900  0.1886 -0.2368
 5188TIP3    H115528   5.037   2.189   1.513  1.0875  0.1808  0.0830
 5188TIP3    H215529   4.995   2.321   1.454  0.7897 -0.9486 -2.3177
 5189TIP3   OH215530   3.239   1.630   1.830  0.0131  0.0676  0.1965
 5189TIP3    H115531   3.226   1.671   1.916  0.0222  0.6133 -0.0565
 5189TIP3    H215532   3.272   1.701   1.775  1.7412 -0.6726  0.1913
 5190TIP3   OH215533   2.987   0.188   4.139 -0.2259  0.1771 -0.1270
 5190TIP3    H115534   2.912   0.137   4.109  0.1149 -1.1090  1.0889
 5190TIP3    H215535   2.981   0.185   4.235  0.2892  1.7233 -0.0254
 5191TIP3   OH215536   2.565   3.810   5.490  0.2985  1.0336  0.1086
 5191TIP3    H115537   2.642   3.769   5.529  1.0538  0.3503 -1.9262
 5191TIP3    H215538   2.600   3.882   5.438 -0.4695  0.9831 -0.5034
 5192TIP3   OH215539   5.060   1.954   1.947 -0.0282  0.2323  0.0215
 5192TIP3    H115540   5.144   1.908   1.933 -0.7269 -1.3059  0.6488
 5192TIP3    H215541   5.001   1.886   1.977 -1.2905  1.4786  0.4373
 5193TIP3   OH215542   6.029   3.719   5.144 -0.1881 -0.2078  0.2053
 5193TIP3    H115543   6.047   3.806   5.180 -2.1406 -0.0923  1.0306
 5193TIP3    H215544   5.961   3.734   5.078 -1.8883 -1.2833  1.6434
 5194TIP3   OH215545   1.650   4.547   5.346 -0.0877  0.2512 -0.4842
 5194TIP3    H115546   1.713   4.609   5.310 -0.2694 -0.1363 -1.5191
 5194TIP3    H215547   1.642   4.571   5.438  1.1889  0.6128 -0.4549
 5195TIP3   OH215548   4.298   1.850   4.561 -0.1328 -0.4435  0.2979
 5195TIP3    H115549   4.261   1.908   4.628 -0.6917 -1.0717  0.5541
 5195TIP3    H215550   4.374   1.897   4.527 -1.3397  1.0420 -0.4780
 5196TIP3   OH215551   1.124   6.267   0.143  0.1060 -0.2944 -0.4146
 5196TIP3    H115552   1.140   6.175   0.125 -1.7581 -0.6578 -0.3593
 5196TIP3    H215553   1.099   6.270   0.235 -2.8347 -0.2096 -1.1286
 5197TIP3   OH215554   3.616   2.691   2.008  0.9504 -0.1548 -0.6345
 5197TIP3    H115555   3.673   2.636   2.063 -0.0764  0.5818  1.2555
 5197TIP3    H215556   3.543   2.634   1.985  0.8144 -0.1283 -0.2697
 5198TIP3   OH215557   1.533   1.587   4.705 -0.1667  0.0916  0.8092
 5198TIP3    H115558   1.495   1.569   4.792 -1.4174 -1.1014  0.0562
 5198TIP3    H215559   1.582   1.508   4.684  2.2675  1.3437  1.4472
 5199TIP3   OH215560   6.107   4.650   4.391  0.2212  0.4711  0.1249
 5199TIP3    H115561   6.031   4.695   4.428  0.1196  0.1898  0.2568
 5199TIP3    H215562   6.080   4.625   4.303  0.4513  1.1084 -0.1351
 5200TIP3   OH215563   3.933   0.791   1.812 -0.5971  0.2547 -0.4107
 5200TIP3    H115564   3.920   0.884   1.831 -1.7256  0.1116 -0.4171
 5200TIP3    H215565   3.901   0.745   1.889 -0.4405 -0.1431 -0.5785
 5201TIP3   OH215566   0.896   5.528   3.710 -0.0426  0.1390  0.1931
 5201TIP3    H115567   0.838   5.457   3.736  1.2385 -0.1002  2.7018
 5201TIP3    H215568   0.976   5.514   3.762  1.3194  1.8443 -1.2910
 5202TIP3   OH215569   5.764   3.469   3.476  0.0479  0.2632  0.1255
 5202TIP3    H115570   5.813   3.389   3.496 -2.0745 -0.7173  1.8305
 5202TIP3    H215571   5.820   3.540   3.507  1.2464 -0.6559  0.1470
 5203TIP3   OH215572   6.761   5.523   3.439 -0.3128 -0.2649  0.3510
 5203TIP3    H115573   6.746   5.442   3.391  1.1021 -1.1373  1.2934
 5203TIP3    H215574   6.768   5.590   3.370  0.1779 -1.2192 -0.5664
 5204TIP3   OH215575   6.853   4.642   1.930 -0.4414  0.2545 -0.2157
 5204TIP3    H115576   6.765   4.671   1.906 -0.3699  1.3006  0.7010
 5204TIP3    H215577   6.904   4.651   1.850 -1.0988 -0.1170 -0.6865
 5205TIP3   OH215578   2.704   2.295   3.858 -0.1228  0.3730 -0.1675
 5205TIP3    H115579   2.775   2.354   3.834 -0.4222  0.8202  0.0183
 5205TIP3    H215580   2.652   2.346   3.921  0.2607 -0.5118  0.8893
 5206TIP3   OH215581   0.759   6.328   1.753 -0.1416  0.3994 -0.2527
 5206TIP3    H115582   0.791   6.246   1.715 -0.0148  0.9733 -1.4359
 5206TIP3    H215583   0.664   6.322   1.746 -0.1036  0.7119 -1.1521
 5207TIP3   OH215584   5.821   6.103   4.867  0.3223 -0.2284 -0.6285
 5207TIP3    H115585   5.804   6.131   4.777 -0.5667 -0.5823 -0.5831
 5207TIP3    H215586   5.912   6.074   4.866  0.1135 -0.9303 -1.6098
 5208TIP3   OH215587   1.079   1.471   3.394  1.1604  0.0671 -0.7697
 5208TIP3    H115588   1.006   1.410   3.381  1.0491  0.2289 -0.9062
 5208TIP3    H215589   1.068   1.503   3.484  1.4082 -0.3615 -0.5849
 5209TIP3   OH215590   5.286   3.453   2.078 -0.0498  0.3819 -0.3450
 5209TIP3    H115591   5.371   3.412   2.064 -0.2079 -0.1826  0.2696
 5209TIP3    H215592   5.306   3.543   2.103  0.3990  0.1052  0.3251
 5210TIP3   OH215593   4.364   5.806   2.520 -0.1115 -0.1039  0.1569
 5210TIP3    H115594   4.300   5.752   2.567  0.0786 -0.9779 -0.5653
 5210TIP3    H215595   4.329   5.811   2.430  1.6209 -1.9788 -0.6965
 5211TIP3   OH215596   0.483   6.824   1.634 -0.2927  0.0501 -0.2724
 5211TIP3    H115597   0.470   6.745   1.686  0.4932  0.2261  0.1967
 5211TIP3    H215598   0.451   6.800   1.547 -0.1297 -0.7624 -0.1166
 5212TIP3   OH215599   4.874   1.134   1.148 -0.5383  0.3379  0.2467
 5212TIP3    H115600   4.936   1.198   1.112 -1.0948  0.6578 -0.1439
 5212TIP3    H215601   4.812   1.186   1.198 -0.8801  0.0808  0.0911
 5213TIP3   OH215602   7.102   4.279   5.122 -0.0670 -0.1882 -0.0409
 5213TIP3    H115603   7.064   4.363   5.149  0.0916 -0.3592  0.7173
 5213TIP3    H215604   7.098   4.281   5.026 -1.2075  0.1556  0.0022
 5214TIP3   OH215605   3.478   4.360   4.115  0.1196 -0.0462 -0.3677
 5214TIP3    H115606   3.509   4.450   4.124  0.1081  0.0048 -0.7793
 5214TIP3    H215607   3.523   4.327   4.037 -0.5053 -0.1227 -0.7018
 5215TIP3   OH215608   1.053   3.452   3.773  0.0080 -0.3502 -0.0392
 5215TIP3    H115609   0.960   3.447   3.794 -0.9184 -0.4393 -3.5911
 5215TIP3    H215610   1.073   3.370   3.729  1.1848  0.5415 -1.2619
 5216TIP3   OH215611   2.679   1.006   4.350  0.3417 -0.3084  0.2573
 5216TIP3    H115612   2.714   0.979   4.265  1.0996  0.0218  0.4544
 5216TIP3    H215613   2.732   0.958   4.414  0.3097  0.0457  0.5537
 5217TIP3   OH215614   4.553   3.127   0.314 -0.4888 -0.1659 -0.0569
 5217TIP3    H115615   4.591   3.214   0.322  0.4476 -0.6101  0.4723
 5217TIP3    H215616   4.515   3.109   0.400  0.4359 -0.7787  0.2344
 5218TIP3   OH215617   0.150   0.930   3.319  0.1225  0.2029  0.2356
 5218TIP3    H115618   0.112   0.890   3.397  1.9051 -1.2125  0.4573
 5218TIP3    H215619   0.188   1.012   3.351  0.2611 -0.0508  0.7513
 5219TIP3   OH215620   4.000   6.503   0.110 -0.2971  0.1308  0.7337
 5219TIP3    H115621   4.042   6.448   0.177 -0.0572 -0.9174 -0.2538
 5219TIP3    H215622   3.944   6.443   0.062  0.7420  0.5268 -1.0363
 5220TIP3   OH215623   2.401   2.227   5.843 -0.1739 -0.3764  0.1449
 5220TIP3    H115624   2.368   2.290   5.780 -1.0851  1.6241  2.4659
 5220TIP3    H215625   2.496   2.240   5.843  0.0354 -1.4927 -1.8152
 5221TIP3   OH215626   0.381   4.808   2.767  0.0989 -0.2408  0.4278
 5221TIP3    H115627   0.307   4.747   2.765  0.1635 -0.4508  2.5682
 5221TIP3    H215628   0.458   4.752   2.778  0.7112 -0.0579 -2.2220
 5222TIP3   OH215629   6.072   2.857   4.584  0.3611 -0.1913 -0.8016
 5222TIP3    H115630   6.025   2.891   4.508  1.5078  1.4707 -0.8423
 5222TIP3    H215631   6.148   2.915   4.593  1.5490 -1.8092  0.1899
 5223TIP3   OH215632   4.830   2.009   2.341 -0.3840 -0.2243 -0.3031
 5223TIP3    H115633   4.895   2.057   2.290  1.4826 -2.0744  0.1964
 5223TIP3    H215634   4.833   2.049   2.428  0.4479 -0.5905 -0.1551
 5224TIP3   OH215635   0.956   6.554   2.635 -0.0579  0.0077 -0.8431
 5224TIP3    H115636   0.899   6.505   2.576 -0.0036  0.0862 -0.9601
 5224TIP3    H215637   1.042   6.553   2.593 -0.3080  1.1601 -1.3999
 5225TIP3   OH215638   4.231   2.469   4.643  0.0374  0.2329 -0.2195
 5225TIP3    H115639   4.242   2.382   4.605 -0.8001  0.4907 -1.0839
 5225TIP3    H215640   4.271   2.529   4.580 -0.1142  0.5465 -0.0218
 5226TIP3   OH215641   7.195   2.063   0.785 -0.5302 -0.6023 -0.0660
 5226TIP3    H115642   7.124   2.111   0.828 -1.0380  0.3029 -1.7964
 5226TIP3    H215643   7.247   2.131   0.743  0.5680 -1.3717  0.0104
 5227TIP3   OH215644   2.390   5.834   0.315 -0.4535  0.1173  0.6829
 5227TIP3    H115645   2.309   5.785   0.303 -0.2728  0.3601 -2.3267
 5227TIP3    H215646   2.459   5.774   0.286 -0.0257  1.3182 -0.9253
 5228TIP3   OH215647   5.913   1.398   5.734  0.2298 -0.5161 -0.2055
 5228TIP3    H115648   5.977   1.469   5.738  0.0448 -0.3619  3.3332
 5228TIP3    H215649   5.829   1.441   5.750 -0.8198 -0.8258 -4.0255
 5229TIP3   OH215650   2.074   5.957   1.050  0.3954  0.0023  0.3216
 5229TIP3    H115651   2.024   5.984   1.127 -2.1584 -0.0510 -1.2159
 5229TIP3    H215652   2.125   6.034   1.025 -1.3196  1.1120  0.1567
 5230TIP3   OH215653   0.709   4.028   5.812  0.4068 -0.1763  0.6003
 5230TIP3    H115654   0.710   3.948   5.866  1.0902 -1.1240 -0.7793
 5230TIP3    H215655   0.760   4.006   5.735 -0.6206  1.1274 -0.5001
 5231TIP3   OH215656   3.005   3.671   2.674  0.0507 -0.6298  0.1883
 5231TIP3    H115657   2.965   3.622   2.603  0.9664 -0.0938 -0.7283
 5231TIP3    H215658   3.099   3.654   2.665  0.2329 -0.0450  0.8811
 5232TIP3   OH215659   4.344   0.563   4.017  0.5276  0.2173 -0.3085
 5232TIP3    H115660   4.439   0.562   4.006  0.5012  0.3257 -0.5554
 5232TIP3    H215661   4.318   0.472   4.007  0.9472 -0.3798  2.9362
 5233TIP3   OH215662   5.598   6.365   0.522 -0.4522  0.6386  0.1825
 5233TIP3    H115663   5.686   6.368   0.484 -0.0131 -0.1567  1.0773
 5233TIP3    H215664   5.593   6.279   0.564 -1.0266  1.3371  1.6282
 5234TIP3   OH215665   2.155   0.902   2.863 -0.0473 -0.5420 -0.1403
 5234TIP3    H115666   2.213   0.834   2.898 -0.4066 -2.0261 -2.1860
 5234TIP3    H215667   2.089   0.914   2.931 -0.4426 -2.9093 -0.0114
 5235TIP3   OH215668   6.839   2.215   5.059  0.3155  0.3149 -0.6303
 5235TIP3    H115669   6.911   2.183   5.113  0.1262  0.7333 -0.1211
 5235TIP3    H215670   6.786   2.138   5.042  1.6137 -0.3026 -2.2101
 5236TIP3   OH215671   6.298   4.889   4.664 -0.3474  0.3736 -0.4143
 5236TIP3    H115672   6.234   4.907   4.596 -1.1619 -0.8019  0.0072
 5236TIP3    H215673   6.335   4.975   4.687 -0.2160  0.8105 -2.1483
 5237TIP3   OH215674   5.364   3.436   4.356 -0.1735  0.5190 -0.0953
 5237TIP3    H115675   5.338   3.440   4.448  0.7664 -0.1709  0.2297
 5237TIP3    H215676   5.295   3.385   4.314  0.2781 -0.7451  0.6171
 5238TIP3   OH215677   2.475   3.477   3.761 -0.1957  0.0412 -0.7621
 5238TIP3    H115678   2.515   3.553   3.804  1.1677 -0.7998 -0.4721
 5238TIP3    H215679   2.490   3.492   3.668 -0.0896  0.2126 -0.7181
 5239TIP3   OH215680   3.667   3.596   3.110 -0.0427  0.2165 -0.0183
 5239TIP3    H115681   3.655   3.690   3.124 -2.7000  0.0781 -0.6779
 5239TIP3    H215682   3.602   3.555   3.167  0.3055 -1.1478 -0.5577
 5240TIP3   OH215683   5.767   4.967   1.212 -0.0704 -0.4907 -0.2247
 5240TIP3    H115684   5.765   4.909   1.288 -0.0672 -0.8497 -0.4933
 5240TIP3    H215685   5.756   5.055   1.248  0.4501 -0.6098  0.2337
 5241TIP3   OH215686   6.422   5.094   2.712 -0.2338 -0.0674 -0.1645
 5241TIP3    H115687   6.390   5.086   2.622 -0.1695  0.2784 -0.2188
 5241TIP3    H215688   6.406   5.186   2.735  1.1728  0.2509 -0.3693
 5242TIP3   OH215689   6.392   3.520   4.831  0.0939  0.9100 -0.6315
 5242TIP3    H115690   6.319   3.567   4.873  0.8768  1.4338  0.1954
 5242TIP3    H215691   6.392   3.434   4.873 -0.1452  0.8576 -0.7399
 5243TIP3   OH215692   3.862   5.041   2.195 -0.4157  0.2411  0.1928
 5243TIP3    H115693   3.889   5.093   2.119  1.9560 -0.3567  0.5518
 5243TIP3    H215694   3.803   4.975   2.159  1.3282 -0.5749 -1.3245
 5244TIP3   OH215695   6.910   2.438   0.410  0.5795 -0.5225 -0.4310
 5244TIP3    H115696   6.893   2.496   0.484  0.1084 -0.6572 -0.4283
 5244TIP3    H215697   6.903   2.350   0.446 -0.4542 -0.6043 -0.7895
 5245TIP3   OH215698   0.306   5.988   3.152 -0.6702  0.2232  0.0529
 5245TIP3    H115699   0.218   6.013   3.126 -0.5155  1.5077  0.6779
 5245TIP3    H215700   0.362   6.058   3.118 -0.0062 -0.0696  0.5164
 5246TIP3   OH215701   1.778   4.558   3.518  0.2999 -0.3082  0.1339
 5246TIP3    H115702   1.801   4.640   3.474 -2.4393 -0.7360 -2.3557
 5246TIP3    H215703   1.853   4.501   3.503  1.1568  0.9025 -0.3327
 5247TIP3   OH215704   2.233   0.561   5.253 -0.0219 -0.1432 -0.8090
 5247TIP3    H115705   2.198   0.509   5.181 -1.7351 -1.1159  0.6458
 5247TIP3    H215706   2.169   0.632   5.265  1.7669  1.8143 -2.1043
 5248TIP3   OH215707   1.377   2.163   0.961  0.4171  0.9162  0.7760
 5248TIP3    H115708   1.310   2.095   0.958 -0.1299  1.4631 -1.0536
 5248TIP3    H215709   1.332   2.242   0.990 -0.2972  1.7486 -2.2161
 5249TIP3   OH215710   6.280   3.496   3.382 -0.4066 -0.2054 -0.4498
 5249TIP3    H115711   6.244   3.512   3.470  0.1030  0.1931 -0.3116
 5249TIP3    H215712   6.267   3.402   3.368 -1.7526 -0.0283 -0.5151
 5250TIP3   OH215713   0.288   2.626   3.145 -0.0757 -0.1009  0.4560
 5250TIP3    H115714   0.264   2.703   3.196  0.9595 -0.4620  1.5258
 5250TIP3    H215715   0.241   2.554   3.186  1.1431 -0.4716  1.2464
 5251TIP3   OH215716   5.180   6.005   0.386  0.0135 -0.1130  0.1437
 5251TIP3    H115717   5.211   5.914   0.392  0.8103  0.1629  0.3461
 5251TIP3    H215718   5.097   6.005   0.433 -1.0228 -1.1735 -1.5638
 5252TIP3   OH215719   6.313   2.639   4.930  0.6201  0.0941  0.2716
 5252TIP3    H115720   6.380   2.658   4.864  0.4686  2.0342  0.6215
 5252TIP3    H215721   6.362   2.605   5.005  1.2669  1.7386  0.6179
 5253TIP3   OH215722   0.812   5.145   4.392 -0.1115 -0.3129  0.6379
 5253TIP3    H115723   0.784   5.102   4.311 -0.6634 -1.3777  1.3644
 5253TIP3    H215724   0.904   5.167   4.378 -0.4600  0.4002 -0.6327
 5254TIP3   OH215725   0.831   4.963   0.945  0.3008  0.1452  0.5196
 5254TIP3    H115726   0.857   5.054   0.932  0.5343 -0.2679 -2.8175
 5254TIP3    H215727   0.741   4.959   0.912  0.1215 -0.7797  1.0691
 5255TIP3   OH215728   3.436   3.746   2.642  0.1636  0.1420 -0.3480
 5255TIP3    H115729   3.492   3.767   2.718  0.4914 -1.2954 -0.1661
 5255TIP3    H215730   3.383   3.825   2.630  0.2569  0.4950  1.2421
 5256TIP3   OH215731   1.030   2.762   1.316 -0.3138 -0.4564 -0.4294
 5256TIP3    H115732   1.073   2.764   1.401 -0.2816 -2.1257 -0.3831
 5256TIP3    H215733   1.101   2.776   1.253 -0.3820  1.1007 -0.2128
 5257TIP3   OH215734   2.947   4.905   5.828  0.1955 -0.0944  0.1877
 5257TIP3    H115735   3.032   4.950   5.828  0.4442 -0.5348 -0.8392
 5257TIP3    H215736   2.965   4.822   5.874  0.7617 -0.9113 -1.4024
 5258TIP3   OH215737   5.574   3.423   2.093  0.2964  0.1494  0.2771
 5258TIP3    H115738   5.592   3.410   2.000  0.2619  0.9648  0.1544
 5258TIP3    H215739   5.617   3.506   2.115 -2.2124  1.5454  0.2549
 5259TIP3   OH215740   3.358   0.819   5.768 -0.4775 -0.4031  0.4729
 5259TIP3    H115741   3.265   0.843   5.775 -0.4014 -0.3373  1.4214
 5259TIP3    H215742   3.400   0.896   5.730 -0.5336  0.2910  1.7562
 5260TIP3   OH215743   3.116   0.063   5.234  0.2145 -0.1641 -0.1811
 5260TIP3    H115744   3.031   0.019   5.231  0.7869 -1.2638 -1.0035
 5260TIP3    H215745   3.107   0.129   5.303 -1.2928 -0.2712 -0.2505
 5261TIP3   OH215746   6.988   2.845   5.506  0.4166 -0.2806 -0.1880
 5261TIP3    H115747   6.949   2.865   5.591 -0.2067  1.9475 -0.9281
 5261TIP3    H215748   7.080   2.829   5.525  0.6317  1.7629  0.7735
 5262TIP3   OH215749   5.959   3.360   0.980 -0.4332 -0.1858 -0.4598
 5262TIP3    H115750   5.985   3.295   0.915 -0.2942  2.1404 -2.9185
 5262TIP3    H215751   5.875   3.394   0.948  0.0546  1.6261  0.0388
 5263TIP3   OH215752   1.667   3.549   2.792 -0.3616 -0.1242  0.0274
 5263TIP3    H115753   1.701   3.575   2.878  0.8532 -0.0033 -0.4777
 5263TIP3    H215754   1.618   3.468   2.810  0.5031 -0.5104  0.7195
 5264TIP3   OH215755   6.015   6.042   3.231  0.1574 -0.2213 -0.8285
 5264TIP3    H115756   6.061   5.992   3.299 -0.9191  1.8647  1.5655
 5264TIP3    H215757   5.927   6.004   3.229  0.0669 -0.0171 -0.7468
 5265TIP3   OH215758   1.298   3.067   1.069 -0.2954  0.5115  0.8491
 5265TIP3    H115759   1.216   3.071   1.019 -0.8049  0.5148  1.6685
 5265TIP3    H215760   1.361   3.028   1.008 -1.4731 -1.6600  0.9175
 5266TIP3   OH215761   5.516   2.583   0.014  0.1314 -0.1988 -0.1123
 5266TIP3    H115762   5.525   2.625  -0.071  0.3385 -0.7423 -0.3597
 5266TIP3    H215763   5.480   2.651   0.071  1.0694  0.4964 -0.3463
 5267TIP3   OH215764   6.989   2.719   1.257 -0.2179  0.1405  0.2895
 5267TIP3    H115765   6.948   2.789   1.206  1.0443  0.5377 -0.2150
 5267TIP3    H215766   6.963   2.639   1.211 -0.5011  0.3745  0.0322
 5268TIP3   OH215767   6.543   2.787   4.068 -0.1460 -0.1721 -0.2046
 5268TIP3    H115768   6.593   2.857   4.027  2.2803 -0.3566  2.1665
 5268TIP3    H215769   6.536   2.813   4.159  0.5916 -2.8218  0.6919
 5269TIP3   OH215770   5.636   4.747   2.410 -0.3042 -0.2107  0.0511
 5269TIP3    H115771   5.609   4.729   2.500  0.5165 -1.0849  0.1406
 5269TIP3    H215772   5.671   4.836   2.413 -0.2111 -0.2600  0.6195
 5270TIP3   OH215773   1.383   2.640   1.800 -0.3896  0.3521 -0.2652
 5270TIP3    H115774   1.339   2.707   1.748 -0.1205  0.1764 -0.7323
 5270TIP3    H215775   1.410   2.574   1.736  2.4998  1.4868 -0.3714
 5271TIP3   OH215776   5.824   1.291   1.864  0.4874 -0.3932  0.5620
 5271TIP3    H115777   5.884   1.359   1.895  0.7553 -0.3948  0.0726
 5271TIP3    H215778   5.836   1.218   1.924  0.1578  0.0090  1.1268
 5272TIP3   OH215779   6.452   0.639   4.942  0.2678  0.0467 -0.5722
 5272TIP3    H115780   6.465   0.663   4.850 -0.7414 -0.3306 -0.8232
 5272TIP3    H215781   6.414   0.716   4.983  2.3351  0.8588 -0.0236
 5273TIP3   OH215782   5.775   1.062   0.196  0.9783 -0.1669  0.1532
 5273TIP3    H115783   5.817   1.114   0.265 -0.8858  2.8797 -0.8111
 5273TIP3    H215784   5.811   1.097   0.114  0.9992 -1.6909 -0.5182
 5274TIP3   OH215785   0.018   0.494   0.166  0.1907  0.4230 -0.0328
 5274TIP3    H115786   0.070   0.432   0.217  0.9751  0.9856 -0.1333
 5274TIP3    H215787   0.079   0.530   0.102 -0.0733  1.7690  0.4317
 5275TIP3   OH215788   6.493   6.789   3.507 -0.2866 -0.5812  0.4895
 5275TIP3    H115789   6.529   6.843   3.578  0.2063 -0.2129 -0.0371
 5275TIP3    H215790   6.449   6.718   3.553  0.3036 -0.5294  1.1744
 5276TIP3   OH215791   3.882   4.318   1.171  0.2385  0.0777 -0.0487
 5276TIP3    H115792   3.896   4.243   1.113 -0.2486 -0.2550  0.2555
 5276TIP3    H215793   3.817   4.372   1.127  0.4799  0.2531 -0.1969
 5277TIP3   OH215794   4.340   0.864   1.478 -0.0891 -0.5097  0.1208
 5277TIP3    H115795   4.407   0.798   1.496  0.3191 -0.3556 -0.7842
 5277TIP3    H215796   4.273   0.816   1.429 -0.1679 -0.4348  0.1558
 5278TIP3   OH215797   6.495   4.443   4.747 -0.0245 -0.3276  0.5906
 5278TIP3    H115798   6.528   4.520   4.700  1.0224 -0.7377  0.6369
 5278TIP3    H215799   6.444   4.395   4.682  0.4453 -0.2844  0.1868
 5279TIP3   OH215800   3.358   0.343   4.366 -0.2614 -0.5370  0.3365
 5279TIP3    H115801   3.435   0.307   4.322 -0.7959 -1.8365  0.4193
 5279TIP3    H215802   3.290   0.341   4.299 -0.4190 -0.1084  0.4846
 5280TIP3   OH215803   2.765   3.355   1.186  0.0370 -0.1855  0.1446
 5280TIP3    H115804   2.781   3.262   1.170 -0.8518 -0.3760  0.2915
 5280TIP3    H215805   2.689   3.376   1.132  0.4864  0.5721 -0.2188
 5281TIP3   OH215806   1.472   4.719   3.088  0.0128 -0.0214  0.3557
 5281TIP3    H115807   1.453   4.657   3.159  1.8805  1.8308  2.6340
 5281TIP3    H215808   1.410   4.790   3.102  0.2675  0.2712  0.0110
 5282TIP3   OH215809   3.425   0.589   5.652  0.3048 -0.3825  0.0047
 5282TIP3    H115810   3.395   0.666   5.701 -0.2097  0.4188 -1.5304
 5282TIP3    H215811   3.425   0.518   5.718  0.0863  0.7462  1.2684
 5283TIP3   OH215812   1.130   2.480   5.846  0.0182 -0.3931 -0.4415
 5283TIP3    H115813   1.203   2.438   5.800  0.8430  0.6578 -0.1501
 5283TIP3    H215814   1.129   2.438   5.932  1.5893  0.9159  0.2721
 5284TIP3   OH215815   1.126   0.748   4.216 -0.0280 -0.2970  0.1946
 5284TIP3    H115816   1.059   0.781   4.276 -0.1564 -1.8756  0.9718
 5284TIP3    H215817   1.134   0.817   4.150 -2.5961 -0.1458 -0.0879
 5285TIP3   OH215818   6.523   2.723   1.933 -0.2079  0.3019  0.3294
 5285TIP3    H115819   6.551   2.660   1.867 -0.5980  0.6796 -0.1979
 5285TIP3    H215820   6.481   2.670   2.001 -0.4734 -0.0083 -0.0789
 5286TIP3   OH215821   5.425   1.004   0.094  0.3561 -0.0585 -0.3864
 5286TIP3    H115822   5.462   0.968   0.014  2.7809 -0.1137  0.6510
 5286TIP3    H215823   5.403   1.094   0.073  0.2958 -0.2843 -1.3002
 5287TIP3   OH215824   3.421   1.241   5.493  0.1675 -0.3989 -0.1491
 5287TIP3    H115825   3.468   1.324   5.488 -0.6900  0.0763 -0.7495
 5287TIP3    H215826   3.335   1.265   5.528 -0.7377 -0.7220 -2.0367
 5288TIP3   OH215827   5.370   4.785   1.249 -0.5915  0.0261 -0.1606
 5288TIP3    H115828   5.359   4.871   1.289  1.4463  0.1855  0.1459
 5288TIP3    H215829   5.391   4.727   1.323  3.3184  0.3404 -0.8312
 5289TIP3   OH215830   0.321   2.550   4.486  0.5301 -0.2670  0.1455
 5289TIP3    H115831   0.318   2.617   4.418  0.2677  0.5772  0.9691
 5289TIP3    H215832   0.237   2.559   4.532  0.4762 -1.1884  0.2444
 5290TIP3   OH215833   4.643   5.157   0.289 -0.6814 -0.8196 -0.1518
 5290TIP3    H115834   4.616   5.214   0.217 -2.8685  0.2892  1.4426
 5290TIP3    H215835   4.718   5.202   0.329 -0.8708 -0.2928 -0.3795
 5291TIP3   OH215836   2.317   5.264   5.049  0.6895 -0.7575  0.4673
 5291TIP3    H115837   2.304   5.266   4.954  1.1405 -2.0653  0.3557
 5291TIP3    H215838   2.388   5.327   5.065 -0.0797  0.2312  0.0819
 5292TIP3   OH215839   6.631   2.867   0.752 -0.1326 -0.3191  0.0811
 5292TIP3    H115840   6.565   2.907   0.809 -1.8422  1.5169 -2.9068
 5292TIP3    H215841   6.595   2.781   0.730 -0.7683  0.0361 -0.2864
 5293TIP3   OH215842   5.383   2.147   2.477 -0.1859  0.1909 -0.0892
 5293TIP3    H115843   5.342   2.228   2.505  0.7106  0.4527  0.5110
 5293TIP3    H215844   5.330   2.117   2.403 -1.0720  0.8294  0.2781
 5294TIP3   OH215845   0.599   3.239   1.064  0.1034 -0.1438  0.0984
 5294TIP3    H115846   0.666   3.308   1.072 -0.5374  0.4923  0.0406
 5294TIP3    H215847   0.523   3.274   1.110 -1.1958  0.4175 -2.3187
 5295TIP3   OH215848   5.424   6.424   2.877  0.3568 -0.1210 -0.2817
 5295TIP3    H115849   5.519   6.420   2.886  0.5111 -0.5655 -1.7653
 5295TIP3    H215850   5.395   6.487   2.943  1.8555  1.3529 -0.9919
 5296TIP3   OH215851   2.631   4.036   1.696 -0.1956  0.3951  0.6498
 5296TIP3    H115852   2.629   4.101   1.766 -0.8877 -0.4382  1.4371
 5296TIP3    H215853   2.598   3.956   1.737  0.8780 -0.5316 -0.2103
 5297TIP3   OH215854   2.049   6.291   4.740 -0.4088  0.5342 -1.0395
 5297TIP3    H115855   1.974   6.271   4.683 -0.2454  2.4507 -1.9948
 5297TIP3    H215856   2.075   6.380   4.716  2.7119 -0.3256 -1.3148
 5298TIP3   OH215857   3.884   0.021   5.074 -0.0351  0.4332 -0.2255
 5298TIP3    H115858   3.911   0.084   5.141  1.5811 -1.2131  0.7613
 5298TIP3    H215859   3.821  -0.036   5.119  0.1324  0.0541 -0.4704
 5299TIP3   OH215860   2.683   6.141   3.874 -0.1173 -0.0602 -0.2410
 5299TIP3    H115861   2.724   6.179   3.952  0.6156 -0.7571 -0.2750
 5299TIP3    H215862   2.591   6.167   3.880 -0.1879 -0.5438  1.1280
 5300TIP3   OH215863   7.081   0.137   3.360 -0.0853  0.1597  0.2255
 5300TIP3    H115864   7.130   0.093   3.290  0.4778  1.0556  0.0431
 5300TIP3    H215865   7.133   0.215   3.380 -0.8739  0.5453  0.8013
 5301TIP3   OH215866   4.663   4.846   1.383 -0.2152  0.6837  0.5056
 5301TIP3    H115867   4.692   4.766   1.427  0.9578  0.6750 -0.2661
 5301TIP3    H215868   4.689   4.916   1.442  0.3947  0.6070  0.3270
 5302TIP3   OH215869   6.005   5.573   0.091 -0.3558 -0.1024  0.5630
 5302TIP3    H115870   6.063   5.503   0.122 -1.0475 -0.8584  0.1930
 5302TIP3    H215871   5.964   5.607   0.170  0.5015  0.3713  0.8191
 5303TIP3   OH215872   5.013   5.730   2.033  0.5840 -0.6684  0.5495
 5303TIP3    H115873   4.985   5.684   2.113 -0.2061 -1.1570  0.0062
 5303TIP3    H215874   5.107   5.712   2.028  0.3859 -1.8586  0.6065
 5304TIP3   OH215875   5.983   2.991   2.769 -0.1856  0.2747  0.1307
 5304TIP3    H115876   5.931   2.944   2.833 -1.2659  0.7592 -0.3581
 5304TIP3    H215877   6.068   2.948   2.769 -0.8332 -1.0297  0.4003
 5305TIP3   OH215878   2.395   5.277   5.778 -0.6020  0.2131 -0.0378
 5305TIP3    H115879   2.481   5.287   5.736 -0.0975 -0.6879  0.7244
 5305TIP3    H215880   2.416   5.249   5.868 -1.6464  1.6873  0.7079
 5306TIP3   OH215881   0.969   4.284   5.121 -0.4267  0.7911  0.7920
 5306TIP3    H115882   0.899   4.252   5.064 -1.4727  1.3934  1.7013
 5306TIP3    H215883   0.961   4.379   5.117 -0.5971  0.8417  2.0213
 5307TIP3   OH215884   2.545   4.750   0.344  0.4271  0.7010 -0.5720
 5307TIP3    H115885   2.456   4.715   0.354  0.8947 -0.0886  1.3380
 5307TIP3    H215886   2.532   4.843   0.325 -0.8059  0.5876 -0.3980
 5308TIP3   OH215887   2.069   0.854   4.240  0.2395  0.7964 -0.2009
 5308TIP3    H115888   2.066   0.936   4.192 -1.8210  0.9219  0.0421
 5308TIP3    H215889   1.987   0.810   4.218  2.1335 -2.1813 -1.9045
 5309TIP3   OH215890   5.284   5.732   0.390 -0.3806 -0.2978  0.6086
 5309TIP3    H115891   5.199   5.707   0.354 -0.6963  1.2071  0.2683
 5309TIP3    H215892   5.300   5.668   0.460 -2.0761 -0.2090  1.1072
 5310TIP3   OH215893   1.825   1.254   0.197 -0.6327 -0.1941  0.1055
 5310TIP3    H115894   1.858   1.291   0.115  0.6247  0.4889  0.8910
 5310TIP3    H215895   1.815   1.161   0.179 -1.1594  0.0654 -1.0572
 5311TIP3   OH215896   4.232   4.527   0.803 -0.3125  0.5367 -0.3547
 5311TIP3    H115897   4.305   4.522   0.741  0.2344  1.4162  0.1973
 5311TIP3    H215898   4.160   4.562   0.752 -0.4649 -0.6383 -0.9889
 5312TIP3   OH215899   5.223   1.361   0.239 -0.0896  0.2668 -0.2789
 5312TIP3    H115900   5.172   1.427   0.192  0.8353  1.0299 -0.2259
 5312TIP3    H215901   5.314   1.390   0.232  0.2087 -0.3450  0.7991
 5313TIP3   OH215902   0.125   5.837   4.661 -0.1538  0.2685  0.4399
 5313TIP3    H115903   0.109   5.872   4.749  0.0788  1.8398 -0.1203
 5313TIP3    H215904   0.217   5.809   4.662 -0.4718 -0.7946  1.0342
 5314TIP3   OH215905   4.766   4.671   0.533 -0.2770  0.1114  0.2471
 5314TIP3    H115906   4.785   4.667   0.627  0.6014 -1.0586  0.0461
 5314TIP3    H215907   4.793   4.759   0.507 -0.4819  0.4316  1.0764
 5315TIP3   OH215908   4.731   6.636   2.121 -0.0258  0.1747 -0.0744
 5315TIP3    H115909   4.802   6.627   2.184  0.8598  0.9900 -0.8988
 5315TIP3    H215910   4.719   6.731   2.111  1.5357  0.2092 -2.8369
 5316TIP3   OH215911   4.412   3.619   5.156  0.2826  0.3612 -0.4652
 5316TIP3    H115912   4.395   3.685   5.224 -0.8005 -0.4884  0.1216
 5316TIP3    H215913   4.328   3.608   5.112  0.1474 -1.4119  0.1760
 5317TIP3   OH215914   1.429   5.832   1.647  0.3046 -0.1102  0.3128
 5317TIP3    H115915   1.524   5.820   1.648  0.1604 -1.4104  1.2181
 5317TIP3    H215916   1.416   5.926   1.654  1.5239  0.1199 -0.2414
 5318TIP3   OH215917   7.133   4.741   4.783  0.1156  0.2632 -0.4570
 5318TIP3    H115918   7.069   4.738   4.713 -0.6018  1.2734  0.1325
 5318TIP3    H215919   7.198   4.805   4.754  0.4023 -0.1115 -0.6599
 5319TIP3   OH215920   6.010   5.682   3.884 -0.5115  0.0869  0.1023
 5319TIP3    H115921   6.021   5.651   3.974 -2.0946 -2.5966 -0.5423
 5319TIP3    H215922   6.094   5.664   3.842 -0.4170 -0.4995  0.5348
 5320TIP3   OH215923   4.041   5.757   0.406 -0.4612  0.1972  0.1106
 5320TIP3    H115924   3.984   5.717   0.340 -0.6652  0.2605  0.2450
 5320TIP3    H215925   4.007   5.846   0.416  0.0630  0.4405 -0.2701
 5321TIP3   OH215926   0.350   0.063   4.271  0.5133  0.0326  0.0982
 5321TIP3    H115927   0.362   0.142   4.325  0.1664  0.0028  0.2228
 5321TIP3    H215928   0.256   0.053   4.264  0.5566 -0.1431 -0.2611
 5322TIP3   OH215929   2.337   6.691   4.752  0.1758  0.7522 -0.1069
 5322TIP3    H115930   2.399   6.628   4.789 -1.8342 -0.8754  0.6878
 5322TIP3    H215931   2.353   6.688   4.658  0.7876 -0.2221  0.0102
 5323TIP3   OH215932   1.983   4.286   2.488  0.3007 -0.0332 -0.0721
 5323TIP3    H115933   2.018   4.200   2.466  0.2788  0.0015 -0.2509
 5323TIP3    H215934   2.036   4.315   2.563  2.2617  1.0092 -1.7458
 5324TIP3   OH215935   1.934   0.184   5.702 -0.1474 -0.0100 -0.3587
 5324TIP3    H115936   1.901   0.271   5.678 -0.9956 -0.3285 -0.3815
 5324TIP3    H215937   1.857   0.128   5.700  0.4361 -0.8143 -0.5526
 5325TIP3   OH215938   3.846   1.313   0.191 -0.0551  0.4424  0.5192
 5325TIP3    H115939   3.832   1.222   0.164 -0.3317  0.9693 -1.2420
 5325TIP3    H215940   3.928   1.311   0.240  0.5998 -0.5629 -0.5721
 5326TIP3   OH215941   4.774   3.085   0.701 -0.0593  0.1020  0.4910
 5326TIP3    H115942   4.759   2.996   0.734  0.7599 -0.2705 -0.1227
 5326TIP3    H215943   4.855   3.079   0.651 -2.1032  0.2104 -3.1874
 5327TIP3   OH215944   0.223   3.876   2.346  0.0992  0.1285 -0.3984
 5327TIP3    H115945   0.272   3.801   2.380  0.4879  0.6135  0.1333
 5327TIP3    H215946   0.262   3.951   2.390 -0.1192  0.6667 -1.1143
 5328TIP3   OH215947   0.453   2.135   2.903 -0.0698  0.0815 -0.3822
 5328TIP3    H115948   0.422   2.055   2.946  0.7539 -1.3054 -2.2540
 5328TIP3    H215949   0.549   2.127   2.904 -0.0106  0.5200 -1.5084
 5329TIP3   OH215950   5.612   3.839   4.492 -0.4371  0.2681 -0.7016
 5329TIP3    H115951   5.591   3.757   4.448  1.0245 -1.5257  1.7241
 5329TIP3    H215952   5.621   3.903   4.420 -0.7994 -1.8318 -2.7359
 5330TIP3   OH215953   0.834   3.953   4.563  0.5414  0.0207  0.0375
 5330TIP3    H115954   0.853   4.020   4.629  0.6156 -1.1089  1.1970
 5330TIP3    H215955   0.919   3.914   4.544  0.3588 -0.4122  0.1033
 5331TIP3   OH215956   4.702   3.019   3.427 -0.1778 -0.0389  0.4948
 5331TIP3    H115957   4.689   3.086   3.359 -0.4168 -1.1932 -0.6234
 5331TIP3    H215958   4.783   3.045   3.470 -0.3643  1.0754  0.2238
 5332TIP3   OH215959   5.943   6.264   2.223 -0.4182  0.4411  0.1130
 5332TIP3    H115960   5.983   6.337   2.176 -1.0724  0.5788 -0.2302
 5332TIP3    H215961   6.015   6.227   2.274  0.4025  0.0648 -1.2639
 5333TIP3   OH215962   0.947   3.590   1.983  0.3247  0.4781  0.1130
 5333TIP3    H115963   0.935   3.681   2.012  0.9520  0.8864 -0.8499
 5333TIP3    H215964   0.882   3.579   1.914  0.1201  0.1234  0.3588
 5334TIP3   OH215965   4.982   5.398   2.255  0.4211  0.2118 -0.0268
 5334TIP3    H115966   4.948   5.482   2.287  1.4235  1.0761 -1.1679
 5334TIP3    H215967   5.067   5.390   2.297 -0.4642 -1.2241  1.6267
 5335TIP3   OH215968   6.521   0.965   4.829 -0.5601 -0.6818  0.2068
 5335TIP3    H115969   6.456   1.019   4.784 -0.6582  0.2930  1.4668
 5335TIP3    H215970   6.602   1.015   4.826 -0.0880 -1.4509 -0.4831
 5336TIP3   OH215971   5.503   6.009   0.057  0.0216  0.0712  0.3753
 5336TIP3    H115972   5.516   6.095   0.095 -0.0689  0.5706 -0.6956
 5336TIP3    H215973   5.589   5.967   0.060  0.2261  0.4817  0.2081
 5337TIP3   OH215974   1.438   2.295   3.274 -0.3143 -0.0179  0.3853
 5337TIP3    H115975   1.375   2.244   3.325  0.4352 -1.3715 -0.0026
 5337TIP3    H215976   1.443   2.250   3.190  0.3434  0.7252  0.0122
 5338TIP3   OH215977   1.901   4.926   2.212 -0.3347  0.3418 -0.3383
 5338TIP3    H115978   1.898   4.877   2.294 -0.5765 -2.7224 -2.0244
 5338TIP3    H215979   1.811   4.930   2.182  0.0008 -0.7390 -1.5829
 5339TIP3   OH215980   7.055   6.170   3.756 -0.3822 -0.1134 -0.1772
 5339TIP3    H115981   7.129   6.114   3.732  1.8271  2.8789 -1.0680
 5339TIP3    H215982   6.994   6.161   3.683  0.6887 -0.1690 -1.0929
 5340TIP3   OH215983   6.835   3.159   0.946 -0.1676 -0.3207  0.4124
 5340TIP3    H115984   6.880   3.127   1.025 -0.1892 -2.7105 -0.4610
 5340TIP3    H215985   6.765   3.214   0.980  0.9214  0.1684  1.9772
 5341TIP3   OH215986   2.126   4.369   0.291 -0.2146 -0.2384 -0.7067
 5341TIP3    H115987   2.120   4.291   0.345 -0.8210  0.3757  0.1586
 5341TIP3    H215988   2.050   4.365   0.234  0.1454 -0.6322 -1.1610
 5342TIP3   OH215989   2.869   5.484   5.110  0.1677  0.0334 -0.1218
 5342TIP3    H115990   2.939   5.458   5.050 -0.2078  1.9418 -1.4725
 5342TIP3    H215991   2.808   5.411   5.109  1.5110 -1.1334  0.1222
 5343TIP3   OH215992   6.060   6.194   0.251 -0.3057  0.0080 -0.3787
 5343TIP3    H115993   6.046   6.279   0.210 -0.1083 -0.1499 -0.7717
 5343TIP3    H215994   6.135   6.208   0.308  0.3992 -0.1816 -1.2511
 5344TIP3   OH215995   6.245   0.588   3.120 -0.3655 -0.0406  0.0083
 5344TIP3    H115996   6.169   0.646   3.131  0.5610  1.0868  0.6158
 5344TIP3    H215997   6.207   0.501   3.112 -1.8100  0.6424 -1.0567
 5345TIP3   OH215998   4.361   4.427   2.473  0.7590  0.0451  0.0741
 5345TIP3    H115999   4.414   4.440   2.551  0.4296  0.0832  0.2952
 5345TIP3    H216000   4.282   4.478   2.489  0.7824  0.2262 -0.3796
 5346TIP3   OH216001   6.174   1.807   3.036  0.1031  0.4730 -0.0741
 5346TIP3    H116002   6.250   1.866   3.033  0.3126  0.2082  0.0302
 5346TIP3    H216003   6.117   1.845   3.103  0.6344  0.0777  0.6082
 5347TIP3   OH216004   2.386   2.699   1.616 -0.4506  0.1253 -0.3303
 5347TIP3    H116005   2.449   2.684   1.686 -1.3726 -0.9835  0.3010
 5347TIP3    H216006   2.372   2.794   1.617 -1.3043  0.0431  1.8040
 5348TIP3   OH216007   4.393   6.714   2.121 -1.0040  0.8133 -0.1868
 5348TIP3    H116008   4.358   6.646   2.179  1.1179  0.7985  1.1811
 5348TIP3    H216009   4.450   6.667   2.060 -0.1798  1.2437  0.2321
 5349TIP3   OH216010   1.100   5.561   3.950 -0.0726  0.4185 -0.1936
 5349TIP3    H116011   1.159   5.515   3.890  0.2766  0.5198  0.0726
 5349TIP3    H216012   1.157   5.616   4.003 -0.3611  0.1947  0.3574
 5350TIP3   OH216013   4.381   5.424   4.408 -0.4033  0.3298 -0.4546
 5350TIP3    H116014   4.319   5.359   4.442  0.3148 -0.3514 -0.4066
 5350TIP3    H216015   4.326   5.493   4.373 -1.1872 -0.0355  0.0165
 5351TIP3   OH216016   4.426   3.093   3.259 -0.6387 -0.0510 -0.6326
 5351TIP3    H116017   4.343   3.132   3.232 -0.2734  0.5621 -0.8988
 5351TIP3    H216018   4.470   3.162   3.309  0.2581  0.1038 -1.5894
 5352TIP3   OH216019   6.406   6.665   4.301  0.4061 -0.8856  0.3371
 5352TIP3    H116020   6.340   6.714   4.350  0.6769  0.5725 -0.6972
 5352TIP3    H216021   6.474   6.645   4.365 -0.1105 -0.6711  0.9670
 5353TIP3   OH216022   6.811   0.130   3.394 -0.1225 -0.1023 -0.5614
 5353TIP3    H116023   6.789   0.099   3.306  0.9178  0.5760 -1.0725
 5353TIP3    H216024   6.905   0.147   3.391 -0.1495  0.3380  0.5608
 5354TIP3   OH216025   4.635   1.882   1.721  0.0387  0.5294 -0.6019
 5354TIP3    H116026   4.603   1.929   1.644 -0.3907 -1.8364 -1.9410
 5354TIP3    H216027   4.588   1.799   1.721  0.5164  0.1651  1.8726
 5355TIP3   OH216028   6.387   2.886   3.726  0.0209 -0.3057 -0.2294
 5355TIP3    H116029   6.479   2.913   3.725 -0.4325  1.5761  1.6800
 5355TIP3    H216030   6.384   2.811   3.786 -0.1059  1.7818  2.5401
 5356TIP3   OH216031   5.754   1.436   4.184 -0.0185  0.7036  0.2321
 5356TIP3    H116032   5.675   1.489   4.178  0.5333  1.7262  1.5914
 5356TIP3    H216033   5.728   1.361   4.238 -0.2123  0.7298  0.1773
 5357TIP3   OH216034   3.493   6.305   1.234  0.4742  0.0176  0.0931
 5357TIP3    H116035   3.504   6.339   1.146 -0.4418  0.4365  0.1240
 5357TIP3    H216036   3.444   6.224   1.223 -0.3623  0.4857  0.2594
 5358TIP3   OH216037   0.446   0.922   0.831 -0.2403 -0.6614  0.1731
 5358TIP3    H116038   0.477   1.001   0.787  1.8286 -1.4625  0.0662
 5358TIP3    H216039   0.382   0.884   0.770  0.0908  0.0086 -0.6156
 5359TIP3   OH216040   1.103   3.739   4.197  0.5094 -0.4421 -0.1109
 5359TIP3    H116041   1.175   3.716   4.139  2.6275  4.0264  0.3287
 5359TIP3    H216042   1.045   3.793   4.143 -0.3031 -0.5563  0.6221
 5360TIP3   OH216043   5.678   3.665   2.142 -0.2020 -0.1382  0.5920
 5360TIP3    H116044   5.683   3.753   2.105 -2.1598  0.3059  1.2596
 5360TIP3    H216045   5.766   3.647   2.174  0.2299  1.5887  0.4782
 5361TIP3   OH216046   3.568   1.168   2.857  0.4094 -0.5129  0.0662
 5361TIP3    H116047   3.602   1.109   2.790  0.6550  0.2530 -0.4943
 5361TIP3    H216048   3.579   1.120   2.939 -0.0856 -1.5468 -0.4492
 5362TIP3   OH216049   5.666   0.377   5.135 -0.4554  0.2760  0.8448
 5362TIP3    H116050   5.714   0.458   5.123 -1.9257  1.3865  2.1665
 5362TIP3    H216051   5.732   0.313   5.160  0.6401  1.1751  0.3293
 5363TIP3   OH216052   1.624   1.759   2.893 -0.3903  0.0120 -0.3139
 5363TIP3    H116053   1.587   1.791   2.975  1.1190  0.4882  0.2143
 5363TIP3    H216054   1.551   1.760   2.831 -1.6728 -0.7789  1.1240
 5364TIP3   OH216055   7.041   3.434   5.551 -0.4177 -0.2769  0.0158
 5364TIP3    H116056   7.033   3.415   5.644 -1.3516 -0.8480 -0.1660
 5364TIP3    H216057   6.951   3.437   5.519 -0.0830 -1.6671 -1.1722
 5365TIP3   OH216058   3.754   3.941   5.415 -0.0512 -0.0085  0.3916
 5365TIP3    H116059   3.734   3.852   5.443  0.6509 -0.8115 -1.4898
 5365TIP3    H216060   3.680   3.993   5.446 -1.2428 -1.5298  0.2176
 5366TIP3   OH216061   4.229   2.385   4.339  0.1499  0.3803 -0.0109
 5366TIP3    H116062   4.172   2.345   4.274  0.6857  0.9454 -0.8423
 5366TIP3    H216063   4.193   2.473   4.352 -1.3478 -0.4531  2.2044
 5367TIP3   OH216064   5.026   5.137   0.041  0.1336 -0.1027  0.4952
 5367TIP3    H116065   5.069   5.132  -0.044  0.8210  0.1149  0.8276
 5367TIP3    H216066   5.034   5.228   0.067 -0.5066 -0.0663  0.5756
 5368TIP3   OH216067   1.908   0.758   0.126 -0.2417  0.0360  0.2526
 5368TIP3    H116068   1.959   0.807   0.190 -1.1224  0.9634  0.2704
 5368TIP3    H216069   1.945   0.785   0.041 -0.8329  0.8827  0.2534
 5369TIP3   OH216070   3.044   1.436   0.988 -0.0606 -0.1492 -0.7118
 5369TIP3    H116071   3.005   1.377   0.924 -0.0263  0.1820 -1.0454
 5369TIP3    H216072   2.988   1.514   0.985  0.0048 -0.0915 -0.4162
 5370TIP3   OH216073   1.644   6.697   1.397 -0.4104 -0.2163 -0.0153
 5370TIP3    H116074   1.650   6.619   1.342 -1.7068 -0.2852 -0.0882
 5370TIP3    H216075   1.567   6.744   1.365  0.2400  1.0107  0.1495
 5371TIP3   OH216076   0.084   1.074   5.608  0.3851  0.3372 -0.2970
 5371TIP3    H116077   0.107   1.131   5.681  2.2954  1.0633 -1.4094
 5371TIP3    H216078   0.121   0.989   5.632 -2.5228 -0.6071  1.3936
 5372TIP3   OH216079   7.130   0.083   0.859 -0.5122 -0.4115  0.0625
 5372TIP3    H116080   7.177   0.071   0.776 -0.2687 -1.0809  0.2959
 5372TIP3    H216081   7.063   0.015   0.859 -0.0521 -0.8788  0.7331
 5373TIP3   OH216082   5.366   0.684   1.960 -0.2930  0.4367  0.5339
 5373TIP3    H116083   5.459   0.670   1.980 -0.0121 -0.5061 -1.2486
 5373TIP3    H216084   5.322   0.680   2.045  1.3860  1.8251  1.5310
 5374TIP3   OH216085   1.817   4.992   3.363  0.4678  0.2003  0.4240
 5374TIP3    H116086   1.829   4.981   3.268  2.7133  3.2176  0.2115
 5374TIP3    H216087   1.726   5.019   3.372  0.0784 -0.5916 -0.7884
 5375TIP3   OH216088   4.187   2.563   2.829 -0.5781  0.0433 -0.7589
 5375TIP3    H116089   4.119   2.571   2.896  0.5440 -0.0895  0.4354
 5375TIP3    H216090   4.141   2.532   2.752 -2.4441  2.9419 -0.9675
 5376TIP3   OH216091   1.416   5.262   2.159 -0.3553  0.5409  0.0705
 5376TIP3    H116092   1.435   5.226   2.072 -0.0604  0.2975  0.2313
 5376TIP3    H216093   1.481   5.331   2.171 -0.7103  0.9073 -0.1023
 5377TIP3   OH216094   1.738   3.905   3.581 -0.2569 -0.6769  0.0771
 5377TIP3    H116095   1.728   3.826   3.528  0.2019 -1.1754  0.7230
 5377TIP3    H216096   1.648   3.938   3.592 -0.2399  0.4347 -2.4668
 5378TIP3   OH216097   5.395   5.654   1.550  0.5140  0.0961 -0.0223
 5378TIP3    H116098   5.355   5.575   1.514  0.5144  0.2202 -0.3061
 5378TIP3    H216099   5.452   5.623   1.620 -0.2233 -0.0597  0.5077
 5379TIP3   OH216100   0.126   3.159   2.525 -0.0373  0.3507 -0.0803
 5379TIP3    H116101   0.147   3.175   2.433 -1.6510 -1.0933 -0.7595
 5379TIP3    H216102   0.086   3.240   2.555  0.6066  0.8791 -0.6128
 5380TIP3   OH216103   1.198   3.096   4.823  0.0299  0.4833  0.4156
 5380TIP3    H116104   1.233   3.007   4.827  1.7108  0.9744 -1.5067
 5380TIP3    H216105   1.124   3.096   4.884 -0.4415 -2.4079 -0.0171
 5381TIP3   OH216106   7.046   5.193   2.737  0.1227  0.5266 -0.3221
 5381TIP3    H116107   7.017   5.156   2.820  0.3353  0.3855 -0.3107
 5381TIP3    H216108   7.103   5.266   2.761 -1.1045  1.5187 -0.3374
 5382TIP3   OH216109   3.592   2.345   3.269  0.3287 -0.1123  0.4897
 5382TIP3    H116110   3.658   2.395   3.222 -0.3634  0.8043  0.4416
 5382TIP3    H216111   3.532   2.314   3.201 -0.0228  0.2109  0.6473
 5383TIP3   OH216112   4.703   6.669   0.123 -0.1542 -0.5614  0.2802
 5383TIP3    H116113   4.753   6.725   0.182  0.5993 -0.7146 -0.1964
 5383TIP3    H216114   4.640   6.728   0.081  2.3446  0.5796 -2.1921
 5384TIP3   OH216115   3.569   2.469   1.147  0.1768 -0.5078  0.2547
 5384TIP3    H116116   3.549   2.480   1.054  1.3477  1.4173  0.1883
 5384TIP3    H216117   3.656   2.430   1.148  0.6922  0.6043  0.5083
 5385TIP3   OH216118   6.242   1.756   2.453 -0.3354 -0.0324  0.4453
 5385TIP3    H116119   6.298   1.825   2.420  0.1515 -0.9023 -0.6282
 5385TIP3    H216120   6.196   1.795   2.527 -0.0299  1.4022 -0.0877
 5386TIP3   OH216121   2.220   5.842   3.221  0.1531  0.1207 -0.2174
 5386TIP3    H116122   2.242   5.846   3.128 -1.3037 -0.8101 -0.6519
 5386TIP3    H216123   2.241   5.928   3.255 -0.1969  0.7978 -1.6395
 5387TIP3   OH216124   1.841   1.890   3.810 -0.1388  0.2285 -0.4630
 5387TIP3    H116125   1.859   1.898   3.903 -1.5662 -0.4279 -0.0994
 5387TIP3    H216126   1.918   1.847   3.774 -0.1574 -0.8010  0.6735
 5388TIP3   OH216127   1.630   6.246   2.704 -0.2071  0.5859  0.5106
 5388TIP3    H116128   1.617   6.192   2.782 -0.2654  1.7393  1.3242
 5388TIP3    H216129   1.651   6.184   2.634  0.0044 -0.4510  1.4815
 5389TIP3   OH216130   0.087   0.022   4.243  0.2466 -0.4766  0.0202
 5389TIP3    H116131   0.028  -0.052   4.257 -0.2028 -0.0658  0.3321
 5389TIP3    H216132   0.077   0.044   4.150 -0.3481 -0.1979  0.1460
 5390TIP3   OH216133   3.337   0.502   2.875 -0.2333  0.2327  0.0552
 5390TIP3    H116134   3.406   0.454   2.828 -0.6353  0.0261 -0.3268
 5390TIP3    H216135   3.283   0.540   2.806 -0.0230  1.0915  0.3556
 5391TIP3   OH216136   3.805   1.516   1.907 -0.6105 -0.3124 -0.2238
 5391TIP3    H116137   3.791   1.421   1.906  0.5535 -0.4941 -0.9777
 5391TIP3    H216138   3.815   1.539   1.815  0.6161  0.2932  0.0459
 5392TIP3   OH216139   1.402   6.086   4.086 -0.1868 -0.1959  0.5097
 5392TIP3    H116140   1.322   6.055   4.043 -0.0988 -0.3016  0.4219
 5392TIP3    H216141   1.473   6.050   4.033 -0.0727 -0.5885  0.9249
 5393TIP3   OH216142   4.612   0.224   1.791 -0.0251  0.2289 -0.0481
 5393TIP3    H116143   4.556   0.255   1.720  1.6284  1.2257 -0.9962
 5393TIP3    H216144   4.640   0.137   1.763  0.9490  0.7834 -0.8497
 5394TIP3   OH216145   0.386   5.187   3.879 -0.1595 -0.2892  0.0831
 5394TIP3    H116146   0.451   5.257   3.876  1.6995 -1.9228 -0.4736
 5394TIP3    H216147   0.394   5.144   3.794 -3.7331  0.8546 -0.9732
 5395TIP3   OH216148   5.584   4.781   0.718  0.0848  0.7510  0.8738
 5395TIP3    H116149   5.537   4.842   0.661  1.3351 -0.8320 -2.1119
 5395TIP3    H216150   5.530   4.773   0.796 -2.4015  2.1953 -0.5808
 5396TIP3   OH216151   1.351   3.392   2.621  0.0047 -0.0437  0.3112
 5396TIP3    H116152   1.319   3.472   2.664  0.7338  0.3481  0.1528
 5396TIP3    H216153   1.334   3.407   2.528  0.6926  0.2025  0.2173
 5397TIP3   OH216154   3.435   5.005   4.748 -0.1714  0.4351 -0.4499
 5397TIP3    H116155   3.423   5.098   4.767 -3.4563  0.0709 -0.1054
 5397TIP3    H216156   3.349   4.976   4.717  0.5003 -2.6793  0.2672
 5398TIP3   OH216157   7.107   5.337   5.158 -0.2011 -0.2279 -0.2612
 5398TIP3    H116158   7.150   5.338   5.243  0.6311 -1.6412 -0.6380
 5398TIP3    H216159   7.029   5.282   5.171  0.6928 -1.6599 -0.7277
 5399TIP3   OH216160   1.922   2.827   3.803 -0.7099  0.0830 -0.0514
 5399TIP3    H116161   1.933   2.918   3.776 -0.4081  0.4168  1.1590
 5399TIP3    H216162   1.862   2.790   3.737 -0.9043  1.1667 -0.5024
 5400TIP3   OH216163   2.992   2.159   0.677 -0.7486  0.0004 -0.0503
 5400TIP3    H116164   2.924   2.091   0.673 -0.6690 -0.2039  1.2747
 5400TIP3    H216165   3.014   2.177   0.586 -1.7648 -0.7546 -0.4707
 5401TIP3   OH216166   1.202   2.607   2.474 -0.2784  0.4055  0.2578
 5401TIP3    H116167   1.202   2.695   2.437 -1.9071 -0.2377 -1.4861
 5401TIP3    H216168   1.227   2.618   2.565 -0.1886  2.6338  0.0009
 5402TIP3   OH216169   0.112   3.120   2.907 -0.1636 -0.7811 -0.3086
 5402TIP3    H116170   0.091   3.180   2.836 -0.0658  0.8758  0.9931
 5402TIP3    H216171   0.183   3.066   2.873  1.6647  1.6590 -0.6702
 5403TIP3   OH216172   0.204   5.387   2.562  0.3339 -0.2996  0.2855
 5403TIP3    H116173   0.127   5.397   2.619  1.0242  0.0613  1.1824
 5403TIP3    H216174   0.171   5.341   2.485 -0.4234 -1.9067  1.4891
 5404TIP3   OH216175   5.931   1.766   3.520  0.3235 -0.1799 -0.0897
 5404TIP3    H116176   5.882   1.832   3.569  0.4239 -0.2025  0.0417
 5404TIP3    H216177   5.941   1.803   3.433  1.4738  0.5333  0.3356
 5405TIP3   OH216178   6.988   1.897   5.833  0.1235 -0.7314  1.1670
 5405TIP3    H116179   6.944   1.942   5.761  1.8242  0.3195  0.7363
 5405TIP3    H216180   6.921   1.838   5.869 -0.7071 -1.4410 -1.3815
 5406TIP3   OH216181   4.939   4.050   4.125 -0.2248  0.5363 -0.4320
 5406TIP3    H116182   4.845   4.061   4.115 -0.8933 -3.0781  0.2342
 5406TIP3    H216183   4.968   4.011   4.043  0.6590  1.4006 -0.5428
 5407TIP3   OH216184   2.387   5.721   5.221 -0.1373 -0.4427  0.2690
 5407TIP3    H116185   2.314   5.750   5.275  0.4995  1.5336  0.1611
 5407TIP3    H216186   2.375   5.767   5.138 -0.0836 -2.0050 -0.6449
 5408TIP3   OH216187   4.008   6.668   5.595 -0.2393 -0.0900  0.0964
 5408TIP3    H116188   3.920   6.696   5.569 -0.3037 -0.0647  0.3386
 5408TIP3    H216189   4.013   6.576   5.568  0.0109  0.1733 -0.8000
 5409TIP3   OH216190   7.007   2.448   3.194 -0.4589 -0.3937 -0.0412
 5409TIP3    H116191   6.980   2.359   3.169  2.5136 -1.8026  1.2054
 5409TIP3    H216192   6.980   2.503   3.121 -1.4597 -2.4910 -1.3562
 5410TIP3   OH216193   2.964   6.078   5.700 -0.2925  0.4315  0.4473
 5410TIP3    H116194   2.914   6.143   5.749  0.7933  1.3369  0.3914
 5410TIP3    H216195   2.939   6.093   5.608  1.1795  1.9371  0.2416
 5411TIP3   OH216196   6.471   3.788   2.138 -0.0980  0.0737  0.2961
 5411TIP3    H116197   6.503   3.703   2.108  1.2079  1.1027 -1.3987
 5411TIP3    H216198   6.425   3.769   2.220 -1.0586 -2.4523 -0.7226
 5412TIP3   OH216199   0.290   5.864   2.509  0.0806 -0.6124 -0.3458
 5412TIP3    H116200   0.330   5.945   2.476 -0.1462 -0.7453 -0.9564
 5412TIP3    H216201   0.361   5.821   2.557 -0.2955  0.8255  1.5931
 5413TIP3   OH216202   0.847   2.716   3.768 -0.2786  0.0683 -0.2078
 5413TIP3    H116203   0.899   2.672   3.836  0.1956 -0.8167 -1.1217
 5413TIP3    H216204   0.910   2.765   3.717 -0.6340  0.7090 -0.0344
 5414TIP3   OH216205   1.878   1.866   0.695 -0.2133 -0.2566 -0.0997
 5414TIP3    H116206   1.926   1.817   0.762 -1.1099  0.5081  1.1336
 5414TIP3    H216207   1.825   1.799   0.651 -1.5208 -0.4491  1.6516
 5415TIP3   OH216208   2.111   2.993   3.477  0.4018  0.8736 -0.0760
 5415TIP3    H116209   2.103   3.032   3.563  1.1415  3.7882 -1.2156
 5415TIP3    H216210   2.193   3.028   3.442  0.3390 -0.5669 -1.8135
 5416TIP3   OH216211   7.084   5.122   1.021 -0.1161  0.1371 -0.0770
 5416TIP3    H116212   7.141   5.061   1.068  0.0666  0.4850  0.1524
 5416TIP3    H216213   7.142   5.193   0.993 -0.3877  0.3642 -0.0700
 5417TIP3   OH216214   3.732   0.552   0.685 -0.4623 -0.2486 -0.7989
 5417TIP3    H116215   3.774   0.600   0.613  0.0977 -0.7210 -0.7949
 5417TIP3    H216216   3.642   0.538   0.656 -0.6562  0.8488 -0.7801
 5418TIP3   OH216217   1.368   2.166   0.579 -0.4293 -0.2008  0.7064
 5418TIP3    H116218   1.298   2.207   0.530  0.4166  0.9742  0.4253
 5418TIP3    H216219   1.414   2.111   0.515 -1.6709 -1.7791  1.1244
 5419TIP3   OH216220   2.172   2.633   0.416 -0.3066 -0.2108 -0.3534
 5419TIP3    H116221   2.122   2.588   0.347  1.3841 -0.4848 -1.4494
 5419TIP3    H216222   2.251   2.664   0.372  2.4030 -3.0713  2.0002
 5420TIP3   OH216223   2.697   2.458   0.167 -0.1451  0.0944  0.0050
 5420TIP3    H116224   2.716   2.477   0.075 -0.1528 -0.2529 -0.0674
 5420TIP3    H216225   2.780   2.427   0.203 -0.3439 -0.5590 -0.0895
 5421TIP3   OH216226   6.188   2.034   3.643 -0.0406 -0.0659  0.2004
 5421TIP3    H116227   6.200   2.076   3.728 -1.1438 -1.0226  0.8656
 5421TIP3    H216228   6.243   1.955   3.647 -0.6842 -0.5172  0.3434
 5422TIP3   OH216229   3.419   2.084   3.930  0.1452 -0.7344  0.3242
 5422TIP3    H116230   3.477   2.109   3.858  0.4906 -1.3447  0.3893
 5422TIP3    H216231   3.344   2.043   3.887 -1.4152  2.1192  0.0488
 5423TIP3   OH216232   3.799   0.788   4.050  0.0930 -0.3468  0.2189
 5423TIP3    H116233   3.885   0.790   4.008 -0.4395  0.4911 -0.8724
 5423TIP3    H216234   3.761   0.704   4.024  0.7752 -0.9598  1.1427
 5424TIP3   OH216235   3.535   1.850   5.710 -0.1047  0.0165  0.9625
 5424TIP3    H116236   3.473   1.797   5.661 -1.1206 -0.0206  2.2350
 5424TIP3    H216237   3.596   1.883   5.644 -1.0958 -0.4585 -0.2278
 5425TIP3   OH216238   5.381   1.976   4.669 -0.3711 -0.4389 -0.4104
 5425TIP3    H116239   5.389   1.974   4.764 -1.1649 -1.4611 -0.3428
 5425TIP3    H216240   5.434   1.901   4.639  1.5765  1.0644 -0.9537
 5426TIP3   OH216241   7.001   0.243   0.548  0.2026  0.5961 -0.2507
 5426TIP3    H116242   7.071   0.180   0.532 -0.2801  0.3376 -1.5026
 5426TIP3    H216243   6.934   0.220   0.484 -0.7217  1.2942  0.4463
 5427TIP3   OH216244   7.165   4.678   3.260  0.0720  0.1081  0.5530
 5427TIP3    H116245   7.176   4.769   3.290 -2.3664  0.7351 -0.2182
 5427TIP3    H216246   7.194   4.625   3.334  0.3908  1.5208  1.4914
 5428TIP3   OH216247   3.254   6.797   5.672 -0.1146  0.0093 -0.1768
 5428TIP3    H116248   3.267   6.735   5.744  1.5150  1.4517  0.8375
 5428TIP3    H216249   3.239   6.741   5.595  1.0071 -1.6385  0.7448
 5429TIP3   OH216250   4.542   2.020   2.512  0.8427  0.0257  0.0457
 5429TIP3    H116251   4.530   2.013   2.607  0.1111  1.2630  0.0663
 5429TIP3    H216252   4.473   1.966   2.475 -0.4654  1.4794  0.2332
 5430TIP3   OH216253   3.020   2.067   5.540  0.4743  0.7512  0.2716
 5430TIP3    H116254   3.043   2.030   5.625  0.8608 -0.5153 -0.3520
 5430TIP3    H216255   3.093   2.042   5.483 -0.5993  0.0395 -0.8434
 5431TIP3   OH216256   1.970   1.645   0.484  0.2078 -0.4458  0.3870
 5431TIP3    H116257   2.001   1.688   0.405 -0.0206 -0.0451  0.5157
 5431TIP3    H216258   1.995   1.553   0.473 -0.2499 -0.4883 -0.3687
 5432TIP3   OH216259   0.867   3.352   2.226 -0.0041  0.1310 -0.1528
 5432TIP3    H116260   0.871   3.447   2.217  1.1504  0.3875  2.3608
 5432TIP3    H216261   0.777   3.335   2.255  0.7408  0.9768  3.1349
 5433TIP3   OH216262   5.502   4.051   3.358  0.0840  0.8410  0.1611
 5433TIP3    H116263   5.513   4.026   3.450  1.4362 -1.7661 -0.6191
 5433TIP3    H216264   5.580   4.101   3.337  1.3951 -1.2722 -0.3155
 5434TIP3   OH216265   6.672   0.347   3.791  0.7702 -0.0847  0.2603
 5434TIP3    H116266   6.616   0.270   3.798 -0.4905  0.4130 -2.6466
 5434TIP3    H216267   6.761   0.313   3.787  0.2005 -1.5075 -1.5440
 5435TIP3   OH216268   5.741   2.038   5.276 -0.8603 -0.0827 -0.2929
 5435TIP3    H116269   5.676   2.089   5.227 -0.2910  2.1639  1.1433
 5435TIP3    H216270   5.825   2.063   5.237 -0.6343 -0.6694 -0.1920
 5436TIP3   OH216271   5.442   4.366   0.368  0.5201  0.3077 -0.3100
 5436TIP3    H116272   5.462   4.286   0.416 -0.8047  0.3622  0.3669
 5436TIP3    H216273   5.372   4.341   0.307  0.4694  0.8293 -0.4770
 5437TIP3   OH216274   3.665   1.090   0.454  0.4572 -0.5327  0.2376
 5437TIP3    H116275   3.600   1.049   0.397 -0.1056  1.4496 -0.6224
 5437TIP3    H216276   3.645   1.055   0.541  0.0153 -2.0301 -0.4261
 5438TIP3   OH216277   0.829   3.875   1.716  0.0984 -0.2086  0.3195
 5438TIP3    H116278   0.783   3.910   1.640  0.3815 -0.0731  0.2101
 5438TIP3    H216279   0.884   3.805   1.681 -0.7055 -0.9917  0.5833
 5439TIP3   OH216280   3.117   1.453   4.756  0.3947  0.5717 -0.0839
 5439TIP3    H116281   3.113   1.538   4.713 -1.8101  0.1236 -0.8892
 5439TIP3    H216282   3.072   1.466   4.839  0.5340  0.3242  0.0317
 5440TIP3   OH216283   4.567   1.957   4.426  0.0285 -0.1879  0.6606
 5440TIP3    H116284   4.607   2.028   4.477  1.1733  0.2174 -0.7110
 5440TIP3    H216285   4.633   1.887   4.427  0.0790 -0.1632 -0.2473
 5441TIP3   OH216286   1.426   2.502   3.811 -0.5407  0.0205 -0.3057
 5441TIP3    H116287   1.486   2.474   3.880 -0.9242  0.1415  0.0777
 5441TIP3    H216288   1.479   2.499   3.731  0.0675  0.4318  0.0732
 5442TIP3   OH216289   4.551   3.202   3.640 -0.2791  0.1524  0.4173
 5442TIP3    H116290   4.611   3.176   3.709 -1.4293  1.5714  2.0281
 5442TIP3    H216291   4.608   3.226   3.566  0.9439 -1.9736  0.6083
 5443TIP3   OH216292   1.620   0.471   3.917 -0.3926 -0.1833  0.2683
 5443TIP3    H116293   1.563   0.457   3.993  0.4349  2.1605  1.4233
 5443TIP3    H216294   1.709   0.468   3.953  0.0371  0.3955 -0.6963
 5444TIP3   OH216295   4.317   4.168   5.523  0.4151  0.6886  0.1435
 5444TIP3    H116296   4.266   4.169   5.605  2.0638  2.1707  1.2253
 5444TIP3    H216297   4.408   4.167   5.551  1.0581 -1.0882 -1.7492
 5445TIP3   OH216298   2.819   3.578   5.831  0.8425  0.2590  0.1198
 5445TIP3    H116299   2.914   3.590   5.833  0.8454  0.1658  0.9485
 5445TIP3    H216300   2.795   3.561   5.923  0.0497  0.1146 -0.1065
 5446TIP3   OH216301   0.505   4.205   5.030  0.4035  0.4014 -0.2610
 5446TIP3    H116302   0.502   4.252   5.113  1.1808 -0.5766  0.3395
 5446TIP3    H216303   0.416   4.170   5.019  0.0689  1.2240 -0.2690
 5447TIP3   OH216304   6.763   5.963   0.799  0.2988  0.0372  0.7148
 5447TIP3    H116305   6.839   5.939   0.746  0.0070 -0.4629  0.5221
 5447TIP3    H216306   6.696   5.900   0.775 -0.2840  0.6775  0.6491
 5448TIP3   OH216307   5.843   3.567   5.330  0.1229  0.9058 -0.2134
 5448TIP3    H116308   5.898   3.630   5.377  2.2783  0.3331 -1.7834
 5448TIP3    H216309   5.865   3.581   5.238  0.3045 -1.7450 -0.6508
 5449TIP3   OH216310   6.840   2.289   4.269 -0.2882  0.0332 -0.0640
 5449TIP3    H116311   6.805   2.257   4.185  0.1183  0.2438 -0.3171
 5449TIP3    H216312   6.764   2.293   4.326 -0.6605  0.3334 -0.5662
 5450TIP3   OH216313   1.960   4.758   0.015 -0.1887  0.0546  0.5529
 5450TIP3    H116314   1.983   4.675  -0.026 -1.7431 -1.0821  1.8644
 5450TIP3    H216315   2.030   4.773   0.079  0.2101 -0.1107  0.1604
 5451TIP3   OH216316   1.799   2.690   1.481  0.5005 -0.7606 -0.0344
 5451TIP3    H116317   1.882   2.699   1.527  0.9404  1.0955 -1.0811
 5451TIP3    H216318   1.783   2.777   1.444 -1.9782 -1.0310  0.2407
 5452TIP3   OH216319   5.835   6.041   5.419 -0.0246  0.4297  0.3820
 5452TIP3    H116320   5.831   5.973   5.351  2.1085  0.7735 -0.1800
 5452TIP3    H216321   5.834   6.123   5.370 -0.9856  0.7742  0.9569
 5453TIP3   OH216322   5.629   4.925   0.209 -0.3785  0.3460 -0.8326
 5453TIP3    H116323   5.678   5.006   0.220 -0.5507  0.2297  1.1391
 5453TIP3    H216324   5.695   4.856   0.204 -0.2780  0.3967 -0.2449
 5454TIP3   OH216325   2.149   4.163   2.982  0.0710 -0.1775  0.4308
 5454TIP3    H116326   2.158   4.071   3.008 -1.7602 -0.5928 -0.2376
 5454TIP3    H216327   2.114   4.207   3.059 -0.7406 -0.4188  0.2080
 5455TIP3   OH216328   6.494   4.304   0.224 -0.1093 -0.2836  0.2421
 5455TIP3    H116329   6.441   4.247   0.279  2.0748 -1.0602  1.6490
 5455TIP3    H216330   6.438   4.380   0.208 -2.0486 -1.5490  0.6441
 5456TIP3   OH216331   2.644   6.667   5.688  0.6460  0.2333  0.2583
 5456TIP3    H116332   2.607   6.738   5.740  2.7562  0.4544  1.5760
 5456TIP3    H216333   2.624   6.691   5.597 -0.8496  1.1930  0.8041
 5457TIP3   OH216334   3.937   6.356   1.874 -0.2600  0.0197  0.2439
 5457TIP3    H116335   3.945   6.418   1.947 -1.1382 -1.2808  1.5202
 5457TIP3    H216336   4.026   6.324   1.860 -0.1291  0.0207  1.0119
 5458TIP3   OH216337   4.122   6.677   0.336  0.3359 -0.1516  0.2707
 5458TIP3    H116338   4.122   6.697   0.243 -1.5890 -1.3346 -0.0418
 5458TIP3    H216339   4.156   6.587   0.341 -1.5884 -0.9165  0.4286
 5459TIP3   OH216340   1.680   6.774   5.356 -0.0359 -0.0492  0.3834
 5459TIP3    H116341   1.710   6.722   5.282 -1.1742 -0.2478  0.0566
 5459TIP3    H216342   1.697   6.865   5.329  0.9299 -0.1857  0.5047
 5460TIP3   OH216343   2.950   1.768   4.307 -0.1868 -0.1601  0.3598
 5460TIP3    H116344   2.995   1.814   4.237  0.0063  1.0050  1.2340
 5460TIP3    H216345   2.858   1.767   4.279  0.0671 -0.9381 -0.5457
 5461TIP3   OH216346   3.966   0.685   4.809  0.2037 -0.1081 -0.5804
 5461TIP3    H116347   3.956   0.673   4.714 -1.0344 -0.4235 -0.4220
 5461TIP3    H216348   3.897   0.632   4.847  1.5325 -1.0844  0.5745
 5462TIP3   OH216349   4.614   1.039   0.801  0.0153 -0.0814  0.8148
 5462TIP3    H116350   4.614   0.959   0.853 -1.1230 -0.6222  0.0185
 5462TIP3    H216351   4.704   1.046   0.769  0.1478 -1.0137  0.9458
 5463TIP3   OH216352   5.281   3.129   4.977 -0.0594 -0.2933  0.3694
 5463TIP3    H116353   5.247   3.042   4.997  1.1857 -0.6319  1.1213
 5463TIP3    H216354   5.350   3.114   4.913  0.8760 -0.0043  1.2747
 5464TIP3   OH216355   3.228   1.267   2.626 -0.4161 -0.1306  0.3107
 5464TIP3    H116356   3.316   1.293   2.654 -0.3339 -0.8800  0.7954
 5464TIP3    H216357   3.194   1.217   2.700 -1.3598  0.3873  0.2332
 5465TIP3   OH216358   4.436   1.390   2.579 -0.4040 -0.4736  0.6675
 5465TIP3    H116359   4.376   1.435   2.639 -0.1553  0.3129  0.3395
 5465TIP3    H216360   4.511   1.367   2.633 -1.9364 -3.5941  1.6690
 5466TIP3   OH216361   0.639   4.615   2.437 -0.2730 -0.4087  0.2662
 5466TIP3    H116362   0.664   4.685   2.497  0.0024 -1.0885  0.9728
 5466TIP3    H216363   0.624   4.658   2.354 -1.5205  0.6931  1.0313
 5467TIP3   OH216364   4.859   0.243   0.755 -0.2129  0.2763 -0.7566
 5467TIP3    H116365   4.879   0.159   0.797 -2.2310  1.6028  3.3920
 5467TIP3    H216366   4.935   0.298   0.775  0.3513 -0.0073 -2.0024
 5468TIP3   OH216367   1.235   3.538   4.701 -0.3092 -0.0246  0.0722
 5468TIP3    H116368   1.141   3.525   4.703 -0.3269  0.0734 -0.0885
 5468TIP3    H216369   1.263   3.501   4.617 -0.3864  1.1245 -0.4813
 5469TIP3   OH216370   2.047   2.179   0.882  0.2911 -0.0237 -0.3155
 5469TIP3    H116371   1.953   2.162   0.898 -0.0026  0.3047 -1.6248
 5469TIP3    H216372   2.058   2.168   0.788  1.8392 -1.2557 -0.0342
 5470TIP3   OH216373   1.612   3.096   0.776 -0.9496  0.2915  0.0965
 5470TIP3    H116374   1.573   3.022   0.730 -3.4080  1.0462  0.8429
 5470TIP3    H216375   1.639   3.061   0.861  1.3273 -0.5195 -0.8674
 5471TIP3   OH216376   3.035   5.493   1.060  0.1518  0.0554  0.3704
 5471TIP3    H116377   2.989   5.563   1.014  0.2728 -0.5831 -0.7662
 5471TIP3    H216378   3.028   5.417   1.002  2.3047 -0.1609  0.2986
 5472TIP3   OH216379   6.045   3.903   0.517  0.2733  0.3710 -0.2821
 5472TIP3    H116380   6.120   3.865   0.471  0.2534 -1.1201  0.8013
 5472TIP3    H216381   6.060   3.997   0.515  1.2827  0.2077 -1.5778
 5473TIP3   OH216382   3.926   6.197   0.152  0.2543 -0.1880  0.6494
 5473TIP3    H116383   3.898   6.135   0.085  0.1908  1.2105 -0.6627
 5473TIP3    H216384   3.845   6.230   0.190  0.2916 -1.3209  1.7995
 5474TIP3   OH216385   0.415   2.262   4.937  0.2933 -0.8028  0.2679
 5474TIP3    H116386   0.370   2.220   5.010 -1.7365  1.8126  0.6879
 5474TIP3    H216387   0.406   2.356   4.954  2.2398 -0.1131 -1.9306
 5475TIP3   OH216388   1.320   2.589   2.810 -0.6761  0.4193 -0.0579
 5475TIP3    H116389   1.404   2.632   2.792  0.3404 -1.5362 -0.2569
 5475TIP3    H216390   1.299   2.614   2.900  0.4775  0.3966  0.2289
 5476TIP3   OH216391   3.197   4.720   2.057  0.2097  0.5110  0.0833
 5476TIP3    H116392   3.223   4.808   2.028 -1.5806  0.9185 -0.4541
 5476TIP3    H216393   3.132   4.693   1.992  0.7912 -1.2667  0.2052
 5477TIP3   OH216394   0.175   0.305   0.307  0.5180 -0.5144  0.2045
 5477TIP3    H116395   0.260   0.290   0.347  0.0072 -1.4210  0.9901
 5477TIP3    H216396   0.126   0.355   0.373  0.4779  0.1451 -0.3089
 5478TIP3   OH216397   1.027   3.296   0.997 -0.3780 -0.1567 -0.2876
 5478TIP3    H116398   1.034   3.269   0.905 -1.6832  2.0601 -1.1100
 5478TIP3    H216399   0.965   3.234   1.035  1.7989 -2.4612 -0.2435
 5479TIP3   OH216400   3.361   0.609   4.470  0.0881  0.1217 -0.1516
 5479TIP3    H116401   3.353   0.536   4.409 -2.2752 -0.7747  1.1311
 5479TIP3    H216402   3.401   0.679   4.417  0.4250 -1.3855 -2.0066
 5480TIP3   OH216403   1.503   1.043   1.124 -0.3737 -0.0899  0.3826
 5480TIP3    H116404   1.440   1.056   1.054 -1.3542 -1.1129  1.0333
 5480TIP3    H216405   1.579   1.003   1.081 -0.6736 -0.0315 -0.2073
 5481TIP3   OH216406   0.043   2.794   1.263 -0.4707  0.4203  0.1800
 5481TIP3    H116407   0.098   2.764   1.336  0.2433  3.0521  0.8480
 5481TIP3    H216408  -0.043   2.756   1.281  0.2553 -0.8767  1.0959
 5482TIP3   OH216409   0.729   6.689   5.552  0.2901  0.1870 -0.3993
 5482TIP3    H116410   0.646   6.641   5.560  0.6872 -0.2085  2.7719
 5482TIP3    H216411   0.787   6.630   5.505 -0.3823 -0.8475  0.0296
 5483TIP3   OH216412   5.770   4.505   2.925  0.3898  0.4414 -0.1677
 5483TIP3    H116413   5.730   4.445   2.863  2.0127 -0.8532 -0.0335
 5483TIP3    H216414   5.705   4.575   2.936 -0.2214  0.4185 -2.8261
 5484TIP3   OH216415   0.784   3.793   4.273 -0.8186 -0.0001  0.4479
 5484TIP3    H116416   0.811   3.836   4.354 -1.5142 -2.4838  2.1128
 5484TIP3    H216417   0.846   3.824   4.207  0.0167  1.7828  1.9918
 5485TIP3   OH216418   6.448   3.275   3.072  0.4218 -0.3714 -0.5805
 5485TIP3    H116419   6.513   3.314   3.014 -1.1758 -0.5596 -2.5952
 5485TIP3    H216420   6.424   3.193   3.030 -0.8842 -0.4568  0.2668
 5486TIP3   OH216421   0.322   6.118   1.107 -0.3370 -0.1420  0.3012
 5486TIP3    H116422   0.309   6.099   1.200 -1.5745 -0.6659  0.0405
 5486TIP3    H216423   0.378   6.047   1.076  0.7479  0.4654  0.7908
 5487TIP3   OH216424   6.629   0.489   2.458  0.5082  0.6536 -0.2071
 5487TIP3    H116425   6.643   0.411   2.510 -0.8872 -0.4598 -1.4003
 5487TIP3    H216426   6.547   0.526   2.491  0.2045  0.5730 -0.8579
 5488TIP3   OH216427   3.999   3.016   2.196  0.2375  0.3576 -0.2336
 5488TIP3    H116428   4.012   3.088   2.258  0.6820 -1.1573  1.5307
 5488TIP3    H216429   4.084   3.007   2.151  0.7531 -0.1220  0.7859
 5489TIP3   OH216430   3.282   4.813   2.596  0.0303  0.3393  0.2243
 5489TIP3    H116431   3.361   4.789   2.645  1.0933  0.8106 -1.2054
 5489TIP3    H216432   3.303   4.793   2.505 -1.9478 -0.6367 -0.0645
 5490TIP3   OH216433   0.232   4.482   0.417 -0.1754 -0.3466 -0.1159
 5490TIP3    H116434   0.169   4.418   0.385 -0.8906  0.1087  0.3550
 5490TIP3    H216435   0.303   4.429   0.454 -0.1922 -0.8623 -0.7912
 5491TIP3   OH216436   1.312   5.875   3.534 -0.6193 -0.1574  0.2754
 5491TIP3    H116437   1.355   5.865   3.619 -0.7170 -0.6021  0.2747
 5491TIP3    H216438   1.244   5.941   3.550  0.1512  0.6751  0.2362
 5492TIP3   OH216439   0.965   3.326   5.692 -0.7307 -0.5816 -0.2519
 5492TIP3    H116440   1.032   3.383   5.730 -0.9172 -1.6031  1.7122
 5492TIP3    H216441   0.940   3.267   5.763 -1.7624 -2.0176 -1.7340
 5493TIP3   OH216442   1.748   6.366   5.707  0.5327  0.3008  0.0328
 5493TIP3    H116443   1.819   6.365   5.644  1.9674  0.3995  1.5731
 5493TIP3    H216444   1.689   6.295   5.679  0.8937  0.6214 -1.6120
 5494TIP3   OH216445   6.086   4.106   5.384 -0.0979  0.0103  0.4176
 5494TIP3    H116446   6.068   4.091   5.476  1.3492 -0.1162  0.7052
 5494TIP3    H216447   6.128   4.026   5.353 -1.4759 -0.3467 -0.6319
 5495TIP3   OH216448   4.150   2.599   0.486  0.2562 -0.6708 -0.1210
 5495TIP3    H116449   4.223   2.574   0.429  0.2348 -0.2015 -0.3624
 5495TIP3    H216450   4.101   2.518   0.499 -0.4891 -0.5484 -1.8624
 5496TIP3   OH216451   5.630   3.034   4.172 -0.3491  0.4125 -0.0544
 5496TIP3    H116452   5.603   3.011   4.261  1.7186 -0.0170  0.5217
 5496TIP3    H216453   5.577   3.111   4.150 -1.1084  0.3600  1.4218
 5497TIP3   OH216454   2.144   6.499   0.069  0.9011  0.3684  0.1287
 5497TIP3    H116455   2.163   6.416   0.113  0.8877  0.6862  0.7442
 5497TIP3    H216456   2.049   6.498   0.055  0.9965 -0.0597 -0.5821
 5498TIP3   OH216457   1.997   1.140   4.129  0.0332 -0.2740 -0.0444
 5498TIP3    H116458   1.994   1.211   4.065  0.8839 -0.9649 -0.8749
 5498TIP3    H216459   1.933   1.165   4.196  0.6883  1.5272 -0.0433
 5499TIP3   OH216460   0.569   3.623   4.329 -0.3676  0.0515  0.0025
 5499TIP3    H116461   0.643   3.676   4.300  0.0475 -1.5935 -2.1624
 5499TIP3    H216462   0.608   3.555   4.384 -0.3375 -0.4133 -0.5838
 5500TIP3   OH216463   3.868   1.137   0.833  0.1027 -0.5226  0.5130
 5500TIP3    H116464   3.847   1.052   0.795 -0.5352 -0.0333 -0.2751
 5500TIP3    H216465   3.813   1.143   0.910 -0.6731 -0.3843 -0.0354
 5501TIP3   OH216466   2.488   1.238   4.327 -0.0031  0.3998 -0.0427
 5501TIP3    H116467   2.533   1.155   4.345 -0.9051  0.2312  1.7032
 5501TIP3    H216468   2.398   1.212   4.307 -0.2040  0.9196  0.1551
 5502TIP3   OH216469   4.041   3.859   1.765  0.1071 -0.7696  0.4136
 5502TIP3    H116470   4.084   3.781   1.799  0.8668 -0.0457  1.1536
 5502TIP3    H216471   3.985   3.889   1.836  0.3447 -0.2490  0.3852
 5503TIP3   OH216472   6.833   3.913   5.045  0.6809  0.0875 -0.1938
 5503TIP3    H116473   6.823   3.871   4.960  0.8320  0.4338 -0.3810
 5503TIP3    H216474   6.921   3.952   5.043 -0.3176  2.4905 -0.9493
 5504TIP3   OH216475   1.083   4.649   3.096 -0.5798 -0.3875  0.2797
 5504TIP3    H116476   1.170   4.687   3.082 -0.7396 -0.1371 -0.0317
 5504TIP3    H216477   1.100   4.568   3.144 -0.1894 -0.2372  0.3990
 5505TIP3   OH216478   3.499   4.947   0.621 -0.1746 -0.4795 -0.1407
 5505TIP3    H116479   3.404   4.945   0.634 -0.1942 -1.6583 -0.3693
 5505TIP3    H216480   3.520   4.860   0.587  0.7291  0.4057 -1.9639
 5506TIP3   OH216481   2.024   6.732   3.790 -0.2329  0.4274 -0.0195
 5506TIP3    H116482   2.119   6.739   3.799 -0.0542 -0.6238 -0.9266
 5506TIP3    H216483   2.003   6.784   3.713 -0.7456  2.7243  1.5720
 5507TIP3   OH216484   3.748   3.182   2.929  0.9228 -0.5508 -0.0333
 5507TIP3    H116485   3.691   3.141   2.995  1.1943 -3.7845 -1.6349
 5507TIP3    H216486   3.834   3.184   2.970  0.5247  0.3608  0.8042
 5508TIP3   OH216487   3.492   0.435   2.440  0.1800 -0.1790 -0.4007
 5508TIP3    H116488   3.500   0.348   2.399 -0.2517 -0.5934  0.3707
 5508TIP3    H216489   3.479   0.416   2.533  2.7428  0.7604  0.2375
 5509TIP3   OH216490   0.596   5.421   3.763 -0.1306  0.7632  0.4296
 5509TIP3    H116491   0.557   5.468   3.689 -1.5647 -1.6418 -0.4455
 5509TIP3    H216492   0.538   5.440   3.837 -0.4176  0.7532  0.2071
 5510TIP3   OH216493   1.254   0.783   2.984  0.1517  0.0569 -0.6576
 5510TIP3    H116494   1.331   0.813   2.935  0.4148 -1.9749 -1.5546
 5510TIP3    H216495   1.290   0.735   3.059 -0.2602  0.3755 -0.2478
 5511TIP3   OH216496   6.092   3.253   2.815 -0.2077 -0.2269 -0.2624
 5511TIP3    H116497   6.124   3.235   2.903 -2.2349  0.1621  0.6108
 5511TIP3    H216498   6.061   3.168   2.783  0.4612 -0.3546 -0.5786
 5512TIP3   OH216499   1.800   0.161   1.509 -0.0060 -0.2725  0.4019
 5512TIP3    H116500   1.821   0.103   1.583 -1.2595 -1.3256 -0.0304
 5512TIP3    H216501   1.828   0.113   1.432 -1.1465 -0.3767  0.0310
 5513TIP3   OH216502   0.976   6.074   2.370 -0.0306  0.1263 -0.3584
 5513TIP3    H116503   0.908   6.042   2.429  0.7341 -0.1535  0.3759
 5513TIP3    H216504   1.037   6.001   2.360  1.0958  0.9315  0.3791
 5514TIP3   OH216505   0.071   3.750   3.564  0.4791  0.4680  0.5216
 5514TIP3    H116506   0.050   3.841   3.588 -1.6746  0.4440 -1.0528
 5514TIP3    H216507   0.167   3.750   3.556  0.5370  2.6235  0.5084
 5515TIP3   OH216508   2.101   3.735   3.565  0.1456  0.4020  0.1875
 5515TIP3    H116509   2.126   3.752   3.474 -0.6742 -0.9527 -0.3262
 5515TIP3    H216510   2.006   3.722   3.562  0.3983 -2.0997  0.7820
 5516TIP3   OH216511   5.831   3.061   3.053 -0.1180  0.7235 -0.8955
 5516TIP3    H116512   5.839   3.131   3.117  0.5308  0.6931 -0.9358
 5516TIP3    H216513   5.829   3.106   2.968  2.2090  0.6409 -1.0577
 5517TIP3   OH216514   3.785   3.027   1.983  0.1987  0.3435 -0.3248
 5517TIP3    H116515   3.844   3.002   2.054  1.3010  0.4610 -1.1651
 5517TIP3    H216516   3.825   2.989   1.905 -1.3764 -0.3832 -0.7986
 5518TIP3   OH216517   3.042   6.550   4.832 -0.1598  0.2459  0.3780
 5518TIP3    H116518   2.960   6.514   4.865 -0.4549  0.7343  0.1940
 5518TIP3    H216519   3.100   6.474   4.824 -1.3243 -0.5085 -1.6770
 5519TIP3   OH216520   0.491   6.299   1.804  0.1986  0.0505  0.0422
 5519TIP3    H116521   0.413   6.314   1.857  0.0579  0.5848 -0.3155
 5519TIP3    H216522   0.469   6.223   1.750 -0.6884  1.1722 -1.2262
 5520TIP3   OH216523   0.389   0.205   5.568 -0.0502  0.2474  0.6305
 5520TIP3    H116524   0.402   0.300   5.561  0.4346  0.1005 -1.2211
 5520TIP3    H216525   0.330   0.184   5.495  0.9672 -1.0334  0.1289
 5521TIP3   OH216526   2.826   1.968   0.627  0.2863 -0.1021  0.9625
 5521TIP3    H116527   2.750   1.923   0.591 -0.2277  2.5822 -1.6672
 5521TIP3    H216528   2.883   1.897   0.659 -2.1016 -2.3168  0.6119
 5522TIP3   OH216529   1.669   3.034   1.718  0.2201  0.3025  0.7963
 5522TIP3    H116530   1.739   3.049   1.782 -0.1475 -0.4383  1.3993
 5522TIP3    H216531   1.710   3.050   1.633  1.0064  0.2854  1.1625
 5523TIP3   OH216532   1.045   6.724   0.464  0.0710  0.8777  0.2107
 5523TIP3    H116533   0.980   6.654   0.460  0.9474  0.0927 -0.6176
 5523TIP3    H216534   1.107   6.704   0.394  2.5938  0.1912  2.4700
 5524TIP3   OH216535   4.561   0.715   1.575 -0.0600 -0.2885  0.0775
 5524TIP3    H116536   4.641   0.751   1.613 -0.4223 -0.8993  1.4430
 5524TIP3    H216537   4.536   0.643   1.632 -2.3968  0.8075  0.5454
 5525TIP3   OH216538   0.710   5.147   1.415 -0.6468 -0.0786 -0.1767
 5525TIP3    H116539   0.723   5.229   1.367 -0.8092  1.0998  1.6938
 5525TIP3    H216540   0.797   5.107   1.416 -0.3914  0.4446 -0.4532
 5526TIP3   OH216541   2.375   6.012   2.518  0.4545 -0.2113  0.0404
 5526TIP3    H116542   2.335   5.933   2.481  0.3994  0.6268 -1.7294
 5526TIP3    H216543   2.407   6.062   2.443  0.4336  1.5090  1.1161
 5527TIP3   OH216544   5.663   1.112   5.826  0.2029 -0.8325 -0.5335
 5527TIP3    H116545   5.636   1.077   5.911  0.7103  1.6415  0.7301
 5527TIP3    H216546   5.756   1.089   5.820  1.0419  1.7342  1.1753
 5528TIP3   OH216547   6.342   4.151   1.353  0.5411  0.6763 -0.1157
 5528TIP3    H116548   6.255   4.155   1.392  0.4126 -1.6368 -0.0017
 5528TIP3    H216549   6.326   4.167   1.260 -0.0393  0.2183 -0.1068
 5529TIP3   OH216550   3.875   1.395   0.722 -0.5252  0.2467 -0.1041
 5529TIP3    H116551   3.870   1.304   0.752  0.2323  0.2928  0.1931
 5529TIP3    H216552   3.804   1.404   0.659 -0.7784 -0.4737  0.0721
 5530TIP3   OH216553   6.243   4.645   2.099  0.4207 -0.0912  0.0870
 5530TIP3    H116554   6.242   4.650   2.004  0.7149 -0.4026  0.0679
 5530TIP3    H216555   6.336   4.644   2.123  0.3566 -0.7831  0.3326
 5531TIP3   OH216556   0.420   6.214   5.766  0.4350  0.0558  0.7006
 5531TIP3    H116557   0.500   6.236   5.814  0.5806  1.2455 -0.0427
 5531TIP3    H216558   0.450   6.197   5.677 -0.1292  0.3785  0.4461
 5532TIP3   OH216559   3.877   0.309   2.318 -0.4008  0.1620  0.1299
 5532TIP3    H116560   3.788   0.280   2.301  0.2317 -0.8018 -1.8497
 5532TIP3    H216561   3.874   0.404   2.308 -1.4645  0.3163  1.5855
 5533TIP3   OH216562   7.083   4.641   0.927  0.0359  0.3808 -0.1326
 5533TIP3    H116563   7.067   4.709   0.862 -2.5911  0.2775  0.3069
 5533TIP3    H216564   7.041   4.674   1.007  2.1165 -0.0456  1.2106
 5534TIP3   OH216565   5.722   6.668   2.028  0.0797  0.0979 -0.3125
 5534TIP3    H116566   5.681   6.587   2.058 -2.1367  0.5830 -1.8033
 5534TIP3    H216567   5.656   6.735   2.044  0.6131  1.0729 -1.9743
 5535TIP3   OH216568   0.163   0.033   5.053  0.0618  0.0606  0.0697
 5535TIP3    H116569   0.120   0.111   5.019  0.9816  2.5477  3.8732
 5535TIP3    H216570   0.256   0.051   5.042  0.2743 -0.9618  0.1501
 5536TIP3   OH216571   5.816   6.331   3.169  0.3593 -0.0210 -0.3743
 5536TIP3    H116572   5.892   6.315   3.225  0.4751  2.2108  0.1809
 5536TIP3    H216573   5.833   6.415   3.128 -0.4777 -0.8665 -2.5864
 5537TIP3   OH216574   0.907   1.646   5.042  0.0305 -0.0503 -0.2118
 5537TIP3    H116575   0.922   1.564   5.089  0.2430 -0.4435 -0.9464
 5537TIP3    H216576   0.840   1.625   4.976  0.2393  0.3035 -0.5451
 5538TIP3   OH216577   3.452   0.759   3.376  0.1949 -0.2388 -0.1100
 5538TIP3    H116578   3.546   0.756   3.358  0.2358  1.8991 -0.4860
 5538TIP3    H216579   3.412   0.713   3.303  0.7475  2.8887 -2.6169
 5539TIP3   OH216580   4.252   4.958   1.195  0.2208  0.1634 -0.3304
 5539TIP3    H116581   4.322   4.948   1.259  0.2094 -0.4270 -0.4097
 5539TIP3    H216582   4.172   4.961   1.247  0.2887  0.7308 -0.2478
 5540TIP3   OH216583   3.865   2.949   2.447  0.3125  0.0102 -0.1696
 5540TIP3    H116584   3.838   3.027   2.496 -0.2680 -1.5250  2.1324
 5540TIP3    H216585   3.919   2.983   2.376 -2.6658  2.7883 -1.3673
 5541TIP3   OH216586   2.551   6.001   3.658 -0.2677 -0.0295 -0.2226
 5541TIP3    H116587   2.610   5.942   3.704 -0.5942 -0.9566 -0.9588
 5541TIP3    H216588   2.506   6.050   3.728  2.7169  2.1703  0.3739
 5542TIP3   OH216589   3.950   6.165   2.629  0.0528  0.1619 -0.2531
 5542TIP3    H116590   3.957   6.250   2.672 -0.3383 -0.3156  0.7989
 5542TIP3    H216591   3.873   6.124   2.669  0.3997 -0.7935 -0.5347
 5543TIP3   OH216592   4.333   3.988   2.842  0.3056  0.2893  0.2788
 5543TIP3    H116593   4.300   3.898   2.835  1.0295  0.0655 -0.4125
 5543TIP3    H216594   4.338   4.019   2.752 -0.0209  1.0640  0.5203
 5544TIP3   OH216595   1.201   5.972   3.924  0.3882  0.1165 -0.3548
 5544TIP3    H116596   1.257   5.923   3.864  0.8811 -0.3282  0.4477
 5544TIP3    H216597   1.166   5.905   3.983  0.8674  0.6835  0.5945
 5545TIP3   OH216598   5.903   3.456   2.802  0.0915  0.4848  0.3456
 5545TIP3    H116599   5.925   3.535   2.752  0.8158  0.2235  0.2419
 5545TIP3    H216600   5.972   3.393   2.780 -1.7509 -1.0452 -1.4974
 5546TIP3   OH216601   0.132   3.717   4.607  0.1994 -0.0052 -0.0305
 5546TIP3    H116602   0.226   3.715   4.589  0.4927 -1.5773  1.3837
 5546TIP3    H216603   0.117   3.801   4.650  0.9952  0.2048 -0.1565
 5547TIP3   OH216604   2.089   6.483   3.684 -0.2504 -0.0669 -0.1129
 5547TIP3    H116605   2.111   6.517   3.598  2.6635 -1.4350 -0.0533
 5547TIP3    H216606   2.027   6.546   3.720 -1.2230  0.7714 -2.9849
 5548TIP3   OH216607   1.609   5.216   0.635 -0.2020  0.3602  0.2532
 5548TIP3    H116608   1.600   5.130   0.596 -1.1489  0.1337  0.9107
 5548TIP3    H216609   1.702   5.237   0.628 -0.1894 -0.0951 -1.1711
 5549TIP3   OH216610   4.734   4.675   1.708  0.1059  0.1713 -0.1426
 5549TIP3    H116611   4.694   4.746   1.758 -1.0245 -1.3509  1.2274
 5549TIP3    H216612   4.788   4.629   1.772  0.2563 -0.6159 -0.8299
 5550TIP3   OH216613   0.710   0.700   3.331 -0.1150 -0.4326 -0.1119
 5550TIP3    H116614   0.616   0.710   3.346 -0.2186 -0.2280 -0.8606
 5550TIP3    H216615   0.717   0.680   3.238  0.4464 -2.3755  0.2977
 5551TIP3   OH216616   4.392   2.747  -0.001  0.3287  0.1740 -0.5345
 5551TIP3    H116617   4.455   2.699   0.053  0.0515 -0.2098 -0.5482
 5551TIP3    H216618   4.383   2.832   0.043  1.3945  0.5022 -0.9337
 5552TIP3   OH216619   3.502   5.135   4.497 -0.2954 -0.1373 -0.3889
 5552TIP3    H116620   3.545   5.219   4.510  1.2238 -1.0287  0.6458
 5552TIP3    H216621   3.428   5.136   4.557 -0.4530  0.5695 -0.5901
 5553TIP3   OH216622   3.428   2.695   5.555  0.4354  0.0891  0.6131
 5553TIP3    H116623   3.348   2.645   5.574 -1.6510  2.9287  0.0785
 5553TIP3    H216624   3.447   2.742   5.636 -0.4511  1.8799 -0.1500
 5554TIP3   OH216625   6.391   5.026   5.487 -0.2579  0.6324  0.6175
 5554TIP3    H116626   6.374   5.061   5.400 -2.3056 -0.1348  0.6456
 5554TIP3    H216627   6.462   4.962   5.475 -1.2659 -0.2756 -0.7116
 5555TIP3   OH216628   7.086   6.179   0.709 -0.2946  0.9034  0.0272
 5555TIP3    H116629   7.054   6.199   0.621  0.4137  1.7200 -0.0653
 5555TIP3    H216630   7.082   6.083   0.715  0.6294  0.7409 -1.3084
 5556TIP3   OH216631   3.658   0.572   0.950  0.3603  0.1077  0.1643
 5556TIP3    H116632   3.711   0.571   0.870  1.3866 -0.3607  0.8371
 5556TIP3    H216633   3.648   0.665   0.971 -1.0482  0.3130 -1.2141
 5557TIP3   OH216634   5.994   2.889   0.938 -0.7659 -0.3451 -0.2650
 5557TIP3    H116635   6.083   2.855   0.950 -0.2591  0.5063 -1.3663
 5557TIP3    H216636   5.949   2.819   0.890 -0.3459 -0.3426 -0.6845
 5558TIP3   OH216637   6.822   2.242   4.771  0.0083  0.2436 -0.2392
 5558TIP3    H116638   6.824   2.211   4.862 -0.6008  0.7788 -0.0334
 5558TIP3    H216639   6.836   2.337   4.778  1.7872  0.0461 -0.8495
 5559TIP3   OH216640   1.901   0.625   5.863  0.4615  0.0490  0.1125
 5559TIP3    H116641   1.890   0.576   5.944  1.0050 -0.7449 -0.2765
 5559TIP3    H216642   1.876   0.563   5.794 -1.2430  1.1204 -0.2740
 5560TIP3   OH216643   6.195   5.673   0.644  0.3242  0.4400 -0.7516
 5560TIP3    H116644   6.198   5.579   0.626  0.8190 -0.0939  1.6892
 5560TIP3    H216645   6.105   5.699   0.625 -1.0128 -1.4551  2.1991
 5561TIP3   OH216646   4.137   6.335   3.086  0.0176  0.0285  0.4872
 5561TIP3    H116647   4.064   6.285   3.123  0.6471  0.0071  1.7647
 5561TIP3    H216648   4.139   6.416   3.138 -2.0173  2.2593 -2.5719
 5562TIP3   OH216649   2.494   0.230   1.015  0.5312 -0.0974 -0.5729
 5562TIP3    H116650   2.503   0.173   0.939 -0.9864  0.2302 -1.0393
 5562TIP3    H216651   2.559   0.299   1.001 -0.0128  0.1890 -1.7978
 5563TIP3   OH216652   0.160   5.704   1.972  0.1455  0.2252 -0.1475
 5563TIP3    H116653   0.088   5.763   1.991  1.2967  0.9276  2.6030
 5563TIP3    H216654   0.119   5.626   1.935 -1.8712  1.0699  0.2176
 5564TIP3   OH216655   2.121   2.599   1.234  0.3794  0.0891 -0.3520
 5564TIP3    H116656   2.101   2.674   1.178 -0.1954  1.8114  2.0173
 5564TIP3    H216657   2.209   2.616   1.268 -0.1971  0.3302  1.1006
 5565TIP3   OH216658   0.809   3.251   0.024  0.1297  0.7016 -0.0020
 5565TIP3    H116659   0.738   3.198   0.060 -0.4309 -0.3882 -2.4746
 5565TIP3    H216660   0.886   3.226   0.075 -0.4606 -1.2749  0.0133
 5566TIP3   OH216661   4.923   6.321   1.640  0.2187 -0.3360 -0.2362
 5566TIP3    H116662   4.959   6.320   1.728 -1.5270 -0.5347  0.5072
 5566TIP3    H216663   4.833   6.350   1.651 -0.0708 -0.4876 -1.9444
 5567TIP3   OH216664   3.680   0.729   4.391  0.0004 -0.7509  0.1387
 5567TIP3    H116665   3.707   0.818   4.413 -0.0926 -0.9663  1.1730
 5567TIP3    H216666   3.613   0.740   4.324 -1.0619  0.0480  1.2888
 5568TIP3   OH216667   0.625   3.446   2.688  0.3817  0.0183  0.4239
 5568TIP3    H116668   0.713   3.448   2.650 -0.2913  1.4971 -1.1351
 5568TIP3    H216669   0.602   3.353   2.691  2.3166 -0.4824  1.7171
 5569TIP3   OH216670   4.352   0.275   1.691  0.1736  0.1386 -0.1397
 5569TIP3    H116671   4.274   0.219   1.685  0.3864 -0.2037  0.1824
 5569TIP3    H216672   4.414   0.235   1.630  1.1598 -1.3934  1.7395
 5570TIP3   OH216673   4.303   0.986   2.792  0.3535 -0.3027 -0.4431
 5570TIP3    H116674   4.300   0.894   2.818 -2.5624  0.1018  1.1637
 5570TIP3    H216675   4.319   1.033   2.873 -2.8816  0.7225 -0.2392
 5571TIP3   OH216676   5.971   0.294   2.186 -0.1112 -0.0306  0.6581
 5571TIP3    H116677   5.978   0.389   2.181 -0.1404  0.0617  2.0151
 5571TIP3    H216678   5.882   0.277   2.215  0.2859 -0.4042  1.7099
 5572TIP3   OH216679   5.690   1.259   4.623  0.6556 -0.0793  0.0620
 5572TIP3    H116680   5.712   1.202   4.697  1.1569  2.0589  1.6488
 5572TIP3    H216681   5.633   1.326   4.661 -1.8430 -0.7526 -2.2316
 5573TIP3   OH216682   4.780   6.509   4.467  0.2812  0.0180  0.0018
 5573TIP3    H116683   4.727   6.450   4.521  0.4150 -1.1798 -1.1292
 5573TIP3    H216684   4.723   6.533   4.394  0.8689 -0.2839 -0.5657
 5574TIP3   OH216685   5.165   5.318   3.336 -0.2296 -0.5513  0.2899
 5574TIP3    H116686   5.230   5.376   3.376 -1.8713  0.5746  1.5165
 5574TIP3    H216687   5.127   5.370   3.265  0.1979 -1.1921 -0.4152
 5575TIP3   OH216688   4.702   6.524   1.595  0.3399 -0.0799 -0.1829
 5575TIP3    H116689   4.623   6.578   1.584  1.3690  1.6520  0.5525
 5575TIP3    H216690   4.723   6.531   1.688  1.1268 -0.8679 -0.2941
 5576TIP3   OH216691   1.939   4.996   0.344 -0.0639 -0.6980  0.2195
 5576TIP3    H116692   1.943   4.917   0.396 -0.8456 -1.1777 -0.4315
 5576TIP3    H216693   1.989   4.975   0.265 -1.8064 -1.2309 -0.8043
 5577TIP3   OH216694   0.143   0.908   4.868 -0.5519  0.0323  0.3134
 5577TIP3    H116695   0.092   0.839   4.911  1.4718 -1.6274  0.2237
 5577TIP3    H216696   0.128   0.893   4.775 -0.6267  0.1230  0.3112
 5578TIP3   OH216697   2.305   3.123   5.303  0.3914  0.3227  0.4604
 5578TIP3    H116698   2.233   3.101   5.244  0.3086 -3.0909  1.6411
 5578TIP3    H216699   2.348   3.198   5.261 -1.3071 -0.1818 -2.4502
 5579TIP3   OH216700   5.930   6.796   1.896 -0.3078  0.1392  0.1087
 5579TIP3    H116701   5.852   6.745   1.918  1.1473 -1.9244  0.8101
 5579TIP3    H216702   5.989   6.784   1.970  1.7111 -0.5786 -1.5104
 5580TIP3   OH216703   0.739   0.346   2.070 -0.2273  0.0750  0.0581
 5580TIP3    H116704   0.720   0.438   2.088 -1.5710 -0.3072  0.7528
 5580TIP3    H216705   0.761   0.309   2.155 -0.8503 -0.4862 -0.0145
 5581TIP3   OH216706   4.045   0.299   1.030 -0.3879  0.6883 -0.5877
 5581TIP3    H116707   3.985   0.254   0.971 -1.9129  0.4735  1.0464
 5581TIP3    H216708   4.111   0.234   1.054 -1.4190 -0.0880  0.1801
 5582TIP3   OH216709   3.033   3.153   5.418  0.0422 -0.0828 -0.2120
 5582TIP3    H116710   2.969   3.083   5.427  0.3379 -0.3936 -0.5217
 5582TIP3    H216711   3.024   3.204   5.499 -2.2632  1.2943 -1.2480
 5583TIP3   OH216712   1.002   2.695   2.094 -0.7392  0.5629 -0.3406
 5583TIP3    H116713   1.072   2.752   2.062  0.5228 -1.3393 -1.1554
 5583TIP3    H216714   0.981   2.639   2.019 -1.4634 -0.4790  0.6107
 5584TIP3   OH216715   5.935   3.350   0.494  0.3719 -0.1030 -0.1422
 5584TIP3    H116716   5.915   3.373   0.403 -0.8051  0.8530  0.3286
 5584TIP3    H216717   5.987   3.424   0.527 -0.2288  0.1356  0.2938
 5585TIP3   OH216718   0.970   2.049   3.701 -0.0483 -0.7271 -0.1411
 5585TIP3    H116719   0.965   2.136   3.660 -1.5086 -1.4008 -1.5143
 5585TIP3    H216720   0.889   2.042   3.751  0.8022 -0.7064  1.2818
 5586TIP3   OH216721   5.631   1.624   3.134 -0.0428  0.0092  0.3753
 5586TIP3    H116722   5.585   1.671   3.065 -1.1961  0.8980  1.6951
 5586TIP3    H216723   5.633   1.533   3.105 -0.7780  0.3105 -0.6604
 5587TIP3   OH216724   0.009   3.142   2.123 -0.3341  0.2063 -0.1193
 5587TIP3    H116725  -0.033   3.164   2.040 -0.9071 -0.0144  0.0981
 5587TIP3    H216726   0.102   3.157   2.109 -0.3878 -0.1312 -0.9048
 5588TIP3   OH216727   4.678   0.520   4.063 -0.3199 -0.3600 -0.8949
 5588TIP3    H116728   4.692   0.428   4.040  2.0848 -0.4263  0.4142
 5588TIP3    H216729   4.690   0.567   3.981  1.3679 -1.0437 -1.0891
 5589TIP3   OH216730   6.764   0.443   4.919 -0.3982 -0.2552 -0.5418
 5589TIP3    H116731   6.793   0.533   4.932  1.6850 -0.9569  0.0358
 5589TIP3    H216732   6.764   0.432   4.823 -0.6895  0.3488 -0.6169
 5590TIP3   OH216733   0.816   6.185   3.000  0.1886  0.5439  0.1759
 5590TIP3    H116734   0.849   6.154   3.085 -0.9763  2.2805  1.3267
 5590TIP3    H216735   0.846   6.275   2.995 -2.0124  1.3169  0.0296
 5591TIP3   OH216736   6.277   5.528   1.859  0.4038  0.2247 -0.1318
 5591TIP3    H116737   6.259   5.618   1.888 -1.2233 -0.2912  0.5633
 5591TIP3    H216738   6.339   5.494   1.923  0.3435  0.5660  0.1085
 5592TIP3   OH216739   0.695   2.822   2.664 -0.4418 -0.2587  0.1417
 5592TIP3    H116740   0.692   2.737   2.709 -2.0664 -0.7251 -0.7819
 5592TIP3    H216741   0.765   2.870   2.709  0.5031 -2.0692  0.6923
 5593TIP3   OH216742   1.782   5.688   5.065 -0.2883  0.2383  0.1346
 5593TIP3    H116743   1.707   5.648   5.109  0.4703 -2.0609 -0.5502
 5593TIP3    H216744   1.791   5.773   5.107 -3.6728  0.9343 -0.2017
 5594TIP3   OH216745   4.633   6.111   5.107  0.7795  0.1358  0.1646
 5594TIP3    H116746   4.589   6.195   5.118  0.0547 -0.1774 -0.2340
 5594TIP3    H216747   4.579   6.064   5.042  1.8405 -0.1662 -0.5218
 5595TIP3   OH216748   4.220   5.648   3.422  0.1291  0.3979 -0.1241
 5595TIP3    H116749   4.286   5.589   3.387 -1.5001 -0.2707 -2.3412
 5595TIP3    H216750   4.199   5.613   3.508  1.7010 -0.1166  0.0759
 5596TIP3   OH216751   6.100   1.188   1.729 -0.3242 -0.1684  0.3647
 5596TIP3    H116752   6.124   1.272   1.768 -0.4059 -0.0544  0.1747
 5596TIP3    H216753   6.007   1.198   1.705 -0.9937 -1.0860  2.3806
 5597TIP3   OH216754   1.711   0.690   5.500  0.5145 -0.1617 -0.0108
 5597TIP3    H116755   1.692   0.761   5.439  0.2504 -0.1033  0.1370
 5597TIP3    H216756   1.635   0.632   5.493  1.4387 -1.2808 -1.3260
 5598TIP3   OH216757   1.772   0.114   0.484 -0.1499  0.8063 -0.4797
 5598TIP3    H116758   1.838   0.138   0.418  1.4278  0.3293  0.8726
 5598TIP3    H216759   1.780   0.181   0.552  0.9648 -0.7989  1.0492
 5599TIP3   OH216760   4.867   0.622   1.556  0.4348  0.5714 -0.4425
 5599TIP3    H116761   4.807   0.552   1.531  0.8138 -0.1527  0.5992
 5599TIP3    H216762   4.947   0.602   1.508  0.1710  0.9743 -1.0624
 5600TIP3   OH216763   1.566   3.871   2.743  0.4892  0.3067  0.0755
 5600TIP3    H116764   1.521   3.794   2.709  2.0290  0.3653 -2.3559
 5600TIP3    H216765   1.645   3.837   2.784  0.5573  0.5057  0.1139
 5601TIP3   OH216766   4.422   2.491   3.736  0.5199 -0.8570  0.0742
 5601TIP3    H116767   4.476   2.553   3.784 -0.1813 -0.2281  0.0731
 5601TIP3    H216768   4.419   2.413   3.792  0.2265 -0.3568  0.7652
 5602TIP3   OH216769   2.108   3.451   4.459 -0.2579 -0.2884 -0.1089
 5602TIP3    H116770   2.050   3.420   4.529 -0.2556 -2.5802 -1.0525
 5602TIP3    H216771   2.183   3.391   4.462 -0.8450 -1.2774 -2.8582
 5603TIP3   OH216772   2.733   4.217   1.521 -0.0642  1.0329  0.1597
 5603TIP3    H116773   2.764   4.157   1.454 -0.1143  0.8019  0.3444
 5603TIP3    H216774   2.673   4.165   1.575 -0.3753  1.3339  0.1141
 5604TIP3   OH216775   4.448   1.118   1.228 -0.5368  0.1775 -0.0666
 5604TIP3    H116776   4.386   1.146   1.160 -0.1022 -0.3266 -0.6815
 5604TIP3    H216777   4.463   1.025   1.210  1.2166  0.5293 -0.6041
 5605TIP3   OH216778   6.930   2.698   0.191  0.1191  0.4192  0.2751
 5605TIP3    H116779   6.895   2.726   0.107 -0.9634  0.9257  0.8743
 5605TIP3    H216780   6.882   2.618   0.212  1.1498 -0.3125 -0.0727
 5606TIP3   OH216781   5.631   6.608   4.785 -0.3948 -0.3487 -0.3117
 5606TIP3    H116782   5.627   6.572   4.697  1.3652  2.0027 -1.4602
 5606TIP3    H216783   5.565   6.677   4.785  0.7256  0.7566 -0.3901
 5607TIP3   OH216784   4.289   6.373   2.646  0.3658  0.0877 -0.0881
 5607TIP3    H116785   4.372   6.355   2.689  1.0617  1.4047 -0.7934
 5607TIP3    H216786   4.310   6.372   2.553 -0.6104 -0.4206 -0.3152
 5608TIP3   OH216787   3.343   4.274   1.502 -0.0396  0.1867  0.5859
 5608TIP3    H116788   3.408   4.206   1.517  1.8732  2.1526  1.7541
 5608TIP3    H216789   3.298   4.246   1.422  0.2693 -2.6616  1.2874
 5609TIP3   OH216790   1.356   5.349   3.091 -0.3035  0.6358  0.1553
 5609TIP3    H116791   1.360   5.425   3.148  0.1299 -0.7611  2.0622
 5609TIP3    H216792   1.307   5.379   3.014 -1.0324  2.5390  1.3046
 5610TIP3   OH216793   4.025   2.808   1.781 -0.0849  0.5325  0.2362
 5610TIP3    H116794   4.015   2.726   1.733 -0.8766  0.8109 -0.0935
 5610TIP3    H216795   4.109   2.799   1.827 -0.0072 -0.3204 -0.0542
 5611TIP3   OH216796   3.181   5.459   2.001 -0.3181  0.0830  0.2415
 5611TIP3    H116797   3.097   5.484   1.962 -0.7992 -1.0311  0.5306
 5611TIP3    H216798   3.157   5.407   2.077  0.6180  1.4450  1.5153
 5612TIP3   OH216799   6.718   5.383   0.065  0.4774  0.0817  0.5240
 5612TIP3    H116800   6.731   5.392  -0.030 -2.0826 -0.1649  0.0818
 5612TIP3    H216801   6.731   5.472   0.099  1.2632  0.2044 -0.0545
 5613TIP3   OH216802   6.018   5.755   2.082 -0.2267 -0.0892  0.2433
 5613TIP3    H116803   6.114   5.760   2.076 -0.2359  0.9924  0.7902
 5613TIP3    H216804   5.987   5.839   2.050 -0.9770 -0.2318  0.5720
 5614TIP3   OH216805   6.812   6.682   2.517  0.0929 -0.2453  0.3858
 5614TIP3    H116806   6.853   6.708   2.600  1.0979 -0.1640 -0.1128
 5614TIP3    H216807   6.870   6.614   2.482 -0.8867 -1.0266  0.2360
 5615TIP3   OH216808   0.104   5.457   2.181 -0.1007  0.2184  0.4943
 5615TIP3    H116809   0.111   5.387   2.246 -1.2745 -1.3353 -0.9738
 5615TIP3    H216810   0.011   5.479   2.180 -0.1358  0.0753 -0.7734
 5616TIP3   OH216811   2.425   0.431   2.076  0.2379 -0.1054 -0.0556
 5616TIP3    H116812   2.337   0.448   2.108  0.4323 -0.4826  0.7068
 5616TIP3    H216813   2.447   0.345   2.111  1.3190  0.4494  0.7030
 5617TIP3   OH216814   0.386   3.131   1.562 -0.1181  0.7135 -0.1452
 5617TIP3    H116815   0.445   3.124   1.486  0.4693  2.2153  0.1261
 5617TIP3    H216816   0.376   3.225   1.575  0.4425  0.5092  2.1280
 5618TIP3   OH216817   4.822   0.264   4.584  0.5756  0.5902  0.2665
 5618TIP3    H116818   4.787   0.241   4.498  1.4633  1.4706 -0.3571
 5618TIP3    H216819   4.901   0.316   4.564  0.8371  0.7303  1.6086
 5619TIP3   OH216820   2.878   2.003   0.275  0.3079  1.1929 -0.0249
 5619TIP3    H116821   2.793   2.017   0.318 -0.5293  0.6947 -1.4315
 5619TIP3    H216822   2.855   1.974   0.187  1.9313 -1.8839  0.4507
 5620TIP3   OH216823   4.389   5.615   5.014  0.2618  0.0944 -0.8565
 5620TIP3    H116824   4.311   5.592   5.063 -1.3647  0.6430 -3.0202
 5620TIP3    H216825   4.425   5.692   5.057 -0.2222 -0.3265  0.3133
 5621TIP3   OH216826   5.879   6.272   5.230 -0.3946  0.0318 -0.0487
 5621TIP3    H116827   5.966   6.261   5.269 -0.1923 -1.4695 -0.8647
 5621TIP3    H216828   5.884   6.355   5.183 -0.1460  1.0902  1.7645
 5622TIP3   OH216829   1.577   0.532   1.543  0.8736  0.6940  0.3030
 5622TIP3    H116830   1.608   0.547   1.453 -0.7743 -1.0325 -0.6204
 5622TIP3    H216831   1.521   0.607   1.562 -1.6401 -0.5686 -1.5544
 5623TIP3   OH216832   0.245   2.121   1.089  0.3833 -0.2938 -0.0971
 5623TIP3    H116833   0.167   2.066   1.102  0.5648 -0.6590 -0.4955
 5623TIP3    H216834   0.210   2.209   1.078  0.0578 -0.3848  0.1922
 5624TIP3   OH216835   4.569   3.844   0.257 -0.0204  0.0741  0.1460
 5624TIP3    H116836   4.475   3.853   0.243  0.2392  1.0837 -1.1439
 5624TIP3    H216837   4.595   3.773   0.198  0.3066  1.0947 -0.9848
 5625TIP3   OH216838   1.245   1.745   2.954 -0.2552 -0.0085 -0.3681
 5625TIP3    H116839   1.176   1.757   2.889 -0.6730 -1.1601 -0.1650
 5625TIP3    H216840   1.198   1.729   3.036  0.2312 -1.1238 -0.2867
 5626TIP3   OH216841   6.299   0.182   4.260 -0.1438 -0.6024 -0.1173
 5626TIP3    H116842   6.254   0.129   4.326 -0.2689 -2.0626 -1.3261
 5626TIP3    H216843   6.297   0.270   4.296  0.3382 -1.4339  2.1115
 5627TIP3   OH216844   1.375   6.388   0.397  0.2762  0.2289 -0.5353
 5627TIP3    H116845   1.424   6.391   0.479 -0.2195 -0.4541 -0.2022
 5627TIP3    H216846   1.303   6.327   0.414 -0.3423  0.7542 -1.2038
 5628TIP3   OH216847   2.459   1.190   0.881 -0.2565  0.3292 -0.4218
 5628TIP3    H116848   2.419   1.104   0.893  0.3401  0.2366  1.1527
 5628TIP3    H216849   2.553   1.172   0.878 -0.1939  0.7909 -1.6033
 5629TIP3   OH216850   1.923   5.689   2.622 -0.6445 -0.1367 -0.1655
 5629TIP3    H116851   1.986   5.737   2.568 -0.9908  1.4365  0.7619
 5629TIP3    H216852   1.947   5.597   2.610  2.7381  0.4009  1.1433
 5630TIP3   OH216853   2.621   6.175   2.873 -0.2921  0.0558  0.2193
 5630TIP3    H116854   2.564   6.098   2.874 -0.5262  0.1996  2.3941
 5630TIP3    H216855   2.579   6.238   2.932  1.8119  0.3326  1.5344
 5631TIP3   OH216856   4.288   3.317   0.581 -0.4470 -0.1231 -0.4420
 5631TIP3    H116857   4.257   3.238   0.626  0.2936  0.8141  1.8710
 5631TIP3    H216858   4.361   3.287   0.527 -0.0383 -1.0135  0.5699
 5632TIP3   OH216859   1.088   3.185   3.600 -0.4248 -0.1326 -0.2533
 5632TIP3    H116860   1.006   3.206   3.644  1.1785  1.1200  2.3293
 5632TIP3    H216861   1.077   3.220   3.512 -2.5043  0.3161  0.1316
 5633TIP3   OH216862   3.600   6.093   3.923 -0.3215 -0.3815  0.0228
 5633TIP3    H116863   3.561   6.077   4.009 -2.3611  0.3411 -0.7093
 5633TIP3    H216864   3.552   6.034   3.864  0.4593 -0.2480 -0.7516
 5634TIP3   OH216865   3.897   3.386   5.867  0.3000  0.0536  0.1125
 5634TIP3    H116866   3.878   3.404   5.775  0.2125  1.0406  0.3168
 5634TIP3    H216867   3.958   3.312   5.864  1.0185  0.6506 -0.7807
 5635TIP3   OH216868   0.669   6.536   3.457 -0.2791  0.7094  0.0184
 5635TIP3    H116869   0.730   6.608   3.441 -0.2813  1.0854  1.5985
 5635TIP3    H216870   0.715   6.478   3.518 -0.9041  0.1978  0.0157
 5636TIP3   OH216871   4.989   1.079   3.221 -0.0663  0.4293 -0.6747
 5636TIP3    H116872   4.934   1.155   3.240 -0.8138 -0.0538 -0.8705
 5636TIP3    H216873   4.928   1.005   3.218  0.8521 -0.4860  1.3035
 5637TIP3   OH216874   3.474   1.506   2.867  0.0303  0.3427 -0.3163
 5637TIP3    H116875   3.541   1.493   2.933  2.0630  0.1641 -2.2909
 5637TIP3    H216876   3.456   1.600   2.868 -0.5490  0.2270  0.9979
 5638TIP3   OH216877   2.474   6.519   4.912  0.3793  0.6483 -0.0356
 5638TIP3    H116878   2.460   6.425   4.903 -1.6491  0.9225 -0.1940
 5638TIP3    H216879   2.519   6.529   4.996  0.9269 -0.4622 -0.1757
 5639TIP3   OH216880   5.181   4.866   5.176  0.0167 -1.0740  0.4327
 5639TIP3    H116881   5.234   4.799   5.219  2.2546 -0.8658 -1.8093
 5639TIP3    H216882   5.244   4.928   5.140 -1.8193  0.0455 -1.0488
 5640TIP3   OH216883   4.594   4.656   5.217  0.1803 -0.5243  0.0831
 5640TIP3    H116884   4.653   4.729   5.199 -2.0845  1.0228 -1.6689
 5640TIP3    H216885   4.615   4.590   5.151 -1.9743  1.3457 -2.7184
 5641TIP3   OH216886   5.809   2.209   1.851  0.4053  0.1548  0.0231
 5641TIP3    H116887   5.775   2.186   1.938 -1.8083 -0.4749 -0.9472
 5641TIP3    H216888   5.844   2.297   1.862  1.8374 -0.5845  1.9501
 5642TIP3   OH216889   0.602   3.357   2.075 -0.6531  0.5889  0.0475
 5642TIP3    H116890   0.590   3.434   2.131 -1.7784  0.0558  0.5737
 5642TIP3    H216891   0.585   3.390   1.986 -2.3606  0.7232  0.3832
 5643TIP3   OH216892   1.677   1.188   3.957  0.3785 -0.1191  0.2033
 5643TIP3    H116893   1.733   1.233   3.894  1.8644 -1.5287  0.4629
 5643TIP3    H216894   1.591   1.186   3.915  0.7640  1.0587 -0.7141
 5644TIP3   OH216895   3.274   4.519   0.669  0.2686 -0.6941 -0.1559
 5644TIP3    H116896   3.285   4.458   0.741  1.6044 -0.7416 -0.3835
 5644TIP3    H216897   3.259   4.463   0.592  1.0946 -0.7389 -0.2944
 5645TIP3   OH216898   0.468   4.421   4.570  0.1080  0.6566  0.2569
 5645TIP3    H116899   0.468   4.430   4.665 -0.9234 -0.1396  0.3508
 5645TIP3    H216900   0.498   4.331   4.554  2.2708  1.4052 -0.2840
 5646TIP3   OH216901   5.507   3.215   5.819 -0.4623  0.1171 -0.2266
 5646TIP3    H116902   5.453   3.145   5.783 -0.7519 -0.3591  1.0850
 5646TIP3    H216903   5.560   3.172   5.886 -1.7114  1.4024  1.6607
 5647TIP3   OH216904   0.448   2.197   5.831 -0.2852  0.0887 -0.3756
 5647TIP3    H116905   0.422   2.275   5.880  0.7979  0.4784 -0.4009
 5647TIP3    H216906   0.543   2.204   5.824 -0.1020 -1.5835  0.1947
 5648TIP3   OH216907   6.660   5.987   5.681 -0.3679 -0.0545  0.0015
 5648TIP3    H116908   6.710   5.982   5.600 -1.0101 -0.2644 -0.3900
 5648TIP3    H216909   6.713   6.041   5.739 -0.7860  1.7599 -1.2185
 5649TIP3   OH216910   2.288   0.796   3.943 -0.2141  0.2665 -0.1598
 5649TIP3    H116911   2.380   0.785   3.920  0.2890 -0.8388  2.0345
 5649TIP3    H216912   2.268   0.887   3.923  0.3076 -0.2774 -3.8179
 5650TIP3   OH216913   6.537   4.069   3.298 -0.0594 -0.0334 -0.7984
 5650TIP3    H116914   6.496   4.018   3.228 -0.7583  0.4287 -0.7319
 5650TIP3    H216915   6.546   4.157   3.262  0.5277 -0.0396 -0.6723
 5651TIP3   OH216916   5.540   4.623   5.389  0.1813 -0.1013  0.0174
 5651TIP3    H116917   5.511   4.678   5.462 -0.2162  0.5631 -0.6271
 5651TIP3    H216918   5.519   4.534   5.416  0.9183  0.0349  1.1246
 5652TIP3   OH216919   0.232   4.094   0.925 -0.3644 -0.0276  0.5225
 5652TIP3    H116920   0.159   4.080   0.984 -1.0579 -0.1288 -0.3423
 5652TIP3    H216921   0.263   4.182   0.945 -1.9176  0.7450 -0.3751
 5653TIP3   OH216922   2.606   2.292   3.093 -0.2406  0.2476 -0.3207
 5653TIP3    H116923   2.574   2.235   3.163 -0.2358  0.7391  0.0808
 5653TIP3    H216924   2.529   2.310   3.039 -0.8898  2.1419  1.1292
 5654TIP3   OH216925   1.774   0.986   0.414  0.3405 -0.1755 -0.0588
 5654TIP3    H116926   1.845   0.925   0.395  0.3200 -0.0661 -0.4982
 5654TIP3    H216927   1.698   0.930   0.432  0.6897 -0.3074  1.0778
 5655TIP3   OH216928   2.307   3.062   0.970 -0.2768  0.4330 -0.0307
 5655TIP3    H116929   2.259   3.102   1.042 -0.9771  2.0771 -1.3345
 5655TIP3    H216930   2.394   3.045   1.006 -1.3009 -1.1060  1.8909
 5656TIP3   OH216931   2.017   5.385   1.793 -0.3336  0.0746  0.2699
 5656TIP3    H116932   2.025   5.380   1.889 -0.9604 -1.8467  0.2697
 5656TIP3    H216933   1.926   5.362   1.775 -0.5495  1.5841 -0.7585
 5657TIP3   OH216934   6.331   3.927   4.092 -0.4506 -0.1878 -0.7987
 5657TIP3    H116935   6.362   3.937   4.002  0.1486  1.0626 -0.4779
 5657TIP3    H216936   6.392   3.865   4.132 -0.3957 -0.3326 -1.1070
 5658TIP3   OH216937   6.379   4.724   5.735  0.0600  0.1616 -0.5023
 5658TIP3    H116938   6.304   4.771   5.697 -0.2426 -0.0270 -0.1545
 5658TIP3    H216939   6.420   4.788   5.793 -1.0461 -0.3283  0.8748
 5659TIP3   OH216940   4.115   1.739   5.662  0.0780  0.4132  0.2777
 5659TIP3    H116941   4.049   1.769   5.724 -0.5820 -0.1818 -0.1198
 5659TIP3    H216942   4.194   1.726   5.715  0.0456  1.6359  0.6639
 5660TIP3   OH216943   2.258   3.399   5.470  0.3191  0.9935 -0.2078
 5660TIP3    H116944   2.352   3.416   5.465  0.9445 -1.4549  1.0998
 5660TIP3    H216945   2.236   3.411   5.562 -0.3371  0.3016 -0.2563
 5661TIP3   OH216946   0.310   0.184   1.807  0.2958  0.2584 -0.5817
 5661TIP3    H116947   0.322   0.090   1.823 -0.6466  0.0985 -0.7655
 5661TIP3    H216948   0.378   0.226   1.859  0.0436 -0.4724  0.3734
 5662TIP3   OH216949   2.558   0.121   1.816  0.1473  0.3572 -0.2282
 5662TIP3    H116950   2.642   0.106   1.858  0.0788  0.7796  0.0727
 5662TIP3    H216951   2.577   0.182   1.745 -0.0755  1.3609  0.5509
 5663TIP3   OH216952   2.984   1.275   3.660  0.1497  0.1614 -0.0614
 5663TIP3    H116953   3.028   1.319   3.587 -0.4057 -2.8491 -2.4367
 5663TIP3    H216954   2.893   1.269   3.633 -0.1964 -0.5382  1.1734
 5664TIP3   OH216955   5.171   3.316   0.060  0.4082  0.3268 -0.3570
 5664TIP3    H116956   5.134   3.227   0.062 -0.4661  0.6889  0.7387
 5664TIP3    H216957   5.153   3.347  -0.028 -1.7641  0.3817  0.0366
 5665TIP3   OH216958   5.359   3.715   5.462 -0.1668 -0.0424 -0.1840
 5665TIP3    H116959   5.336   3.664   5.540  0.4062 -3.3526 -1.9982
 5665TIP3    H216960   5.274   3.737   5.423 -0.4316 -0.1876  0.3000
 5666TIP3   OH216961   2.840   0.751   1.072 -0.3551 -0.3331 -0.2383
 5666TIP3    H116962   2.851   0.741   1.167 -0.3286  0.5922 -0.1357
 5666TIP3    H216963   2.927   0.736   1.036  0.4088  2.5183  0.1881
 5667TIP3   OH216964   0.601   4.748   2.198 -0.2498 -0.1043 -0.1646
 5667TIP3    H116965   0.613   4.821   2.137  0.1056  0.4532  0.5601
 5667TIP3    H216966   0.671   4.686   2.176  0.5315  0.5733  0.3571
 5668TIP3   OH216967   1.680   2.620   2.848  0.0432  0.0510  0.0245
 5668TIP3    H116968   1.661   2.530   2.871 -1.4289  0.6900  1.4199
 5668TIP3    H216969   1.669   2.669   2.929  1.0733  1.4634 -0.6466
 5669TIP3   OH216970   4.334   6.709   1.347  0.1599 -0.0613 -0.2908
 5669TIP3    H116971   4.263   6.771   1.335  1.0328  0.8843 -0.6599
 5669TIP3    H216972   4.330   6.686   1.440 -1.3525 -0.9432 -0.5406
 5670TIP3   OH216973   5.823   2.448   5.406 -0.6363  0.3159  0.5616
 5670TIP3    H116974   5.911   2.408   5.408 -0.5026  0.6348  1.2229
 5670TIP3    H216975   5.833   2.525   5.350 -0.4346  0.4809  0.8216
 5671TIP3   OH216976   1.420   4.690   1.947 -0.0023  0.7234 -0.1700
 5671TIP3    H116977   1.384   4.773   1.978 -1.9392  0.2076 -0.8808
 5671TIP3    H216978   1.374   4.623   1.997  0.4238  0.0331 -0.6708
 5672TIP3   OH216979   6.205   2.096   0.620 -0.1395  0.0946 -0.1562
 5672TIP3    H116980   6.133   2.120   0.678  0.0366  1.1436 -0.3518
 5672TIP3    H216981   6.179   2.129   0.534  0.5748  0.5100 -0.2235
 5673TIP3   OH216982   6.894   4.145   4.245 -0.0445  0.2287  0.0015
 5673TIP3    H116983   6.835   4.108   4.310  1.1400 -2.0354 -0.1100
 5673TIP3    H216984   6.885   4.087   4.169  0.6957  1.1421 -0.8167
 5674TIP3   OH216985   4.138   3.108   0.674  0.2019 -0.3438 -0.8935
 5674TIP3    H116986   4.200   3.075   0.739 -0.4874 -0.8716 -0.5017
 5674TIP3    H216987   4.115   3.031   0.622 -0.7017 -0.2989 -0.5638
 5675TIP3   OH216988   0.613   5.519   1.766 -0.5161 -0.3091  0.2674
 5675TIP3    H116989   0.593   5.572   1.688  0.9122  1.1263  0.8348
 5675TIP3    H216990   0.670   5.450   1.733  0.7888  0.7903  0.1480
 5676TIP3   OH216991   6.257   1.062   2.273  0.1519 -0.0472  0.4614
 5676TIP3    H116992   6.312   1.033   2.201  1.4606  1.7334  0.6815
 5676TIP3    H216993   6.211   0.983   2.302  0.1189 -0.9472 -1.8290
 5677TIP3   OH216994   6.548   5.934   3.573 -0.1132  0.0196  0.7816
 5677TIP3    H116995   6.507   5.885   3.645 -0.1294 -2.4982 -0.7980
 5677TIP3    H216996   6.480   5.994   3.543 -1.2640 -1.1933  0.8336
 5678TIP3   OH216997   1.838   2.593   3.233 -0.2502 -0.2040  0.2987
 5678TIP3    H116998   1.843   2.529   3.304  1.1011 -0.6109 -0.1342
 5678TIP3    H216999   1.883   2.670   3.267  0.5404 -0.4562 -0.1712
 5679TIP3   OH217000   5.278   0.731   0.905  0.0507  0.1415 -0.1492
 5679TIP3    H117001   5.370   0.750   0.885 -0.2503  0.6461 -1.0742
 5679TIP3    H217002   5.273   0.636   0.906  0.1807  0.0752 -2.0917
 5680TIP3   OH217003   1.127   4.576   1.477  0.4184  0.0398 -0.3194
 5680TIP3    H117004   1.103   4.527   1.399 -1.1003 -2.2117  1.4294
 5680TIP3    H217005   1.064   4.648   1.482 -0.8536 -1.0440 -0.1182
 5681TIP3   OH217006   6.011   2.192   1.497 -0.4058  0.1165 -0.0659
 5681TIP3    H117007   5.976   2.280   1.487  1.2526  0.7871 -0.2010
 5681TIP3    H217008   6.032   2.164   1.408 -1.2701 -0.5807 -0.0644
 5682TIP3   OH217009   2.518   3.660   4.952 -0.0177  0.2542 -0.3034
 5682TIP3    H117010   2.583   3.603   4.994  1.4458  1.6034 -0.6466
 5682TIP3    H217011   2.492   3.612   4.874 -2.2917 -1.9995  1.6551
 5683TIP3   OH217012   5.141   2.434   5.757  0.5695 -0.3401 -0.0520
 5683TIP3    H117013   5.140   2.416   5.851  0.4817  1.3112  0.2977
 5683TIP3    H217014   5.050   2.427   5.730  0.1563  1.8442  0.5844
 5684TIP3   OH217015   2.269   5.813   0.019  0.2719 -0.4073  0.0859
 5684TIP3    H117016   2.204   5.786   0.083 -0.4084  0.5846 -0.1589
 5684TIP3    H217017   2.282   5.906   0.036  0.7009 -0.3165 -0.6787
 5685TIP3   OH217018   2.882   0.450   1.002 -0.0077 -0.1413 -0.4163
 5685TIP3    H117019   2.946   0.380   1.013 -0.8014 -0.8524 -0.1465
 5685TIP3    H217020   2.932   0.531   1.012  1.0779 -0.6397 -1.5588
 5686TIP3   OH217021   1.983   5.548   4.086  0.1279 -0.4833 -0.1083
 5686TIP3    H117022   1.930   5.592   4.152  0.2781 -0.7687  0.2066
 5686TIP3    H217023   2.073   5.570   4.110  0.2431 -1.4524  0.4225
 5687TIP3   OH217024   1.685   5.092   1.627 -0.2359  0.3563 -0.3200
 5687TIP3    H117025   1.738   5.013   1.618 -0.7073  0.0325 -0.3186
 5687TIP3    H217026   1.604   5.071   1.580  1.1184  2.2553 -3.8801
 5688TIP3   OH217027   5.181   4.395   5.150  0.2219  0.5816 -0.2811
 5688TIP3    H117028   5.232   4.370   5.226  0.3282  2.6197  0.3970
 5688TIP3    H217029   5.231   4.363   5.075  0.5117 -0.7622  0.4693
 5689TIP3   OH217030   4.917   1.615   3.494  0.4688 -0.0979 -0.1003
 5689TIP3    H117031   4.862   1.684   3.457  1.5015  0.8833  0.1119
 5689TIP3    H217032   4.975   1.661   3.555  0.2642 -1.3607  1.1078
 5690TIP3   OH217033   5.163   1.444   3.297  0.3035 -0.2729 -0.4918
 5690TIP3    H117034   5.162   1.509   3.368  0.2695 -0.5946 -0.1949
 5690TIP3    H217035   5.083   1.462   3.247 -0.4257 -0.9510  0.3869
 5691TIP3   OH217036   0.725   5.584   5.482 -0.3153  0.6053  0.2836
 5691TIP3    H117037   0.653   5.637   5.517  0.7966  1.9269  0.6087
 5691TIP3    H217038   0.799   5.643   5.477  0.9144 -0.8731  0.4222
 5692TIP3   OH217039   0.154   5.195   3.659 -0.0251 -0.1622  0.4083
 5692TIP3    H117040   0.071   5.180   3.614  0.8174  1.7781 -1.9694
 5692TIP3    H217041   0.201   5.113   3.649 -0.3529 -0.1849 -1.2424
 5693TIP3   OH217042   5.151   4.654   3.329 -0.1133 -0.5426 -0.0573
 5693TIP3    H117043   5.222   4.664   3.266 -0.6582  0.2886 -0.5627
 5693TIP3    H217044   5.192   4.617   3.407  0.6895 -0.9718 -0.6757
 5694TIP3   OH217045   0.272   5.963   5.705 -0.2767  0.2147  0.2506
 5694TIP3    H117046   0.265   5.868   5.713 -1.3573  0.1365 -1.2629
 5694TIP3    H217047   0.339   5.987   5.770  0.7129 -1.6661  0.0173
 5695TIP3   OH217048   1.423   1.549   4.968  0.0908 -0.3111  0.1672
 5695TIP3    H117049   1.354   1.489   4.995 -0.4803  1.2326  2.4223
 5695TIP3    H217050   1.392   1.635   4.996  2.5233  0.5604  0.3995
 5696TIP3   OH217051   0.083   2.196   3.246 -0.3850 -0.3267 -0.0780
 5696TIP3    H117052   0.161   2.205   3.190 -0.8889 -0.0472 -0.7536
 5696TIP3    H217053   0.069   2.284   3.281 -0.0703 -0.5029  0.4947
 5697TIP3   OH217054   5.544   3.629   4.331 -0.1006  0.4781 -0.3339
 5697TIP3    H117055   5.625   3.584   4.306  0.0799 -0.2300  1.3767
 5697TIP3    H217056   5.475   3.563   4.321 -0.3215  0.7707 -0.7927
 5698TIP3   OH217057   1.569   1.155   5.723 -0.6545 -0.2188  0.2290
 5698TIP3    H117058   1.515   1.189   5.652 -1.5232  1.0300  1.4353
 5698TIP3    H217059   1.553   1.061   5.723 -0.8282 -0.2107 -1.0460
 5699TIP3   OH217060   3.024   2.982   4.212 -0.5115 -0.4659  0.2040
 5699TIP3    H117061   3.101   3.036   4.195 -1.2804  0.2840 -1.1087
 5699TIP3    H217062   3.047   2.896   4.178 -0.5583  0.0017 -1.1073
 5700TIP3   OH217063   7.128   1.944   0.235 -0.7211  0.1598  0.5918
 5700TIP3    H117064   7.209   1.991   0.257 -1.0025  0.8707  0.1729
 5700TIP3    H217065   7.060   2.011   0.240 -0.9689  0.0953 -1.1931
 5701TIP3   OH217066   1.102   2.777   2.727  0.2875  0.1422 -0.4166
 5701TIP3    H117067   1.166   2.714   2.759 -0.2416 -0.4690 -0.5498
 5701TIP3    H217068   1.155   2.852   2.698  0.9083 -0.1705 -0.1140
 5702TIP3   OH217069   4.255   5.647   4.324 -0.1985  0.4217 -0.4305
 5702TIP3    H117070   4.193   5.659   4.252 -0.9179 -2.4081 -0.3755
 5702TIP3    H217071   4.204   5.666   4.403 -0.1306  0.9524 -0.5054
 5703TIP3   OH217072   2.220   5.607   1.608 -0.4174 -0.0687  0.1133
 5703TIP3    H117073   2.309   5.603   1.574 -0.3074  0.4521  0.3367
 5703TIP3    H217074   2.225   5.560   1.692 -0.5280 -0.7062 -0.2269
 5704TIP3   OH217075   6.334   3.409   4.503  0.1542  0.1218 -0.0987
 5704TIP3    H117076   6.330   3.442   4.413 -1.2438  0.4553  0.0745
 5704TIP3    H217077   6.270   3.461   4.551  0.9356 -0.0025  1.1246
 5705TIP3   OH217078   7.030   2.473   4.281 -0.2855 -0.3187  0.7806
 5705TIP3    H117079   7.067   2.476   4.193 -0.3511 -1.3979  0.7040
 5705TIP3    H217080   6.966   2.401   4.278 -1.4521  0.6558  1.2719
 5706TIP3   OH217081   2.717   4.065   3.461 -0.5649 -1.1627  0.3441
 5706TIP3    H117082   2.640   4.117   3.440 -0.3651 -0.7179  0.6782
 5706TIP3    H217083   2.715   3.992   3.400  0.0822  0.1414 -1.3278
 5707TIP3   OH217084   5.135   5.387   1.732  0.9815 -0.4259 -0.3857
 5707TIP3    H117085   5.060   5.394   1.792  0.5465  0.0436 -0.9726
 5707TIP3    H217086   5.211   5.396   1.789  0.5689  1.6828 -0.0665
 5708TIP3   OH217087   1.345   0.782   4.610 -0.3231  0.4002 -0.4104
 5708TIP3    H117088   1.342   0.826   4.525 -1.1628  2.0608  0.4189
 5708TIP3    H217089   1.342   0.689   4.589 -0.5327  0.7667 -2.1913
 5709TIP3   OH217090   2.984   2.648   2.126 -0.0421 -0.4147 -0.1653
 5709TIP3    H117091   2.916   2.605   2.179  1.4661 -2.0070  0.5822
 5709TIP3    H217092   3.059   2.656   2.186  0.1330  2.2970 -0.6420
 5710TIP3   OH217093   3.411   6.558   4.136  0.3703  0.2040  0.2694
 5710TIP3    H117094   3.465   6.631   4.107 -0.9944  0.1398 -2.9060
 5710TIP3    H217095   3.330   6.599   4.167 -0.6699  0.1374 -2.1562
 5711TIP3   OH217096   0.575   6.268   0.755 -0.2028 -0.1754  0.0561
 5711TIP3    H117097   0.492   6.291   0.796 -0.6312 -1.1527 -0.2284
 5711TIP3    H217098   0.550   6.234   0.669  0.4032 -1.3977  0.3442
 5712TIP3   OH217099   5.429   4.907   2.932  0.3817  0.4327 -0.5100
 5712TIP3    H117100   5.348   4.875   2.891  0.0693  0.8949 -0.2649
 5712TIP3    H217101   5.433   4.999   2.907  0.0494  0.7896  0.7101
 5713TIP3   OH217102   5.215   2.575   1.570 -0.4309  0.5230  0.1827
 5713TIP3    H117103   5.284   2.637   1.547 -0.6179  0.9537  0.7469
 5713TIP3    H217104   5.136   2.613   1.531 -0.5529  0.6721  0.5651
 5714TIP3   OH217105   0.053   3.801   5.805 -0.2121 -0.3730  0.6423
 5714TIP3    H117106   0.056   3.805   5.900 -2.5335 -0.4057  0.7811
 5714TIP3    H217107   0.065   3.891   5.777 -0.6325 -0.1844  1.0484
 5715TIP3   OH217108   4.471   6.291   4.551  0.1565 -0.4436  0.6626
 5715TIP3    H117109   4.547   6.318   4.603  1.1979 -1.4304 -0.2894
 5715TIP3    H217110   4.506   6.278   4.463 -1.6695  1.8004 -0.5042
 5716TIP3   OH217111   6.284   5.273   2.303 -0.3176  0.8619  0.1595
 5716TIP3    H117112   6.377   5.279   2.280 -0.9179  0.4240 -2.8457
 5716TIP3    H217113   6.267   5.352   2.355  1.6750  0.9876  0.7222
 5717TIP3   OH217114   6.895   1.302   4.721 -0.0093  0.3488 -0.2616
 5717TIP3    H117115   6.968   1.281   4.779 -0.6590 -0.2026  0.3706
 5717TIP3    H217116   6.927   1.280   4.634  0.2409 -0.8610  0.1089
 5718TIP3   OH217117   5.120   6.340   5.631  0.0541 -0.4957 -0.3588
 5718TIP3    H117118   5.025   6.353   5.636 -0.0589 -0.7248 -1.5983
 5718TIP3    H217119   5.157   6.418   5.673 -0.6789 -0.5386  0.3913
 5719TIP3   OH217120   0.664   3.721   5.449  0.7275  0.2179 -0.3087
 5719TIP3    H117121   0.749   3.686   5.476  0.5289  0.5833  0.8297
 5719TIP3    H217122   0.616   3.732   5.531 -0.8694 -1.0953 -1.0318
 5720TIP3   OH217123   4.678   1.424   3.377  0.1293 -0.4733 -0.3866
 5720TIP3    H117124   4.750   1.370   3.410  0.2783 -1.7817 -2.6571
 5720TIP3    H217125   4.672   1.496   3.440  2.0346 -1.4299  1.0086
 5721TIP3   OH217126   1.085   5.475   4.496 -0.1805  0.0750 -0.0635
 5721TIP3    H117127   1.008   5.479   4.552 -0.4328 -1.8619 -0.1955
 5721TIP3    H217128   1.147   5.537   4.535 -0.5673 -0.7868  2.0033
 5722TIP3   OH217129   1.481   2.459   1.315  0.3181  0.9630 -0.3872
 5722TIP3    H117130   1.449   2.520   1.248  0.8366  0.9798 -0.6271
 5722TIP3    H217131   1.483   2.374   1.270  0.9817  1.0325 -0.5020
 5723TIP3   OH217132   3.741   3.687   1.381  0.2447 -0.1789  0.4454
 5723TIP3    H117133   3.796   3.631   1.436  1.0795  1.5934  1.4843
 5723TIP3    H217134   3.785   3.772   1.381  0.3573 -0.1079 -3.1067
 5724TIP3   OH217135   3.758   4.548   5.742 -0.0950 -0.1053  0.0540
 5724TIP3    H117136   3.663   4.541   5.754 -0.0795  0.3417  0.4745
 5724TIP3    H217137   3.768   4.601   5.662 -0.2205  1.5007  1.0488
 5725TIP3   OH217138   6.381   4.137   0.441 -0.3056 -0.5353  0.4443
 5725TIP3    H117139   6.361   4.061   0.387 -0.5494  0.8609 -1.5227
 5725TIP3    H217140   6.297   4.164   0.477 -0.5942  0.0516 -0.6216
 5726TIP3   OH217141   1.641   0.356   2.323 -0.1126  0.0875 -0.3808
 5726TIP3    H117142   1.594   0.437   2.342 -2.7095 -1.1836 -0.9515
 5726TIP3    H217143   1.642   0.351   2.228 -1.9915 -1.5677 -0.3698
 5727TIP3   OH217144   3.951   2.351   5.715 -0.0657  0.3564  0.9297
 5727TIP3    H117145   3.915   2.309   5.794  0.4122 -0.8893  0.5110
 5727TIP3    H217146   4.028   2.299   5.694  1.0597  1.9698  0.8524
 5728TIP3   OH217147   2.199   4.123   0.906  0.3792  0.3118 -0.4783
 5728TIP3    H117148   2.294   4.111   0.914  0.5825  0.5620 -2.2000
 5728TIP3    H217149   2.163   4.035   0.905  0.4933  0.2245  0.9532
 5729TIP3   OH217150   0.337   3.313   1.178  0.7806  0.4969  0.4712
 5729TIP3    H117151   0.267   3.263   1.219  1.3193 -0.3529  0.3909
 5729TIP3    H217152   0.327   3.297   1.084  1.5493 -0.3051  0.5049
 5730TIP3   OH217153   1.778   1.603   3.455  0.0397  0.2416 -0.4046
 5730TIP3    H117154   1.850   1.543   3.474 -2.1950 -2.3854  0.6021
 5730TIP3    H217155   1.705   1.545   3.429 -1.6313  2.7427 -1.6747
 5731TIP3   OH217156   2.127   4.797   0.234 -0.6640 -0.1117  0.3320
 5731TIP3    H117157   2.144   4.878   0.282  0.2255  0.4776 -0.9053
 5731TIP3    H217158   2.194   4.736   0.265 -0.8215 -0.1063  0.6814
 5732TIP3   OH217159   4.306   4.997   5.171 -0.2179 -0.4736 -0.2612
 5732TIP3    H117160   4.396   5.029   5.180 -0.4557 -0.1138  1.1058
 5732TIP3    H217161   4.309   4.907   5.202 -0.1367 -0.8095 -1.2213
 5733TIP3   OH217162   4.065   5.065   0.748  0.7826  0.7427 -0.0121
 5733TIP3    H117163   4.126   5.021   0.807  0.8431  0.4668 -0.2747
 5733TIP3    H217164   4.105   5.056   0.661 -0.5157 -1.1042 -0.4949
 5734TIP3   OH217165   4.461   3.420   2.067  0.2330 -0.0617 -0.1784
 5734TIP3    H117166   4.422   3.507   2.074 -1.1093 -0.7343  1.1423
 5734TIP3    H217167   4.440   3.377   2.150  3.0654 -0.7878  0.2677
 5735TIP3   OH217168   6.732   6.578   1.211 -0.1397  0.2971 -0.0961
 5735TIP3    H117169   6.781   6.523   1.150 -0.1431 -0.6360  0.7160
 5735TIP3    H217170   6.680   6.635   1.156  0.4715  0.0295 -0.9648
 5736TIP3   OH217171   5.204   6.256   0.254  0.5001 -0.0223 -0.1325
 5736TIP3    H117172   5.168   6.174   0.286  1.0246 -0.7761 -1.4241
 5736TIP3    H217173   5.130   6.303   0.216  0.5773 -0.9093 -1.4296
 5737TIP3   OH217174   2.275   3.145   3.735  0.7064  0.3590 -0.3878
 5737TIP3    H117175   2.297   3.183   3.650 -1.2917  1.3334 -0.5244
 5737TIP3    H217176   2.300   3.211   3.799  0.1798  0.5688 -0.3931
 5738TIP3   OH217177   5.029   0.691   1.050  0.3725  0.3595  0.2315
 5738TIP3    H117178   5.060   0.692   0.960 -0.5047  0.2430 -0.0797
 5738TIP3    H217179   4.971   0.767   1.057 -0.4707 -0.2763  0.3535
 5739TIP3   OH217180   3.747   1.502   2.356 -0.0693  0.2165 -0.2374
 5739TIP3    H117181   3.679   1.521   2.420  0.3117  1.3889 -0.1493
 5739TIP3    H217182   3.826   1.545   2.391  0.1246  0.9426 -1.4938
 5740TIP3   OH217183   2.483   2.563   4.774 -0.0808  0.3630  0.0091
 5740TIP3    H117184   2.574   2.590   4.785 -0.4632  1.8843 -0.3159
 5740TIP3    H217185   2.451   2.548   4.863  0.7282 -1.1585  0.0811
 5741TIP3   OH217186   6.808   1.106   5.812 -0.0399  0.3919  0.1893
 5741TIP3    H117187   6.797   1.032   5.871  2.7104 -1.1447 -1.0515
 5741TIP3    H217188   6.759   1.080   5.733 -0.9058  0.9476  0.5203
 5742TIP3   OH217189   1.507   1.200   0.145  0.0662  0.4830  0.3178
 5742TIP3    H117190   1.486   1.254   0.069 -0.3676  0.2356  0.2587
 5742TIP3    H217191   1.596   1.169   0.128 -0.2320 -0.0343 -0.3723
 5743TIP3   OH217192   4.164   3.533   2.523  0.0733  0.5169  0.2968
 5743TIP3    H117193   4.105   3.469   2.563  1.2369 -0.5592  0.3677
 5743TIP3    H217194   4.252   3.500   2.543  0.7058  0.8681 -1.6738
 5744TIP3   OH217195   4.988   5.674   5.330  0.3903 -0.5234  0.0339
 5744TIP3    H117196   4.973   5.655   5.238 -0.5556  0.8983 -0.1457
 5744TIP3    H217197   4.955   5.763   5.342 -2.3820 -1.6997  2.3945
 5745TIP3   OH217198   6.678   3.381   5.641 -0.5747  0.3373 -0.5474
 5745TIP3    H117199   6.648   3.332   5.564  0.1134  0.3697 -0.8475
 5745TIP3    H217200   6.674   3.473   5.614 -0.9443  0.3885 -0.3206
 5746TIP3   OH217201   7.071   0.748   3.208 -0.5833 -0.2425  0.1942
 5746TIP3    H117202   6.998   0.741   3.270  0.0037 -1.1714  0.7943
 5746TIP3    H217203   7.148   0.721   3.257  0.2187  0.9021 -0.3844
 5747TIP3   OH217204   2.743   1.676   2.972  0.0433 -0.0404 -0.2200
 5747TIP3    H117205   2.838   1.686   2.977  0.1136 -0.7909  0.1010
 5747TIP3    H217206   2.711   1.763   2.947  0.8413  0.1094 -0.7649
 5748TIP3   OH217207   6.899   5.186   5.256 -0.1864  0.5474  0.1026
 5748TIP3    H117208   6.843   5.239   5.314 -0.9507  1.6300 -1.5582
 5748TIP3    H217209   6.844   5.112   5.232 -0.0199  0.3269  0.3868
 5749TIP3   OH217210   4.048   6.406   5.534  0.1399 -0.7314 -0.3270
 5749TIP3    H117211   3.987   6.360   5.590 -0.7639 -0.3969 -1.0187
 5749TIP3    H217212   4.120   6.432   5.593 -0.7003 -0.5320  0.6347
 5750TIP3   OH217213   6.387   5.120   1.226 -0.0792  0.1518  0.2598
 5750TIP3    H117214   6.331   5.065   1.281 -1.2626 -0.7285 -1.6917
 5750TIP3    H217215   6.335   5.198   1.209 -0.8064 -0.6700 -1.5637
 5751TIP3   OH217216   2.023   5.328   3.390 -0.3159  0.0124  0.1771
 5751TIP3    H117217   2.076   5.405   3.369  1.1921 -0.7813  0.9147
 5751TIP3    H217218   2.067   5.256   3.345 -2.6773 -0.2220 -1.9296
 5752TIP3   OH217219   1.102   6.401   3.223 -0.2547  0.5326  0.3232
 5752TIP3    H117220   1.059   6.325   3.262 -2.3451  1.6904  0.4287
 5752TIP3    H217221   1.160   6.434   3.292  2.7106 -2.2992 -0.5290
 5753TIP3   OH217222   4.465   3.292   2.911  0.0444  0.9683 -0.6680
 5753TIP3    H117223   4.542   3.339   2.878 -0.0716  1.3169 -0.4427
 5753TIP3    H217224   4.460   3.214   2.856  1.5754  0.0475  0.4267
 5754TIP3   OH217225   2.656   5.873   5.660  0.3570  0.0560 -0.4404
 5754TIP3    H117226   2.580   5.820   5.634 -0.3699  0.8193  0.0946
 5754TIP3    H217227   2.707   5.882   5.579  0.5378 -1.4819 -0.5426
 5755TIP3   OH217228   6.883   1.760   3.949  0.1641 -0.5775 -0.2672
 5755TIP3    H117229   6.870   1.679   3.998 -0.4267 -0.2160  0.1902
 5755TIP3    H217230   6.820   1.821   3.988  1.8102  0.6314  0.5979
 5756TIP3   OH217231   5.030   1.106   2.303  0.6077 -0.3968 -0.6052
 5756TIP3    H117232   5.083   1.106   2.382 -1.8063  0.5602  1.1413
 5756TIP3    H217233   4.941   1.088   2.333 -0.7556  1.9211 -2.7923
 5757TIP3   OH217234   1.412   0.950   5.551  0.5502  0.4759 -0.2798
 5757TIP3    H117235   1.482   0.948   5.486  0.4644  0.9756 -0.3910
 5757TIP3    H217236   1.389   1.042   5.559 -0.4299  0.2687 -0.6011
 5758TIP3   OH217237   1.275   4.112   3.575  0.4072 -0.0646  0.1176
 5758TIP3    H117238   1.274   4.204   3.549  0.0335 -0.2588 -0.5752
 5758TIP3    H217239   1.188   4.079   3.552  0.6233 -0.6551  0.1218
 5759TIP3   OH217240   5.896   4.404   4.659 -0.0728  0.4845  0.1693
 5759TIP3    H117241   5.963   4.473   4.665  2.5928 -1.7227 -1.7905
 5759TIP3    H217242   5.895   4.364   4.746 -0.7212  2.0854  0.9448
 5760TIP3   OH217243   4.620   4.589   4.434 -0.2153  0.4745  0.0174
 5760TIP3    H117244   4.543   4.586   4.378 -0.0746 -1.3849 -0.1543
 5760TIP3    H217245   4.688   4.629   4.379 -0.0812 -1.3010 -1.2172
 5761TIP3   OH217246   2.869   5.245   2.096 -0.1011  0.0576  0.1392
 5761TIP3    H117247   2.937   5.182   2.120 -0.4805 -0.2951  0.3237
 5761TIP3    H217248   2.889   5.323   2.148  1.9255  1.1078 -2.0476
 5762TIP3   OH217249   3.999   0.509   5.746  0.2948  0.2508  0.1809
 5762TIP3    H117250   3.922   0.463   5.781  0.3194 -0.3894 -0.5691
 5762TIP3    H217251   4.062   0.509   5.818  0.5143 -1.4436  0.0472
 5763TIP3   OH217252   1.605   6.399   4.347  0.2797  0.2389  0.1204
 5763TIP3    H117253   1.649   6.480   4.320 -2.1079  1.2672 -0.9637
 5763TIP3    H217254   1.588   6.412   4.440  0.3573  0.7649  0.0663
 5764TIP3   OH217255   5.397   4.377   2.367 -0.1285 -0.2435  0.0511
 5764TIP3    H117256   5.385   4.392   2.461  2.4014 -0.9527  0.5713
 5764TIP3    H217257   5.366   4.458   2.325  0.8841  1.0709  1.7033
 5765TIP3   OH217258   5.827   2.009   4.266  0.0078  0.5662 -0.0692
 5765TIP3    H117259   5.821   1.961   4.183  0.1167  1.0420 -0.3570
 5765TIP3    H217260   5.775   1.957   4.327 -1.4570  1.0760 -0.8371
 5766TIP3   OH217261   5.387   4.669   3.774 -0.1901  0.2241 -1.1022
 5766TIP3    H117262   5.386   4.760   3.743  0.2871  1.0229  1.0438
 5766TIP3    H217263   5.441   4.672   3.854 -1.7575 -1.5583  0.0913
 5767TIP3   OH217264   2.549   3.520   5.723 -0.7992 -0.5130  0.1344
 5767TIP3    H117265   2.625   3.578   5.722 -0.7672 -0.5147  1.2525
 5767TIP3    H217266   2.546   3.483   5.635 -0.6442  0.9494 -0.5231
 5768TIP3   OH217267   2.342   2.667   1.344  0.3565 -0.4151  0.0582
 5768TIP3    H117268   2.416   2.663   1.284  1.2987  0.2425  1.1363
 5768TIP3    H217269   2.381   2.660   1.431 -0.9182 -0.7233  0.6382
 5769TIP3   OH217270   1.648   5.077   0.232  0.3580  0.0827 -0.7560
 5769TIP3    H117271   1.687   5.155   0.272  0.4724  0.5878 -1.8181
 5769TIP3    H217272   1.711   5.050   0.165 -0.6615  0.3794 -1.8860
 5770TIP3   OH217273   1.420   6.477   1.289  0.0798 -0.0178  0.1175
 5770TIP3    H117274   1.456   6.516   1.369  0.7334 -0.7027  0.1712
 5770TIP3    H217275   1.404   6.552   1.231 -0.6965  0.5165  0.9923
 5771TIP3   OH217276   1.286   2.826   4.832 -0.0090  0.3945  0.0174
 5771TIP3    H117277   1.319   2.755   4.886  0.3406 -1.0596 -1.9654
 5771TIP3    H217278   1.232   2.783   4.766 -0.0059  1.9787 -1.0916
 5772TIP3   OH217279   6.368   1.285   3.093 -0.1689 -0.6970 -0.3582
 5772TIP3    H117280   6.328   1.370   3.078 -2.5511 -1.8087 -0.7150
 5772TIP3    H217281   6.371   1.275   3.188  1.1191  0.1813 -0.2806
 5773TIP3   OH217282   2.171   0.754   1.824  0.0572  0.5066 -0.2872
 5773TIP3    H117283   2.093   0.807   1.810  0.6851  1.4360 -0.4113
 5773TIP3    H217284   2.138   0.666   1.845 -0.9969  0.7906 -0.7065
 5774TIP3   OH217285   3.046   2.437   4.979 -0.1723 -0.3712  0.0203
 5774TIP3    H117286   3.120   2.463   4.924  0.6399 -2.0813  0.2508
 5774TIP3    H217287   3.078   2.448   5.068  0.0923 -1.7908  0.1250
 5775TIP3   OH217288   2.347   0.090   3.111 -0.3754  0.2457 -0.1380
 5775TIP3    H117289   2.264   0.088   3.157  0.2271  2.3421  1.2137
 5775TIP3    H217290   2.324   0.112   3.021 -1.4821 -2.7673 -0.7048
 5776TIP3   OH217291   0.414   2.358   3.673 -0.0410  0.5595  0.5734
 5776TIP3    H117292   0.421   2.416   3.597 -2.1556  1.5407  1.0366
 5776TIP3    H217293   0.489   2.299   3.666  1.9469  2.9985 -0.2190
 5777TIP3   OH217294   4.833   1.461   0.173  0.6844 -0.0536 -0.1310
 5777TIP3    H117295   4.911   1.495   0.216 -0.4731  2.2777  0.2858
 5777TIP3    H217296   4.762   1.520   0.200 -0.7217 -0.4512 -2.5859
 5778TIP3   OH217297   0.116   3.289   5.782  0.1299  0.4837 -0.8118
 5778TIP3    H117298   0.085   3.215   5.731 -1.3514  0.0396  0.6395
 5778TIP3    H217299   0.061   3.289   5.860  2.2254  1.1392  0.7787
 5779TIP3   OH217300   5.044   1.798   4.816 -0.1121  0.2726  0.3266
 5779TIP3    H117301   5.040   1.887   4.850 -1.7971  0.2892  0.1633
 5779TIP3    H217302   5.081   1.807   4.728  2.5907  0.4212  1.3692
 5780TIP3   OH217303   2.318   3.159   5.629  0.8424  0.0102  0.2075
 5780TIP3    H117304   2.306   3.187   5.538  0.6160  0.3909  0.3518
 5780TIP3    H217305   2.312   3.240   5.680 -0.3207 -0.3566  0.6795
 5781TIP3   OH217306   1.056   2.346   2.859 -0.1055  0.2551  0.0964
 5781TIP3    H117307   1.014   2.423   2.821 -1.0634  0.5233  1.6248
 5781TIP3    H217308   1.132   2.381   2.906  0.3731  0.0684 -0.5272
 5782TIP3   OH217309   5.956   3.271   3.481 -0.7606  1.2527  0.1786
 5782TIP3    H117310   5.995   3.283   3.394  0.2302  0.6369  0.5353
 5782TIP3    H217311   5.924   3.181   3.481  0.0380  0.9595  0.7582
 5783TIP3   OH217312   1.512   0.204   5.366 -0.6337  0.2601  0.0830
 5783TIP3    H117313   1.422   0.175   5.355 -0.5970 -1.1249  2.8651
 5783TIP3    H217314   1.513   0.250   5.450  1.2112  0.4254  0.0119
 5784TIP3   OH217315   3.717   5.271   4.754 -0.0174  0.6737  0.3480
 5784TIP3    H117316   3.769   5.295   4.830 -1.8888 -0.4847  2.0847
 5784TIP3    H217317   3.645   5.334   4.753 -1.7220 -1.1422  1.4790
 5785TIP3   OH217318   6.472   0.186   0.905 -0.7885 -0.1370 -0.2389
 5785TIP3    H117319   6.467   0.215   0.996  0.6508  0.7339 -0.3982
 5785TIP3    H217320   6.449   0.263   0.854 -0.9592 -0.4385 -0.6198
 5786TIP3   OH217321   1.651   4.322   0.458 -0.0111  0.5427 -0.5942
 5786TIP3    H117322   1.609   4.381   0.521  2.9607  2.4079 -0.1438
 5786TIP3    H217323   1.602   4.335   0.377 -0.6889  2.0973  0.0279
 5787TIP3   OH217324   2.470   0.698   5.806  0.0833  0.6019 -0.1460
 5787TIP3    H117325   2.472   0.782   5.851  1.0353  0.7017 -0.3527
 5787TIP3    H217326   2.377   0.682   5.788 -0.1847  1.1707  0.6901
 5788TIP3   OH217327   4.531   5.629   4.519  0.3662  0.5182 -0.3566
 5788TIP3    H117328   4.579   5.576   4.456  1.2050 -0.2144  0.8450
 5788TIP3    H217329   4.479   5.565   4.569 -0.0295  1.0426 -0.0827
 5789TIP3   OH217330   1.482   0.456   0.019  0.5897 -0.1260  0.1839
 5789TIP3    H117331   1.531   0.381   0.053  0.8358  0.1070  0.3548
 5789TIP3    H217332   1.542   0.530   0.031  0.9448 -0.1260 -1.3268
 5790TIP3   OH217333   2.604   4.992   3.128  0.6352  0.5234  0.9665
 5790TIP3    H117334   2.553   4.971   3.207  1.0878  0.8270  1.3498
 5790TIP3    H217335   2.651   4.912   3.109 -0.1723  0.1610  0.4600
 5791TIP3   OH217336   4.110   3.756   2.377  0.0198  0.5283 -0.3331
 5791TIP3    H117337   4.127   3.666   2.406 -0.7462  0.6341  0.4851
 5791TIP3    H217338   4.019   3.755   2.349 -0.3521  1.3134  0.7755
 5792TIP3   OH217339   4.946   3.400   5.648 -0.1277  0.2165 -0.3427
 5792TIP3    H117340   4.852   3.398   5.627  0.3687  0.4798 -2.8890
 5792TIP3    H217341   4.970   3.308   5.658 -1.2576  0.1772  3.9631
 5793TIP3   OH217342   2.962   4.412   3.745 -1.0241 -0.1699  0.1326
 5793TIP3    H117343   3.048   4.402   3.704 -0.6282 -0.9892  1.1220
 5793TIP3    H217344   2.934   4.323   3.766 -2.5350  0.0116 -0.9775
 5794TIP3   OH217345   0.146   5.704   5.771 -0.5986  0.5143 -0.6326
 5794TIP3    H117346   0.111   5.769   5.832  1.1225 -0.9325  2.1171
 5794TIP3    H217347   0.086   5.630   5.777  0.2920 -0.1508  0.4227
 5795TIP3   OH217348   3.183   5.841   3.350 -0.1646  0.5996 -0.4842
 5795TIP3    H117349   3.110   5.891   3.312 -0.0882 -0.0295 -1.4751
 5795TIP3    H217350   3.181   5.757   3.304  1.3642  0.6748 -0.7141
 5796TIP3   OH217351   0.123   3.849   1.937 -0.8097 -0.3115 -0.4895
 5796TIP3    H117352   0.086   3.783   1.995  1.6788 -2.1138 -0.8159
 5796TIP3    H217353   0.108   3.815   1.848  0.5507 -0.5549 -0.6558
 5797TIP3   OH217354   1.923   0.388   3.305 -0.4058  1.2047  0.3780
 5797TIP3    H117355   1.938   0.319   3.241  3.7681  1.2854  0.9819
 5797TIP3    H217356   1.933   0.470   3.256  0.3166  1.2909  0.6554
 5798TIP3   OH217357   1.094   1.474   0.387  0.4105 -0.3119 -0.3815
 5798TIP3    H117358   1.157   1.545   0.390  1.0372 -0.8650 -0.2358
 5798TIP3    H217359   1.087   1.443   0.477  2.3127 -2.2819 -0.8287
 5799TIP3   OH217360   3.970   2.371   0.815  0.2900 -0.1963 -0.1147
 5799TIP3    H117361   4.030   2.443   0.832  0.1865 -0.0035 -0.5424
 5799TIP3    H217362   3.948   2.379   0.722 -1.0542  0.2539  0.2148
 5800TIP3   OH217363   0.684   0.282   0.001  0.3437 -0.5847 -0.0804
 5800TIP3    H117364   0.737   0.337  -0.057 -0.5137 -0.7450 -1.0339
 5800TIP3    H217365   0.741   0.265   0.076  0.8941  0.9575 -0.1262
 5801TIP3   OH217366   6.210   2.031   0.996  0.0673  0.1044  0.3063
 5801TIP3    H117367   6.285   1.973   1.010 -1.3794 -1.3593  2.6761
 5801TIP3    H217368   6.138   1.972   0.974 -0.3840  1.5195 -2.3601
 5802TIP3   OH217369   6.724   1.051   0.134 -0.6061 -0.2898 -0.2136
 5802TIP3    H117370   6.756   1.136   0.163 -1.8066  0.5341 -1.2084
 5802TIP3    H217371   6.673   1.017   0.208 -0.6692  0.1533 -0.0539
 5803TIP3   OH217372   2.559   4.992   0.647 -0.2457  0.5617  0.7343
 5803TIP3    H117373   2.500   4.918   0.634 -0.9336  1.2479 -0.2811
 5803TIP3    H217374   2.647   4.954   0.643 -0.5910 -0.3400  1.3182
 5804TIP3   OH217375   4.855   1.899   3.790 -0.6307 -0.1181 -0.1194
 5804TIP3    H117376   4.783   1.866   3.736 -1.0614  1.1116 -0.3358
 5804TIP3    H217377   4.819   1.976   3.833  0.6281  0.6682 -0.4314
 5805TIP3   OH217378   2.011   6.453   5.871  0.2019  0.2633  0.1244
 5805TIP3    H117379   2.083   6.438   5.811 -0.2482  0.7440 -0.5510
 5805TIP3    H217380   1.996   6.548   5.868 -2.3973 -0.0919 -2.0927
 5806TIP3   OH217381   5.515   6.594   2.331 -0.6403 -0.0647 -0.6850
 5806TIP3    H117382   5.520   6.607   2.425 -3.1491  1.2538 -0.6631
 5806TIP3    H217383   5.574   6.660   2.294  1.5291 -1.5607 -0.0830
 5807TIP3   OH217384   1.809   5.211   2.967  0.0277  0.1844 -0.4221
 5807TIP3    H117385   1.897   5.175   2.964  0.5147  1.3220 -0.2914
 5807TIP3    H217386   1.753   5.141   2.934  0.5338 -1.7669  2.5243
 5808TIP3   OH217387   6.103   1.642   4.525 -0.5872 -0.2712  0.1393
 5808TIP3    H117388   6.152   1.580   4.470  2.2091  0.3480  1.7014
 5808TIP3    H217389   6.124   1.728   4.489 -1.2409 -0.0252  0.3356
 5809TIP3   OH217390   2.978   4.389   1.432  0.2018  0.2997  0.3026
 5809TIP3    H117391   2.990   4.471   1.479  1.2864 -0.6914  1.8128
 5809TIP3    H217392   2.883   4.378   1.428  0.0138  1.8306 -0.3552
 5810TIP3   OH217393   3.576   5.777   3.387 -0.3840  0.0498 -0.0892
 5810TIP3    H117394   3.573   5.786   3.483 -4.6023 -1.6384  0.1161
 5810TIP3    H217395   3.570   5.867   3.355  0.3121  0.5866  1.1903
 5811TIP3   OH217396   3.037   3.407   1.060  0.6101  0.0532  0.3760
 5811TIP3    H117397   2.956   3.366   1.089  1.0158 -1.5567 -0.6179
 5811TIP3    H217398   3.073   3.346   0.996  2.7603  0.5531  1.0142
 5812TIP3   OH217399   0.898   3.786   2.155 -0.0107  0.6745  0.5126
 5812TIP3    H117400   0.846   3.719   2.200 -3.6773  1.8679 -1.4911
 5812TIP3    H217401   0.907   3.857   2.219 -0.5691  0.2751  1.0424
 5813TIP3   OH217402   2.874   5.575   3.787 -0.3575  0.2137  0.5116
 5813TIP3    H117403   2.949   5.555   3.730 -0.1510 -1.4613  1.3103
 5813TIP3    H217404   2.826   5.492   3.792 -2.3722  1.2848 -0.0959
 5814TIP3   OH217405   3.856   5.612   0.965 -0.1477 -0.0478 -1.0146
 5814TIP3    H117406   3.950   5.610   0.950 -0.3871 -0.4245 -2.5769
 5814TIP3    H217407   3.820   5.651   0.885 -1.3135  0.1469 -0.4116
 5815TIP3   OH217408   6.179   0.758   2.823 -0.4150  0.2575  0.3100
 5815TIP3    H117409   6.094   0.736   2.861 -0.6407 -2.0182 -1.2732
 5815TIP3    H217410   6.213   0.674   2.791  1.4553  1.4381 -1.0235
 5816TIP3   OH217411   4.353   5.782   5.888  0.0653  0.3197  0.1769
 5816TIP3    H117412   4.342   5.690   5.863 -1.3780  0.5416 -0.0830
 5816TIP3    H217413   4.265   5.819   5.884  0.8979  2.3472 -2.1479
 5817TIP3   OH217414   0.626   0.394   4.670  0.1657 -0.5753 -0.0494
 5817TIP3    H117415   0.682   0.384   4.593  0.3097  1.1636 -0.2285
 5817TIP3    H217416   0.607   0.488   4.673 -1.2307 -0.8531  1.0737
 5818TIP3   OH217417   2.156   6.712   4.979 -0.2704  0.7063 -0.6513
 5818TIP3    H117418   2.209   6.671   4.910  0.5329  0.2781  0.1891
 5818TIP3    H217419   2.220   6.757   5.034 -1.0105  1.9716 -0.7861
 5819TIP3   OH217420   5.529   1.595   0.077 -0.0654 -0.0207 -0.1707
 5819TIP3    H117421   5.499   1.613   0.166 -2.3114  2.2354 -1.2545
 5819TIP3    H217422   5.624   1.609   0.081  0.1061 -1.3973  2.1237
 5820TIP3   OH217423   0.325   5.203   0.839  0.9758  0.2684 -0.4926
 5820TIP3    H117424   0.293   5.270   0.778  1.3944  0.5268 -0.4371
 5820TIP3    H217425   0.394   5.248   0.889  0.2530  0.2300  0.5622
 5821TIP3   OH217426   3.559   2.252   5.261  0.0956 -0.3231 -0.0039
 5821TIP3    H117427   3.481   2.297   5.292 -0.3175 -0.4362 -0.8844
 5821TIP3    H217428   3.562   2.269   5.167  0.9198 -0.6425 -0.0463
 5822TIP3   OH217429   4.002   4.671   0.682  0.0422  0.1102  0.2749
 5822TIP3    H117430   4.088   4.712   0.675  0.2453 -0.2156  0.8175
 5822TIP3    H217431   3.940   4.744   0.671  0.3988  0.6370  1.6166
 5823TIP3   OH217432   5.885   3.831   4.917  0.3315  0.2536 -0.4107
 5823TIP3    H117433   5.790   3.834   4.927  0.3500 -1.4948  0.8128
 5823TIP3    H217434   5.899   3.771   4.844  0.4994  0.7591 -0.7964
 5824TIP3   OH217435   1.015   2.204   1.463  0.6599 -0.5267  0.6461
 5824TIP3    H117436   1.089   2.218   1.404 -0.8505  1.6124 -0.8669
 5824TIP3    H217437   0.992   2.112   1.452  1.4978 -0.5896 -0.7939
 5825TIP3   OH217438   4.227   4.447   2.827  0.0134  0.5484 -0.2556
 5825TIP3    H117439   4.156   4.498   2.788 -0.7826  0.0406  0.5060
 5825TIP3    H217440   4.224   4.363   2.781 -0.0303  0.4437 -0.0607
 5826TIP3   OH217441   0.399   6.591   0.963  0.3805  0.2595 -0.1693
 5826TIP3    H117442   0.320   6.551   0.999  1.4222 -1.4259  0.4040
 5826TIP3    H217443   0.457   6.600   1.038  1.5788 -0.7397 -0.9257
 5827TIP3   OH217444   6.063   1.238   1.014 -0.4012 -0.2397 -0.2404
 5827TIP3    H117445   6.030   1.314   1.063  1.6350  0.8730 -0.5050
 5827TIP3    H217446   5.993   1.218   0.952 -0.7690  1.7969 -0.5563
 5828TIP3   OH217447   3.835   4.099   0.195  0.1120  0.0617 -0.3326
 5828TIP3    H117448   3.813   4.189   0.170  2.9159  1.2122  0.9157
 5828TIP3    H217449   3.866   4.058   0.114  2.0522  1.3921 -0.3443
 5829TIP3   OH217450   1.030   1.320   0.609 -0.8091 -0.8595 -0.0126
 5829TIP3    H117451   1.047   1.353   0.697  0.1718  0.2254 -0.5908
 5829TIP3    H217452   0.999   1.230   0.623  0.7758 -1.2387  1.3641
 5830TIP3   OH217453   0.966   1.524   3.667 -0.0331 -0.1329  0.2863
 5830TIP3    H117454   0.946   1.431   3.676 -0.2302 -0.2794 -1.4076
 5830TIP3    H217455   0.880   1.567   3.665  0.0221 -0.0436 -0.1695
 5831TIP3   OH217456   6.828   2.079   1.008  0.4368  0.3515  0.2577
 5831TIP3    H117457   6.774   2.124   0.943 -0.4901 -0.9357  0.0897
 5831TIP3    H217458   6.917   2.104   0.987 -0.0882  3.8142  1.4916
 5832TIP3   OH217459   5.908   0.121   2.702  0.0943 -0.5530  0.1983
 5832TIP3    H117460   5.933   0.099   2.792  0.1777 -1.2216  0.0175
 5832TIP3    H217461   5.858   0.045   2.672  0.7286 -0.6729 -0.5765
 5833TIP3   OH217462   5.421   0.030   3.889 -0.2812 -0.5529  0.3644
 5833TIP3    H117463   5.374   0.052   3.808 -0.0072  0.6352  0.5153
 5833TIP3    H217464   5.481  -0.039   3.863 -0.2765 -0.2650 -0.4275
 5834TIP3   OH217465   4.342   4.471   5.685 -0.1838  0.2194  0.1158
 5834TIP3    H117466   4.380   4.457   5.599 -0.6881 -1.0274  0.0687
 5834TIP3    H217467   4.359   4.563   5.705 -0.6280  0.7140 -1.5935
 5835TIP3   OH217468   1.271   1.917   3.362 -0.2662  0.3089 -0.6289
 5835TIP3    H117469   1.280   1.824   3.383 -1.3219  1.0480  4.4087
 5835TIP3    H217470   1.361   1.950   3.359  0.1160 -0.3078  1.7372
 5836TIP3   OH217471   4.629   2.590   0.580  0.3221  0.4524  0.1856
 5836TIP3    H117472   4.671   2.508   0.607 -1.1539 -1.0639 -1.7501
 5836TIP3    H217473   4.535   2.570   0.582 -0.0015  1.5421 -1.8442
 5837TIP3   OH217474   6.990   5.790   5.506 -0.1610 -0.1061  0.3950
 5837TIP3    H117475   7.041   5.833   5.575  0.4508 -0.8185  0.4029
 5837TIP3    H217476   6.969   5.704   5.543  1.9505 -1.3341 -1.0290
 5838TIP3   OH217477   5.856   2.737   2.275 -0.2737 -0.3150 -0.6574
 5838TIP3    H117478   5.789   2.695   2.329  0.4166  1.2316  1.5810
 5838TIP3    H217479   5.826   2.828   2.267 -0.2270 -0.4397 -2.7792
 5839TIP3   OH217480   1.703   4.111   1.731 -0.0952 -0.3616 -0.2330
 5839TIP3    H117481   1.764   4.130   1.803  0.9515  1.6237 -1.5422
 5839TIP3    H217482   1.719   4.019   1.711  0.7590 -0.5234  1.0232
 5840TIP3   OH217483   6.619   1.349   2.497  0.6954  0.0070 -0.0601
 5840TIP3    H117484   6.537   1.364   2.449  1.7673  1.3223 -1.5827
 5840TIP3    H217485   6.594   1.356   2.589 -1.0467 -0.4757 -0.4465
 5841TIP3   OH217486   4.794   3.840   1.037 -0.4291  0.1152 -0.3836
 5841TIP3    H117487   4.790   3.776   0.966 -1.0327  0.3388 -0.5620
 5841TIP3    H217488   4.740   3.913   1.006  0.2361  0.6994 -0.1740
 5842TIP3   OH217489   3.434   5.031   4.040  0.4319  0.4475  0.3326
 5842TIP3    H117490   3.509   5.018   3.982 -0.1437 -1.5306 -0.0173
 5842TIP3    H217491   3.359   4.998   3.991 -0.4553  1.0294  1.2555
 5843TIP3   OH217492   0.383   3.521   4.969 -0.2326 -0.0386  0.3434
 5843TIP3    H117493   0.468   3.480   4.953 -0.6113 -0.7858  0.1794
 5843TIP3    H217494   0.324   3.479   4.907 -0.2411  2.2755 -1.3456
 5844TIP3   OH217495   2.337   3.639   1.274  0.5696 -0.1896  0.0685
 5844TIP3    H117496   2.420   3.658   1.317  1.0938  0.5680 -1.2095
 5844TIP3    H217497   2.280   3.713   1.297  1.1222  0.6500 -1.1817
 5845TIP3   OH217498   1.727   2.223   0.451  0.4953 -0.2048  0.3403
 5845TIP3    H117499   1.743   2.197   0.360  0.0820 -2.0993  0.7473
 5845TIP3    H217500   1.632   2.220   0.460  0.3670  2.1505  0.2903
 5846TIP3   OH217501   1.221   5.129   2.328  0.2446 -0.4982 -0.2579
 5846TIP3    H117502   1.303   5.169   2.301 -0.5355 -0.4727 -2.8198
 5846TIP3    H217503   1.166   5.203   2.353 -0.2245 -0.1549 -2.1953
 5847TIP3   OH217504   7.189   4.629   0.595  0.0239 -0.0979 -0.2693
 5847TIP3    H117505   7.234   4.612   0.512 -2.7305  0.3853 -1.9800
 5847TIP3    H217506   7.130   4.554   0.606  2.1905 -1.5791  2.7826
 5848TIP3   OH217507   0.723   2.143   0.519  0.0854  0.3904  0.1245
 5848TIP3    H117508   0.720   2.054   0.483 -0.3355  0.9882 -1.4308
 5848TIP3    H217509   0.632   2.174   0.512 -0.2769  0.1854  2.8050
 5849TIP3   OH217510   6.380   0.939   2.797  0.0952 -0.9108  0.1721
 5849TIP3    H117511   6.470   0.909   2.804  0.4228 -0.1658 -0.5994
 5849TIP3    H217512   6.327   0.862   2.814  0.8948 -1.9137 -1.6734
 5850TIP3   OH217513   3.486   5.355   3.366  0.1041 -0.0314  0.3545
 5850TIP3    H117514   3.561   5.372   3.310  0.9669 -0.4469  1.3585
 5850TIP3    H217515   3.447   5.275   3.330  0.3962 -0.0582  0.0922
 5851TIP3   OH217516   4.923   1.544   0.663 -0.1331  0.2406 -0.0470
 5851TIP3    H117517   4.867   1.483   0.712  2.0879  0.0359  2.4885
 5851TIP3    H217518   4.926   1.508   0.574 -0.1786 -2.5086  0.9451
 5852TIP3   OH217519   0.477   4.359   0.453  0.1236 -0.4013 -0.4351
 5852TIP3    H117520   0.457   4.272   0.419 -1.0619 -1.1483  1.9503
 5852TIP3    H217521   0.573   4.363   0.455  0.2185 -0.8244 -2.4466
 5853TIP3   OH217522   2.487   2.192   1.253  0.1430 -0.3513  0.4432
 5853TIP3    H117523   2.401   2.177   1.291  0.1466 -2.0534 -0.1415
 5853TIP3    H217524   2.480   2.160   1.163  0.9252  1.0290 -0.1462
 5854TIP3   OH217525   5.644   3.377   2.867 -0.0120  0.1667  0.1296
 5854TIP3    H117526   5.719   3.397   2.811  0.3677 -0.1207  0.5274
 5854TIP3    H217527   5.654   3.434   2.943  0.5435 -0.8025  0.8122
 5855TIP3   OH217528   5.012   2.711   4.070  0.2218  0.3211 -0.5901
 5855TIP3    H117529   4.958   2.706   4.149  0.2680 -0.8635 -0.6176
 5855TIP3    H217530   5.097   2.740   4.102  0.7284 -1.7390  0.0851
 5856TIP3   OH217531   0.332   4.974   4.076 -0.6138  0.1937  0.0001
 5856TIP3    H117532   0.382   4.935   4.148  1.0974 -2.7603 -2.5993
 5856TIP3    H217533   0.392   5.038   4.038 -0.1537 -0.7279 -0.8647
 5857TIP3   OH217534   2.839   4.150   4.711 -0.0026 -0.1560  0.1237
 5857TIP3    H117535   2.866   4.115   4.626 -3.6470 -0.6221 -1.0087
 5857TIP3    H217536   2.777   4.086   4.745 -1.1613  1.6091  1.5452
 5858TIP3   OH217537   1.236   1.256   4.729  0.0354  0.4477 -0.4198
 5858TIP3    H117538   1.219   1.333   4.783  1.6159 -0.6301  1.7356
 5858TIP3    H217539   1.187   1.185   4.771  1.1759 -0.3867 -0.4395
 5859TIP3   OH217540   2.112   5.088   5.331  0.2851  0.2279  0.0927
 5859TIP3    H117541   2.086   5.150   5.262 -0.0112 -1.9370 -1.8644
 5859TIP3    H217542   2.116   5.142   5.410  2.5204  3.3153 -1.8554
 5860TIP3   OH217543   3.656   2.995   4.566  0.4439 -0.9017 -0.0088
 5860TIP3    H117544   3.692   3.062   4.623 -0.0115 -0.4479 -0.2428
 5860TIP3    H217545   3.595   2.946   4.621  0.9399 -1.2680  0.2196
 5861TIP3   OH217546   5.546   0.046   4.863 -0.1457  0.5902  0.2364
 5861TIP3    H117547   5.474   0.075   4.918 -1.1070  2.1707 -1.7184
 5861TIP3    H217548   5.529  -0.047   4.849  0.4465  0.0069  2.9600
 5862TIP3   OH217549   5.728   3.859   2.375  0.4570  0.2970 -0.8145
 5862TIP3    H117550   5.741   3.941   2.423  1.0471  0.4292 -1.1924
 5862TIP3    H217551   5.663   3.880   2.308 -1.7655 -0.3475  1.0374
 5863TIP3   OH217552   5.401   6.271   5.133 -0.2385 -0.0037  0.2439
 5863TIP3    H117553   5.486   6.267   5.090  0.4170  0.7717  1.4283
 5863TIP3    H217554   5.420   6.257   5.226 -1.2787  1.0904  0.6477
 5864TIP3   OH217555   6.760   2.850   5.288 -0.2224 -0.1910  0.4727
 5864TIP3    H117556   6.755   2.757   5.266  0.5041 -0.2325  0.4345
 5864TIP3    H217557   6.809   2.853   5.370  1.1817  0.2380 -0.3455
 5865TIP3   OH217558   1.744   2.728   0.558 -0.0515 -0.2613 -0.0273
 5865TIP3    H117559   1.679   2.700   0.623  0.5817 -1.3932  0.1406
 5865TIP3    H217560   1.765   2.648   0.510  1.3527  0.0518  0.0394
 5866TIP3   OH217561   2.081   3.869   1.057  0.0977  0.2978 -0.4343
 5866TIP3    H117562   2.113   3.820   1.133 -1.1391  0.3906  0.1649
 5866TIP3    H217563   2.117   3.822   0.981 -0.4994 -1.1370  0.1424
 5867TIP3   OH217564   1.109   1.082   4.471 -0.6131  0.2075 -0.1998
 5867TIP3    H117565   1.169   1.046   4.406 -1.4026 -0.6137 -0.4814
 5867TIP3    H217566   1.165   1.101   4.547  0.5229  2.1002 -1.3979
 5868TIP3   OH217567   5.727   1.077   3.673 -0.1831 -0.0017 -0.6555
 5868TIP3    H117568   5.655   1.101   3.615 -0.6169 -1.5393 -0.7923
 5868TIP3    H217569   5.744   0.985   3.654  0.0454 -0.3927  1.2480
 5869TIP3   OH217570   6.313   6.636   5.043  0.3568  0.0005 -0.0001
 5869TIP3    H117571   6.403   6.669   5.048  0.0168  0.8970  0.3992
 5869TIP3    H217572   6.282   6.665   4.957 -0.1914  1.4061  0.6532
 5870TIP3   OH217573   1.617   6.322   1.638  0.4199 -0.4672 -0.3835
 5870TIP3    H117574   1.710   6.299   1.635  0.3241 -1.6541  2.7517
 5870TIP3    H217575   1.571   6.240   1.623 -0.0662 -0.3758  0.5324
 5871TIP3   OH217576   0.214   6.034   2.831  0.4889  0.5844 -0.0423
 5871TIP3    H117577   0.243   5.943   2.829  0.8772  0.7018  0.3589
 5871TIP3    H217578   0.118   6.028   2.828  0.4811  0.1348  0.8714
 5872TIP3   OH217579   4.886   1.632   4.248  0.1567 -0.3450 -0.0300
 5872TIP3    H117580   4.968   1.654   4.293  1.4001 -0.8342 -1.9138
 5872TIP3    H217581   4.890   1.537   4.238  1.4610 -0.0659 -3.6986
 5873TIP3   OH217582   5.320   1.536   1.864 -0.0744  0.3096  0.1006
 5873TIP3    H117583   5.235   1.553   1.904 -0.9537  0.3363 -1.7021
 5873TIP3    H217584   5.376   1.606   1.897 -0.7912  0.4135  1.1430
 5874TIP3   OH217585   3.805   1.276   2.213 -0.1666  0.0598  0.1527
 5874TIP3    H117586   3.850   1.266   2.297 -2.2984 -1.9513  1.2077
 5874TIP3    H217587   3.751   1.354   2.224 -0.4674 -0.2133  0.7396
 5875TIP3   OH217588   5.754   3.597   1.226 -0.3566  0.1094  0.4130
 5875TIP3    H117589   5.832   3.627   1.272 -1.0560 -0.1056  1.7989
 5875TIP3    H217590   5.748   3.504   1.247  0.1839 -0.3819 -1.4581
 5876TIP3   OH217591   5.993   6.571   3.357  0.9241  0.0339 -0.5242
 5876TIP3    H117592   5.963   6.486   3.387 -0.7716  1.1452  1.1278
 5876TIP3    H217593   5.943   6.588   3.277  0.3134  0.0507 -0.1354
 5877TIP3   OH217594   6.916   2.057   5.619 -0.5797  0.2832 -0.7218
 5877TIP3    H117595   6.926   2.003   5.540 -0.2699  0.8367 -1.0746
 5877TIP3    H217596   6.958   2.140   5.596  0.7919 -0.0188  0.5153
 5878TIP3   OH217597   2.858   3.511   5.191 -0.2526  0.2280 -0.0232
 5878TIP3    H117598   2.864   3.606   5.196 -1.6165  0.2671  1.2818
 5878TIP3    H217599   2.844   3.493   5.098 -2.1014  1.4718 -0.0346
 5879TIP3   OH217600   6.410   5.381   4.471  0.6599 -0.0268  0.3966
 5879TIP3    H117601   6.358   5.406   4.395 -1.3659 -1.5714  1.1838
 5879TIP3    H217602   6.467   5.456   4.488 -0.1285  1.0531 -1.5308
 5880TIP3   OH217603   2.034   3.613   5.585 -0.6443  0.2519 -0.8597
 5880TIP3    H117604   1.963   3.616   5.649 -1.7492  1.7156 -2.1012
 5880TIP3    H217605   2.039   3.521   5.559  1.9943 -1.1513  3.5391
 5881TIP3   OH217606   4.510   1.060   5.694 -0.6080  0.0584 -0.3079
 5881TIP3    H117607   4.587   1.079   5.640  0.2865 -0.0009  0.9080
 5881TIP3    H217608   4.532   0.978   5.738 -1.9992 -0.7426 -1.0591
 5882TIP3   OH217609   3.209   4.595   4.583 -0.1421  0.3727 -0.0342
 5882TIP3    H117610   3.286   4.648   4.559  0.2424 -0.0350  0.2782
 5882TIP3    H217611   3.245   4.523   4.634 -0.8823  0.8952  1.2734
 5883TIP3   OH217612   6.644   0.981   0.606  0.4857  0.2294  0.1215
 5883TIP3    H117613   6.692   0.943   0.680  1.5526 -0.4687 -0.9055
 5883TIP3    H217614   6.576   1.034   0.647 -0.3343 -1.8577  1.6245
 5884TIP3   OH217615   5.827   2.599   5.883  0.6283 -0.1202 -0.4583
 5884TIP3    H117616   5.894   2.530   5.881  0.0637 -0.6600 -2.1620
 5884TIP3    H217617   5.844   2.651   5.805 -0.2303  0.4338 -0.2783
 5885TIP3   OH217618   2.320   1.840   0.540  0.2248 -0.5433  0.2237
 5885TIP3    H117619   2.254   1.810   0.603  0.1542 -2.3769 -0.6258
 5885TIP3    H217620   2.290   1.926   0.512 -0.8485 -0.5922  1.1621
 5886TIP3   OH217621   3.503   4.597   0.056  0.3299 -0.2043 -0.0244
 5886TIP3    H117622   3.467   4.652  -0.014  2.7424  1.6309  0.0381
 5886TIP3    H217623   3.484   4.507   0.028 -1.1909  0.5500 -1.6198
 5887TIP3   OH217624   6.236   4.231   2.073 -0.5339 -0.4825  1.2602
 5887TIP3    H117625   6.262   4.139   2.084  2.1421 -0.0894 -0.6717
 5887TIP3    H217626   6.155   4.227   2.021  1.1827 -1.8517 -1.5937
 5888TIP3   OH217627   2.937   6.207   5.354  0.3489  0.0235 -0.1001
 5888TIP3    H117628   3.018   6.163   5.328 -0.3694 -1.7453  0.4406
 5888TIP3    H217629   2.867   6.149   5.323 -0.9066  2.7129 -2.8448
 5889TIP3   OH217630   6.902   4.082   5.710  0.0911  0.4692  0.2767
 5889TIP3    H117631   6.959   4.007   5.723 -0.3432  0.2113  0.7566
 5889TIP3    H217632   6.834   4.073   5.777 -1.8954 -0.5484 -1.7126
 5890TIP3   OH217633   5.990   3.625   3.525  0.4035  0.2515 -0.1152
 5890TIP3    H117634   5.993   3.712   3.566  0.8015  1.0251 -1.7056
 5890TIP3    H217635   6.066   3.579   3.561 -0.6370 -0.0057  1.8707
 5891TIP3   OH217636   5.628   6.367   4.211  0.2810 -0.2350 -0.0165
 5891TIP3    H117637   5.543   6.354   4.253  0.9702  0.5140  1.7269
 5891TIP3    H217638   5.691   6.328   4.272  1.2714  0.2347 -0.7106
 5892TIP3   OH217639   0.418   5.144   2.149  0.1152 -0.0791  0.1825
 5892TIP3    H117640   0.488   5.080   2.137  0.2387 -0.0245  0.6147
 5892TIP3    H217641   0.394   5.169   2.060  1.9072  1.2734  0.0360
 5893TIP3   OH217642   2.409   6.219   1.728 -0.9843  0.2553 -0.0673
 5893TIP3    H117643   2.474   6.149   1.739  0.4872  1.8795  2.7503
 5893TIP3    H217644   2.426   6.253   1.640 -0.7108 -1.8785 -0.9055
 5894TIP3   OH217645   3.523   1.111   3.881 -0.2543  0.1385  0.6456
 5894TIP3    H117646   3.480   1.031   3.910 -0.0013  0.2396  1.3180
 5894TIP3    H217647   3.453   1.163   3.841 -0.9904  0.7237  2.6091
 5895TIP3   OH217648   0.130   5.165   4.676  0.5081 -0.0641 -0.0440
 5895TIP3    H117649   0.157   5.160   4.584  1.9866  1.1045  0.2825
 5895TIP3    H217650   0.070   5.240   4.679 -1.4219 -1.5328 -0.4380
 5896TIP3   OH217651   4.913   1.047   1.598 -0.2502  0.4544 -0.2046
 5896TIP3    H117652   4.873   1.134   1.603  1.4006  1.3239 -1.1165
 5896TIP3    H217653   4.882   1.011   1.515  1.4085  1.4730 -1.3260
 5897TIP3   OH217654   5.555   6.286   4.813  0.2786  0.4061  0.4300
 5897TIP3    H117655   5.601   6.369   4.799  0.3453  0.6240  1.8214
 5897TIP3    H217656   5.463   6.312   4.827 -0.0160  0.0928 -0.8112
 5898TIP3   OH217657   5.246   4.785   0.783 -0.0520 -0.0066  0.0952
 5898TIP3    H117658   5.318   4.770   0.845  0.3799 -1.1150 -0.6317
 5898TIP3    H217659   5.224   4.877   0.793  2.1488  0.6347 -0.3375
 5899TIP3   OH217660   5.250   2.460   0.109 -0.3980  0.3391  0.4295
 5899TIP3    H117661   5.234   2.367   0.128  1.4599 -0.0973  0.0848
 5899TIP3    H217662   5.345   2.468   0.113 -0.1896  1.3572 -3.3704
 5900TIP3   OH217663   5.350   2.630   4.991  0.3134  0.4349 -0.5655
 5900TIP3    H117664   5.344   2.725   5.000 -2.1585  0.2567  0.3879
 5900TIP3    H217665   5.436   2.608   5.028  0.0644  2.1109  1.1927
 5901TIP3   OH217666   1.090   3.754   5.783 -0.7334  0.3809 -0.0914
 5901TIP3    H117667   1.176   3.798   5.783 -0.7584  0.4286  0.3900
 5901TIP3    H217668   1.039   3.801   5.849 -0.5030 -0.8756  1.0205
 5902TIP3   OH217669   1.510   5.677   5.200 -0.2635  0.3859  0.0273
 5902TIP3    H117670   1.548   5.592   5.220 -0.9295 -0.4565 -2.0533
 5902TIP3    H217671   1.417   5.660   5.184 -0.0307  1.0441 -2.5752
 5903TIP3   OH217672   3.458   2.094   0.720 -0.1812  0.3256  0.7197
 5903TIP3    H117673   3.511   2.059   0.648  1.1854  2.7912  0.4285
 5903TIP3    H217674   3.367   2.084   0.690  0.2906 -0.1421 -0.6373
 5904TIP3   OH217675   1.157   6.154   1.718 -0.3467 -0.8062 -0.6162
 5904TIP3    H117676   1.106   6.092   1.771 -0.1708  0.5262  1.1864
 5904TIP3    H217677   1.119   6.240   1.738  1.4792  0.0333 -0.5660
 5905TIP3   OH217678   5.119   3.679   0.595  0.4744  0.3720  0.2347
 5905TIP3    H117679   5.151   3.675   0.505  1.8631 -1.3749  0.7543
 5905TIP3    H217680   5.023   3.678   0.586  0.5741 -1.5481 -1.2104
 5906TIP3   OH217681   2.045   5.767   0.849 -0.0030 -0.5135  0.5378
 5906TIP3    H117682   2.030   5.683   0.892 -0.8413  0.6862  2.7692
 5906TIP3    H217683   2.019   5.832   0.914 -2.4104  1.4945 -2.1680
 5907TIP3   OH217684   6.476   3.028   0.935  0.2338  0.6571 -0.0782
 5907TIP3    H117685   6.399   3.042   0.990 -0.7059 -1.5415 -0.7012
 5907TIP3    H217686   6.529   2.965   0.984  0.7201  0.7359 -0.4960
 5908TIP3   OH217687   0.638   5.344   0.428  0.0783  0.2453  0.0447
 5908TIP3    H117688   0.574   5.356   0.357  0.8034 -0.5000 -0.7627
 5908TIP3    H217689   0.592   5.292   0.493 -0.2995  0.1306 -0.3057
 5909TIP3   OH217690   4.775   0.505   3.653  0.6164 -0.0125 -0.0585
 5909TIP3    H117691   4.726   0.563   3.711  0.4524 -0.8992  0.7066
 5909TIP3    H217692   4.748   0.531   3.565  1.1293  1.5905  0.2163
 5910TIP3   OH217693   6.061   6.430   5.036 -0.1448  0.4482 -0.1493
 5910TIP3    H117694   6.125   6.475   5.090 -0.9481  1.5171 -0.0556
 5910TIP3    H217695   5.982   6.485   5.040 -1.4811 -1.4249  0.7235
 5911TIP3   OH217696   7.002   4.055   3.489 -0.0336 -0.3532  0.4576
 5911TIP3    H117697   6.946   3.978   3.476  0.8296 -1.0209  0.5320
 5911TIP3    H217698   7.078   4.021   3.537  0.8706  0.3248 -0.4406
 5912TIP3   OH217699   4.769   2.901   5.255 -0.5664  0.5705  0.0461
 5912TIP3    H117700   4.757   2.927   5.346  1.8593  3.3832 -0.3135
 5912TIP3    H217701   4.685   2.861   5.231 -1.2797 -0.3501  3.4588
 5913TIP3   OH217702   3.219   1.696   2.089 -0.0840 -0.0802  0.3868
 5913TIP3    H117703   3.216   1.602   2.108 -0.1500 -0.4347 -1.1783
 5913TIP3    H217704   3.231   1.738   2.174  0.2675 -1.5243  1.0799
 5914TIP3   OH217705   2.805   4.743   3.329 -0.0052 -0.8475  0.2439
 5914TIP3    H117706   2.830   4.661   3.371 -0.0506 -2.0330 -1.8994
 5914TIP3    H217707   2.725   4.721   3.281  0.9231 -0.0435 -1.7672
 5915TIP3   OH217708   4.270   1.692   1.844  0.7447  0.1474 -0.5794
 5915TIP3    H117709   4.203   1.714   1.780  0.1860  0.3070  0.0411
 5915TIP3    H217710   4.352   1.692   1.795  0.2700 -0.2264 -1.3864
 5916TIP3   OH217711   0.261   4.015   1.365  0.0645  0.3797  0.3401
 5916TIP3    H117712   0.290   3.990   1.453 -1.2042  0.4814  0.8053
 5916TIP3    H217713   0.219   3.936   1.330 -0.8928  0.8251  0.4680
 5917TIP3   OH217714   2.956   5.934   1.744 -0.6170  0.3098  0.4118
 5917TIP3    H117715   2.910   5.985   1.810  0.4061  0.6909  0.8657
 5917TIP3    H217716   3.012   5.875   1.794 -1.1870 -0.6956 -0.1168
 5918TIP3   OH217717   0.076   1.430   0.899  0.1099  0.0509 -0.3181
 5918TIP3    H117718   0.135   1.354   0.900 -0.7485 -0.6254 -0.1202
 5918TIP3    H217719   0.090   1.469   0.812 -0.3384 -1.0629 -0.9128
 5919TIP3   OH217720   5.485   2.613   0.664  0.3110  0.4024  0.3444
 5919TIP3    H117721   5.556   2.633   0.604  0.3260  1.1900  0.6027
 5919TIP3    H217722   5.528   2.577   0.742  0.3202 -0.2913  0.0186
 5920TIP3   OH217723   3.437   3.809   3.105  0.2070  0.2238  0.3636
 5920TIP3    H117724   3.523   3.851   3.104 -0.1327  0.9383 -0.9720
 5920TIP3    H217725   3.388   3.854   3.037 -1.3907  0.1432  1.4156
 5921TIP3   OH217726   3.578   0.424   2.754 -0.4689  0.9924  0.4906
 5921TIP3    H117727   3.639   0.383   2.815 -0.7411 -0.3438 -0.0754
 5921TIP3    H217728   3.633   0.456   2.683 -0.4550 -2.5540 -1.3543
 5922TIP3   OH217729   0.252   0.756   0.718  0.6123  0.4873 -0.1614
 5922TIP3    H117730   0.203   0.708   0.784  2.0069 -0.9448 -0.0988
 5922TIP3    H217731   0.198   0.750   0.639 -0.1743  0.5740  0.3608
 5923TIP3   OH217732   5.187   1.708   3.070  0.8807 -0.0064  0.3435
 5923TIP3    H117733   5.117   1.644   3.084 -0.3002  1.6569  2.6722
 5923TIP3    H217734   5.187   1.723   2.975 -1.2386 -0.7991  0.1547
 5924TIP3   OH217735   1.500   3.044   4.263  0.0673 -0.0247 -0.3967
 5924TIP3    H117736   1.465   2.956   4.249  0.1392  0.2168 -2.4478
 5924TIP3    H217737   1.540   3.067   4.179  0.2301  1.8960  0.1586
 5925TIP3   OH217738   6.861   6.409   4.256 -0.6057 -0.6979  0.3358
 5925TIP3    H117739   6.951   6.440   4.245 -1.6242  2.4683 -0.0726
 5925TIP3    H217740   6.845   6.356   4.178  0.1645  0.8382 -0.9506
 5926TIP3   OH217741   5.561   5.191   5.844  0.1021  0.3415  0.1975
 5926TIP3    H117742   5.473   5.202   5.880  0.6309  0.3341  1.5318
 5926TIP3    H217743   5.582   5.277   5.807 -0.8844  0.0356 -1.1755
 5927TIP3   OH217744   2.956   5.761   1.276  0.6726 -0.6261 -0.2349
 5927TIP3    H117745   3.051   5.753   1.277  1.0239  2.4383  0.3383
 5927TIP3    H217746   2.932   5.773   1.368 -0.0832  0.0177 -0.5029
 5928TIP3   OH217747   7.025   1.344   1.721 -0.5452 -0.2112 -0.7619
 5928TIP3    H117748   6.932   1.333   1.700 -0.4363  0.0812 -1.4227
 5928TIP3    H217749   7.035   1.303   1.807 -1.1429 -0.8537 -0.9881
 5929TIP3   OH217750   2.097   5.520   0.491  0.5389 -0.4810 -0.3505
 5929TIP3    H117751   2.085   5.441   0.544  0.7581 -0.5318 -0.3757
 5929TIP3    H217752   2.183   5.509   0.451  1.1210  0.3675  0.6302
 5930TIP3   OH217753   3.328   2.514   1.251 -0.2777 -0.7010  0.4718
 5930TIP3    H117754   3.319   2.602   1.288 -2.1398  0.0290 -1.4784
 5930TIP3    H217755   3.417   2.511   1.216 -0.0675  0.2726  0.8963
 5931TIP3   OH217756   1.309   3.140   2.989 -0.1352 -0.2805  0.0425
 5931TIP3    H117757   1.364   3.160   2.914  1.3581 -0.2612  1.0851
 5931TIP3    H217758   1.346   3.193   3.060 -0.9395 -0.9650  0.9925
 5932TIP3   OH217759   7.012   1.706   1.437  0.1214 -0.0035  0.1673
 5932TIP3    H117760   7.086   1.666   1.392  0.0813  0.2851 -0.1512
 5932TIP3    H217761   7.043   1.792   1.463  1.7129 -1.5837  4.5246
 5933TIP3   OH217762   3.839   3.432   2.986 -0.4121 -0.4849 -0.0957
 5933TIP3    H117763   3.771   3.495   3.009 -0.9214  0.6198 -3.9072
 5933TIP3    H217764   3.793   3.364   2.937  0.7776 -1.5588  0.2212
 5934TIP3   OH217765   5.488   1.639   2.891  0.2376 -0.2740 -0.1581
 5934TIP3    H117766   5.509   1.732   2.901  1.8219 -0.4298 -1.6948
 5934TIP3    H217767   5.404   1.639   2.845  0.0645  0.3743  0.1331
 5935TIP3   OH217768   2.413   3.147   2.671 -0.0125 -0.3736  0.4509
 5935TIP3    H117769   2.505   3.162   2.650 -0.1238  0.8114  0.7132
 5935TIP3    H217770   2.367   3.168   2.589 -0.3969  3.6631  1.4953
 5936TIP3   OH217771   3.496   2.120   2.717 -0.1896 -0.1785  0.4420
 5936TIP3    H117772   3.587   2.145   2.701 -0.2868  0.7575  1.2828
 5936TIP3    H217773   3.444   2.192   2.681 -0.6139 -0.7351 -0.0875
 5937TIP3   OH217774   2.452   4.913   3.388 -0.2348 -0.1049 -0.0156
 5937TIP3    H117775   2.430   4.820   3.389 -1.4192  0.1609  0.8656
 5937TIP3    H217776   2.367   4.957   3.389  0.3137  0.9929 -0.4966
 5938TIP3   OH217777   4.221   1.675   2.343  0.0772  0.4949 -0.1929
 5938TIP3    H117778   4.171   1.676   2.261  0.0744 -1.0536 -0.2492
 5938TIP3    H217779   4.300   1.625   2.321 -0.4847 -1.0065  1.0260
 5939TIP3   OH217780   4.314   2.696   3.544  0.2912 -0.6384 -0.0836
 5939TIP3    H117781   4.388   2.676   3.487 -1.0663 -0.0692 -2.1641
 5939TIP3    H217782   4.338   2.660   3.629  1.9498 -2.5110 -1.2773
 5940TIP3   OH217783   2.696   5.907   2.908 -0.5625 -0.2267  0.7689
 5940TIP3    H117784   2.610   5.937   2.938 -1.4224 -2.1919  0.4214
 5940TIP3    H217785   2.696   5.923   2.814 -0.3600  0.1722  0.8340
 5941TIP3   OH217786   5.349   0.542   5.797  0.5854  0.2188 -0.2358
 5941TIP3    H117787   5.373   0.546   5.704 -1.1755  1.4084 -0.6758
 5941TIP3    H217788   5.254   0.539   5.798  0.4963  1.7099  1.5566
 5942TIP3   OH217789   0.656   3.131   4.377  0.3242  0.2756  0.1792
 5942TIP3    H117790   0.641   3.220   4.407 -3.0735 -0.2946  0.4951
 5942TIP3    H217791   0.738   3.105   4.421 -0.7479  1.8482  3.4286
 5943TIP3   OH217792   2.528   6.648   2.389  0.1434 -0.4337  0.4901
 5943TIP3    H117793   2.541   6.728   2.439  3.1942  0.7932 -1.9033
 5943TIP3    H217794   2.524   6.677   2.298 -0.4703 -2.8911 -0.3435
 5944TIP3   OH217795   1.576   3.161   3.335  0.1429 -0.1236 -0.4649
 5944TIP3    H117796   1.640   3.112   3.284  0.6944  1.6963 -1.6431
 5944TIP3    H217797   1.629   3.215   3.394 -0.4082 -0.3783  0.2792
 5945TIP3   OH217798   1.346   4.349   5.658  0.0301  0.0561 -0.1614
 5945TIP3    H117799   1.437   4.326   5.637  0.9705  4.3319 -1.9083
 5945TIP3    H217800   1.355   4.415   5.728 -1.7419  0.4046 -0.2293
 5946TIP3   OH217801   1.287   0.711   5.497 -0.0844  0.2149  0.1200
 5946TIP3    H117802   1.302   0.805   5.510  1.1109 -0.1935  2.3632
 5946TIP3    H217803   1.192   0.701   5.495 -0.2410  1.3974  0.7210
 5947TIP3   OH217804   0.543   0.427   5.261 -0.3207  0.3344  0.3517
 5947TIP3    H117805   0.507   0.475   5.335 -1.4989 -0.4325  0.3213
 5947TIP3    H217806   0.563   0.340   5.296 -0.9367 -0.0521 -0.2078
 5948TIP3   OH217807   3.045   6.245   0.156  0.0559  0.2965  0.3177
 5948TIP3    H117808   3.003   6.167   0.119  0.1588  0.4055 -0.0317
 5948TIP3    H217809   3.139   6.229   0.145  0.0856  0.3487  0.4937
 5949TIP3   OH217810   4.131   4.190   2.727  0.1482  0.3795  0.4163
 5949TIP3    H117811   4.065   4.152   2.787  0.0629 -2.5312 -1.3132
 5949TIP3    H217812   4.208   4.135   2.740  0.8614  1.1442 -0.5201
 5950TIP3   OH217813   2.176   4.563   4.937 -0.0276 -0.0083  0.1397
 5950TIP3    H117814   2.214   4.484   4.977 -0.6808 -0.6940 -0.5545
 5950TIP3    H217815   2.250   4.607   4.897  0.0741 -1.3623 -1.2556
 5951TIP3   OH217816   6.204   0.340   2.011  0.3062  0.2574  0.0687
 5951TIP3    H117817   6.235   0.251   2.025 -0.0169 -0.0366 -0.9463
 5951TIP3    H217818   6.129   0.349   2.070 -1.3233 -1.0924 -1.6599
 5952TIP3   OH217819   3.603   3.267   0.273  0.1115 -0.3224 -0.2060
 5952TIP3    H117820   3.621   3.250   0.181  0.5647  1.3864 -0.4730
 5952TIP3    H217821   3.688   3.285   0.312 -0.2995  2.0849 -0.2073
 5953TIP3   OH217822   4.590   0.591   0.348  0.2809  0.4107 -0.4453
 5953TIP3    H117823   4.565   0.583   0.440  0.4723 -3.7742 -0.5780
 5953TIP3    H217824   4.686   0.592   0.349  0.3085 -0.8149 -0.5993
 5954TIP3   OH217825   4.674   2.490   4.075 -0.0164 -0.0833 -0.5800
 5954TIP3    H117826   4.614   2.501   4.149 -1.0923  2.5530 -1.7154
 5954TIP3    H217827   4.749   2.444   4.112 -1.1446 -0.1746  1.7897
 5955TIP3   OH217828   1.315   5.272   4.066  0.4647 -0.5766  0.4681
 5955TIP3    H117829   1.400   5.293   4.029 -0.2813 -0.1506 -1.1116
 5955TIP3    H217830   1.287   5.352   4.110  1.1139 -0.8991  1.4828
 5956TIP3   OH217831   1.111   6.411   1.487 -0.3009 -0.0297  0.0722
 5956TIP3    H117832   1.111   6.506   1.473 -1.9819 -0.0443 -0.2056
 5956TIP3    H217833   1.079   6.400   1.577 -1.8396 -0.3720 -0.4933
 5957TIP3   OH217834   3.520   2.296   4.514  0.0323 -0.1204 -0.2110
 5957TIP3    H117835   3.598   2.243   4.497 -1.2469 -2.3374  0.4078
 5957TIP3    H217836   3.456   2.265   4.450 -1.1921 -0.2966  1.0516
 5958TIP3   OH217837   3.463   1.261   4.175 -0.0615  0.1813  0.0877
 5958TIP3    H117838   3.492   1.317   4.247 -1.0185 -0.3154  0.8890
 5958TIP3    H217839   3.461   1.319   4.099  0.5729  0.8143  0.5420
 5959TIP3   OH217840   1.633   2.176   5.046 -0.6956 -0.2835  0.3273
 5959TIP3    H117841   1.633   2.269   5.066 -0.4959 -0.4045  0.8978
 5959TIP3    H217842   1.723   2.148   5.062 -0.6092 -0.4541 -0.4180
 5960TIP3   OH217843   4.674   0.689   3.827  0.1726  0.0771  0.1467
 5960TIP3    H117844   4.739   0.758   3.816 -1.3482  1.2847 -2.0663
 5960TIP3    H217845   4.590   0.734   3.827 -1.0520 -1.7422 -3.6498
 5961TIP3   OH217846   5.395   2.777   0.149  0.0290  0.4450  0.0513
 5961TIP3    H117847   5.445   2.852   0.180 -1.1971  0.7575  1.3635
 5961TIP3    H217848   5.359   2.737   0.228 -0.3358 -0.8123 -0.7181
 5962TIP3   OH217849   0.862   5.401   1.974 -0.0144 -0.2801 -0.1881
 5962TIP3    H117850   0.821   5.373   2.056 -2.5970 -0.9535 -1.6171
 5962TIP3    H217851   0.906   5.322   1.941  0.0088 -0.3277 -0.0421
 5963TIP3   OH217852   5.520   6.060   0.690 -0.0411 -0.4348 -0.3804
 5963TIP3    H117853   5.437   6.105   0.672 -0.0066 -0.6158 -1.0405
 5963TIP3    H217854   5.526   6.058   0.785  1.0686  2.9820 -0.2508
 5964TIP3   OH217855   4.373   5.651   2.868  0.1505 -0.1949 -0.3360
 5964TIP3    H117856   4.322   5.679   2.792 -0.5826  0.4136  0.3642
 5964TIP3    H217857   4.347   5.711   2.938  0.1768 -1.2813  0.6315
 5965TIP3   OH217858   3.603   2.021   0.495  0.0191  0.3761 -0.2025
 5965TIP3    H117859   3.619   1.929   0.474 -1.2889  0.2466 -0.7855
 5965TIP3    H217860   3.614   2.067   0.411 -0.0380  0.6453 -0.0646
 5966TIP3   OH217861   3.658   0.804   2.010 -0.1401  0.7521 -0.3334
 5966TIP3    H117862   3.566   0.778   2.002 -0.0662  0.4316 -0.1533
 5966TIP3    H217863   3.696   0.739   2.069  0.2290  0.8184 -0.4991
 5967TIP3   OH217864   4.291   1.370   5.273 -0.0843 -0.2615  0.6558
 5967TIP3    H117865   4.344   1.301   5.312 -0.2200  0.5462  2.3751
 5967TIP3    H217866   4.235   1.401   5.345  0.4955  2.1188  0.1636
 5968TIP3   OH217867   0.543   1.544   0.322  0.0370  0.5527 -0.6470
 5968TIP3    H117868   0.633   1.564   0.345 -0.0168  2.0050 -1.5979
 5968TIP3    H217869   0.490   1.592   0.386 -0.1384 -1.9256  1.2428
 5969TIP3   OH217870   5.484   6.181   0.289  0.7294  0.0614 -0.4624
 5969TIP3    H117871   5.396   6.214   0.306  0.5897 -0.6069  0.2102
 5969TIP3    H217872   5.539   6.220   0.357  0.1127 -2.8657  1.9278
 5970TIP3   OH217873   4.744   6.289   1.248 -0.1607 -0.4591 -0.9341
 5970TIP3    H117874   4.778   6.256   1.165 -1.4092 -1.3584 -1.1192
 5970TIP3    H217875   4.822   6.316   1.297  0.6388 -0.4784 -2.1457
 5971TIP3   OH217876   0.270   4.209   4.735  0.2533 -0.3883 -0.1729
 5971TIP3    H117877   0.251   4.210   4.828  0.7979 -0.5007 -0.0545
 5971TIP3    H217878   0.348   4.154   4.727 -0.6644 -1.6265 -0.8755
 5972TIP3   OH217879   0.054   6.324   0.843  0.2361 -0.5146  0.3324
 5972TIP3    H117880   0.015   6.337   0.930 -0.3054 -0.2874  0.0538
 5972TIP3    H217881  -0.001   6.258   0.802  0.3300 -0.4195  0.0550
 5973TIP3   OH217882   2.110   5.633   2.373  0.9644 -0.3330 -0.3106
 5973TIP3    H117883   2.031   5.604   2.327  0.3786  1.2984 -0.4070
 5973TIP3    H217884   2.156   5.552   2.396  0.3487 -1.2465 -2.1266
 5974TIP3   OH217885   5.009   3.781   0.145 -0.4270 -0.2912  0.4511
 5974TIP3    H117886   4.928   3.827   0.168 -0.0884 -0.5279  2.2640
 5974TIP3    H217887   5.002   3.767   0.051 -2.0528  0.5382  0.4039
 5975TIP3   OH217888   1.515   6.646   5.523  0.9702 -0.2177 -0.4136
 5975TIP3    H117889   1.545   6.558   5.545  2.4537  0.4064  0.1831
 5975TIP3    H217890   1.574   6.675   5.454  0.1364  0.1077 -1.0025
 5976TIP3   OH217891   5.145   5.422   0.125  0.0802 -0.5161 -0.3486
 5976TIP3    H117892   5.141   5.476   0.046  0.1067 -1.7410 -1.2236
 5976TIP3    H217893   5.219   5.456   0.174 -0.4397  0.7988 -0.4435
 5977TIP3   OH217894   1.756   3.986   4.552  0.0663  0.1678  0.0686
 5977TIP3    H117895   1.836   4.039   4.553 -1.3946  2.4956  0.2841
 5977TIP3    H217896   1.687   4.048   4.529 -1.6534 -1.8595 -0.5377
 5978TIP3   OH217897   2.016   1.424   5.120 -0.2701  0.1928 -0.5241
 5978TIP3    H117898   2.111   1.414   5.127 -0.0795  1.8928 -0.4041
 5978TIP3    H217899   1.993   1.379   5.039  0.8424  1.0287 -1.3255
 5979TIP3   OH217900   3.539   6.282   1.503  0.0205  0.9277  0.0207
 5979TIP3    H117901   3.504   6.277   1.414  2.4149  0.9451 -0.9913
 5979TIP3    H217902   3.633   6.269   1.493  0.1878 -0.7566  2.7528
 5980TIP3   OH217903   2.938   3.944   3.089  0.2705 -0.3964  0.6377
 5980TIP3    H117904   2.918   3.910   3.002  1.9894  0.6461 -0.2080
 5980TIP3    H217905   2.960   3.866   3.140  1.2174 -0.8639 -0.4303
 5981TIP3   OH217906   5.652   1.770   3.685 -0.0036 -0.5592 -0.3811
 5981TIP3    H117907   5.627   1.697   3.629 -0.5939 -0.1982 -0.6079
 5981TIP3    H217908   5.714   1.733   3.748  1.9511 -0.6367 -2.2388
 5982TIP3   OH217909   4.375   6.426   2.987 -0.0362 -0.1434 -0.1477
 5982TIP3    H117910   4.374   6.508   2.938  0.7929  0.3654  0.6510
 5982TIP3    H217911   4.283   6.401   2.995 -0.5505  1.9959  1.6744
 5983TIP3   OH217912   2.686   1.914   1.666  0.1350  0.0585 -0.1772
 5983TIP3    H117913   2.669   1.999   1.705 -2.1665 -0.7928  0.8266
 5983TIP3    H217914   2.781   1.905   1.670  0.2551  1.5614  1.8839
 5984TIP3   OH217915   3.166   0.826   1.350 -0.1668 -0.1430  0.3154
 5984TIP3    H117916   3.170   0.736   1.315 -2.2320 -0.4868  0.7932
 5984TIP3    H217917   3.246   0.836   1.402 -0.9192 -2.5488  2.1131
 5985TIP3   OH217918   5.657   0.614   2.568  0.1719 -0.2684 -0.3876
 5985TIP3    H117919   5.741   0.571   2.587  0.8257  1.1027 -0.0246
 5985TIP3    H217920   5.650   0.683   2.633 -1.0579 -0.0884 -0.6830
 5986TIP3   OH217921   1.984   4.642   0.519  0.0407 -0.6947  0.3352
 5986TIP3    H117922   2.033   4.570   0.559  0.8824  0.4746  1.4631
 5986TIP3    H217923   1.982   4.620   0.426  1.9592 -1.2293  0.3797
 5987TIP3   OH217924   6.996   1.159   4.454  0.0711 -0.1306 -0.6053
 5987TIP3    H117925   6.931   1.089   4.446  0.0800 -0.0472 -1.4689
 5987TIP3    H217926   7.061   1.140   4.386 -1.0997  1.9502 -2.4254
 5988TIP3   OH217927   0.803   5.135   3.504 -0.1038  0.0674 -0.3825
 5988TIP3    H117928   0.786   5.198   3.435 -0.9952 -0.7078 -0.8963
 5988TIP3    H217929   0.814   5.051   3.459  2.7885  0.0859  0.1297
 5989TIP3   OH217930   6.635   4.848   1.561 -0.5993  0.2603  0.2295
 5989TIP3    H117931   6.674   4.895   1.635  2.2047  0.9461 -1.5218
 5989TIP3    H217932   6.543   4.873   1.563  0.3672  4.8027  0.3476
 5990TIP3   OH217933   6.810   2.305   1.192  0.2837  0.5011  0.2094
 5990TIP3    H117934   6.872   2.377   1.183  1.0897 -0.1622  0.3330
 5990TIP3    H217935   6.847   2.234   1.139  0.3729 -0.3820  1.4200
 5991TIP3   OH217936   0.437   0.907   4.475  0.3298  0.7323 -0.4868
 5991TIP3    H117937   0.406   0.978   4.419 -0.4377  0.9084  0.1439
 5991TIP3    H217938   0.377   0.835   4.457 -0.7515  1.2035  1.0455
 5992TIP3   OH217939   2.027   4.965   3.527  0.2805 -0.3420  0.7257
 5992TIP3    H117940   1.950   4.964   3.470  2.5430 -0.3187 -2.5843
 5992TIP3    H217941   2.041   4.873   3.551 -0.5208 -0.3870  1.0568
 5993TIP3   OH217942   3.795   1.073   3.953  0.4419  0.1505  0.1614
 5993TIP3    H117943   3.778   0.997   4.009  0.1477 -0.6501 -0.9813
 5993TIP3    H217944   3.708   1.110   3.937  0.5571  0.5712  0.4798
 5994TIP3   OH217945   6.694   0.429   3.251  0.3748 -0.4268  0.2901
 5994TIP3    H117946   6.662   0.516   3.273  0.2171 -0.6919  1.1615
 5994TIP3    H217947   6.649   0.371   3.312 -0.3346 -1.2533 -0.9740
 5995TIP3   OH217948   6.396   0.468   1.061  0.4997 -0.1466  0.5333
 5995TIP3    H117949   6.337   0.494   1.131  0.3291 -0.6139  0.5703
 5995TIP3    H217950   6.426   0.550   1.022 -2.0837  0.1678 -1.0952
 5996TIP3   OH217951   0.120   4.751   5.267  0.2375  0.1268  0.7652
 5996TIP3    H117952   0.178   4.689   5.311 -0.3208 -0.0136  1.3262
 5996TIP3    H217953   0.049   4.765   5.330  0.8833  2.1700  1.1219
 5997TIP3   OH217954   6.447   5.006   5.057  0.1910 -0.3234  0.1221
 5997TIP3    H117955   6.452   5.011   4.961 -1.3159  0.4101  0.0449
 5997TIP3    H217956   6.370   5.059   5.079  0.8917  0.0388  1.8001
 5998TIP3   OH217957   0.192   4.994   2.217 -0.3674  0.1269 -0.4365
 5998TIP3    H117958   0.190   4.919   2.158 -0.5100  1.5236 -2.3041
 5998TIP3    H217959   0.285   5.003   2.240 -0.1721  0.0699 -1.1543
 5999TIP3   OH217960   2.568   0.064   1.408  0.6812 -0.4950  0.3441
 5999TIP3    H117961   2.538   0.064   1.318  1.7564 -0.3431 -0.0304
 5999TIP3    H217962   2.631  -0.008   1.412 -1.0953 -2.0807  1.5969
 6000TIP3   OH217963   2.686   0.950   0.893 -0.0830 -0.3171 -0.2162
 6000TIP3    H117964   2.769   0.938   0.939 -0.0930  0.8334  0.1424
 6000TIP3    H217965   2.706   0.928   0.802  1.2152  1.9361 -0.5616
 6001TIP3   OH217966   1.763   3.578   5.432  0.1418 -0.4177  0.1195
 6001TIP3    H117967   1.808   3.513   5.486 -1.7209 -1.9941 -0.1382
 6001TIP3    H217968   1.798   3.565   5.344 -1.0534 -1.9647 -0.1755
 6002TIP3   OH217969   2.288   4.093   0.073 -0.0427  0.3905  0.1533
 6002TIP3    H117970   2.342   4.020   0.104  0.1425  0.1244 -0.7884
 6002TIP3    H217971   2.205   4.083   0.121  0.0825 -0.2670  0.2425
 6003TIP3   OH217972   3.477   4.547   5.774  0.0705  0.0421 -0.0414
 6003TIP3    H117973   3.483   4.510   5.862  0.8254  0.2938  0.0126
 6003TIP3    H217974   3.499   4.639   5.785  0.4707  0.0080 -0.5427
 6004TIP3   OH217975   2.803   3.963   5.751 -0.0667 -0.2467 -0.0401
 6004TIP3    H117976   2.886   3.961   5.797  0.5334 -0.9112 -1.1220
 6004TIP3    H217977   2.805   4.044   5.700  0.6292 -1.0380 -1.3116
 6005TIP3   OH217978   4.094   1.374   2.920  0.2168  0.3959 -0.1121
 6005TIP3    H117979   4.125   1.420   2.842  1.9427  0.7779  0.7597
 6005TIP3    H217980   4.170   1.371   2.978 -1.1776  0.6892  1.8245
 6006TIP3   OH217981   3.873   4.358   2.918 -0.3833  0.1160  0.2769
 6006TIP3    H117982   3.896   4.387   2.830 -3.3237  0.0517 -0.6405
 6006TIP3    H217983   3.888   4.264   2.917 -1.8985 -0.1550 -0.7685
 6007TIP3   OH217984   4.989   4.697   2.954  0.2136 -0.0312  0.0117
 6007TIP3    H117985   4.936   4.637   3.006 -0.5246  0.2809 -0.3685
 6007TIP3    H217986   5.078   4.663   2.962 -0.1392 -0.9695  0.0919
 6008TIP3   OH217987   3.342   6.391   1.753 -0.1189 -0.3707  0.0452
 6008TIP3    H117988   3.287   6.452   1.705  0.5932 -0.7728 -1.3573
 6008TIP3    H217989   3.397   6.446   1.808 -1.1655  0.0880  0.6546
 6009TIP3   OH217990   7.087   0.509   1.192  0.5084 -0.1014 -0.8175
 6009TIP3    H117991   7.141   0.452   1.137  0.8661 -0.4920 -0.0761
 6009TIP3    H217992   7.016   0.538   1.134 -0.4866 -2.4276 -0.8723
 6010TIP3   OH217993   5.252   0.516   3.617 -0.7627 -0.1591  0.7072
 6010TIP3    H117994   5.315   0.461   3.664  0.4992 -0.8587 -1.6211
 6010TIP3    H217995   5.291   0.603   3.616 -0.1686 -0.4181 -0.0452
 6011TIP3   OH217996   2.394   5.322   2.745 -0.1518 -0.5986  0.5174
 6011TIP3    H117997   2.422   5.383   2.814  0.0481 -0.4380  0.2967
 6011TIP3    H217998   2.387   5.237   2.789  2.0255 -0.9456  0.2949
 6012TIP3   OH217999   6.304   0.429   5.883  0.0176  0.1316 -0.5027
 6012TIP3    H118000   6.342   0.342   5.868 -1.9102 -0.6548 -1.2795
 6012TIP3    H218001   6.210   0.417   5.865 -0.1447  2.6481 -1.8696
 6013TIP3   OH218002   6.065   4.916   3.436 -0.1055 -0.2639  0.2572
 6013TIP3    H118003   6.068   4.866   3.518  1.6197  0.1086  0.4560
 6013TIP3    H218004   5.981   4.963   3.440 -0.1770 -0.4712  1.6809
 6014TIP3   OH218005   5.502   5.058   0.954 -0.2595 -0.2165 -0.0151
 6014TIP3    H118006   5.558   4.996   1.001 -1.1802 -0.1451  1.2261
 6014TIP3    H218007   5.482   5.126   1.019 -1.2161  0.1117 -0.6364
 6015TIP3   OH218008   0.265   4.162   3.239  0.3724  0.2894  0.2259
 6015TIP3    H118009   0.282   4.088   3.181 -0.1931  1.1575 -1.1096
 6015TIP3    H218010   0.173   4.183   3.224  0.1983  0.4996  1.5065
 6016TIP3   OH218011   5.007   2.550   0.655  0.1887  0.2568  0.5553
 6016TIP3    H118012   5.028   2.465   0.695 -0.2622 -0.1793 -0.1035
 6016TIP3    H218013   5.024   2.537   0.561 -1.1011  0.4923  0.2674
 6017TIP3   OH218014   4.975   5.688   2.321  0.7260  0.4032  0.2167
 6017TIP3    H118015   4.915   5.710   2.392  3.0685  0.4262  2.3173
 6017TIP3    H218016   5.019   5.770   2.300 -0.6454  0.6339 -2.0904
 6018TIP3   OH218017   3.212   0.312   4.036 -0.0657 -0.1610 -0.4660
 6018TIP3    H118018   3.268   0.235   4.051 -0.1495  0.1485  1.7965
 6018TIP3    H218019   3.129   0.289   4.078 -0.5391  0.6462 -0.9501
 6019TIP3   OH218020   5.518   1.164   0.781  0.4392 -0.1142  0.0032
 6019TIP3    H118021   5.549   1.165   0.691 -1.3472  0.3464 -0.6477
 6019TIP3    H218022   5.513   1.256   0.806  0.4095 -0.2181  0.3832
 6020TIP3   OH218023   3.869   1.609   4.740  0.3082 -0.2230 -0.1692
 6020TIP3    H118024   3.852   1.656   4.822  2.2226 -1.0909  0.7910
 6020TIP3    H218025   3.841   1.519   4.758  0.4525 -0.3474 -0.5757
 6021TIP3   OH218026   0.014   2.795   3.443  0.4990 -0.3995  0.0595
 6021TIP3    H118027  -0.016   2.707   3.424 -2.4170  0.4738  0.0403
 6021TIP3    H218028   0.006   2.803   3.539 -0.1393  0.0888 -0.0237
 6022TIP3   OH218029   4.666   0.735   0.897  0.4880 -0.7449  0.0312
 6022TIP3    H118030   4.625   0.660   0.940 -0.8166  0.2416  0.5416
 6022TIP3    H218031   4.730   0.767   0.961  1.1676 -1.4827 -0.2501
 6023TIP3   OH218032   4.354   0.096   0.031 -0.4994 -0.0709 -0.0184
 6023TIP3    H118033   4.303   0.113  -0.048 -1.4692 -0.6639  0.4662
 6023TIP3    H218034   4.343   0.175   0.084 -2.1782 -0.7600  0.7315
 6024TIP3   OH218035   6.039   5.565   5.562 -0.3751 -0.1491  0.3729
 6024TIP3    H118036   6.077   5.645   5.527 -0.4430 -0.7715 -1.1979
 6024TIP3    H218037   6.100   5.537   5.631  0.6067  0.2719 -0.3073
 6025TIP3   OH218038   6.622   5.583   4.393  0.3358 -0.2780 -0.2366
 6025TIP3    H118039   6.705   5.536   4.386  1.2021  1.1883 -0.4662
 6025TIP3    H218040   6.647   5.675   4.382 -1.3756  0.1647 -0.6443
 6026TIP3   OH218041   3.124   2.759   1.126 -0.2098  0.4042 -0.3042
 6026TIP3    H118042   3.168   2.803   1.053  0.8265  0.5674  0.3988
 6026TIP3    H218043   3.190   2.755   1.195 -0.7173 -1.0542  0.1270
 6027TIP3   OH218044   6.174   2.321   5.188 -0.0517 -0.6779  0.0348
 6027TIP3    H118045   6.165   2.302   5.094 -1.2630  2.2237 -0.5592
 6027TIP3    H218046   6.262   2.289   5.210  0.4014 -1.1652 -2.1523
 6028TIP3   OH218047   2.184   6.102   1.864 -0.3361 -0.0105  0.8141
 6028TIP3    H118048   2.258   6.123   1.808 -0.7710 -1.0928 -0.2035
 6028TIP3    H218049   2.204   6.146   1.947 -0.0972  2.3659 -0.4066
 6029TIP3   OH218050   6.481   4.533   3.875  0.0984 -0.4430 -0.6262
 6029TIP3    H118051   6.404   4.481   3.852 -0.1047  0.1520 -1.3360
 6029TIP3    H218052   6.513   4.566   3.791  0.6783 -0.0610 -0.2564
 6030TIP3   OH218053   2.886   3.316   3.443 -0.1862 -0.5276 -0.4250
 6030TIP3    H118054   2.902   3.403   3.406  2.8183 -0.3066  1.0365
 6030TIP3    H218055   2.877   3.331   3.537  0.2871 -1.7667 -0.1608
 6031TIP3   OH218056   2.672   2.334   5.141 -0.5425 -0.2415  0.7942
 6031TIP3    H118057   2.644   2.422   5.168 -0.4102  0.1288 -0.2362
 6031TIP3    H218058   2.709   2.295   5.221  3.6014  2.2819  0.4123
 6032TIP3   OH218059   4.404   3.396   2.572  0.2871 -0.0109  0.4622
 6032TIP3    H118060   4.493   3.429   2.556  0.0484 -0.5503 -2.3637
 6032TIP3    H218061   4.418   3.312   2.616  1.0789  0.8198  1.8772
 6033TIP3   OH218062   6.614   2.254   0.457  0.2493  0.2975  0.5730
 6033TIP3    H118063   6.628   2.260   0.363 -1.9471  1.0129  0.2231
 6033TIP3    H218064   6.571   2.169   0.469 -0.1378  0.5251  0.8189
 6034TIP3   OH218065   3.223   2.396   2.276 -0.0899 -0.3980 -0.7491
 6034TIP3    H118066   3.251   2.329   2.214  1.4069 -0.4840 -0.0345
 6034TIP3    H218067   3.229   2.353   2.361  1.7481  0.8489 -0.1804
 6035TIP3   OH218068   2.712   0.428   3.773  0.1291 -0.0134 -0.2133
 6035TIP3    H118069   2.794   0.391   3.807 -0.5592 -2.0896 -0.6859
 6035TIP3    H218070   2.657   0.441   3.851  1.2237  2.4765  0.2559
 6036TIP3   OH218071   2.714   3.451   3.032 -0.3816  0.0563  0.0770
 6036TIP3    H118072   2.699   3.509   2.958 -0.8209  0.3389  0.3867
 6036TIP3    H218073   2.800   3.413   3.015 -1.0571 -0.9620 -1.3033
 6037TIP3   OH218074   5.723   6.460   2.900 -0.2647 -0.3613 -0.2060
 6037TIP3    H118075   5.762   6.515   2.968  1.3266  1.0195 -2.1458
 6037TIP3    H218076   5.796   6.410   2.863 -0.8545 -0.1515 -1.7369
 6038TIP3   OH218077   2.262   5.640   4.599 -0.6241 -0.2758  0.1230
 6038TIP3    H118078   2.323   5.713   4.589 -1.3163  0.1691 -0.9390
 6038TIP3    H218079   2.187   5.662   4.544 -1.5569 -1.0392  1.0369
 6039TIP3   OH218080   6.782   5.706   3.187 -0.3581  0.6165  0.0078
 6039TIP3    H118081   6.697   5.664   3.177 -0.4323  0.8831 -0.4989
 6039TIP3    H218082   6.817   5.711   3.098 -0.1811  1.2780  0.1101
 6040TIP3   OH218083   2.165   2.850   2.160 -0.3820  0.2500 -0.0357
 6040TIP3    H118084   2.131   2.761   2.170 -1.8476  0.7418 -0.3119
 6040TIP3    H218085   2.087   2.906   2.161  0.6537  2.0130  4.3734
 6041TIP3   OH218086   0.675   1.007   5.739 -0.1531 -0.0362  0.3303
 6041TIP3    H118087   0.757   0.964   5.763  0.0315  0.6035  0.8852
 6041TIP3    H218088   0.702   1.074   5.675 -0.4131 -0.5991 -0.3887
 6042TIP3   OH218089   0.783   2.358   0.224  0.0011 -0.0055  0.0435
 6042TIP3    H118090   0.807   2.357   0.317 -2.3545 -1.0707  0.7110
 6042TIP3    H218091   0.688   2.348   0.224 -0.0664  0.1957 -2.4949
 6043TIP3   OH218092   2.840   2.844   1.770  0.3470 -0.3063 -0.0950
 6043TIP3    H118093   2.837   2.933   1.804  0.1027 -0.5356  0.4885
 6043TIP3    H218094   2.912   2.845   1.707  1.7433 -0.2342  1.4437
 6044TIP3   OH218095   3.763   4.222   3.281 -0.0069 -0.0330 -0.6037
 6044TIP3    H118096   3.840   4.177   3.248  1.2026  1.1837  0.4381
 6044TIP3    H218097   3.700   4.217   3.210  1.4780  0.0191 -1.9805
 6045TIP3   OH218098   5.015   3.177   2.290  0.1474 -0.1284  0.0094
 6045TIP3    H118099   5.004   3.107   2.226  1.8580  0.6443 -1.2034
 6045TIP3    H218100   5.051   3.134   2.367  0.3171 -0.7296 -0.3972
 6046TIP3   OH218101   1.453   2.610   0.013 -0.1253  0.6114  0.2128
 6046TIP3    H118102   1.432   2.646   0.099 -0.6431  1.3134 -0.1884
 6046TIP3    H218103   1.368   2.604  -0.031  0.0536 -0.3504 -0.0293
 6047TIP3   OH218104   6.639   2.045   2.420 -0.2686  0.3599 -0.0475
 6047TIP3    H118105   6.621   1.959   2.459  0.4986 -0.6198 -1.7660
 6047TIP3    H218106   6.665   2.100   2.494  0.6043 -1.2755  0.9181
 6048TIP3   OH218107   0.002   1.197   3.563 -0.3538  0.8298  0.4417
 6048TIP3    H118108  -0.042   1.122   3.524 -1.8544  1.5323  0.7152
 6048TIP3    H218109   0.085   1.204   3.516 -0.5199 -0.5424 -0.0852
 6049TIP3   OH218110   0.825   4.366   1.608  0.5150 -0.2081 -0.0144
 6049TIP3    H118111   0.756   4.301   1.620  1.1676 -0.9115 -0.0608
 6049TIP3    H218112   0.785   4.432   1.550  0.2401 -1.1575 -0.9231
 6050TIP3   OH218113   5.521   0.069   4.597 -0.3336 -1.2732  0.2260
 6050TIP3    H118114   5.467  -0.007   4.574 -0.2874 -1.6394  1.2751
 6050TIP3    H218115   5.545   0.054   4.689 -1.6949  0.7943  0.9975
 6051TIP3   OH218116   2.735   1.403   3.752  0.2618 -0.0885 -0.0068
 6051TIP3    H118117   2.684   1.367   3.824  1.6451 -0.4257  0.8382
 6051TIP3    H218118   2.683   1.384   3.674 -1.0007 -0.2047  0.8401
 6052TIP3   OH218119   6.490   2.862   2.685 -0.5204  0.3166 -0.1593
 6052TIP3    H118120   6.489   2.817   2.770  0.5413 -0.0971 -0.3490
 6052TIP3    H218121   6.571   2.914   2.686 -0.4988  0.3130 -0.9101
 6053TIP3   OH218122   5.602   4.552   3.946 -0.0629 -0.3046 -0.4407
 6053TIP3    H118123   5.596   4.578   4.038 -3.2071  1.8155 -1.0857
 6053TIP3    H218124   5.565   4.464   3.943 -1.6247  0.2888  0.1770
 6054TIP3   OH218125   6.420   1.839   4.677 -0.3280 -0.3981  0.5287
 6054TIP3    H118126   6.421   1.755   4.722 -0.6249 -0.4453  0.4489
 6054TIP3    H218127   6.458   1.820   4.591  0.3875 -0.2748  0.8099
 6055TIP3   OH218128   6.847   3.405   2.606  0.5195  0.1707  0.0191
 6055TIP3    H118129   6.767   3.443   2.570 -0.5952 -0.8347  1.3072
 6055TIP3    H218130   6.824   3.381   2.696  2.4852  0.4834  0.6590
 6056TIP3   OH218131   2.604   6.545   0.222  0.1956 -0.1176  0.4234
 6056TIP3    H118132   2.663   6.595   0.165 -2.0365  0.4934 -1.5187
 6056TIP3    H218133   2.627   6.572   0.310  0.7473  2.4623 -0.4308
 6057TIP3   OH218134   5.652   0.479   4.106 -0.2529  0.1968  0.1939
 6057TIP3    H118135   5.696   0.470   4.191 -0.2889  2.4484  0.4999
 6057TIP3    H218136   5.720   0.512   4.048 -0.5950  0.0018 -0.3259
 6058TIP3   OH218137   4.109   4.217   1.437  0.6486 -0.8389  0.2538
 6058TIP3    H118138   4.096   4.304   1.474 -1.7653 -1.5751  1.3087
 6058TIP3    H218139   4.148   4.166   1.509  0.2516 -1.1107  0.2797
 6059TIP3   OH218140   5.937   3.332   5.413  0.0042  0.0856  0.0184
 6059TIP3    H118141   5.906   3.422   5.423  0.3750  0.1242  0.8943
 6059TIP3    H218142   5.979   3.311   5.497 -0.8893 -1.2273  0.1631
 6060TIP3   OH218143   6.741   1.669   4.623 -0.3437  0.0982 -0.1251
 6060TIP3    H118144   6.687   1.608   4.674 -0.6558  0.9508  0.5784
 6060TIP3    H218145   6.828   1.629   4.623  0.0180  0.7540  2.3007
 6061TIP3   OH218146   5.549   4.114   4.518 -0.7288 -0.2068 -0.3455
 6061TIP3    H118147   5.562   4.173   4.444  2.4247  1.9061  1.6433
 6061TIP3    H218148   5.637   4.085   4.542 -1.9552 -4.0475  0.2232
 6062TIP3   OH218149   0.646   1.707   2.576  0.2396  0.2460  0.2842
 6062TIP3    H118150   0.601   1.770   2.520 -0.8819  0.2233  1.1096
 6062TIP3    H218151   0.637   1.623   2.530 -0.7857  0.2036  0.5443
 6063TIP3   OH218152   2.779   3.030   1.546 -0.0456 -0.0572 -0.7768
 6063TIP3    H118153   2.826   3.064   1.623 -0.8858  1.3658 -0.8626
 6063TIP3    H218154   2.693   3.072   1.549 -0.6865 -1.2469 -1.6113
 6064TIP3   OH218155   0.318   5.092   5.353  0.4365  0.0791 -0.6263
 6064TIP3    H118156   0.263   5.027   5.308  1.5953 -0.2011 -1.7045
 6064TIP3    H218157   0.306   5.172   5.301  0.1867  0.3265 -0.1915
 6065TIP3   OH218158   2.678   3.318   5.273  0.3688  0.4569 -0.5626
 6065TIP3    H118159   2.631   3.293   5.193  1.4665 -2.2653 -0.4730
 6065TIP3    H218160   2.753   3.369   5.242 -0.2833  1.1329 -1.0637
 6066TIP3   OH218161   4.351   4.741   2.332  0.3354 -0.6403 -0.1106
 6066TIP3    H118162   4.330   4.822   2.285  1.7421  0.1101  0.5080
 6066TIP3    H218163   4.443   4.750   2.355  0.1695 -1.8513  1.1216
 6067TIP3   OH218164   0.145   3.379   5.374  0.0735  0.4329 -0.3619
 6067TIP3    H118165   0.100   3.462   5.359 -0.1292  0.2231 -0.9487
 6067TIP3    H218166   0.193   3.392   5.455 -2.0206  0.2612  0.9984
 6068TIP3   OH218167   0.753   5.942   2.146  0.1926  0.0687 -0.3882
 6068TIP3    H118168   0.803   5.865   2.117  0.1819 -0.1261  0.1045
 6068TIP3    H218169   0.714   5.915   2.229  1.5316  1.1726  0.6440
 6069TIP3   OH218170   1.843   2.088   4.672  0.4302 -0.1135 -0.0346
 6069TIP3    H118171   1.789   2.052   4.742 -1.0529 -1.0185 -1.5675
 6069TIP3    H218172   1.781   2.134   4.616  1.8082  1.9068  0.0132
 6070TIP3   OH218173   6.542   3.185   4.421  0.2179 -0.1892 -0.1006
 6070TIP3    H118174   6.463   3.237   4.438  0.0722 -0.1223 -0.9591
 6070TIP3    H218175   6.573   3.159   4.508 -0.3048  0.4488  0.2824
 6071TIP3   OH218176   0.007   2.036   4.691  0.3736 -0.3286  0.2212
 6071TIP3    H118177  -0.047   2.110   4.663 -0.6502 -1.7735 -1.8944
 6071TIP3    H218178   0.067   2.022   4.619  2.2549 -0.0633  1.6659
 6072TIP3   OH218179   2.697   4.421   0.534 -0.5817  0.0071 -0.0259
 6072TIP3    H118180   2.695   4.388   0.444  0.9294  0.4534 -0.2645
 6072TIP3    H218181   2.716   4.515   0.524  2.7966 -0.4452  0.7316
 6073TIP3   OH218182   1.007   1.796   2.773  0.3057 -0.3883 -0.1410
 6073TIP3    H118183   1.003   1.729   2.704  0.7170  0.2816 -0.8273
 6073TIP3    H218184   0.919   1.835   2.773  0.8709  0.9715 -1.6898
 6074TIP3   OH218185   5.666   2.288   1.456 -0.3695 -0.4006 -0.6889
 6074TIP3    H118186   5.669   2.243   1.371 -1.4861  0.3772 -1.1809
 6074TIP3    H218187   5.619   2.228   1.513 -0.3838 -0.5661 -0.8735
 6075TIP3   OH218188   2.621   0.147   0.262  0.0965 -0.2006  0.4900
 6075TIP3    H118189   2.683   0.216   0.237  0.2983 -0.9121 -1.0247
 6075TIP3    H218190   2.668   0.065   0.247  0.1370 -0.7318  2.9788
 6076TIP3   OH218191   1.361   4.204   0.261  0.2934  0.0209  0.2240
 6076TIP3    H118192   1.316   4.246   0.335  0.2879 -0.3553  0.4382
 6076TIP3    H218193   1.389   4.277   0.206  2.2553  0.4762  1.6991
 6077TIP3   OH218194   5.028   0.753   0.362 -0.6915 -0.6571  0.4392
 6077TIP3    H118195   4.994   0.804   0.289 -0.1032 -0.9271 -0.0351
 6077TIP3    H218196   4.975   0.673   0.363 -0.4253 -0.8458  0.0259
 6078TIP3   OH218197   6.688   4.319   4.158 -0.5202 -0.2305  0.1997
 6078TIP3    H118198   6.662   4.269   4.080  0.9682 -0.4259 -0.1932
 6078TIP3    H218199   6.730   4.255   4.215 -1.2161  0.0033  1.0054
 6079TIP3   OH218200   4.350   5.291   3.652 -0.4711 -0.4569  0.1825
 6079TIP3    H118201   4.431   5.259   3.614 -1.5904 -0.8613 -2.0126
 6079TIP3    H218202   4.310   5.214   3.692 -0.0418 -0.3651  0.8033
 6080TIP3   OH218203   1.323   6.400   0.854 -0.5608 -0.1904  0.5263
 6080TIP3    H118204   1.243   6.368   0.895 -0.5784  0.3120  0.8901
 6080TIP3    H218205   1.311   6.495   0.846  0.0924 -0.0725  0.8164
 6081TIP3   OH218206   6.743   4.317   2.965 -0.1020  0.5757  0.9771
 6081TIP3    H118207   6.794   4.257   2.910 -0.2464  0.9701  0.4042
 6081TIP3    H218208   6.761   4.288   3.054  0.8756  0.5072  0.7727
 6082TIP3   OH218209   0.675   0.608   2.140 -0.1799 -0.4494  0.3181
 6082TIP3    H118210   0.623   0.624   2.218  0.6313  0.9477  0.6159
 6082TIP3    H218211   0.697   0.695   2.108  2.9060 -0.8838  0.8759
 6083TIP3   OH218212   6.006   2.241   3.030 -0.1097 -0.2070 -0.0742
 6083TIP3    H118213   6.000   2.236   2.935 -0.6661 -2.1137  0.0163
 6083TIP3    H218214   5.920   2.213   3.061 -0.6515  2.4217  1.0045
 6084TIP3   OH218215   5.455   5.257   5.511 -0.1635 -0.0785  0.0097
 6084TIP3    H118216   5.542   5.268   5.550  0.7071 -0.8808 -1.6201
 6084TIP3    H218217   5.395   5.296   5.576  1.3823  0.4829  1.1746
 6085TIP3   OH218218   1.394   4.646   5.765 -0.2994  0.2652  0.1335
 6085TIP3    H118219   1.320   4.646   5.704 -0.2363 -0.0328  0.0520
 6085TIP3    H218220   1.365   4.593   5.839  0.3362 -1.1012 -0.5478
 6086TIP3   OH218221   4.515   0.105   5.390  0.3475 -0.1396 -1.1101
 6086TIP3    H118222   4.562   0.158   5.454 -0.3885 -0.9794  0.1527
 6086TIP3    H218223   4.450   0.165   5.352  0.6238  0.2981 -0.8907
 6087TIP3   OH218224   1.358   2.842   2.983 -0.5319 -0.0694 -0.5689
 6087TIP3    H118225   1.437   2.821   3.031 -2.4759 -0.6858  2.6354
 6087TIP3    H218226   1.360   2.938   2.974 -0.0700  0.0503  0.6945
 6088TIP3   OH218227   4.783   0.170   4.831  0.0621 -0.3636  0.2393
 6088TIP3    H118228   4.745   0.092   4.793 -1.2914 -0.0567  0.8965
 6088TIP3    H218229   4.815   0.221   4.756 -2.3951  0.1617 -0.5524
 6089TIP3   OH218230   1.844   5.198   1.989  0.0245 -0.1618 -0.3762
 6089TIP3    H118231   1.846   5.111   1.949  2.6002  0.0189 -0.7909
 6089TIP3    H218232   1.768   5.241   1.950 -1.4417 -2.2437 -0.0001
 6090TIP3   OH218233   3.644   4.900   4.522  0.5500  0.0406  0.4779
 6090TIP3    H118234   3.669   4.887   4.430 -1.7437 -0.1218 -0.1850
 6090TIP3    H218235   3.599   4.985   4.523  0.7295  0.1356  1.5061
 6091TIP3   OH218236   0.178   2.819   4.630  0.1695  0.4746  0.2378
 6091TIP3    H118237   0.115   2.890   4.638 -1.0729 -0.4712 -0.6170
 6091TIP3    H218238   0.230   2.842   4.553 -1.2115 -0.2112 -0.9541
 6092TIP3   OH218239   0.715   1.995   4.437 -0.2758 -0.0627  0.4014
 6092TIP3    H118240   0.732   2.032   4.523  1.8817  0.9488 -0.3833
 6092TIP3    H218241   0.784   1.930   4.424  0.1104  0.5667 -0.9484
 6093TIP3   OH218242   0.482   4.834   3.788 -0.3124  0.1728  0.1762
 6093TIP3    H118243   0.570   4.796   3.784 -0.6660 -0.6671  0.0934
 6093TIP3    H218244   0.488   4.915   3.737  0.3905  0.0746  0.0943
 6094TIP3   OH218245   3.804   3.196   4.406 -0.2615 -0.1297  0.3230
 6094TIP3    H118246   3.823   3.287   4.383 -1.5837  0.3914  1.1414
 6094TIP3    H218247   3.708   3.190   4.401 -0.4345 -0.6715  2.9839
 6095TIP3   OH218248   1.597   2.607   0.773  0.2785 -0.0612 -0.0864
 6095TIP3    H118249   1.657   2.536   0.752  0.5629 -0.3986  1.7170
 6095TIP3    H218250   1.512   2.565   0.784  0.2121  0.0489 -0.1756
 6096TIP3   OH218251   4.496   2.216   1.995 -0.0701 -0.2251  0.1356
 6096TIP3    H118252   4.428   2.284   1.993  1.4821  1.5413  2.3557
 6096TIP3    H218253   4.466   2.155   2.062  1.4044  1.7048  2.7043
 6097TIP3   OH218254   4.101   0.965   1.642 -0.4271 -0.2787 -0.0135
 6097TIP3    H118255   4.099   0.883   1.691  0.8283 -0.2329  0.1355
 6097TIP3    H218256   4.178   0.959   1.586 -1.0259  0.2842 -0.9209
 6098TIP3   OH218257   5.299   3.458   1.092 -0.6544  0.2184 -0.2904
 6098TIP3    H118258   5.225   3.518   1.097 -2.1325 -1.4910 -0.4356
 6098TIP3    H218259   5.267   3.385   1.040  0.8602 -0.9908  0.3802
 6099TIP3   OH218260   4.316   6.403   2.347 -0.0637  0.4222  0.0742
 6099TIP3    H118261   4.264   6.388   2.269  1.1739  1.3523 -0.9694
 6099TIP3    H218262   4.400   6.360   2.330  0.1094  0.3463  1.0265
 6100TIP3   OH218263   2.945   6.575   0.083  0.6654 -0.0732  0.0101
 6100TIP3    H118264   2.927   6.555   0.175  1.0075  0.4776  0.1958
 6100TIP3    H218265   2.929   6.492   0.037  1.4816 -0.6262  0.6985
 6101TIP3   OH218266   5.303   0.180   1.098 -0.3287  0.1236 -0.1285
 6101TIP3    H118267   5.353   0.189   1.017 -1.0151  0.7472 -0.4864
 6101TIP3    H218268   5.270   0.090   1.095  0.0333 -0.0049 -0.3152
 6102TIP3   OH218269   1.028   6.381   2.966 -0.3815 -0.3944  0.2483
 6102TIP3    H118270   1.093   6.320   2.932 -0.3698 -0.3184  0.1329
 6102TIP3    H218271   1.047   6.389   3.059 -0.4433 -0.6419  0.2811
 6103TIP3   OH218272   1.945   0.976   3.869  0.3165 -0.2480  0.2485
 6103TIP3    H118273   1.908   1.027   3.942  1.3966  0.4529  0.3222
 6103TIP3    H218274   1.929   1.030   3.792  2.0780  0.5698  0.4171
 6104TIP3   OH218275   1.970   2.270   2.923  0.2095  0.2490 -0.7830
 6104TIP3    H118276   2.045   2.212   2.936 -0.2229 -0.1301  0.1462
 6104TIP3    H218277   1.935   2.284   3.011 -0.6560  0.6345 -1.1713
 6105TIP3   OH218278   1.386   2.127   3.058 -0.0637 -0.5091  0.0566
 6105TIP3    H118279   1.298   2.100   3.085 -0.0640 -0.9506 -0.3803
 6105TIP3    H218280   1.376   2.150   2.965 -0.0505  0.9082  0.3769
 6106TIP3   OH218281   1.693   6.311   1.086 -0.0490  0.1931  0.6442
 6106TIP3    H118282   1.703   6.262   1.005 -0.5685  1.3505 -0.1378
 6106TIP3    H218283   1.605   6.288   1.117  0.3173 -0.6034  1.1546
 6107TIP3   OH218284   1.576   4.058   0.236 -0.3623  0.2527 -0.1164
 6107TIP3    H118285   1.534   3.972   0.248 -0.4650  0.1499 -1.1567
 6107TIP3    H218286   1.503   4.119   0.227 -0.3238  0.1092 -1.6765
 6108TIP3   OH218287   3.256   1.964   2.092  0.1245 -0.3750  0.3296
 6108TIP3    H118288   3.180   1.908   2.079  0.5800 -1.0640  0.5864
 6108TIP3    H218289   3.331   1.905   2.088  0.5097 -0.1125  2.4455
 6109TIP3   OH218290   3.084   6.556   4.494 -0.5086  0.4061  0.2983
 6109TIP3    H118291   3.154   6.526   4.552  0.0590  0.2613 -0.4533
 6109TIP3    H218292   3.004   6.548   4.547  0.1930  2.0233  1.7097
 6110TIP3   OH218293   5.633   3.284   4.353  0.3786  0.6244 -0.3493
 6110TIP3    H118294   5.649   3.366   4.400 -0.9550  1.4423 -1.2581
 6110TIP3    H218295   5.574   3.308   4.282 -2.1140 -1.5123  0.8113
 6111TIP3   OH218296   5.608   0.684   0.387  0.2303 -0.4308 -0.3281
 6111TIP3    H118297   5.514   0.691   0.372  0.4984  1.8738 -1.3076
 6111TIP3    H218298   5.618   0.604   0.439 -2.6077  1.0415  2.8558
 6112TIP3   OH218299   1.663   6.391   3.701 -0.2238 -0.7502  0.5193
 6112TIP3    H118300   1.602   6.436   3.759  1.1648  1.9632  0.0093
 6112TIP3    H218301   1.721   6.343   3.760 -1.9316 -2.2603  1.0589
 6113TIP3   OH218302   7.105   5.640   5.182 -0.2414 -0.5470 -0.1919
 6113TIP3    H118303   7.072   5.707   5.122  1.3372 -1.1414 -1.8266
 6113TIP3    H218304   7.059   5.560   5.157  0.2935 -0.7614 -0.4984
 6114TIP3   OH218305   6.902   5.031   3.578 -0.2881  0.2953  0.4957
 6114TIP3    H118306   6.812   4.999   3.568  0.2277 -1.1024  0.0961
 6114TIP3    H218307   6.953   4.953   3.598  1.3153  0.5325 -2.1205
 6115TIP3   OH218308   2.724   0.873   0.312  0.2628 -0.0456 -0.1434
 6115TIP3    H118309   2.666   0.801   0.288  0.8165 -0.5481  0.0046
 6115TIP3    H218310   2.812   0.841   0.292  0.4620  0.8761 -0.7959
 6116TIP3   OH218311   0.228   0.603   3.622  0.3215 -0.1563  0.1064
 6116TIP3    H118312   0.287   0.679   3.624  0.1241  0.0175 -0.5487
 6116TIP3    H218313   0.280   0.534   3.580  0.3763 -0.2803  0.3760
 6117TIP3   OH218314   4.275   5.093   4.448 -0.3214  0.7379  0.4633
 6117TIP3    H118315   4.239   5.027   4.507 -1.0915 -0.1165 -0.9283
 6117TIP3    H218316   4.219   5.170   4.461  0.2975  1.0045  1.7444
 6118TIP3   OH218317   2.626   6.060   2.124 -0.1711 -0.5507 -0.3980
 6118TIP3    H118318   2.681   6.129   2.163 -1.8777 -0.3747  1.9640
 6118TIP3    H218319   2.610   5.999   2.196 -0.1962 -2.4856 -1.9631
 6119TIP3   OH218320   0.907   0.335   1.326 -0.1164 -0.0888 -0.2438
 6119TIP3    H118321   0.943   0.366   1.409 -0.8168 -1.0637  0.4457
 6119TIP3    H218322   0.815   0.360   1.329 -0.2840 -0.6705 -0.4504
 6120TIP3   OH218323   1.259   0.674   2.601  0.6140  0.6225 -0.2630
 6120TIP3    H118324   1.183   0.668   2.658  0.5260  0.8102 -0.3595
 6120TIP3    H218325   1.239   0.746   2.541  1.7924  2.1479  1.0834
 6121TIP3   OH218326   3.036   4.238   2.616 -0.3911  0.1721 -0.3728
 6121TIP3    H118327   3.071   4.236   2.527  1.1600 -1.2928  0.2219
 6121TIP3    H218328   3.096   4.183   2.667 -1.7170  0.2914  1.4125
 6122TIP3   OH218329   5.400   1.372   0.586 -0.0899 -0.0034 -0.1668
 6122TIP3    H118330   5.316   1.369   0.632 -0.1600  0.6703 -0.2430
 6122TIP3    H218331   5.407   1.462   0.555 -0.4189 -0.6341 -2.1886
 6123TIP3   OH218332   4.097   0.415   4.189 -0.1246  0.7061  0.1669
 6123TIP3    H118333   4.050   0.390   4.109  1.1997  0.8048 -0.6805
 6123TIP3    H218334   4.030   0.451   4.246 -0.9952  1.3622 -1.2147
 6124TIP3   OH218335   3.270   1.073   1.216  0.0158  0.5430  0.7477
 6124TIP3    H118336   3.215   0.998   1.238  1.1604 -0.6085 -0.1556
 6124TIP3    H218337   3.299   1.107   1.301  0.2238 -0.6173  1.1539
 6125TIP3   OH218338   2.426   0.796   2.277 -0.4808  0.2308  0.4825
 6125TIP3    H118339   2.453   0.784   2.186  0.0510 -0.2147  0.6982
 6125TIP3    H218340   2.439   0.710   2.318 -1.3869  0.2312  0.8101
 6126TIP3   OH218341   5.706   2.393   3.611  0.3928  0.1060  0.5392
 6126TIP3    H118342   5.767   2.332   3.653  0.1890 -0.4185  0.0948
 6126TIP3    H218343   5.664   2.340   3.542  2.5651  1.5402 -2.0887
 6127TIP3   OH218344   5.385   2.798   2.072  0.0594  0.9433  0.2074
 6127TIP3    H118345   5.332   2.790   1.993  0.5408 -2.7524  0.0946
 6127TIP3    H218346   5.334   2.753   2.140  1.6116  0.0776  0.8571
 6128TIP3   OH218347   4.891   1.066   2.948 -0.1036  0.3537  0.6904
 6128TIP3    H118348   4.905   1.109   3.032  1.8035 -0.3610  0.7955
 6128TIP3    H218349   4.979   1.060   2.909 -0.9218  0.6269 -1.3442
 6129TIP3   OH218350   6.455   5.378   3.742 -0.1234  0.3096 -0.7283
 6129TIP3    H118351   6.428   5.342   3.657 -2.1262 -1.0083  0.3973
 6129TIP3    H218352   6.547   5.352   3.751 -0.0094  0.0706 -2.2580
 6130TIP3   OH218353   4.215   0.381   4.469  0.3285 -0.2625  0.7813
 6130TIP3    H118354   4.158   0.322   4.420  1.2810 -1.2834  0.8512
 6130TIP3    H218355   4.155   0.438   4.517 -0.6460  1.0488 -1.8196
 6131TIP3   OH218356   5.465   3.673   5.779  0.1836  0.4608  0.0562
 6131TIP3    H118357   5.528   3.689   5.708 -1.0812  0.7125 -1.0405
 6131TIP3    H218358   5.393   3.627   5.737 -0.7797  0.9723  1.1024
 6132TIP3   OH218359   2.516   0.367   4.344 -0.4420  0.4088  0.3553
 6132TIP3    H118360   2.509   0.435   4.412 -1.8348  0.8136 -0.1503
 6132TIP3    H218361   2.426   0.353   4.316  0.1752  1.0318 -2.1744
 6133TIP3   OH218362   2.221   2.341   1.262 -0.6323 -0.0343 -0.1056
 6133TIP3    H118363   2.191   2.431   1.251 -0.8694 -0.1756 -0.6310
 6133TIP3    H218364   2.172   2.309   1.338  1.1502  0.9984  1.5850
 6134TIP3   OH218365   4.886   0.936   1.349 -0.7219  0.3854  0.3046
 6134TIP3    H118366   4.946   0.886   1.404 -1.4017  0.2431  0.9279
 6134TIP3    H218367   4.943   0.999   1.303 -0.0467 -0.0252  0.5549
 6135TIP3   OH218368   1.339   0.073   3.539  0.4119 -0.3069 -1.1036
 6135TIP3    H118369   1.353   0.127   3.617 -0.4929  1.4266 -2.0773
 6135TIP3    H218370   1.341  -0.017   3.571  1.9907  0.2810  0.5886
 6136TIP3   OH218371   5.934   4.531   3.695 -0.4076  0.1648  0.3154
 6136TIP3    H118372   5.943   4.468   3.624 -1.4736 -1.5167  1.6078
 6136TIP3    H218373   5.840   4.550   3.699 -0.4030  0.0402  1.4120
 6137TIP3   OH218374   5.869   6.623   2.294  0.4927 -0.5612 -0.2869
 6137TIP3    H118375   5.849   6.710   2.331 -2.4303 -0.5718 -1.5078
 6137TIP3    H218376   5.923   6.642   2.218  2.3386 -0.1169  1.0743
 6138TIP3   OH218377   2.578   0.721   3.536  0.2789 -0.2259 -0.7675
 6138TIP3    H118378   2.604   0.659   3.468 -1.4401  1.0171 -2.6973
 6138TIP3    H218379   2.483   0.709   3.545 -0.4867  3.1227 -2.4989
 6139TIP3   OH218380   3.318   2.778   2.591 -0.4686 -0.7570 -0.0091
 6139TIP3    H118381   3.359   2.692   2.605  0.0675 -0.6246 -0.7267
 6139TIP3    H218382   3.373   2.838   2.641 -1.0880 -0.8752  0.8412
 6140TIP3   OH218383   2.156   5.689   0.245  0.3450  0.0251  0.5262
 6140TIP3    H118384   2.163   5.627   0.317  0.7792  0.2324  0.6707
 6140TIP3    H218385   2.063   5.711   0.241 -0.0923 -1.9049 -0.6284
 6141TIP3   OH218386   4.366   1.162   5.022 -0.0517  0.0083  0.4198
 6141TIP3    H118387   4.303   1.197   5.086  0.5922 -0.0057  1.0704
 6141TIP3    H218388   4.343   1.206   4.940  1.3193  2.7363  1.3749
 6142TIP3   OH218389   5.482   3.772   1.447 -0.3867 -0.0715 -0.4628
 6142TIP3    H118390   5.567   3.754   1.486  0.0691 -1.3497 -1.9597
 6142TIP3    H218391   5.482   3.724   1.364 -2.5331 -0.0325 -0.5525
 6143TIP3   OH218392   5.834   1.801   1.388 -0.6979  0.1770 -0.0593
 6143TIP3    H118393   5.771   1.729   1.392 -1.0232  0.4411 -0.2566
 6143TIP3    H218394   5.831   1.829   1.296  1.0988 -1.0139 -0.5254
 6144TIP3   OH218395   5.985   1.418   2.065  0.3959 -0.2678 -0.1897
 6144TIP3    H118396   5.982   1.479   2.139 -1.2134 -0.4460 -0.0682
 6144TIP3    H218397   5.984   1.331   2.105  2.5657 -0.4315 -0.3672
 6145TIP3   OH218398   2.256   5.422   4.127 -0.0839  0.4031 -0.5279
 6145TIP3    H118399   2.254   5.351   4.062  0.0285 -0.4243  0.3509
 6145TIP3    H218400   2.249   5.502   4.075  2.6982 -0.0597 -1.8046
 6146TIP3   OH218401   4.606   0.165   2.074  0.4768  0.4157  0.1967
 6146TIP3    H118402   4.574   0.203   1.992  0.1833  0.3807  0.2954
 6146TIP3    H218403   4.657   0.089   2.048 -0.0899  0.0779  0.0840
 6147TIP3   OH218404   5.986   4.468   1.128 -0.0594 -0.4420  0.4646
 6147TIP3    H118405   5.939   4.532   1.182  0.5456 -0.1030  0.6101
 6147TIP3    H218406   5.924   4.397   1.115 -0.7684  0.2023  0.2528
 6148TIP3   OH218407   5.365   4.056   4.134  0.3379 -0.0261 -0.0796
 6148TIP3    H118408   5.338   4.141   4.101 -0.5936 -0.3008 -0.0725
 6148TIP3    H218409   5.318   4.046   4.216  0.7786 -0.3638  0.1388
 6149TIP3   OH218410   2.797   0.838   2.468 -0.1348  0.1270  0.2980
 6149TIP3    H118411   2.859   0.839   2.541 -0.3067 -2.9844  0.5855
 6149TIP3    H218412   2.851   0.836   2.389  0.0433  2.6868  0.2652
 6150TIP3   OH218413   2.625   4.868   3.914  0.4930 -0.2788 -0.1677
 6150TIP3    H118414   2.697   4.835   3.967  1.7752  0.1856 -1.5343
 6150TIP3    H218415   2.639   4.830   3.827 -0.1674  0.8189 -0.7916
 6151TIP3   OH218416   2.658   1.668   1.798  0.4105 -0.4169 -0.1688
 6151TIP3    H118417   2.658   1.708   1.885 -2.5049  0.2408 -0.3628
 6151TIP3    H218418   2.665   1.743   1.738 -1.6396 -0.4229 -0.4862
 6152TIP3   OH218419   5.168   5.168   2.590 -0.2012 -0.3907  0.2447
 6152TIP3    H118420   5.235   5.175   2.657  0.3702 -0.1286 -0.3358
 6152TIP3    H218421   5.211   5.200   2.510 -1.0288 -0.1817 -0.1275
 6153TIP3   OH218422   2.359   2.794   0.300 -0.1728  0.5031  0.1147
 6153TIP3    H118423   2.426   2.750   0.248  0.2561  1.8522 -0.5285
 6153TIP3    H218424   2.395   2.881   0.317 -0.8879  0.5531  1.5369
 6154TIP3   OH218425   3.586   5.126   2.710  0.1837 -0.3592  0.8010
 6154TIP3    H118426   3.568   5.096   2.799 -0.3742 -0.5347  0.6359
 6154TIP3    H218427   3.626   5.213   2.722 -0.6512 -0.0139  1.2021
 6155TIP3   OH218428   1.834   2.890   5.355 -0.6689  0.1867 -0.0383
 6155TIP3    H118429   1.850   2.944   5.278 -1.0749 -1.0744 -1.0329
 6155TIP3    H218430   1.915   2.839   5.365  0.4694  2.1872  1.9930
 6156TIP3   OH218431   3.360   1.221   1.975 -0.7061  0.0523  0.4574
 6156TIP3    H118432   3.447   1.184   1.989 -0.1275  0.9692 -0.5291
 6156TIP3    H218433   3.305   1.145   1.955 -0.0683 -0.5043  0.7649
 6157TIP3   OH218434   1.710   3.329   3.856 -0.3894 -0.2756  0.0195
 6157TIP3    H118435   1.651   3.404   3.842  0.0526  0.0962  0.1342
 6157TIP3    H218436   1.738   3.305   3.768  0.5003  0.5357  0.0695
 6158TIP3   OH218437   2.603   0.997   5.594  0.2875 -0.5108  0.2769
 6158TIP3    H118438   2.640   1.069   5.643 -1.4188 -0.0406  0.9517
 6158TIP3    H218439   2.648   0.919   5.627  2.0687  0.1917 -0.3919
 6159TIP3   OH218440   4.911   1.991   0.376 -0.4124  0.5795 -0.1125
 6159TIP3    H118441   4.864   1.990   0.293  0.2952  1.3336 -0.5456
 6159TIP3    H218442   4.931   1.899   0.394  0.0235  0.4635 -1.1333
 6160TIP3   OH218443   4.587   3.453   3.532  0.1809 -0.0463 -0.1707
 6160TIP3    H118444   4.515   3.438   3.471  0.7620 -0.9041 -0.6678
 6160TIP3    H218445   4.561   3.406   3.612  0.4076 -0.8040 -0.5283
 6161TIP3   OH218446   0.791   0.263   5.564  0.4031 -0.3659  0.1651
 6161TIP3    H118447   0.732   0.190   5.545 -1.5414  0.7169  1.6722
 6161TIP3    H218448   0.819   0.248   5.655  0.8076  0.1942  0.1364
 6162TIP3   OH218449   2.226   1.295   2.003  0.1444 -0.1640  0.1400
 6162TIP3    H118450   2.202   1.203   1.996 -1.0635  0.0034  1.5253
 6162TIP3    H218451   2.289   1.299   2.074 -0.3490  0.1458  0.5703
 6163TIP3   OH218452   3.669   1.726   5.318 -0.6383  0.0848  0.3134
 6163TIP3    H118453   3.642   1.815   5.294 -0.7595  0.0162  0.1989
 6163TIP3    H218454   3.642   1.672   5.244 -0.8936 -0.1071  0.5480
 6164TIP3   OH218455   6.029   4.885   1.995  0.0774  0.1953  0.2466
 6164TIP3    H118456   6.010   4.978   1.978 -1.9366  0.1670  2.0569
 6164TIP3    H218457   6.080   4.886   2.076 -0.3383 -0.2948  0.5171
 6165TIP3   OH218458   5.308   2.517   1.187 -0.0303  0.3104  0.2523
 6165TIP3    H118459   5.320   2.611   1.192  1.4618  0.1738 -0.2543
 6165TIP3    H218460   5.224   2.505   1.143 -0.0227  1.3985 -0.0678
 6166TIP3   OH218461   6.920   1.838   5.365  0.0508  0.4181 -0.8670
 6166TIP3    H118462   6.858   1.768   5.387 -1.0298  1.3950 -0.7545
 6166TIP3    H218463   6.980   1.797   5.302 -1.0723 -0.3769 -1.4454
 6167TIP3   OH218464   7.124   1.235   4.872 -0.1374 -0.3742  0.1126
 6167TIP3    H118465   7.144   1.203   4.960  0.6378  2.0850  0.9126
 6167TIP3    H218466   7.178   1.314   4.863 -0.2513 -0.5198 -2.5620
 6168TIP3   OH218467   4.445   3.370   0.872  0.3481 -0.1393  0.1668
 6168TIP3    H118468   4.397   3.394   0.792  0.0900  0.4692  0.5011
 6168TIP3    H218469   4.468   3.453   0.913  0.0274 -0.4475  0.9956
 6169TIP3   OH218470   4.559   0.985   4.836 -0.3956  0.1358  0.2220
 6169TIP3    H118471   4.518   1.039   4.903  0.3628 -0.9140  1.5856
 6169TIP3    H218472   4.526   1.020   4.753 -0.3003  2.3477  1.0598
 6170TIP3   OH218473   4.641   2.143   4.018 -0.6288 -0.5511  0.1984
 6170TIP3    H118474   4.661   2.184   3.935  0.1920  0.0607  0.6852
 6170TIP3    H218475   4.634   2.215   4.080 -0.5860 -1.0400  0.7887
 6171TIP3   OH218476   1.799   1.585   1.309  0.3204 -0.7944 -0.8129
 6171TIP3    H118477   1.789   1.490   1.314  1.7321 -0.9169  0.3685
 6171TIP3    H218478   1.893   1.600   1.320 -0.0262  0.8042  0.3868
 6172TIP3   OH218479   0.212   6.001   3.905  0.0204  0.3619 -0.1390
 6172TIP3    H118480   0.297   6.044   3.895 -0.1290  0.5084 -0.7881
 6172TIP3    H218481   0.174   6.000   3.817 -1.2954  1.6181  0.3798
 6173TIP3   OH218482   6.509   1.555   0.782 -0.1023 -0.1888 -0.0570
 6173TIP3    H118483   6.554   1.552   0.866  0.7772  3.2349 -0.2334
 6173TIP3    H218484   6.527   1.471   0.741  2.3660 -0.6442  1.7621
 6174TIP3   OH218485   1.388   5.025   0.367 -0.0019 -0.2846 -0.5414
 6174TIP3    H118486   1.477   5.054   0.347  0.7558 -1.6297  0.6812
 6174TIP3    H218487   1.333   5.101   0.346  1.3554  0.3990 -1.8052
 6175TIP3   OH218488   4.086   1.495   3.811  0.1877  0.3016  0.1799
 6175TIP3    H118489   4.016   1.510   3.875  0.8863  1.9441  0.6194
 6175TIP3    H218490   4.151   1.563   3.830  1.5440 -0.6661 -0.7364
 6176TIP3   OH218491   1.702   1.718   4.996 -0.5604  0.0311  0.3218
 6176TIP3    H118492   1.754   1.691   5.073 -1.1969  0.0728  0.7703
 6176TIP3    H218493   1.627   1.658   4.996 -1.5551  1.2389  0.8400
 6177TIP3   OH218494   3.856   1.935   4.640  0.5366 -0.1573 -0.0409
 6177TIP3    H118495   3.841   1.956   4.548 -2.4480 -0.2980  0.3198
 6177TIP3    H218496   3.851   1.839   4.644  0.4957 -0.1418  0.2927
 6178TIP3   OH218497   0.827   1.260   2.362 -0.4761 -0.0807  0.0376
 6178TIP3    H118498   0.796   1.287   2.275  0.8655  0.3828 -0.3250
 6178TIP3    H218499   0.885   1.332   2.389 -1.1159 -0.0695  1.4637
 6179TIP3   OH218500   3.375   5.153   0.343 -0.4167  0.3408  0.6607
 6179TIP3    H118501   3.417   5.227   0.385  0.4828 -0.3591  1.0340
 6179TIP3    H218502   3.309   5.122   0.406  1.4045 -1.1459  1.9494
 6180TIP3   OH218503   7.132   2.678   5.857 -0.1851  0.4952 -0.3634
 6180TIP3    H118504   7.119   2.743   5.927 -0.9112 -0.1487  0.1185
 6180TIP3    H218505   7.133   2.729   5.777 -0.4503  1.1396  0.0360
 6181TIP3   OH218506   5.605   1.603   3.409  0.5340  0.1934 -0.3722
 6181TIP3    H118507   5.570   1.691   3.426  0.4911  0.0367  0.3913
 6181TIP3    H218508   5.590   1.589   3.316 -0.4555  0.5706 -0.2856
 6182TIP3   OH218509   4.169   0.936   0.753  0.6840 -0.1049  0.1574
 6182TIP3    H118510   4.096   0.916   0.812 -0.0176  0.9864 -0.3181
 6182TIP3    H218511   4.214   0.852   0.742  0.5212 -0.4420  1.8108
 6183TIP3   OH218512   4.735   0.836   2.310 -0.2635 -0.1248 -0.2189
 6183TIP3    H118513   4.793   0.817   2.236 -1.0439  0.0743 -0.8884
 6183TIP3    H218514   4.664   0.773   2.302 -2.0905  1.9512 -1.5838
 6184TIP3   OH218515   5.212   3.444   1.780 -0.2249  0.0096 -0.4400
 6184TIP3    H118516   5.190   3.438   1.873 -0.1144  2.1275 -0.2343
 6184TIP3    H218517   5.162   3.519   1.748  1.5542  0.7980 -1.5108
 6185TIP3   OH218518   4.847   0.545   0.454  0.0056  0.7589 -0.1391
 6185TIP3    H118519   4.814   0.603   0.522 -4.2555 -0.6304 -0.7004
 6185TIP3    H218520   4.833   0.457   0.488  0.5699  0.0499 -1.6376
 6186TIP3   OH218521   1.452   1.750   3.694 -0.3999  0.1030  0.4630
 6186TIP3    H118522   1.492   1.675   3.738 -2.1178 -0.9744  0.2682
 6186TIP3    H218523   1.363   1.722   3.674 -1.0867  2.1819  0.3357
 6187TIP3   OH218524   2.594   0.241   2.806  0.3256 -0.3760  0.3230
 6187TIP3    H118525   2.595   0.195   2.890 -0.1402  0.8008  0.9994
 6187TIP3    H218526   2.629   0.328   2.826  2.2421 -0.7668 -1.1470
 6188TIP3   OH218527   1.561   6.527   0.265 -0.1382 -0.5734 -0.3400
 6188TIP3    H118528   1.627   6.470   0.226 -0.1900 -0.5799 -0.4159
 6188TIP3    H218529   1.505   6.469   0.315  1.1775 -0.3523  1.5039
 6189TIP3   OH218530   1.729   1.385   2.313  0.6457  0.1449  0.3136
 6189TIP3    H118531   1.750   1.372   2.221 -0.2336  0.8131  0.0020
 6189TIP3    H218532   1.670   1.460   2.314 -1.5004 -1.4602  1.1466
 6190TIP3   OH218533   2.441   3.605   5.268  0.7189 -0.3295 -0.6461
 6190TIP3    H118534   2.477   3.657   5.340 -0.0736  1.9254 -1.7775
 6190TIP3    H218535   2.470   3.649   5.189 -3.1191  0.7773 -1.6363
 6191TIP3   OH218536   2.512   3.143   4.283  0.0796 -0.3632 -0.3216
 6191TIP3    H118537   2.597   3.141   4.327 -1.0905  1.5643  2.3271
 6191TIP3    H218538   2.529   3.184   4.198  1.8828 -0.5672 -0.0844
 6192TIP3   OH218539   4.221   6.747   2.498 -0.0971 -0.6098 -0.0579
 6192TIP3    H118540   4.313   6.724   2.486 -0.1355 -0.8398  0.0710
 6192TIP3    H218541   4.199   6.709   2.583 -0.0733  0.1960  0.3149
 6193TIP3   OH218542   0.221   6.118   5.125  0.3753 -0.3252  0.2708
 6193TIP3    H118543   0.227   6.030   5.089  0.8904 -0.2415  0.1443
 6193TIP3    H218544   0.216   6.105   5.220  0.8335 -0.4818  0.2770
 6194TIP3   OH218545   5.313   0.529   0.624  0.0347 -0.4331 -0.1969
 6194TIP3    H118546   5.226   0.504   0.593  0.1713  1.8727 -2.7884
 6194TIP3    H218547   5.310   0.624   0.630  2.0639 -0.3813  0.7669
 6195TIP3   OH218548   4.837   0.274   0.492  0.2911 -0.3201 -0.2803
 6195TIP3    H118549   4.846   0.252   0.584  0.5534  0.0326 -0.2222
 6195TIP3    H218550   4.887   0.206   0.446  1.9250  0.6732 -0.0465
 6196TIP3   OH218551   4.750   0.550   4.323 -0.2334  0.2183 -0.2460
 6196TIP3    H118552   4.706   0.548   4.238  1.1813 -1.1017 -0.9814
 6196TIP3    H218553   4.802   0.630   4.321  0.3363 -0.1638 -0.9187
 6197TIP3   OH218554   3.256   2.521   0.399  0.1277 -0.2701 -0.4137
 6197TIP3    H118555   3.344   2.536   0.365 -0.4940  1.5904 -1.3267
 6197TIP3    H218556   3.260   2.433   0.438  2.3913 -0.1853 -0.3299
 6198TIP3   OH218557   4.336   5.894   3.383 -0.0384  0.0553 -0.3739
 6198TIP3    H118558   4.296   5.949   3.449  1.1922  0.9534 -0.3321
 6198TIP3    H218559   4.297   5.808   3.396  0.0946  0.2323  1.4448
 6199TIP3   OH218560   2.709   5.811   3.807 -0.3016  0.0972  0.1497
 6199TIP3    H118561   2.795   5.776   3.782  0.8427  2.2648  0.7634
 6199TIP3    H218562   2.696   5.782   3.897 -0.3016 -0.3880 -0.0051
 6200TIP3   OH218563   7.200   4.227   3.255 -0.8795  0.6830 -0.0545
 6200TIP3    H118564   7.148   4.153   3.223  0.9425 -1.0888  0.8436
 6200TIP3    H218565   7.146   4.267   3.323 -0.6878 -1.8091  1.6818
 6201TIP3   OH218566   2.635   5.405   0.549  0.4109 -0.2829  0.1630
 6201TIP3    H118567   2.553   5.355   0.550  0.8016 -0.9428 -0.2251
 6201TIP3    H218568   2.655   5.420   0.642  0.3260 -0.8985  0.2811
 6202TIP3   OH218569   6.760   1.905   0.074  0.4932  0.1416 -0.4527
 6202TIP3    H118570   6.808   1.822   0.083  0.7750  0.4769  1.4466
 6202TIP3    H218571   6.816   1.959   0.018  2.8463  0.7854  2.2666
 6203TIP3   OH218572   5.267   2.318   2.711  0.2700  0.3225  0.0254
 6203TIP3    H118573   5.171   2.313   2.706  0.3477 -0.9123 -0.6300
 6203TIP3    H218574   5.287   2.411   2.699 -0.8858  0.7467  1.1894
 6204TIP3   OH218575   1.499   6.575   2.174  0.0607  0.2475  0.0196
 6204TIP3    H118576   1.496   6.574   2.269  0.3299  1.7820  0.0532
 6204TIP3    H218577   1.569   6.513   2.152  0.7553  0.7131  0.8573
 6205TIP3   OH218578   7.071   4.424   0.123  0.8819 -0.0487  0.1565
 6205TIP3    H118579   7.130   4.499   0.107 -1.6141  1.6226 -2.0468
 6205TIP3    H218580   7.062   4.421   0.218  1.4779  2.1601  0.3419
 6206TIP3   OH218581   0.505   3.795   0.611  0.1259 -0.3937 -0.3207
 6206TIP3    H118582   0.428   3.803   0.668  0.5746  0.4678  0.1908
 6206TIP3    H218583   0.555   3.723   0.650 -0.1396 -0.5798 -0.3189
 6207TIP3   OH218584   6.852   6.650   3.672 -0.2366  0.1096 -0.1344
 6207TIP3    H118585   6.915   6.578   3.682 -1.1513 -0.6305  0.4361
 6207TIP3    H218586   6.811   6.634   3.587  2.6782  2.5274 -2.2322
 6208TIP3   OH218587   5.009   4.874   4.429  0.2348 -0.2405  0.6807
 6208TIP3    H118588   5.004   4.921   4.513  2.1288  0.7945  0.2632
 6208TIP3    H218589   5.086   4.819   4.436 -0.7033 -1.6701  0.3074
 6209TIP3   OH218590   2.233   4.952   0.922 -1.0988  0.2388  0.2340
 6209TIP3    H118591   2.321   4.935   0.955 -0.6534 -1.1554 -1.4944
 6209TIP3    H218592   2.224   5.047   0.922  0.4259  0.3944  0.4024
 6210TIP3   OH218593   1.017   3.489   4.283  0.3462 -0.0985 -0.3495
 6210TIP3    H118594   1.054   3.577   4.275  0.6804 -0.0482  1.4367
 6210TIP3    H218595   1.079   3.443   4.339 -0.0719 -1.3565 -0.8946
 6211TIP3   OH218596   5.428   5.423   3.870 -0.2562 -0.3118 -0.3840
 6211TIP3    H118597   5.393   5.399   3.955  0.3681 -0.1728 -0.0813
 6211TIP3    H218598   5.516   5.456   3.888 -0.7193  1.3226 -0.8762
 6212TIP3   OH218599   4.284   4.286   3.185 -0.1957  0.4949  0.1604
 6212TIP3    H118600   4.298   4.193   3.169 -0.4329  0.1697  1.6378
 6212TIP3    H218601   4.372   4.321   3.199 -0.1080  0.4943 -0.3753
 6213TIP3   OH218602   1.545   0.022   2.546 -0.3411 -0.0195  0.0353
 6213TIP3    H118603   1.467  -0.023   2.579  0.1696 -1.2337 -0.3763
 6213TIP3    H218604   1.511   0.102   2.505 -1.0978  0.9760  2.4214
 6214TIP3   OH218605   2.870   0.402   5.218  0.2237  0.0375  0.1087
 6214TIP3    H118606   2.848   0.487   5.256  1.7693  0.6695 -0.3163
 6214TIP3    H218607   2.932   0.422   5.148 -0.0544 -1.3753 -0.5827
 6215TIP3   OH218608   2.881   6.097   1.427  0.3352 -0.6872  0.0715
 6215TIP3    H118609   2.936   6.079   1.351 -0.0844 -0.6565 -0.2453
 6215TIP3    H218610   2.850   6.187   1.412 -0.8703 -1.1677 -0.4378
 6216TIP3   OH218611   1.225   5.745   4.139  0.4246 -0.3155 -0.4273
 6216TIP3    H118612   1.299   5.708   4.188  1.0811  2.1895  0.6409
 6216TIP3    H218613   1.152   5.743   4.200  0.5695  0.4777 -0.2210
 6217TIP3   OH218614   3.874   1.509   1.179  0.8065  0.3932 -0.4863
 6217TIP3    H118615   3.835   1.424   1.197  1.1027  0.1286 -1.0737
 6217TIP3    H218616   3.800   1.570   1.176  0.6336  0.2393  0.3518
 6218TIP3   OH218617   6.456   5.094   4.777 -0.6262 -0.1096  0.1867
 6218TIP3    H118618   6.449   5.181   4.815  0.0351 -0.3979  1.0015
 6218TIP3    H218619   6.497   5.108   4.692 -0.7129  0.3876  0.2228
 6219TIP3   OH218620   4.804   3.802   1.552 -0.2116  0.4807  0.3907
 6219TIP3    H118621   4.831   3.809   1.461 -2.2435 -0.7625 -0.3882
 6219TIP3    H218622   4.872   3.749   1.594  0.4468  0.5724 -0.5442
 6220TIP3   OH218623   0.709   0.521   5.573 -0.2494 -0.2176  0.3686
 6220TIP3    H118624   0.724   0.428   5.587 -0.0138 -0.0770  1.1108
 6220TIP3    H218625   0.754   0.541   5.491  2.1468 -0.2084  1.5891
 6221TIP3   OH218626   1.170   1.752   1.590  0.0505  0.4792 -0.1049
 6221TIP3    H118627   1.251   1.702   1.595  0.4405  1.2365  2.7808
 6221TIP3    H218628   1.190   1.836   1.632 -2.4623  0.2580  1.7599
 6222TIP3   OH218629   5.029   3.168   5.425 -0.0872 -0.2875  0.3182
 6222TIP3    H118630   5.090   3.239   5.405 -0.5885 -0.3834 -1.6612
 6222TIP3    H218631   5.054   3.140   5.514 -0.2747  2.7190  1.4275
 6223TIP3   OH218632   1.527   4.067   1.417  1.0058  0.2763  0.7413
 6223TIP3    H118633   1.575   4.014   1.354  1.5784  1.5729  0.0405
 6223TIP3    H218634   1.496   4.004   1.482 -0.1784 -1.1865 -1.1396
 6224TIP3   OH218635   2.278   4.061   0.604 -0.2910 -0.2666  0.2767
 6224TIP3    H118636   2.305   4.131   0.663 -0.1800 -0.6423  0.6811
 6224TIP3    H218637   2.197   4.092   0.564  0.3016  0.5361 -0.3490
 6225TIP3   OH218638   2.819   3.107   4.394  0.4594 -0.5457 -0.0529
 6225TIP3    H118639   2.854   3.085   4.308  0.5709  2.0568 -0.7515
 6225TIP3    H218640   2.897   3.116   4.450  0.5503  0.1127 -0.2852
 6226TIP3   OH218641   1.388   5.666   0.252  0.1517  0.1272  0.2240
 6226TIP3    H118642   1.478   5.661   0.220  0.5196  1.2679  0.9971
 6226TIP3    H218643   1.389   5.738   0.315 -1.2062 -0.1329  0.5853
 6227TIP3   OH218644   4.839   2.104   2.598  0.5864  0.1445 -0.5268
 6227TIP3    H118645   4.747   2.128   2.608  0.6995  0.7207 -0.8178
 6227TIP3    H218646   4.887   2.182   2.625  1.0448 -0.6598  1.1468
 6228TIP3   OH218647   7.212   4.315   4.418 -0.0133 -0.3496 -0.0632
 6228TIP3    H118648   7.119   4.336   4.429  0.4440  2.2723 -0.5971
 6228TIP3    H218649   7.213   4.225   4.386 -2.4566  0.0344 -1.4300
 6229TIP3   OH218650   2.246   1.001   3.576  0.8477  0.0600  0.4604
 6229TIP3    H118651   2.182   0.941   3.612  2.2713 -0.2400  2.6943
 6229TIP3    H218652   2.206   1.088   3.585  0.0134 -0.2760  0.0547
 6230TIP3   OH218653   0.517   6.646   1.985  0.0262 -0.2182  0.1481
 6230TIP3    H118654   0.590   6.695   1.948  0.6826 -1.7508 -0.6588
 6230TIP3    H218655   0.464   6.621   1.910  1.7077 -3.9139 -0.0203
 6231TIP3   OH218656   3.368   0.433   0.238  0.4763 -0.0691 -0.0288
 6231TIP3    H118657   3.396   0.347   0.206 -2.9962 -0.7040 -1.9067
 6231TIP3    H218658   3.390   0.493   0.167  1.0846  0.2596  0.4270
 6232TIP3   OH218659   6.069   2.577   5.198 -0.2603 -0.2876 -0.0532
 6232TIP3    H118660   6.085   2.483   5.199  1.7953 -0.0254 -1.6781
 6232TIP3    H218661   6.012   2.591   5.123 -0.5913 -0.2145  0.2071
 6233TIP3   OH218662   6.520   5.678   1.262  0.7847 -0.1639  0.0443
 6233TIP3    H118663   6.436   5.661   1.304  0.7224  0.0659  0.0149
 6233TIP3    H218664   6.504   5.659   1.169 -0.8154  4.8174 -1.0413
 6234TIP3   OH218665   4.368   2.011   5.688 -0.1681 -0.2233  0.0266
 6234TIP3    H118666   4.285   2.027   5.644 -0.2171  0.1161  0.2423
 6234TIP3    H218667   4.430   1.993   5.617 -0.3281 -0.0434 -0.1581
 6235TIP3   OH218668   1.516   3.750   2.142  0.4174 -0.1102 -0.1665
 6235TIP3    H118669   1.512   3.844   2.124  1.3872  0.0784  0.5442
 6235TIP3    H218670   1.430   3.718   2.117 -1.1098  1.5067  2.5869
 6236TIP3   OH218671   4.712   1.885   4.104 -0.0125  0.0262  0.2251
 6236TIP3    H118672   4.712   1.978   4.079  0.4607 -0.3950 -1.4816
 6236TIP3    H218673   4.775   1.880   4.176  0.2218  0.9755  0.1074
 6237TIP3   OH218674   2.078   1.952   4.845  0.1596  0.3590 -0.0163
 6237TIP3    H118675   2.158   1.903   4.825  0.8005  2.1842 -2.5022
 6237TIP3    H218676   2.025   1.944   4.765 -1.3001  0.7565  0.8781
 6238TIP3   OH218677   4.249   0.770   0.356 -0.0339  0.2347 -0.6232
 6238TIP3    H118678   4.256   0.730   0.443  0.5044 -0.4556 -0.9730
 6238TIP3    H218679   4.235   0.863   0.373 -0.7806 -0.0108  0.2125
 6239TIP3   OH218680   4.370   3.267   1.867  0.1741  0.0789 -0.2096
 6239TIP3    H118681   4.303   3.319   1.822 -1.1088 -1.0862  0.2947
 6239TIP3    H218682   4.394   3.319   1.943 -2.4607 -0.8066  1.3363
 6240TIP3   OH218683   2.465   2.164   0.057  0.8888  0.0275  0.6304
 6240TIP3    H118684   2.432   2.248   0.089 -0.8361 -0.3792  0.0417
 6240TIP3    H218685   2.440   2.100   0.124 -0.4957 -0.4411 -0.2888
 6241TIP3   OH218686   5.129   5.258   4.515 -0.5079 -0.0461  0.7748
 6241TIP3    H118687   5.093   5.248   4.426 -0.8157 -1.3482  1.0256
 6241TIP3    H218688   5.099   5.344   4.543  0.1209  0.6570 -0.6140
 6242TIP3   OH218689   2.478   6.360   2.118 -0.2175  0.0984  0.2959
 6242TIP3    H118690   2.496   6.320   2.204 -1.7899  0.2487  0.7309
 6242TIP3    H218691   2.526   6.305   2.056  1.7433  0.5411  1.3304
 6243TIP3   OH218692   3.905   1.265   4.148 -0.1199 -0.7934  0.7881
 6243TIP3    H118693   3.831   1.318   4.120  0.9395  0.7548  0.7705
 6243TIP3    H218694   3.895   1.182   4.102 -2.3331 -1.0021  1.5342
 6244TIP3   OH218695   6.544   0.942   3.630 -0.3775  0.2024  0.1015
 6244TIP3    H118696   6.539   1.038   3.625 -2.2938  0.2087  0.9887
 6244TIP3    H218697   6.481   0.911   3.565  0.6006 -0.4819 -0.5376
 6245TIP3   OH218698   3.206   5.675   5.828 -0.2966 -0.0538  0.3433
 6245TIP3    H118699   3.205   5.729   5.906 -0.3938 -1.0294  1.0374
 6245TIP3    H218700   3.138   5.713   5.772 -1.7164 -0.5839  1.6186
 6246TIP3   OH218701   3.233   6.159   1.591  0.2145 -0.8677 -0.2417
 6246TIP3    H118702   3.201   6.080   1.546 -2.6993  0.2234 -0.3127
 6246TIP3    H218703   3.158   6.219   1.589  1.7658  1.2524  1.3685
 6247TIP3   OH218704   3.377   3.777   5.049  0.3347 -0.2549 -0.5398
 6247TIP3    H118705   3.313   3.848   5.041  0.5148  0.1882  1.3876
 6247TIP3    H218706   3.344   3.724   5.121  2.2711  0.1637  0.7151
 6248TIP3   OH218707   5.594   3.128   3.509  0.2536 -0.1647 -0.4581
 6248TIP3    H118708   5.503   3.141   3.482  0.6189 -0.3992 -1.8349
 6248TIP3    H218709   5.628   3.062   3.449  1.4032  0.0814 -0.0963
 6249TIP3   OH218710   2.038   0.110   0.307  0.6670 -0.1025  0.3161
 6249TIP3    H118711   2.088   0.061   0.241  0.0867  1.3413 -1.2900
 6249TIP3    H218712   2.082   0.195   0.312 -0.2769  0.3920  0.5236
 6250TIP3   OH218713   3.335   1.990   0.382 -0.3828  0.1602  0.2474
 6250TIP3    H118714   3.333   1.955   0.292 -2.7602 -2.2628  1.0959
 6250TIP3    H218715   3.401   1.937   0.426 -0.8946 -0.3066  0.4693
 6251TIP3   OH218716   6.890   0.292   1.220  0.3731 -0.1069  0.2791
 6251TIP3    H118717   6.959   0.358   1.224 -0.0218  0.2732  3.5304
 6251TIP3    H218718   6.814   0.340   1.187  0.9696  0.0906 -0.8813
 6252TIP3   OH218719   6.745   1.475   1.549  0.0568  0.2999  0.1702
 6252TIP3    H118720   6.721   1.559   1.511 -0.0455 -0.2246 -0.9690
 6252TIP3    H218721   6.829   1.453   1.509  0.2399  0.0068  0.7079
 6253TIP3   OH218722   6.090   3.230   3.094 -0.3402 -0.3330  0.1986
 6253TIP3    H118723   6.132   3.231   3.180  1.1478 -1.8283 -0.4544
 6253TIP3    H218724   6.091   3.322   3.066  1.1502 -0.1168  0.8665
 6254TIP3   OH218725   0.649   1.895   5.534  0.1076 -0.3078  0.6334
 6254TIP3    H118726   0.689   1.836   5.470 -0.6504 -0.3875  0.2204
 6254TIP3    H218727   0.639   1.978   5.488 -0.0393 -0.2363  0.7910
 6255TIP3   OH218728   3.819   0.877   1.533 -0.1287  0.2462  0.7410
 6255TIP3    H118729   3.897   0.932   1.534 -0.8069  1.2507  1.9681
 6255TIP3    H218730   3.852   0.788   1.527  1.0387  0.7221 -0.3638
 6256TIP3   OH218731   1.647   2.514   2.478  0.2659 -0.1609  0.4594
 6256TIP3    H118732   1.600   2.596   2.493 -0.6921 -0.4460 -0.8175
 6256TIP3    H218733   1.733   2.541   2.446  0.1314  0.3414  0.5208
 6257TIP3   OH218734   5.161   3.860   5.841 -0.4237 -0.3694 -0.5678
 6257TIP3    H118735   5.140   3.777   5.799 -2.1197 -1.9312  2.9435
 6257TIP3    H218736   5.225   3.838   5.908 -1.5150  0.9261  0.9780
 6258TIP3   OH218737   1.134   6.030   1.102 -0.6413  0.4596  0.4911
 6258TIP3    H118738   1.087   5.946   1.107 -1.5784  0.8175 -1.3894
 6258TIP3    H218739   1.224   6.006   1.081 -0.8175 -0.0932  0.3517
 6259TIP3   OH218740   1.954   1.158   3.087  0.0860  0.2482 -0.2470
 6259TIP3    H118741   1.965   1.202   3.003 -1.4865 -0.9195 -1.1266
 6259TIP3    H218742   1.869   1.114   3.079 -0.5678  0.8932  2.3189
 6260TIP3   OH218743   3.510   1.832   2.078 -0.2230 -0.3250  0.3625
 6260TIP3    H118744   3.521   1.859   1.986 -1.0017  0.3190  0.4368
 6260TIP3    H218745   3.542   1.742   2.081  0.7047 -0.0358 -0.3296
 6261TIP3   OH218746   1.245   3.181   4.244  0.0091 -0.0130 -0.4186
 6261TIP3    H118747   1.219   3.177   4.336 -0.5715  1.1452 -0.5231
 6261TIP3    H218748   1.338   3.158   4.245  0.1459  0.5208  0.5358
 6262TIP3   OH218749   1.212   5.951   0.735 -0.1507 -0.0110 -0.3515
 6262TIP3    H118750   1.117   5.958   0.738 -0.1757 -0.3701 -0.2884
 6262TIP3    H218751   1.234   5.881   0.796  0.2645  0.9737  0.6559
 6263TIP3   OH218752   1.342   6.538   4.701 -0.0470 -0.0817 -0.0108
 6263TIP3    H118753   1.396   6.613   4.676  0.1999 -0.0175  0.6712
 6263TIP3    H218754   1.351   6.476   4.629 -1.3548  1.0930 -1.2420
 6264TIP3   OH218755   0.419   0.104   1.036  0.4620 -0.6211 -0.3251
 6264TIP3    H118756   0.425   0.042   1.109 -0.9480 -0.7321 -0.2644
 6264TIP3    H218757   0.325   0.124   1.030  0.2825 -1.8756 -3.1488
 6265TIP3   OH218758   2.151   3.538   5.266  0.5675 -0.0987  0.3135
 6265TIP3    H118759   2.236   3.580   5.253  0.2427  1.5069  2.6117
 6265TIP3    H218760   2.166   3.475   5.337  0.2864 -1.4502 -0.7873
 6266TIP3   OH218761   1.774   2.139   2.740  0.0899 -0.4570 -0.2084
 6266TIP3    H118762   1.724   2.119   2.819 -0.6507  1.8224 -0.0310
 6266TIP3    H218763   1.838   2.203   2.768  1.5630 -1.5302 -0.9685
 6267TIP3   OH218764   3.037   2.677   0.388  0.1506  0.1146 -0.6986
 6267TIP3    H118765   3.111   2.618   0.401  0.4138  0.4532 -0.6214
 6267TIP3    H218766   3.059   2.753   0.442 -0.6154 -0.0999 -0.0711
 6268TIP3   OH218767   5.420   3.638   2.238  0.2772  0.0332  0.7767
 6268TIP3    H118768   5.431   3.640   2.333  1.7315  0.0596  0.6265
 6268TIP3    H218769   5.504   3.666   2.203 -0.8538  2.0154 -0.5310
 6269TIP3   OH218770   2.957   2.610   1.833 -0.0616 -0.4392  0.2879
 6269TIP3    H118771   2.979   2.609   1.926  3.0597  0.8234 -0.2954
 6269TIP3    H218772   2.908   2.692   1.821  1.2896  0.4593  0.5858
 6270TIP3   OH218773   6.737   4.284   5.778 -0.3727  0.1781  0.7476
 6270TIP3    H118774   6.827   4.254   5.764 -0.1405  1.1941 -0.0181
 6270TIP3    H218775   6.741   4.379   5.770 -1.6690  0.1780 -0.1819
 6271TIP3   OH218776   2.043   4.450   3.507 -0.0740  0.0118 -0.0435
 6271TIP3    H118777   2.108   4.520   3.510  0.3069 -0.3421  2.4796
 6271TIP3    H218778   2.095   4.369   3.513 -0.6271 -0.3843 -0.5153
 6272TIP3   OH218779   2.619   0.423   0.805 -0.2910  0.9008 -0.0976
 6272TIP3    H118780   2.536   0.396   0.766  0.0912  0.0423 -0.3498
 6272TIP3    H218781   2.685   0.387   0.746  0.3862 -2.4496  2.3963
 6273TIP3   OH218782   3.522   2.282   1.385  0.4588  0.0840 -0.6688
 6273TIP3    H118783   3.459   2.338   1.338 -0.1370  0.0128  0.0286
 6273TIP3    H218784   3.602   2.335   1.389  0.2101  0.4871 -0.8999
 6274TIP3   OH218785   4.579   2.286   3.292 -0.4730  0.3828 -0.2720
 6274TIP3    H118786   4.642   2.268   3.222 -0.0725 -0.8765  0.3726
 6274TIP3    H218787   4.501   2.318   3.246 -0.3433 -0.7423 -1.3432
 6275TIP3   OH218788   5.763   0.807   0.163  0.4909  0.2102 -0.4720
 6275TIP3    H118789   5.717   0.787   0.245 -0.5252  1.6201 -0.6642
 6275TIP3    H218790   5.775   0.902   0.165 -0.1056  0.3577 -2.2254
 6276TIP3   OH218791   3.821   3.223   4.996  0.0267  0.9024 -0.0470
 6276TIP3    H118792   3.912   3.202   4.974 -0.0527  0.5492 -0.0496
 6276TIP3    H218793   3.791   3.148   5.048  0.0020  1.4051  0.6874
 6277TIP3   OH218794   3.829   0.200   4.024 -0.0273 -0.1615  0.8310
 6277TIP3    H118795   3.819   0.228   3.933 -0.5416 -0.0722  0.9139
 6277TIP3    H218796   3.919   0.166   4.028 -0.1275 -0.5278  0.1978
 6278TIP3   OH218797   5.579   5.509   1.717 -0.0995 -0.7994 -0.1388
 6278TIP3    H118798   5.666   5.488   1.684  0.3236  0.5259  0.0802
 6278TIP3    H218799   5.594   5.575   1.784 -1.5049  2.7126 -2.9869
 6279TIP3   OH218800   6.600   3.720   3.357  0.4913 -0.0449  0.0540
 6279TIP3    H118801   6.523   3.754   3.402 -0.6081 -0.1136 -1.6751
 6279TIP3    H218802   6.577   3.724   3.264  2.6158  0.0126 -0.5302
 6280TIP3   OH218803   2.316   3.174   2.961 -0.2706 -0.6953  0.3002
 6280TIP3    H118804   2.387   3.202   2.903  0.6757 -1.9546  0.8019
 6280TIP3    H218805   2.274   3.255   2.988  0.3738  0.0212 -0.7625
 6281TIP3   OH218806   5.590   5.846   3.758  0.3177 -1.1912 -0.0330
 6281TIP3    H118807   5.649   5.921   3.758 -2.7923  1.5231 -0.5185
 6281TIP3    H218808   5.614   5.796   3.836  1.6447  1.1369  1.1643
 6282TIP3   OH218809   1.595   5.217   3.170  0.0702  0.3959  0.0088
 6282TIP3    H118810   1.517   5.257   3.133  0.1856  3.0060  2.2792
 6282TIP3    H218811   1.645   5.188   3.093 -1.5253  1.7779 -1.6589
 6283TIP3   OH218812   2.097   2.503   4.036 -0.2347  0.5687 -0.3190
 6283TIP3    H118813   2.144   2.575   3.994  2.1960  0.4062  1.8804
 6283TIP3    H218814   2.164   2.457   4.087 -2.1974 -1.7685  0.3400
 6284TIP3   OH218815   4.860   1.253   4.465  0.5210 -0.1196 -0.0018
 6284TIP3    H118816   4.779   1.293   4.496  0.9522  0.6789  0.1286
 6284TIP3    H218817   4.928   1.319   4.483  1.3621 -1.1764  0.8255
 6285TIP3   OH218818   6.643   1.339   3.016 -0.7626 -0.5699  0.3235
 6285TIP3    H118819   6.604   1.359   3.101 -2.2576 -0.5690 -0.3360
 6285TIP3    H218820   6.573   1.296   2.967 -0.0122 -0.3201 -1.0145
 6286TIP3   OH218821   3.892   2.279   4.677  0.3549 -0.0125  0.8759
 6286TIP3    H118822   3.840   2.254   4.753  1.3254 -1.2809  1.1657
 6286TIP3    H218823   3.981   2.290   4.712  0.6151  0.4057  0.1076
 6287TIP3   OH218824   6.276   4.652   4.054 -0.1581 -0.6880  0.1116
 6287TIP3    H118825   6.311   4.740   4.062 -1.1279 -0.1636 -0.9810
 6287TIP3    H218826   6.325   4.612   3.981 -0.4918 -0.6280 -0.1530
 6288TIP3   OH218827   6.338   6.191   2.642 -0.0235  0.2556 -0.3159
 6288TIP3    H118828   6.285   6.226   2.570 -1.0351  0.5778  0.5542
 6288TIP3    H218829   6.361   6.268   2.695 -0.1792 -0.0925  0.2730
 6289TIP3   OH218830   2.237   0.042   4.449  0.0363  0.2603  0.3028
 6289TIP3    H118831   2.149   0.079   4.460 -0.1601  0.2390 -1.0353
 6289TIP3    H218832   2.285   0.072   4.526 -0.8950  1.0029  0.6158
 6290TIP3   OH218833   6.698   2.275   1.501 -0.0469 -0.1681 -0.2564
 6290TIP3    H118834   6.701   2.346   1.437  0.7875 -1.1568 -1.3540
 6290TIP3    H218835   6.720   2.197   1.451 -1.3853 -1.2936  0.8190
 6291TIP3   OH218836   4.847   0.950   0.543  0.9355 -0.6365 -0.4750
 6291TIP3    H118837   4.892   0.939   0.626 -0.4774 -0.6422  0.3231
 6291TIP3    H218838   4.878   0.877   0.489  1.4315 -0.9683  0.2447
 6292TIP3   OH218839   3.793   1.302   3.332  0.1682  0.3496 -0.7378
 6292TIP3    H118840   3.736   1.308   3.408  0.6917  0.6573 -0.3641
 6292TIP3    H218841   3.757   1.365   3.270  0.6786  1.2811 -0.1142
 6293TIP3   OH218842   5.630   1.231   0.540  0.4435  0.1094  0.2160
 6293TIP3    H118843   5.560   1.295   0.554 -0.7064 -0.8671 -0.8871
 6293TIP3    H218844   5.606   1.187   0.459  1.6178 -1.1983  0.5507
 6294TIP3   OH218845   1.367   5.800   2.789  0.2810 -0.4995 -0.0878
 6294TIP3    H118846   1.420   5.807   2.869  0.0714 -0.0936  0.0186
 6294TIP3    H218847   1.428   5.770   2.722  0.6793  0.1216 -0.0011
 6295TIP3   OH218848   5.874   3.701   0.248  0.1340 -0.3773 -0.6114
 6295TIP3    H118849   5.848   3.738   0.332  0.8367  0.0521 -0.5726
 6295TIP3    H218850   5.878   3.776   0.189 -1.9003 -0.8819 -1.4498
 6296TIP3   OH218851   4.515   1.990   1.511 -0.4664 -0.6022 -0.0203
 6296TIP3    H118852   4.558   2.031   1.436 -1.3168  1.3743  0.4920
 6296TIP3    H218853   4.471   1.913   1.474 -0.7569  0.2385 -1.5497
 6297TIP3   OH218854   3.358   1.566   4.724  0.7449  0.5367  0.6050
 6297TIP3    H118855   3.291   1.498   4.729  1.2812  0.0045  0.6738
 6297TIP3    H218856   3.407   1.558   4.806  1.1368  0.6661  0.3875
 6298TIP3   OH218857   3.156   2.475   4.598 -0.1798 -0.7350  0.0500
 6298TIP3    H118858   3.186   2.451   4.511 -0.5988  0.9731 -0.5972
 6298TIP3    H218859   3.236   2.477   4.651  0.2897 -0.3996 -0.6453
 6299TIP3   OH218860   6.275   3.607   1.478  0.3977 -0.3856 -0.4283
 6299TIP3    H118861   6.250   3.524   1.518 -0.4391  0.3159  0.5459
 6299TIP3    H218862   6.214   3.671   1.514  0.9840  0.6500 -1.2099
 6300TIP3   OH218863   6.420   3.300   5.212 -0.7291  0.3149  0.3937
 6300TIP3    H118864   6.341   3.352   5.222 -1.1718 -0.0908 -0.7546
 6300TIP3    H218865   6.408   3.255   5.128  0.1102 -0.8121  0.8510
 6301TIP3   OH218866   3.685   6.643   3.692 -0.4707 -0.7847  0.0244
 6301TIP3    H118867   3.625   6.571   3.708 -0.4103 -0.8665 -0.1175
 6301TIP3    H218868   3.771   6.608   3.713 -0.6478 -0.0792  2.1936
 6302TIP3   OH218869   0.533   5.603   2.812  0.4308  0.0521  0.2638
 6302TIP3    H118870   0.614   5.652   2.795  0.7018 -0.1675  0.8694
 6302TIP3    H218871   0.510   5.565   2.728 -0.5076  2.2532 -0.5250
 6303TIP3   OH218872   1.522   1.510   3.797  0.3454 -0.5250  0.0222
 6303TIP3    H118873   1.545   1.551   3.880 -2.2358  1.4101 -0.1081
 6303TIP3    H218874   1.442   1.460   3.815 -0.7539  0.6151 -1.4114
 6304TIP3   OH218875   2.027   3.120   5.788  0.0475 -0.2656  0.0450
 6304TIP3    H118876   2.020   3.094   5.697  0.6731 -1.6545  0.3782
 6304TIP3    H218877   2.110   3.083   5.818 -0.3445 -0.1830  1.2844
 6305TIP3   OH218878   6.286   4.367   3.808  0.6525  0.6424 -0.6231
 6305TIP3    H118879   6.245   4.314   3.877  2.0901  1.9576  1.3401
 6305TIP3    H218880   6.286   4.309   3.732 -1.7667 -0.5795  0.1677
 6306TIP3   OH218881   3.583   6.570   4.861 -0.4766 -0.5071 -0.4213
 6306TIP3    H118882   3.512   6.628   4.838 -0.4123 -0.3916 -0.3308
 6306TIP3    H218883   3.659   6.628   4.873 -0.4587 -0.5863 -0.1403
 6307TIP3   OH218884   0.588   1.765   4.330  0.7129  0.0534 -0.2931
 6307TIP3    H118885   0.619   1.839   4.383  1.9732  1.0623 -2.3091
 6307TIP3    H218886   0.631   1.689   4.370 -1.0366  0.2348  2.1570
 6308TIP3   OH218887   2.865   4.468   2.628 -0.3827 -0.0596  0.0909
 6308TIP3    H118888   2.900   4.382   2.648  1.0519  0.7853  1.4590
 6308TIP3    H218889   2.918   4.499   2.554  2.6776  1.5822  2.7114
 6309TIP3   OH218890   6.083   1.904   0.124 -0.0712 -0.1995 -0.2146
 6309TIP3    H118891   6.143   1.881   0.195 -0.3508 -1.1354 -0.2656
 6309TIP3    H218892   6.139   1.914   0.047 -0.1020 -3.0377 -0.7257
 6310TIP3   OH218893   0.677   2.955   4.190  0.3339  0.0899 -0.1080
 6310TIP3    H118894   0.665   3.032   4.245  0.3199  0.0760 -0.0918
 6310TIP3    H218895   0.626   2.887   4.234 -0.6641  0.3893 -0.7876
 6311TIP3   OH218896   6.493   5.456   4.177 -0.1920 -0.5880 -0.1352
 6311TIP3    H118897   6.550   5.379   4.176  1.7124  0.7486 -0.5405
 6311TIP3    H218898   6.525   5.509   4.250 -0.5750  0.4059 -0.6574
 6312TIP3   OH218899   1.044   2.288   4.347  0.5444 -0.7014 -0.0442
 6312TIP3    H118900   1.126   2.290   4.398  0.5756 -1.3332 -0.0636
 6312TIP3    H218901   1.038   2.198   4.315  0.7449 -0.2035 -1.5428
 6313TIP3   OH218902   3.412   3.276   2.990  0.3980 -0.3565  0.0018
 6313TIP3    H118903   3.488   3.307   2.941  1.0192 -1.4065  0.2690
 6313TIP3    H218904   3.409   3.331   3.068 -0.5768  1.3005 -1.1498
 6314TIP3   OH218905   6.284   4.385   3.366  0.0055  0.1000  0.1181
 6314TIP3    H118906   6.218   4.428   3.313  0.6648 -1.8223 -2.4768
 6314TIP3    H218907   6.361   4.378   3.308  0.4426 -2.9808  0.8634
 6315TIP3   OH218908   0.301   5.618   2.295  1.1403 -0.1727 -0.2274
 6315TIP3    H118909   0.315   5.674   2.218  1.9384 -0.8297 -0.5877
 6315TIP3    H218910   0.230   5.559   2.269  0.0984  0.8357  0.2602
 6316TIP3   OH218911   5.645   6.047   3.969  0.1929  0.0582  0.1116
 6316TIP3    H118912   5.723   5.999   3.996  0.3323  0.5998  0.7060
 6316TIP3    H218913   5.574   5.983   3.975  0.7719 -0.8133 -1.7142
 6317TIP3   OH218914   5.833   6.614   4.151 -0.2199  0.0631  0.5498
 6317TIP3    H118915   5.831   6.610   4.055  0.2358  0.2543  0.5269
 6317TIP3    H218916   5.813   6.525   4.180 -3.9314  0.6967  0.3694
 6318TIP3   OH218917   5.427   1.020   2.850 -0.1400 -0.4832  0.4073
 6318TIP3    H118918   5.371   0.954   2.891 -0.0740 -1.5242 -1.0985
 6318TIP3    H218919   5.516   0.993   2.873 -0.1497  1.1296  2.7376
 6319TIP3   OH218920   4.311   3.774   0.513  0.5678  0.5375 -0.1330
 6319TIP3    H118921   4.261   3.733   0.442 -1.8844  0.8526  1.2844
 6319TIP3    H218922   4.369   3.704   0.544 -0.9001 -0.7517 -0.1497
 6320TIP3   OH218923   3.674   6.437   0.723 -0.2857  0.4268  0.2429
 6320TIP3    H118924   3.753   6.480   0.757  0.1044  0.0391 -0.1545
 6320TIP3    H218925   3.629   6.505   0.673  0.1961  0.4450 -0.1714
 6321TIP3   OH218926   4.094   1.628   2.084 -0.0790  0.0396  0.1776
 6321TIP3    H118927   4.082   1.535   2.061 -0.7437 -0.5916  2.7319
 6321TIP3    H218928   4.143   1.664   2.011  0.4913 -2.4145 -0.7641
 6322TIP3   OH218929   0.655   2.618   1.275 -0.0050 -0.0489 -0.3976
 6322TIP3    H118930   0.671   2.581   1.362  2.3681 -0.9369 -1.1512
 6322TIP3    H218931   0.603   2.552   1.230  0.7626 -0.6442 -0.4163
 6323TIP3   OH218932   6.417   4.175   5.200  0.1046 -0.5167 -0.7360
 6323TIP3    H118933   6.394   4.227   5.123  2.0013  2.0309  0.2499
 6323TIP3    H218934   6.505   4.142   5.182  0.3472 -0.3513  0.0772
 6324TIP3   OH218935   3.008   5.440   5.603 -0.3631 -0.1207 -0.1433
 6324TIP3    H118936   3.001   5.406   5.692  0.2815 -2.5291 -0.9410
 6324TIP3    H218937   2.951   5.517   5.602 -0.8326 -0.3701  2.1668
 6325TIP3   OH218938   3.243   2.143   5.249  0.3763 -0.8560  0.0921
 6325TIP3    H118939   3.205   2.149   5.162  0.6072  0.8309  0.0743
 6325TIP3    H218940   3.236   2.050   5.272  1.4488 -1.5693 -2.2057
 6326TIP3   OH218941   7.137   4.026   2.557  0.1231  0.1721 -0.4689
 6326TIP3    H118942   7.079   4.033   2.481  1.7798 -0.3253 -1.8399
 6326TIP3    H218943   7.115   3.941   2.596 -0.7745  0.4562 -0.3266
 6327TIP3   OH218944   5.269   4.626   5.287 -0.3525 -0.0423  0.0909
 6327TIP3    H118945   5.361   4.609   5.305 -0.3030 -0.9762 -0.9024
 6327TIP3    H218946   5.250   4.575   5.208 -1.3805  1.1664 -0.4904
 6328TIP3   OH218947   6.772   2.111   2.892 -0.5635 -0.4957 -0.2301
 6328TIP3    H118948   6.703   2.151   2.944 -1.0900  0.0408 -1.3230
 6328TIP3    H218949   6.853   2.131   2.939 -0.8727  1.3227 -0.4194
 6329TIP3   OH218950   3.293   3.840   5.751  0.1604 -0.4497 -0.0549
 6329TIP3    H118951   3.240   3.919   5.744 -2.1173 -1.8463  0.4382
 6329TIP3    H218952   3.372   3.868   5.796  0.5269  2.0045 -1.9866
 6330TIP3   OH218953   2.867   4.881   0.290 -0.4172 -0.0086 -0.5358
 6330TIP3    H118954   2.845   4.853   0.379  2.1458  0.7659  0.4131
 6330TIP3    H218955   2.866   4.976   0.294  0.6787  0.0352 -1.0430
 6331TIP3   OH218956   5.614   2.709   1.129 -0.0240  0.1263 -0.1790
 6331TIP3    H118957   5.611   2.772   1.057  0.6480  0.5714  0.1685
 6331TIP3    H218958   5.557   2.747   1.196 -0.8493 -0.4132 -0.5668
 6332TIP3   OH218959   2.186   3.018   0.369  0.3223 -0.0694 -0.7738
 6332TIP3    H118960   2.178   3.047   0.460 -1.8659 -1.5454 -0.4332
 6332TIP3    H218961   2.159   2.927   0.370  0.2121 -0.1141 -2.9261
 6333TIP3   OH218962   1.270   6.681   0.865 -0.0904  0.0107  0.8610
 6333TIP3    H118963   1.217   6.736   0.807  1.0184  0.6523  0.4123
 6333TIP3    H218964   1.329   6.742   0.909  0.7827 -0.7542  0.7908
 6334TIP3   OH218965   6.215   1.541   1.473  0.0892 -0.0014  0.7036
 6334TIP3    H118966   6.134   1.491   1.474 -0.6734  1.0650 -1.5696
 6334TIP3    H218967   6.187   1.632   1.473  1.2617  0.3845 -0.1626
 6335TIP3   OH218968   0.543   6.087   2.972  0.9146 -0.2511 -0.0067
 6335TIP3    H118969   0.475   6.151   2.951  0.6374  0.2826  2.2362
 6335TIP3    H218970   0.615   6.138   3.009  0.7014 -1.1812  1.8112
 6336TIP3   OH218971   4.907   2.329   0.483  0.3637 -0.0952  0.2279
 6336TIP3    H118972   4.889   2.236   0.466 -0.7131  0.2873 -0.8392
 6336TIP3    H218973   4.866   2.345   0.568  0.1061 -0.4781  0.1811
 6337TIP3   OH218974   5.513   1.610   1.598 -0.2821 -0.4271  0.2656
 6337TIP3    H118975   5.505   1.700   1.567 -1.6281 -0.9797 -1.1382
 6337TIP3    H218976   5.584   1.613   1.661  2.7947  0.8164 -2.9121
 6338TIP3   OH218977   5.915   5.991   1.981  0.0398  0.4070 -0.4219
 6338TIP3    H118978   5.957   6.052   1.921  0.3720 -0.0818 -0.6885
 6338TIP3    H218979   5.866   6.047   2.041 -2.5617  0.8399 -2.7517
 6339TIP3   OH218980   1.840   2.135   1.411 -0.1741  0.4069  0.0594
 6339TIP3    H118981   1.812   2.115   1.501  1.4310  0.3502  0.5684
 6339TIP3    H218982   1.789   2.212   1.387 -0.3376  0.6574  1.1622
 6340TIP3   OH218983   0.901   4.553   5.066 -0.7557 -0.4242  0.4732
 6340TIP3    H118984   0.904   4.601   5.149 -1.8749  1.1641 -0.3337
 6340TIP3    H218985   0.825   4.590   5.020 -0.2798 -1.3918 -1.1793
 6341TIP3   OH218986   5.240   5.404   5.610 -0.1674 -0.2662 -0.1627
 6341TIP3    H118987   5.251   5.481   5.553 -1.7204  0.3046  0.2620
 6341TIP3    H218988   5.249   5.439   5.698 -0.9255 -0.5587  0.0338
 6342TIP3   OH218989   6.887   0.627   3.812 -0.1012 -0.4300  0.2129
 6342TIP3    H118990   6.895   0.681   3.890  1.1531  0.5138 -0.5216
 6342TIP3    H218991   6.800   0.648   3.776  0.6112  1.6699 -0.4219
 6343TIP3   OH218992   6.703   1.982   5.025 -0.0224  0.2297 -0.1102
 6343TIP3    H118993   6.738   1.896   4.999 -2.3854 -1.1806  1.0371
 6343TIP3    H218994   6.639   2.003   4.957  1.0871  1.5623 -0.8183
 6344TIP3   OH218995   5.296   1.868   0.729 -0.3662 -0.0007 -0.9177
 6344TIP3    H118996   5.360   1.926   0.769  0.0798 -2.4086  2.2880
 6344TIP3    H218997   5.215   1.920   0.726  0.4983  1.4517 -0.2477
 6345TIP3   OH218998   5.951   3.792   5.887 -0.8226  0.1787 -0.1842
 6345TIP3    H118999   5.926   3.879   5.857  1.8144  0.8588 -0.6211
 6345TIP3    H219000   5.942   3.736   5.810 -2.9272 -0.1099  0.1978
 6346TIP3   OH219001   6.406   3.197   4.953  0.3206  0.1120  0.2489
 6346TIP3    H119002   6.467   3.130   4.983 -1.6057 -1.5243  0.7127
 6346TIP3    H219003   6.452   3.240   4.880  2.0568 -0.9213  0.6733
 6347TIP3   OH219004   1.380   6.817   1.654  0.5824  0.2172  0.0742
 6347TIP3    H119005   1.472   6.839   1.668  1.1510 -0.8525 -1.6398
 6347TIP3    H219006   1.377   6.722   1.660 -0.1560  0.1411 -1.1037
 6348TIP3   OH219007   0.016   6.703   2.768 -0.2918 -0.4074  0.7709
 6348TIP3    H119008   0.049   6.615   2.748  1.9826  0.5827 -0.2666
 6348TIP3    H219009   0.081   6.739   2.829  0.7193  1.6555 -1.3724
 6349TIP3   OH219010   4.443   2.059   2.770 -0.2713 -0.2480 -0.2800
 6349TIP3    H119011   4.361   2.096   2.802 -0.0695 -0.5867  0.6559
 6349TIP3    H219012   4.503   2.063   2.844  1.0162  1.2561 -1.3350
 6350TIP3   OH219013   5.144   3.062   1.944 -0.0527  0.2354 -0.5216
 6350TIP3    H119014   5.164   2.971   1.920  0.3281  0.0589  0.4123
 6350TIP3    H219015   5.052   3.059   1.970  0.1956 -0.0939  0.3829
 6351TIP3   OH219016   4.860   1.737   2.044 -0.1072  0.0941 -0.2024
 6351TIP3    H119017   4.793   1.803   2.025 -0.2258  0.4690  1.4199
 6351TIP3    H219018   4.817   1.654   2.028 -0.5645  0.3592 -0.3757
 6352TIP3   OH219019   5.420   5.379   2.602 -0.2559  0.1508 -0.3768
 6352TIP3    H119020   5.379   5.465   2.611 -0.5683  0.0055 -0.3995
 6352TIP3    H219021   5.483   5.375   2.674  0.5425  0.8299 -1.0056
 6353TIP3   OH219022   3.016   1.805   2.895 -0.1365 -0.2834  0.5690
 6353TIP3    H119023   2.988   1.887   2.935  2.4117  0.8278  0.2931
 6353TIP3    H219024   2.957   1.792   2.821 -1.4230  0.5696  1.4132
 6354TIP3   OH219025   4.734   2.840   4.224  0.7978 -0.0267  0.7186
 6354TIP3    H119026   4.767   2.751   4.242  1.3097 -0.3557 -1.5677
 6354TIP3    H219027   4.668   2.828   4.155 -0.1358  1.2486  1.3442
 6355TIP3   OH219028   4.447   2.029   4.855  0.6182 -0.5584  0.2154
 6355TIP3    H119029   4.434   2.091   4.927  0.0738 -0.0947 -0.2658
 6355TIP3    H219030   4.498   2.079   4.790 -1.0269 -0.1025 -0.7894
 6356TIP3   OH219031   1.804   4.052   0.085  0.2765  0.6837 -0.4658
 6356TIP3    H119032   1.842   3.967   0.065  1.0434  0.5087  1.4912
 6356TIP3    H219033   1.711   4.034   0.101 -0.1533  0.6902 -2.6747
 6357TIP3   OH219034   1.211   5.547   1.619 -0.3990  0.1978 -0.2536
 6357TIP3    H119035   1.277   5.530   1.552 -0.5487 -0.0555 -0.3372
 6357TIP3    H219036   1.146   5.603   1.575 -0.1371  0.6248 -0.1099
 6358TIP3   OH219037   3.310   1.356   0.986 -0.1061 -0.0583 -0.0691
 6358TIP3    H119038   3.365   1.434   0.980 -0.1780  0.0085  0.1343
 6358TIP3    H219039   3.220   1.390   0.991 -0.3253 -0.1981 -2.1203
 6359TIP3   OH219040   3.565   6.619   2.231 -0.0736 -0.0519  0.3988
 6359TIP3    H119041   3.594   6.706   2.203 -0.0058  0.0556  0.7937
 6359TIP3    H219042   3.569   6.566   2.152 -0.6032  0.4274  0.0415
 6360TIP3   OH219043   0.993   5.016   0.171  0.0031 -0.3948  0.4623
 6360TIP3    H119044   0.970   4.927   0.196 -0.9291 -0.5908 -0.9724
 6360TIP3    H219045   0.911   5.064   0.174 -0.1210 -0.3651 -1.7711
 6361TIP3   OH219046   2.459   3.248   0.749  0.3063 -0.9726  0.2207
 6361TIP3    H119047   2.385   3.272   0.804 -1.0213 -1.1622 -1.4094
 6361TIP3    H219048   2.466   3.153   0.758  0.7644 -0.8891  0.8398
 6362TIP3   OH219049   6.642   5.232   5.691 -0.0307  0.5406  0.0367
 6362TIP3    H119050   6.547   5.236   5.681  0.0992  1.7119 -0.9606
 6362TIP3    H219051   6.657   5.156   5.748 -1.4824 -0.3893 -0.7570
 6363TIP3   OH219052   6.142   5.341   3.186  0.0539  0.2234  0.6866
 6363TIP3    H119053   6.127   5.272   3.122  0.2851 -0.2248  1.1054
 6363TIP3    H219054   6.059   5.350   3.233 -0.4702  1.3298 -0.3968
 6364TIP3   OH219055   1.771   4.508   4.559 -0.1682 -0.2663  0.1668
 6364TIP3    H119056   1.719   4.574   4.514 -0.1371  0.8423  1.6697
 6364TIP3    H219057   1.862   4.533   4.542 -0.1470 -0.4490  0.0066
 6365TIP3   OH219058   5.254   1.093   3.187  0.0128  0.0392 -0.1288
 6365TIP3    H119059   5.159   1.100   3.178 -0.2490  0.7762  2.4098
 6365TIP3    H219060   5.288   1.169   3.140 -0.4791 -1.1037 -2.4672
 6366TIP3   OH219061   0.532   3.867   0.356  0.2136  0.2816  0.5109
 6366TIP3    H119062   0.528   3.842   0.448  2.0494 -0.6350  0.3810
 6366TIP3    H219063   0.552   3.785   0.310  0.3884  0.9187 -0.5860
 6367TIP3   OH219064   5.620   4.165   4.946 -0.4481 -0.0998 -0.0343
 6367TIP3    H119065   5.664   4.247   4.920  0.9688 -0.8715 -0.1855
 6367TIP3    H219066   5.602   4.176   5.039  1.7965 -0.4749  0.4894
 6368TIP3   OH219067   4.176   0.927   3.291  0.2488 -0.3542 -0.0136
 6368TIP3    H119068   4.259   0.893   3.255  1.3664  0.5894  1.5546
 6368TIP3    H219069   4.164   1.011   3.247  1.0599  0.3079  0.9891
 6369TIP3   OH219070   5.155   3.676   0.868 -0.5057 -0.4601  0.5379
 6369TIP3    H119071   5.167   3.676   0.773 -1.5322 -0.6362  0.4042
 6369TIP3    H219072   5.233   3.721   0.902  0.4088 -1.3446 -0.3082
 6370TIP3   OH219073   6.471   3.496   1.718 -0.6073 -0.2399 -0.0782
 6370TIP3    H119074   6.467   3.471   1.626 -0.4455  0.4547 -0.2824
 6370TIP3    H219075   6.537   3.566   1.721  0.9590 -1.6898  0.9151
 6371TIP3   OH219076   4.939   3.268   2.681  0.0869  0.2559  0.1781
 6371TIP3    H119077   5.024   3.299   2.649  0.2730 -0.2487  0.1803
 6371TIP3    H219078   4.947   3.271   2.776 -0.8385  2.7969  0.2468
 6372TIP3   OH219079   1.609   3.093   1.080 -0.0056 -0.3079 -0.3114
 6372TIP3    H119080   1.525   3.132   1.102 -0.7758 -1.7909 -0.5123
 6372TIP3    H219081   1.674   3.156   1.113 -1.1469  1.5500 -1.3976
 6373TIP3   OH219082   5.154   6.112   5.862  0.4421 -0.1182  0.8250
 6373TIP3    H119083   5.164   6.207   5.864 -0.5780  0.0219  0.0018
 6373TIP3    H219084   5.235   6.080   5.823  0.0396  0.5604 -0.6117
 6374TIP3   OH219085   4.262   6.572   4.876 -0.7478 -0.4246  0.2567
 6374TIP3    H119086   4.181   6.598   4.920 -0.3762  0.2807  0.5356
 6374TIP3    H219087   4.309   6.520   4.942 -1.7945 -2.4980 -0.5196
 6375TIP3   OH219088   3.135   5.685   2.242  0.3119  0.0147  0.1072
 6375TIP3    H119089   3.224   5.662   2.216  0.5508  1.2755 -0.2677
 6375TIP3    H219090   3.097   5.603   2.272  1.8147 -0.4292  0.9028
 6376TIP3   OH219091   3.195   4.692   5.117  0.0785 -0.2480  0.1296
 6376TIP3    H119092   3.174   4.616   5.171  0.5636 -0.3680  0.1535
 6376TIP3    H219093   3.256   4.743   5.170 -0.8304  0.5571  0.4318
 6377TIP3   OH219094   2.922   3.690   0.770  0.6162 -0.5538  0.1602
 6377TIP3    H119095   2.926   3.612   0.713  2.1724 -0.3900 -0.0075
 6377TIP3    H219096   2.839   3.732   0.747  1.1167 -0.5641 -1.9493
 6378TIP3   OH219097   7.045   2.976   4.205 -0.6581  0.3929  0.1711
 6378TIP3    H119098   7.057   3.065   4.238  0.1573 -0.0824  1.2193
 6378TIP3    H219099   6.959   2.950   4.239 -0.5495  0.4966  0.5342
 6379TIP3   OH219100   4.626   4.945   1.082  0.5130 -0.2410 -0.3270
 6379TIP3    H119101   4.637   5.018   1.143 -0.3503  0.0142 -0.4647
 6379TIP3    H219102   4.617   4.868   1.139 -2.1418  0.2144  0.0092
 6380TIP3   OH219103   1.143   4.776   3.467 -0.3928  0.0356  0.0331
 6380TIP3    H119104   1.162   4.795   3.559  0.3513 -1.7305  0.2977
 6380TIP3    H219105   1.093   4.694   3.470  1.0089 -0.9042 -1.1885
 6381TIP3   OH219106   1.380   0.930   1.347 -0.0140  0.2240  0.1861
 6381TIP3    H119107   1.435   0.988   1.295  0.5945 -0.7406 -0.2824
 6381TIP3    H219108   1.291   0.946   1.316  0.4919 -1.9096 -2.8778
 6382TIP3   OH219109   4.962   1.551   3.123  0.0403  0.6995  0.0201
 6382TIP3    H119110   4.912   1.520   3.047 -0.3328 -1.3639  1.0231
 6382TIP3    H219111   4.904   1.613   3.166 -0.0025  1.4023 -1.0136
 6383TIP3   OH219112   2.189   1.737   3.905 -0.4200  0.2922  0.2566
 6383TIP3    H119113   2.158   1.745   3.994  0.4295  1.7931  0.4566
 6383TIP3    H219114   2.171   1.822   3.865  2.2740  0.8610  0.0654
 6384TIP3   OH219115   0.415   6.148   0.061 -0.1249  0.0229  0.3569
 6384TIP3    H119116   0.433   6.128  -0.030  1.2244 -0.1055  0.6265
 6384TIP3    H219117   0.327   6.187   0.061 -0.1135  0.0772 -0.9873
 6385TIP3   OH219118   3.087   0.272   2.447  0.0918  0.2083 -0.6977
 6385TIP3    H119119   3.117   0.192   2.403 -0.5753  0.3749 -1.4983
 6385TIP3    H219120   3.022   0.241   2.510  0.6772  0.0166 -0.1788
 6386TIP3   OH219121   3.041   1.161   1.793  0.4825  0.9055 -0.5743
 6386TIP3    H119122   3.013   1.233   1.851  0.7416  1.0368 -0.6082
 6386TIP3    H219123   3.100   1.109   1.848 -0.7280 -0.0413 -0.1251
 6387TIP3   OH219124   4.138   2.721   5.743 -0.4062  0.4397  0.5551
 6387TIP3    H119125   4.129   2.816   5.754 -0.6437  0.4407  0.3456
 6387TIP3    H219126   4.064   2.696   5.688 -1.6054 -0.1962  2.3851
 6388TIP3   OH219127   2.441   0.781   1.988 -0.0702  0.3016  0.4939
 6388TIP3    H119128   2.358   0.737   1.972 -0.6580  1.0349  1.4446
 6388TIP3    H219129   2.439   0.857   1.931  1.7913 -1.7751 -2.6604
 6389TIP3   OH219130   0.447   3.872   3.221  0.2113  0.6008 -0.2321
 6389TIP3    H119131   0.483   3.950   3.263  0.6509  0.6427 -0.6686
 6389TIP3    H219132   0.465   3.885   3.128 -1.6939  1.0102 -0.5868
 6390TIP3   OH219133   4.711   4.097   4.885 -0.5686 -0.0820 -0.1089
 6390TIP3    H119134   4.623   4.060   4.875 -0.5710 -0.4442  1.0434
 6390TIP3    H219135   4.770   4.030   4.850 -0.7130 -0.1727 -0.1789
 6391TIP3   OH219136   2.966   5.836   4.086 -0.5394  0.0800  0.5438
 6391TIP3    H119137   3.029   5.884   4.031  0.2330  0.2780  1.5728
 6391TIP3    H219138   2.915   5.904   4.130 -0.4382 -0.0573  0.8755
 6392TIP3   OH219139   1.208   1.760   0.355 -0.5704 -0.3606 -0.2212
 6392TIP3    H119140   1.179   1.753   0.264  0.2640  1.1147 -0.6389
 6392TIP3    H219141   1.150   1.826   0.393  0.7923  1.0371 -0.4713
 6393TIP3   OH219142   1.075   5.338   0.578  0.1860  0.4926 -0.2035
 6393TIP3    H119143   1.079   5.273   0.649 -2.5586 -0.8122 -1.0759
 6393TIP3    H219144   1.086   5.287   0.498  0.8182  1.5699 -0.8251
 6394TIP3   OH219145   1.877   5.774   0.007  0.0343 -0.5314  0.3090
 6394TIP3    H119146   1.920   5.827   0.074 -0.9730 -0.2202  0.7305
 6394TIP3    H219147   1.931   5.696  -0.001  0.4121 -0.3653  1.1566
 6395TIP3   OH219148   0.374   6.663   1.401  0.0932  0.1681  0.6145
 6395TIP3    H119149   0.430   6.677   1.325  1.3230 -0.5341  1.3604
 6395TIP3    H219150   0.334   6.577   1.385  0.4390 -0.0305  0.8063
 6396TIP3   OH219151   0.909   3.281   1.327 -0.2800  0.0093  0.1245
 6396TIP3    H119152   0.940   3.349   1.267 -0.7394 -0.1199 -0.2670
 6396TIP3    H219153   0.895   3.205   1.270 -1.1039  0.0031  0.3368
 6397TIP3   OH219154   1.838   4.367   1.172 -0.2272 -0.2946 -0.0126
 6397TIP3    H119155   1.858   4.280   1.138 -0.5497  0.3393 -1.9270
 6397TIP3    H219156   1.753   4.356   1.216  0.5710 -1.2974  1.3675
 6398TIP3   OH219157   4.412   1.927   3.347  0.5538 -0.0513  0.2452
 6398TIP3    H119158   4.493   1.972   3.323  2.1106 -2.4033  0.7299
 6398TIP3    H219159   4.390   1.874   3.270  1.2163 -1.6785  1.1127
 6399TIP3   OH219160   3.103   2.916   2.915 -0.1888  0.0955  0.0474
 6399TIP3    H119161   3.143   2.830   2.916  1.4992  0.8213 -1.0366
 6399TIP3    H219162   3.128   2.956   2.999 -1.4357 -0.6246  0.7951
 6400TIP3   OH219163   1.924   6.570   1.381  0.1784  0.4975 -0.3833
 6400TIP3    H119164   1.855   6.574   1.315  0.2045  1.9619 -0.3389
 6400TIP3    H219165   1.934   6.476   1.399 -1.6753  0.2393 -0.5179
 6401TIP3   OH219166   5.216   2.805   1.848  0.4634 -0.5449 -0.2748
 6401TIP3    H119167   5.239   2.765   1.764  0.2046 -1.2954  0.0004
 6401TIP3    H219168   5.148   2.747   1.883 -0.4041  0.5189 -0.1692
 6402TIP3   OH219169   5.548   3.385   5.124 -0.1915 -0.2012 -0.2091
 6402TIP3    H119170   5.604   3.328   5.073  1.0839  1.1998 -0.4403
 6402TIP3    H219171   5.601   3.411   5.199 -0.1357  1.8751 -0.8988
 6403TIP3   OH219172   5.367   2.253   3.462 -0.4153  0.2402  0.0345
 6403TIP3    H119173   5.324   2.338   3.474  0.5093  0.8734 -0.9121
 6403TIP3    H219174   5.383   2.222   3.552  0.7298  1.8850  0.4531
 6404TIP3   OH219175   5.363   4.967   0.176  0.1337 -0.1299 -0.3023
 6404TIP3    H119176   5.289   4.911   0.198 -0.9732  0.7761 -1.5673
 6404TIP3    H219177   5.438   4.907   0.171  0.0081 -0.7651  3.1458
 6405TIP3   OH219178   4.676   5.183   4.951  0.1075 -0.0918  0.5343
 6405TIP3    H119179   4.769   5.186   4.973  0.1594  0.6132  0.2328
 6405TIP3    H219180   4.661   5.091   4.927  0.6181 -0.3083  1.0131
 6406TIP3   OH219181   6.556   3.541   2.104  0.3462  0.1728 -0.2929
 6406TIP3    H119182   6.593   3.453   2.099  0.9577  0.1329  2.8080
 6406TIP3    H219183   6.470   3.530   2.144 -0.4172  0.8599 -1.6608
 6407TIP3   OH219184   3.196   2.136   1.624  0.4032 -0.7800  0.1900
 6407TIP3    H119185   3.169   2.158   1.535 -2.2404 -0.8997  0.8770
 6407TIP3    H219186   3.152   2.201   1.679  1.1049 -1.3717  1.4917
 6408TIP3   OH219187   6.183   6.643   1.766 -0.3494  0.0160  0.2157
 6408TIP3    H119188   6.249   6.641   1.836  0.8193 -0.2198 -0.8561
 6408TIP3    H219189   6.215   6.710   1.705 -0.4543 -0.9361 -0.9188
 6409TIP3   OH219190   3.619   0.826   1.712 -0.0704 -0.3590 -0.6002
 6409TIP3    H119191   3.635   0.829   1.806 -1.8739 -0.3498 -0.2538
 6409TIP3    H219192   3.706   0.827   1.672  0.7173 -0.3096  1.0580
 6410TIP3   OH219193   0.027   3.913   1.087 -0.5178 -0.0615  0.0563
 6410TIP3    H119194   0.057   3.838   1.036 -0.8389 -0.3594  0.2980
 6410TIP3    H219195  -0.022   3.874   1.159  0.7666  0.2942  1.1698
 6411TIP3   OH219196   4.815   0.275   4.291  0.2797  0.3365 -0.3401
 6411TIP3    H119197   4.879   0.295   4.222  0.8694  1.2109  0.4447
 6411TIP3    H219198   4.773   0.359   4.310 -0.1902  0.0144  0.0656
 6412TIP3   OH219199   2.208   6.735   1.751  0.2739  0.0746  0.3799
 6412TIP3    H119200   2.117   6.712   1.731  0.2634  0.7407 -0.4119
 6412TIP3    H219201   2.255   6.721   1.669  0.4076  2.0091  0.0710
 6413TIP3   OH219202   4.416   4.589   2.938  0.0881 -0.1129 -0.3567
 6413TIP3    H119203   4.346   4.543   2.893  0.2891 -0.5115 -0.2702
 6413TIP3    H219204   4.395   4.580   3.031  2.0364 -3.3027 -0.0665
 6414TIP3   OH219205   5.526   3.564   4.025  0.1377  0.0032 -0.5120
 6414TIP3    H119206   5.600   3.586   4.082  0.0687 -1.1312  0.0554
 6414TIP3    H219207   5.490   3.648   3.998  1.6308  0.5707 -0.7953
 6415TIP3   OH219208   5.286   0.838   3.015 -0.3616 -0.3852  0.5737
 6415TIP3    H119209   5.341   0.767   3.048  0.2916  0.7620  2.0586
 6415TIP3    H219210   5.274   0.896   3.090 -1.8070  0.5171 -0.3066
 6416TIP3   OH219211   3.864   1.315   4.692 -0.2844  0.2151  0.2742
 6416TIP3    H119212   3.841   1.373   4.620 -0.6262  2.2843  1.9660
 6416TIP3    H219213   3.791   1.253   4.697  0.1239 -0.4880 -1.6006
 6417TIP3   OH219214   6.975   5.482   1.264  0.7372 -0.3013 -0.1736
 6417TIP3    H119215   6.900   5.468   1.320  0.6600  0.4096 -0.0917
 6417TIP3    H219216   6.966   5.416   1.195  0.3147 -0.5449  0.1111
 6418TIP3   OH219217   2.545   0.295   1.603  0.4119 -0.5901 -0.0203
 6418TIP3    H119218   2.458   0.329   1.582  1.5988  2.2546 -0.8057
 6418TIP3    H219219   2.570   0.244   1.526  0.3476  0.5704 -0.8340
 6419TIP3   OH219220   0.478   5.677   1.558 -0.2583  0.6070 -0.0374
 6419TIP3    H119221   0.417   5.693   1.630 -1.1242 -0.9376 -0.3895
 6419TIP3    H219222   0.449   5.594   1.520  0.1689  1.3878 -2.1898
 6420TIP3   OH219223   4.402   5.500   3.279  0.7178  0.0377 -0.4371
 6420TIP3    H119224   4.388   5.406   3.287  1.4291 -0.0461 -0.0590
 6420TIP3    H219225   4.457   5.510   3.200 -1.7603  0.4049 -2.2368
 6421TIP3   OH219226   5.273   3.324   5.863 -0.4346  0.1185 -0.3365
 6421TIP3    H119227   5.279   3.369   5.779  0.1484  0.3361 -0.1797
 6421TIP3    H219228   5.359   3.283   5.875 -0.9618 -1.1023 -0.5091
 6422TIP3   OH219229   1.706   6.372   2.149  0.3003 -0.1812 -0.0062
 6422TIP3    H119230   1.663   6.330   2.224 -2.0032  1.5019 -0.2913
 6422TIP3    H219231   1.747   6.299   2.102 -1.1963 -1.7596  0.9683
 6423TIP3   OH219232   3.646   3.674   4.091  0.3925  0.1141 -0.0123
 6423TIP3    H119233   3.731   3.633   4.109  0.9898  1.8269  1.4008
 6423TIP3    H219234   3.582   3.611   4.124  1.2382 -0.1776  1.1681
 6424TIP3   OH219235   6.393   5.266   5.642  0.0110  0.0467 -0.0466
 6424TIP3    H119236   6.372   5.312   5.561 -0.2897 -0.5275 -0.3000
 6424TIP3    H219237   6.413   5.177   5.615  3.4770  0.6310  0.0502
 6425TIP3   OH219238   1.485   2.071   3.722  0.3061 -0.7163  0.1802
 6425TIP3    H119239   1.398   2.109   3.731  0.1682 -1.2972  1.4529
 6425TIP3    H219240   1.469   1.978   3.704  0.6617 -0.8654  0.6272
 6426TIP3   OH219241   4.832   3.452   4.845 -0.0829 -0.7326 -0.2176
 6426TIP3    H119242   4.839   3.396   4.923  0.2688 -0.3828  0.0071
 6426TIP3    H219243   4.899   3.519   4.858 -1.2597  0.4180  0.0827
 6427TIP3   OH219244   6.125   4.201   4.050  0.0079  0.5975  0.3525
 6427TIP3    H119245   6.035   4.188   4.080  0.3535 -3.2533  0.2751
 6427TIP3    H219246   6.172   4.228   4.128 -0.8269  0.2561  0.9956
 6428TIP3   OH219247   0.932   5.824   1.358 -0.0360  0.4842  0.6441
 6428TIP3    H119248   0.965   5.824   1.268  0.6439  0.7185  0.8869
 6428TIP3    H219249   0.837   5.835   1.349  0.0959  1.1647 -0.0309
 6429TIP3   OH219250   1.156   4.047   5.640  0.5212  0.4068 -0.0425
 6429TIP3    H119251   1.187   4.033   5.551 -0.1783  0.6135 -0.3282
 6429TIP3    H219252   1.228   4.092   5.684  0.7953  0.4755 -0.5538
 6430TIP3   OH219253   5.333   2.634   0.412 -0.3307 -0.2022 -0.2602
 6430TIP3    H119254   5.295   2.547   0.399  0.1513 -0.3075 -1.0220
 6430TIP3    H219255   5.369   2.631   0.501 -1.0154 -0.5121  0.0140
 6431TIP3   OH219256   0.322   0.649   4.702  0.1573 -0.0916 -0.4090
 6431TIP3    H119257   0.236   0.651   4.660 -0.1089 -0.4542  0.1020
 6431TIP3    H219258   0.385   0.658   4.630 -0.3257  1.3325 -0.6687
 6432TIP3   OH219259   6.843   3.034   0.695  0.2197 -0.3158  0.1984
 6432TIP3    H119260   6.786   2.957   0.698  1.1802 -1.0259  1.2435
 6432TIP3    H219261   6.834   3.074   0.781  1.3788 -0.5332  0.4438
 6433TIP3   OH219262   3.655   6.764   0.155  0.7556  0.1641  0.1391
 6433TIP3    H119263   3.718   6.830   0.125  0.8642 -0.1930 -0.4336
 6433TIP3    H219264   3.593   6.756   0.083  0.5124 -0.0622  0.3737
 6434TIP3   OH219265   1.209   4.038   5.369 -0.0738  0.2174  0.4424
 6434TIP3    H119266   1.304   4.042   5.358 -0.0704  1.2888  0.7547
 6434TIP3    H219267   1.181   3.967   5.311  0.7007  1.2116 -1.2019
 6435TIP3   OH219268   1.077   5.792   2.428  0.6384 -0.4973  0.0606
 6435TIP3    H119269   1.017   5.721   2.402  0.6306 -0.9870  1.3391
 6435TIP3    H219270   1.159   5.770   2.384 -0.0794  0.1943 -1.7373
 6436TIP3   OH219271   5.084   4.688   0.613 -0.0645 -0.1385  0.1921
 6436TIP3    H119272   5.035   4.628   0.670 -0.9453  0.8104  0.4742
 6436TIP3    H219273   5.146   4.730   0.672  0.7659 -0.9763 -0.0667
 6437TIP3   OH219274   4.233   6.022   0.247  0.2335  0.4009  0.3411
 6437TIP3    H119275   4.240   5.942   0.195 -0.2532  0.9461 -0.5870
 6437TIP3    H219276   4.163   6.005   0.309 -0.2835  0.3250 -0.2584
 6438TIP3   OH219277   6.687   5.763   1.477  0.5582  0.5002  0.3522
 6438TIP3    H119278   6.601   5.773   1.436  0.5592 -0.9270 -0.0355
 6438TIP3    H219279   6.669   5.766   1.571  0.0467 -0.0890  0.2783
 6439TIP3   OH219280   4.672   3.751   3.800 -0.2061 -0.0430  0.1188
 6439TIP3    H119281   4.627   3.836   3.804 -0.0130  0.0454  0.4621
 6439TIP3    H219282   4.680   3.724   3.891  1.8656  0.6979  0.2138
 6440TIP3   OH219283   6.225   4.661   5.273  0.0113 -0.0453 -0.9710
 6440TIP3    H119284   6.184   4.674   5.358 -0.8226 -1.9743 -1.0426
 6440TIP3    H219285   6.291   4.730   5.268  0.0408  0.1491  1.2017
 6441TIP3   OH219286   7.188   3.027   4.893  0.5094  0.1270  0.5036
 6441TIP3    H119287   7.127   3.009   4.965  0.7562  1.9484  1.2014
 6441TIP3    H219288   7.244   3.098   4.925  1.0038  0.5956 -1.2819
 6442TIP3   OH219289   2.079   2.504   4.359  0.3263 -0.1255 -0.1085
 6442TIP3    H119290   2.089   2.598   4.347 -0.1394  0.0650  0.8413
 6442TIP3    H219291   2.058   2.494   4.452 -0.0272 -1.1340 -0.2794
 6443TIP3   OH219292   3.557   0.817   1.007  1.3385  0.0958 -0.3163
 6443TIP3    H119293   3.484   0.826   1.068  3.5806  1.0575  2.4391
 6443TIP3    H219294   3.517   0.823   0.920 -1.6226  2.4777  1.0483
 6444TIP3   OH219295   2.116   0.821   5.015 -0.8219 -0.6591  0.0240
 6444TIP3    H119296   2.085   0.732   5.029 -0.0768 -0.8148  0.7707
 6444TIP3    H219297   2.121   0.859   5.103  2.3341 -1.0800  0.1305
 6445TIP3   OH219298   0.403   5.486   3.959 -0.6534 -0.3088 -0.1932
 6445TIP3    H119299   0.376   5.577   3.950  0.7240 -0.0231 -1.9565
 6445TIP3    H219300   0.378   5.462   4.049 -2.1086  1.4121 -0.0938
 6446TIP3   OH219301   4.559   4.665   1.211 -0.1171 -0.0919 -0.0241
 6446TIP3    H119302   4.595   4.742   1.255 -1.5793  1.6739 -1.7055
 6446TIP3    H219303   4.615   4.592   1.239  1.0475  1.4720  2.0059
 6447TIP3   OH219304   6.962   2.853   1.513  0.2343  0.1204 -0.3968
 6447TIP3    H119305   6.942   2.776   1.461  0.2322  0.1722 -0.4736
 6447TIP3    H219306   6.921   2.925   1.465 -0.3862  0.0743  0.0543
 6448TIP3   OH219307   4.964   6.231   2.598  0.3753 -0.1034  0.1620
 6448TIP3    H119308   4.912   6.164   2.642  0.8142  0.4729  1.5946
 6448TIP3    H219309   4.941   6.313   2.642 -0.2020  0.7285 -1.6052
 6449TIP3   OH219310   1.862   2.351   4.298  0.2096  0.1397  0.1461
 6449TIP3    H119311   1.834   2.425   4.244  0.2327 -1.6883 -2.5476
 6449TIP3    H219312   1.953   2.372   4.321 -0.1789  1.5157  0.5595
 6450TIP3   OH219313   0.539   4.732   5.524 -0.0497  0.4388  0.6252
 6450TIP3    H119314   0.541   4.805   5.586 -2.0744  1.1181 -0.0135
 6450TIP3    H219315   0.551   4.774   5.438  2.6325 -0.4687  0.4840
 6451TIP3   OH219316   6.559   4.655   1.922 -0.4012 -0.0380  0.3744
 6451TIP3    H119317   6.484   4.647   1.864 -0.3625 -0.1695  0.3410
 6451TIP3    H219318   6.541   4.592   1.993 -0.4357  0.1014  0.4897
 6452TIP3   OH219319   6.114   0.884   3.082  0.1062 -0.1597 -0.1760
 6452TIP3    H119320   6.187   0.945   3.079  0.2805 -0.3814 -0.4715
 6452TIP3    H219321   6.121   0.833   3.001 -1.2640  0.8507 -0.9770
 6453TIP3   OH219322   5.939   0.869   4.062 -0.1225 -0.0867 -0.2255
 6453TIP3    H119323   6.018   0.899   4.017 -0.1471 -0.8361 -0.7972
 6453TIP3    H219324   5.893   0.949   4.087  0.1743  0.3458 -1.0365
 6454TIP3   OH219325   5.153   6.715   2.068  0.3403  0.2958 -0.6170
 6454TIP3    H119326   5.246   6.693   2.068  0.3137  0.1563 -1.2602
 6454TIP3    H219327   5.141   6.770   2.145  0.3198 -2.2930  1.4005
 6455TIP3   OH219328   1.053   0.972   5.321 -0.2617  0.6004  0.6390
 6455TIP3    H119329   1.018   1.060   5.313  0.2826  0.7392 -0.2283
 6455TIP3    H219330   0.982   0.922   5.364 -1.5546  0.8663 -1.0668
 6456TIP3   OH219331   3.228   6.117   1.867  0.2695 -0.0888 -0.3558
 6456TIP3    H119332   3.211   6.025   1.844 -1.8409  0.2816 -0.4654
 6456TIP3    H219333   3.219   6.164   1.784  0.6212  0.3038 -0.1742
 6457TIP3   OH219334   5.492   1.895   4.926 -0.1819 -0.1104  0.4412
 6457TIP3    H119335   5.546   1.848   4.990 -0.2114  0.2199  0.7157
 6457TIP3    H219336   5.494   1.986   4.956 -0.5959 -0.0351  0.2466
 6458TIP3   OH219337   1.070   2.021   4.337 -0.5606 -0.2480 -0.3171
 6458TIP3    H119338   1.148   2.035   4.392 -0.8039  0.7044 -0.1855
 6458TIP3    H219339   1.012   1.968   4.392  0.4988 -2.1093 -0.9130
 6459TIP3   OH219340   3.989   5.191   1.698 -0.2528 -0.0146  0.0978
 6459TIP3    H119341   4.007   5.116   1.642  2.2936 -1.5523  2.7586
 6459TIP3    H219342   4.075   5.226   1.721 -1.0990  0.2490  3.3455
 6460TIP3   OH219343   1.919   4.975   3.965  0.0865 -0.2075 -0.7752
 6460TIP3    H119344   1.934   5.044   4.029  0.8202 -1.5500  0.5514
 6460TIP3    H219345   1.958   4.896   4.004 -0.0870 -1.2251 -2.5510
 6461TIP3   OH219346   4.715   2.920   1.047  0.0274  0.1003  0.0814
 6461TIP3    H119347   4.654   2.977   1.095  0.1217 -0.5775  1.0376
 6461TIP3    H219348   4.673   2.834   1.050  0.7399 -0.2436  0.2117
 6462TIP3   OH219349   5.676   2.431   4.833 -0.8134 -0.2313  0.2154
 6462TIP3    H119350   5.644   2.482   4.907 -1.0906  0.1471 -0.1592
 6462TIP3    H219351   5.672   2.340   4.863 -3.7260 -0.3842 -0.3141
 6463TIP3   OH219352   6.420   0.506   5.535 -0.1771 -0.0383 -0.0100
 6463TIP3    H119353   6.401   0.441   5.602  2.9811  0.1197  1.2012
 6463TIP3    H219354   6.463   0.457   5.465 -0.2132  0.3453 -0.3079
 6464TIP3   OH219355   6.587   5.591   5.439  0.5863 -0.2444  0.2595
 6464TIP3    H119356   6.640   5.621   5.366 -0.3692  1.0630  0.0675
 6464TIP3    H219357   6.524   5.531   5.400 -0.7563  1.4307 -0.2694
 6465TIP3   OH219358   2.322   2.911   4.255 -0.0164 -0.2518 -0.4171
 6465TIP3    H119359   2.282   2.943   4.174 -1.2998 -1.0767 -0.1376
 6465TIP3    H219360   2.389   2.976   4.276  0.1914  0.0868 -2.0128
 6466TIP3   OH219361   3.430   0.811   4.882 -0.0271  0.3787 -0.1040
 6466TIP3    H119362   3.378   0.787   4.806  2.3812 -0.6576 -1.5447
 6466TIP3    H219363   3.519   0.823   4.848  1.2076 -0.2984  2.5563
 6467TIP3   OH219364   0.980   3.129   5.255  0.4197 -0.0758 -0.2338
 6467TIP3    H119365   0.996   3.223   5.254  0.5024 -0.0540  0.8641
 6467TIP3    H219366   1.002   3.103   5.345  0.4090 -1.1399 -0.5304
 6468TIP3   OH219367   7.139   3.811   4.303  0.9973  0.1462  0.7167
 6468TIP3    H119368   7.095   3.751   4.362  1.9362  0.6868  2.0072
 6468TIP3    H219369   7.168   3.757   4.229 -1.3628 -0.3037  0.0460
 6469TIP3   OH219370   2.433   5.798   4.958 -0.3363  0.5123 -0.3510
 6469TIP3    H119371   2.375   5.868   4.988 -0.8109  1.4894 -3.2624
 6469TIP3    H219372   2.491   5.840   4.895  1.6145 -1.0786  0.2962
 6470TIP3   OH219373   0.656   1.566   0.772  0.8193 -0.0932  0.1666
 6470TIP3    H119374   0.705   1.629   0.825 -0.3843  1.1925 -0.1539
 6470TIP3    H219375   0.569   1.563   0.813  0.7272 -1.2472 -0.0783
 6471TIP3   OH219376   5.728   2.532   3.847 -0.0431 -0.4344  0.5805
 6471TIP3    H119377   5.778   2.458   3.882 -0.7923 -1.0616  0.3619
 6471TIP3    H219378   5.694   2.501   3.763 -1.1298 -0.1818  0.9119
 6472TIP3   OH219379   3.005   3.605   5.527  0.2563  0.5242 -0.3077
 6472TIP3    H119380   3.004   3.511   5.545 -0.0310  0.3752 -1.0724
 6472TIP3    H219381   2.928   3.640   5.571  0.2186  0.3647 -0.2484
 6473TIP3   OH219382   1.056   0.183   3.837 -0.0491 -0.2826 -0.0591
 6473TIP3    H119383   1.050   0.100   3.789  0.0460 -0.6006  0.4653
 6473TIP3    H219384   0.993   0.173   3.909 -2.6017  1.4103 -1.8776
 6474TIP3   OH219385   2.069   1.193   0.364 -0.1228  0.1164  0.4742
 6474TIP3    H119386   1.991   1.219   0.315  0.1534  1.0355  0.5026
 6474TIP3    H219387   2.082   1.101   0.341 -1.3019 -0.0933  0.5912
 6475TIP3   OH219388   6.515   1.200   5.395  0.4280 -0.2842  0.1953
 6475TIP3    H119389   6.446   1.258   5.427  0.4912 -0.5396  0.8101
 6475TIP3    H219390   6.479   1.112   5.405 -0.6916 -0.3458 -3.0932
 6476TIP3   OH219391   1.618   4.405   2.186 -0.4176 -0.4435 -0.4520
 6476TIP3    H119392   1.569   4.380   2.108  2.0769 -1.4266 -1.8180
 6476TIP3    H219393   1.571   4.365   2.259 -1.7325 -1.1302 -1.6511
 6477TIP3   OH219394   2.279   5.139   1.242 -0.2572  0.0413 -0.7190
 6477TIP3    H119395   2.219   5.081   1.289  0.7877 -2.3721 -2.1964
 6477TIP3    H219396   2.235   5.157   1.159  0.8337 -1.4432 -1.6587
 6478TIP3   OH219397   6.345   2.474   3.704 -0.2464  0.6150  0.5006
 6478TIP3    H119398   6.267   2.495   3.755  0.1010 -0.8725  1.7683
 6478TIP3    H219399   6.413   2.533   3.738 -0.8131  2.0024 -0.6988
 6479TIP3   OH219400   4.696   5.714   3.391  0.4682 -0.2241  0.3692
 6479TIP3    H119401   4.629   5.740   3.455  3.5458  1.4285  3.2326
 6479TIP3    H219402   4.700   5.787   3.330 -0.6054 -0.5575 -0.1299
 6480TIP3   OH219403   4.831   3.574   5.410  0.2346 -0.8190 -0.2332
 6480TIP3    H119404   4.780   3.622   5.344 -0.1603 -0.5463  0.2548
 6480TIP3    H219405   4.888   3.516   5.360  0.9943  0.4282 -0.8666
 6481TIP3   OH219406   4.550   1.992   5.465  0.3950  0.0995  0.2384
 6481TIP3    H119407   4.507   1.964   5.384 -0.4358  1.2359  0.2602
 6481TIP3    H219408   4.630   1.940   5.468 -0.3705 -1.1948 -0.4405
 6482TIP3   OH219409   2.711   5.223   0.785 -0.0994 -0.0406  0.1899
 6482TIP3    H119410   2.655   5.231   0.862 -1.0820  1.0013 -0.6077
 6482TIP3    H219411   2.660   5.170   0.723  0.3457 -0.2034 -0.0445
 6483TIP3   OH219412   6.678   3.425   0.778 -0.3037  0.1445 -0.3708
 6483TIP3    H119413   6.716   3.470   0.703  1.0589 -1.1080 -0.4691
 6483TIP3    H219414   6.620   3.359   0.739  1.1703 -1.1835 -0.4046
 6484TIP3   OH219415   3.200   3.022   3.529  0.3860 -0.2225 -0.6111
 6484TIP3    H119416   3.168   3.091   3.471 -0.1187 -0.9801 -1.2496
 6484TIP3    H219417   3.273   3.063   3.576 -1.5270  1.5646  0.9488
 6485TIP3   OH219418   2.783   2.407   3.556 -0.2507  0.4661  0.1559
 6485TIP3    H119419   2.799   2.491   3.513  1.0029  0.4481  0.5350
 6485TIP3    H219420   2.760   2.347   3.485 -1.2595  1.1365 -0.1066
 6486TIP3   OH219421   3.840   0.122   2.661 -0.0406  0.2373 -0.3292
 6486TIP3    H119422   3.747   0.103   2.673  0.1511  0.1435  1.1469
 6486TIP3    H219423   3.870   0.153   2.746  1.4475 -0.3901 -0.5869
 6487TIP3   OH219424   1.078   1.373   2.377 -0.2732 -0.0924 -0.2214
 6487TIP3    H119425   1.089   1.296   2.433 -1.8725  1.3930  2.3357
 6487TIP3    H219426   1.151   1.430   2.400  0.3946 -0.4232 -1.4437
 6488TIP3   OH219427   0.171   5.008   1.521 -0.0381  0.2619  0.0320
 6488TIP3    H119428   0.172   4.960   1.604  2.0806  0.0281 -0.0934
 6488TIP3    H219429   0.259   5.042   1.512  0.0926 -0.6154 -2.6523
 6489TIP3   OH219430   2.172   1.659   0.721  0.0948  0.1374  0.2563
 6489TIP3    H119431   2.207   1.572   0.739 -1.0031 -0.4099 -0.1595
 6489TIP3    H219432   2.115   1.647   0.645  1.3709  1.5801 -1.0063
 6490TIP3   OH219433   0.620   4.203   1.376 -0.2209 -0.0533  0.0772
 6490TIP3    H119434   0.560   4.248   1.317  0.5022  0.6676 -0.1162
 6490TIP3    H219435   0.583   4.217   1.463 -0.7682 -0.3055 -0.1107
 6491TIP3   OH219436   2.586   0.803   2.746  0.5687  0.1322 -0.0003
 6491TIP3    H119437   2.625   0.717   2.731 -1.7381 -1.3815  1.8128
 6491TIP3    H219438   2.521   0.813   2.677  0.6304  0.3064 -0.0357
 6492TIP3   OH219439   4.536   5.629   5.511 -0.5495 -0.3366  0.0065
 6492TIP3    H119440   4.578   5.582   5.582  0.0201 -0.7088 -0.5663
 6492TIP3    H219441   4.545   5.571   5.435  0.1063  0.6454 -0.6952
 6493TIP3   OH219442   0.775   4.972   5.409 -0.5280  0.3654 -0.1262
 6493TIP3    H119443   0.796   5.018   5.490 -2.1984  2.3420 -0.7064
 6493TIP3    H219444   0.824   5.020   5.342  0.5748 -1.0410 -0.3783
 6494TIP3   OH219445   1.677   0.722   3.306  0.2340 -0.1211 -0.4920
 6494TIP3    H119446   1.708   0.710   3.216 -0.9943 -0.2024 -0.9328
 6494TIP3    H219447   1.724   0.657   3.357  0.9236 -0.0977 -1.0875
 6495TIP3   OH219448   6.546   6.154   1.479 -0.2477  0.0762 -0.5467
 6495TIP3    H119449   6.504   6.095   1.541  0.8923 -0.3174 -0.1213
 6495TIP3    H219450   6.579   6.096   1.410  0.0926  0.3136 -0.5847
 6496TIP3   OH219451   7.118   6.343   1.137 -0.0303 -0.8695  0.0715
 6496TIP3    H119452   7.109   6.248   1.129  0.0708 -0.8266 -0.5590
 6496TIP3    H219453   7.032   6.377   1.111 -0.9402 -0.8909  2.7242
 6497TIP3   OH219454   1.090   3.477   1.609 -0.5353 -0.0203 -0.4409
 6497TIP3    H119455   0.996   3.473   1.627 -0.6704 -2.7605 -1.3251
 6497TIP3    H219456   1.096   3.495   1.515 -0.2173 -0.6800 -0.5542
 6498TIP3   OH219457   5.147   3.457   2.676  0.4740  0.2540 -0.2813
 6498TIP3    H119458   5.230   3.416   2.702 -0.7491 -2.1365  0.1712
 6498TIP3    H219459   5.149   3.458   2.580  0.4396 -1.2275 -0.3239
 6499TIP3   OH219460   1.580   0.069   3.965 -0.2099 -0.2806  0.6267
 6499TIP3    H119461   1.529   0.038   4.040 -1.0416 -1.2756 -0.3121
 6499TIP3    H219462   1.668   0.036   3.981 -0.1175  0.4345  1.6819
 6500TIP3   OH219463   5.666   3.760   0.710  0.1734 -0.0505 -0.0446
 6500TIP3    H119464   5.751   3.733   0.744  1.2152  1.5682 -1.1736
 6500TIP3    H219465   5.686   3.798   0.624 -1.8753 -0.8478 -0.9325
 6501TIP3   OH219466   4.660   0.016   4.227  0.0252  0.4356  0.1422
 6501TIP3    H119467   4.742   0.062   4.243  0.2336  0.0861  0.1006
 6501TIP3    H219468   4.602   0.082   4.189  0.9960  0.1847 -1.9690
 6502TIP3   OH219469   3.211   6.467   0.348  0.0923 -0.0317  0.3506
 6502TIP3    H119470   3.302   6.498   0.354  0.4232 -0.9994  0.5589
 6502TIP3    H219471   3.210   6.387   0.401 -1.1446  0.5312  1.2235
 6503TIP3   OH219472   5.299   4.793   1.646  0.4893 -0.6382 -0.0810
 6503TIP3    H119473   5.392   4.776   1.633  0.3302 -2.4751  0.8447
 6503TIP3    H219474   5.255   4.725   1.596 -0.3634  0.1987 -0.4846
 6504TIP3   OH219475   4.854   0.928   0.237 -0.4316 -0.2297  0.1003
 6504TIP3    H119476   4.801   0.924   0.158 -1.5274  1.2770  0.7105
 6504TIP3    H219477   4.865   1.022   0.254  1.0378 -0.5233  0.9202
 6505TIP3   OH219478   2.135   5.451   0.903  0.2446  0.3339 -0.4864
 6505TIP3    H119479   2.171   5.460   0.815  0.8099  1.4884 -0.1696
 6505TIP3    H219480   2.042   5.431   0.890  0.6179 -0.9562 -1.3228
 6506TIP3   OH219481   6.393   2.923   4.737  0.2783 -0.0099  0.4753
 6506TIP3    H119482   6.409   2.838   4.696 -1.3002 -0.6287  1.0405
 6506TIP3    H219483   6.348   2.974   4.670  0.4462  0.0574  0.4160
 6507TIP3   OH219484   1.634   3.443   0.209 -0.1825 -0.1541  0.3203
 6507TIP3    H119485   1.619   3.364   0.259  0.7946  0.3261  1.3944
 6507TIP3    H219486   1.655   3.412   0.120 -2.3016 -0.9904  0.0591
 6508TIP3   OH219487   4.693   5.406   0.528 -0.1329  0.1568  0.1673
 6508TIP3    H119488   4.621   5.401   0.465  0.4415  0.1766 -0.5020
 6508TIP3    H219489   4.770   5.378   0.479  0.4161  0.6505  0.7264
 6509TIP3   OH219490   4.543   5.897   5.381  0.5829  0.2780 -0.2826
 6509TIP3    H119491   4.555   5.807   5.412  0.0459  0.5277  0.6937
 6509TIP3    H219492   4.473   5.892   5.317 -0.1901  0.1454  0.5539
 6510TIP3   OH219493   6.572   3.974   5.407  1.0646 -1.0001  0.3471
 6510TIP3    H119494   6.510   4.031   5.362  1.9106 -0.5954 -0.3217
 6510TIP3    H219495   6.647   4.029   5.426  1.5282 -1.6663  0.5002
 6511TIP3   OH219496   5.557   4.476   3.347  0.0818 -0.8559  0.1673
 6511TIP3    H119497   5.596   4.469   3.434  0.5036 -0.0347  0.0481
 6511TIP3    H219498   5.631   4.469   3.287 -0.0292  0.0881 -0.0823
 6512TIP3   OH219499   2.244   1.184   4.686 -0.6992 -0.0090 -0.0759
 6512TIP3    H119500   2.181   1.122   4.724 -0.2633 -1.0173 -0.9744
 6512TIP3    H219501   2.209   1.203   4.599 -0.4519  0.4701 -0.0721
 6513TIP3   OH219502   0.247   3.025   0.458  0.6091 -0.3725 -0.2606
 6513TIP3    H119503   0.176   2.961   0.469  0.6963 -1.3327 -3.8879
 6513TIP3    H219504   0.326   2.972   0.451  1.0205  0.3027 -0.8646
 6514TIP3   OH219505   1.976   3.653   2.031  0.1760  0.1707 -0.0646
 6514TIP3    H119506   1.939   3.636   2.118 -1.7411 -0.6892 -0.9927
 6514TIP3    H219507   1.918   3.718   1.992 -0.2882 -1.0316 -1.4837
 6515TIP3   OH219508   2.122   0.680   2.335  0.0481  0.0734 -0.5375
 6515TIP3    H119509   2.158   0.604   2.380  2.4839  2.3927  1.8244
 6515TIP3    H219510   2.188   0.705   2.271  0.1565  1.2288 -0.0003
 6516TIP3   OH219511   5.876   5.086   0.982 -0.2041  0.4332  0.2646
 6516TIP3    H119512   5.867   5.038   1.064  2.6791 -0.7721  0.0040
 6516TIP3    H219513   5.939   5.156   1.001  0.3322  0.2792 -0.8263
 6517TIP3   OH219514   1.887   5.962   1.254  0.5077 -0.1756 -0.0828
 6517TIP3    H119515   1.825   6.019   1.298  1.3715  0.2212  0.6354
 6517TIP3    H219516   1.896   5.887   1.312  0.5538 -0.3310 -0.2876
 6518TIP3   OH219517   3.184   2.286   5.702 -0.0103  0.5586  0.3082
 6518TIP3    H119518   3.275   2.283   5.732  1.3853  1.0719 -3.3605
 6518TIP3    H219519   3.156   2.195   5.702  0.5267  0.3781  1.3014
 6519TIP3   OH219520   5.360   5.373   1.866 -0.1435  0.5071 -0.3053
 6519TIP3    H119521   5.393   5.320   1.939 -0.6394 -0.7783 -0.9808
 6519TIP3    H219522   5.439   5.398   1.817  0.2074  1.5205  0.7315
 6520TIP3   OH219523   2.872   4.329   5.098 -0.1422  0.0040 -0.3089
 6520TIP3    H119524   2.867   4.423   5.081  0.7682  0.1548  0.2288
 6520TIP3    H219525   2.948   4.318   5.155 -0.9674 -0.9213  0.6672
 6521TIP3   OH219526   5.490   4.889   3.230 -0.1496 -0.2274  0.1927
 6521TIP3    H119527   5.474   4.935   3.147 -1.2383 -1.3695 -0.2509
 6521TIP3    H219528   5.422   4.921   3.289 -0.6006 -0.8827  0.0340
 6522TIP3   OH219529   2.962   4.138   0.099  0.6688  0.1264 -0.0381
 6522TIP3    H119530   2.901   4.113   0.030 -0.9761  1.0500  0.9867
 6522TIP3    H219531   2.994   4.224   0.073  0.3523  0.3001  0.1311
 6523TIP3   OH219532   3.627   6.517   3.063 -0.0634 -0.4832  0.3890
 6523TIP3    H119533   3.684   6.440   3.071 -1.9435 -1.9575  0.2025
 6523TIP3    H219534   3.599   6.516   2.972 -1.6772 -0.7957  0.8560
 6524TIP3   OH219535   4.837   5.344   3.853 -0.1246 -0.0254  0.4919
 6524TIP3    H119536   4.931   5.359   3.846 -0.2000  0.3771  0.3081
 6524TIP3    H219537   4.821   5.333   3.947  0.4493 -2.4695  0.3598
 6525TIP3   OH219538   2.929   3.301   2.321 -0.2147 -0.4305  0.0772
 6525TIP3    H119539   2.937   3.311   2.416 -4.5314 -1.5527  0.7819
 6525TIP3    H219540   2.898   3.387   2.290 -0.6645 -0.6048  0.0316
 6526TIP3   OH219541   0.502   0.542   5.013  0.5937  0.6117 -0.4051
 6526TIP3    H119542   0.527   0.493   5.091 -0.3704  0.7233 -0.0144
 6526TIP3    H219543   0.410   0.565   5.027  0.1869  0.0408 -1.8672
 6527TIP3   OH219544   0.360   6.431   0.332  0.2637  0.2595 -0.6629
 6527TIP3    H119545   0.339   6.423   0.425  3.0225  1.3899  0.1680
 6527TIP3    H219546   0.339   6.346   0.295  0.1810 -0.6044  1.2679
 6528TIP3   OH219547   6.792   3.846   4.780 -0.0485 -0.0075  0.1924
 6528TIP3    H119548   6.855   3.776   4.759  1.9514  1.8612 -0.4147
 6528TIP3    H219549   6.710   3.816   4.743  1.2401 -1.0936 -1.9888
 6529TIP3   OH219550   5.925   4.669   3.443 -0.0871 -0.3050 -0.5934
 6529TIP3    H119551   5.893   4.721   3.369  2.1200  1.8340 -0.1964
 6529TIP3    H219552   5.864   4.688   3.514 -0.9973 -0.6583 -1.2668
 6530TIP3   OH219553   3.397   1.620   0.869 -0.4588 -0.1079 -0.5074
 6530TIP3    H119554   3.343   1.692   0.903  0.2547  0.5200 -0.6527
 6530TIP3    H219555   3.366   1.607   0.780  0.2330  0.9113 -0.9274
 6531TIP3   OH219556   4.890   4.962   4.699 -0.3873 -0.1963  0.2742
 6531TIP3    H119557   4.949   4.978   4.772 -2.1930  2.1134  1.3877
 6531TIP3    H219558   4.835   4.889   4.728 -0.4576  0.0722  0.8414
 6532TIP3   OH219559   1.021   3.316   4.681  0.7303  0.1140  0.7879
 6532TIP3    H119560   1.000   3.299   4.773 -1.4742  1.2099  0.5422
 6532TIP3    H219561   0.943   3.358   4.645  2.4283  1.9843 -0.9897
 6533TIP3   OH219562   5.808   5.768   0.868 -0.3741 -0.8808  0.8473
 6533TIP3    H119563   5.800   5.768   0.964 -1.9712  1.0484  0.7721
 6533TIP3    H219564   5.718   5.762   0.836  0.2288 -4.4207 -0.6806
 6534TIP3   OH219565   2.538   4.752   5.584 -0.2604  0.5411 -0.2126
 6534TIP3    H119566   2.474   4.686   5.558  0.2823 -0.1000  0.0747
 6534TIP3    H219567   2.490   4.808   5.646 -0.1001 -0.8827  1.2655
 6535TIP3   OH219568   5.259   3.346   5.137  0.3264  0.3749  0.3036
 6535TIP3    H119569   5.265   3.267   5.084 -1.0231  0.4701 -0.0410
 6535TIP3    H219570   5.340   3.394   5.120  0.1268  0.1909 -1.3250
 6536TIP3   OH219571   5.060   4.086   3.576  0.4764  0.3211 -0.3698
 6536TIP3    H119572   5.060   4.072   3.481  0.8965 -0.2194 -0.2971
 6536TIP3    H219573   5.050   4.180   3.587 -2.3891  0.1848 -0.9109
 6537TIP3   OH219574   1.488   0.991   2.373 -0.2041  0.0331 -0.1522
 6537TIP3    H119575   1.578   1.021   2.387 -0.8244  1.7399  0.3868
 6537TIP3    H219576   1.483   0.908   2.421  0.5692  0.8652  1.4361
 6538TIP3   OH219577   5.270   4.036   4.416 -0.6561  0.0223  0.0383
 6538TIP3    H119578   5.250   3.946   4.442  1.3147 -1.0687 -1.9716
 6538TIP3    H219579   5.340   4.063   4.474 -0.1214 -0.3542 -0.4259
 6539TIP3   OH219580   5.336   6.734   3.372  0.0215  0.1882  0.8492
 6539TIP3    H119581   5.328   6.792   3.448  0.6955  0.6701  0.5696
 6539TIP3    H219582   5.424   6.751   3.338  0.3458 -1.2080  0.9210
 6540TIP3   OH219583   1.813   1.215   5.606  0.0719  0.8444 -0.2725
 6540TIP3    H119584   1.728   1.228   5.647  0.6376  1.0873  0.8753
 6540TIP3    H219585   1.869   1.181   5.676  0.1598 -2.3502 -1.7179
 6541TIP3   OH219586   1.832   2.474   0.500 -0.5151 -0.1639 -0.3177
 6541TIP3    H119587   1.837   2.378   0.503 -0.7367 -0.2119 -1.1545
 6541TIP3    H219588   1.869   2.497   0.415  0.9281  0.6054  0.4933
 6542TIP3   OH219589   3.093   2.243   2.533 -0.2287  0.0127 -0.4497
 6542TIP3    H119590   3.136   2.191   2.465  0.7998  0.2838 -0.0282
 6542TIP3    H219591   3.091   2.187   2.610 -1.3369 -0.2713 -0.6741
 6543TIP3   OH219592   1.353   3.305   3.949  0.2316 -0.4112 -0.1268
 6543TIP3    H119593   1.371   3.213   3.928 -0.5479 -0.8949  1.1884
 6543TIP3    H219594   1.258   3.309   3.955  0.3502 -0.3100  3.0045
 6544TIP3   OH219595   4.318   3.233   1.542  0.5129  0.2150  0.5579
 6544TIP3    H119596   4.395   3.177   1.555  1.3062  1.1454  0.0074
 6544TIP3    H219597   4.306   3.235   1.447 -1.1616 -1.1582  0.6838
 6545TIP3   OH219598   5.389   1.353   3.421 -0.5068  0.5976  0.4117
 6545TIP3    H119599   5.326   1.401   3.367 -0.2029  1.1508  0.5390
 6545TIP3    H219600   5.348   1.347   3.507 -1.6420 -1.5721 -0.2184
 6546TIP3   OH219601   5.569   1.108   2.223  0.0323  0.6547 -0.5159
 6546TIP3    H119602   5.508   1.127   2.151 -0.5804 -1.1812 -0.5341
 6546TIP3    H219603   5.652   1.090   2.180 -0.1505  0.2797 -0.7134
 6547TIP3   OH219604   6.637   0.227   5.616 -0.8085  0.0857  0.3266
 6547TIP3    H119605   6.636   0.249   5.522  0.1169  0.6829  0.4363
 6547TIP3    H219606   6.545   0.221   5.640 -1.0758  0.9600 -0.3992
 6548TIP3   OH219607   0.501   0.540   0.224 -0.2168 -0.2292 -0.0645
 6548TIP3    H119608   0.445   0.469   0.256 -0.6880 -0.2034 -0.8038
 6548TIP3    H219609   0.573   0.495   0.180 -1.2547 -0.2696 -1.7869
 6549TIP3   OH219610   0.346   2.544   5.003  0.0536 -0.5022  0.3137
 6549TIP3    H119611   0.351   2.535   4.907  0.4130 -0.6824  0.3487
 6549TIP3    H219612   0.278   2.610   5.017  0.4524  0.0052 -0.0867
 6550TIP3   OH219613   4.356   4.010   4.620 -0.9597 -0.5289 -0.0909
 6550TIP3    H119614   4.342   4.105   4.617  1.3267 -0.0173  2.3085
 6550TIP3    H219615   4.378   3.987   4.529 -1.5910  1.1810 -0.7362
 6551TIP3   OH219616   3.434   2.057   2.422 -0.3887  0.1480  0.5231
 6551TIP3    H119617   3.439   2.130   2.485  1.6050  0.0859  0.5050
 6551TIP3    H219618   3.397   2.096   2.343  0.2310  1.0583  0.6611
 6552TIP3   OH219619   5.740   4.189   3.321  0.5600 -0.1611  0.0393
 6552TIP3    H119620   5.764   4.268   3.274  0.5984 -0.4358 -0.4154
 6552TIP3    H219621   5.823   4.152   3.352  0.4677  0.4780  1.0939
 6553TIP3   OH219622   2.652   5.990   2.650  0.4785 -0.6382  0.5978
 6553TIP3    H119623   2.568   5.990   2.604  0.3182 -1.9826  0.8437
 6553TIP3    H219624   2.662   6.080   2.681 -0.1705 -0.0983 -0.6637
 6554TIP3   OH219625   6.327   5.303   4.907 -0.3259 -0.0485  0.1733
 6554TIP3    H119626   6.385   5.374   4.935 -0.0338 -0.3233  0.2624
 6554TIP3    H219627   6.305   5.256   4.987  0.8509 -1.0939 -0.0999
 6555TIP3   OH219628   2.092   2.144   1.966  0.2912 -0.3117 -0.8938
 6555TIP3    H119629   2.123   2.143   2.056 -1.6629  0.3784 -0.1757
 6555TIP3    H219630   2.136   2.069   1.925  2.6162  0.4162  0.0849
 6556TIP3   OH219631   3.981   6.387   4.749 -0.1268 -0.1645  0.1800
 6556TIP3    H119632   4.064   6.428   4.727  0.6834 -2.3415 -1.0835
 6556TIP3    H219633   4.003   6.296   4.770 -1.9316 -0.2280  2.1143
 6557TIP3   OH219634   0.108   0.332   1.388  0.2186  0.1994  0.0120
 6557TIP3    H119635   0.052   0.400   1.427 -0.4907  1.4012 -2.8329
 6557TIP3    H219636   0.196   0.354   1.419 -0.2288  1.3243  0.5791
 6558TIP3   OH219637   6.240   2.795   0.725 -0.4160 -0.4457  0.3432
 6558TIP3    H119638   6.324   2.749   0.726 -0.6028 -0.7847  1.0134
 6558TIP3    H219639   6.219   2.810   0.817 -1.6920 -1.5087  0.2660
 6559TIP3   OH219640   0.313   4.069   3.813  0.1904  0.4174  0.2836
 6559TIP3    H119641   0.331   4.045   3.722  0.1900  0.4692  0.2699
 6559TIP3    H219642   0.255   4.146   3.807 -0.1157  0.1933  0.3254
 6560TIP3   OH219643   2.914   0.307   4.403 -0.4528 -0.0944 -0.6998
 6560TIP3    H119644   2.849   0.360   4.357 -0.8784 -1.4205 -1.6937
 6560TIP3    H219645   2.865   0.263   4.472 -0.3198 -0.0483 -0.5742
 6561TIP3   OH219646   2.355   5.096   4.558  0.2191  0.1379  0.3896
 6561TIP3    H119647   2.441   5.057   4.573 -0.2490 -0.4452  1.7237
 6561TIP3    H219648   2.354   5.119   4.465  1.4193 -0.8133  0.1280
 6562TIP3   OH219649   3.535   0.347   3.345  0.0876  0.3441  0.5871
 6562TIP3    H119650   3.469   0.411   3.318  0.3254  0.2020 -0.3669
 6562TIP3    H219651   3.597   0.344   3.272  0.2202 -0.7847  0.7253
 6563TIP3   OH219652   4.192   3.741   5.328  0.0511  0.1107  0.5525
 6563TIP3    H119653   4.236   3.804   5.383 -1.1817  1.3670  0.1636
 6563TIP3    H219654   4.167   3.670   5.387 -0.9978  1.2946  1.5903
 6564TIP3   OH219655   1.775   3.872   5.153 -0.5130 -0.2847 -0.5135
 6564TIP3    H119656   1.819   3.872   5.238  1.1591 -0.2288 -1.3339
 6564TIP3    H219657   1.724   3.791   5.153  0.5490 -0.9928  0.0474
 6565TIP3   OH219658   2.038   1.446   2.709  0.5037  0.4987  0.2441
 6565TIP3    H119659   2.082   1.433   2.625 -0.6252 -1.1184 -0.1304
 6565TIP3    H219660   2.097   1.505   2.757  2.5290 -0.6875 -0.6461
 6566TIP3   OH219661   4.905   5.434   5.563  0.0912  0.2208  0.1458
 6566TIP3    H119662   4.915   5.517   5.609 -0.3741  0.2981  0.1130
 6566TIP3    H219663   4.946   5.449   5.478 -0.3231  0.5363  0.0008
 6567TIP3   OH219664   5.619   4.415   4.646  0.0805 -0.0621 -0.4104
 6567TIP3    H119665   5.713   4.399   4.632 -0.1958 -0.1797 -2.4133
 6567TIP3    H219666   5.576   4.344   4.599 -1.0291  0.7475 -0.6427
 6568TIP3   OH219667   2.679   4.763   4.701  0.0680  0.2605  0.2956
 6568TIP3    H119668   2.683   4.671   4.727  1.1855  0.2325  0.0620
 6568TIP3    H219669   2.754   4.804   4.744  1.4854  0.3896 -2.1235
 6569TIP3   OH219670   0.867   3.462   4.506  0.1966 -0.1451  0.2366
 6569TIP3    H119671   0.902   3.539   4.550 -1.9804  0.1030  1.7077
 6569TIP3    H219672   0.905   3.465   4.418  1.0596  1.9537  0.6249
 6570TIP3   OH219673   2.296   0.282   3.460  0.4082 -0.6437  0.7547
 6570TIP3    H119674   2.226   0.343   3.483  0.5586 -0.0256 -0.3387
 6570TIP3    H219675   2.373   0.317   3.505  0.6501  0.4231 -0.4068
 6571TIP3   OH219676   4.691   3.054   3.830 -0.4752 -0.1195  0.3259
 6571TIP3    H119677   4.781   3.056   3.860 -0.3194 -1.6664  0.0720
 6571TIP3    H219678   4.640   3.034   3.909 -0.5945  0.6433  0.4487
 6572TIP3   OH219679   6.836   2.194   3.292 -0.0969  0.3729 -0.5509
 6572TIP3    H119680   6.774   2.266   3.284 -0.5252  0.2679  1.2579
 6572TIP3    H219681   6.889   2.216   3.369  0.7202 -0.5530 -0.8206
 6573TIP3   OH219682   3.568   1.423   0.714  0.1516 -0.5285 -0.0342
 6573TIP3    H119683   3.614   1.473   0.646 -0.4281 -0.3737 -0.3171
 6573TIP3    H219684   3.510   1.486   0.757 -2.0900 -1.2952 -1.7132
 6574TIP3   OH219685   3.188   6.723   2.019 -0.2013  0.1290  0.2979
 6574TIP3    H119686   3.207   6.805   1.974  0.4092  0.0235  0.3534
 6574TIP3    H219687   3.100   6.735   2.056 -1.0003 -0.0158 -1.4475
 6575TIP3   OH219688   4.588   3.956   2.647 -0.1660 -0.1678 -0.2294
 6575TIP3    H119689   4.633   3.970   2.730 -0.2963 -1.5807  0.1210
 6575TIP3    H219690   4.611   3.866   2.624  0.0393  0.2809 -1.8459
 6576TIP3   OH219691   3.331   6.123   5.435 -0.5466 -0.9976  0.1100
 6576TIP3    H119692   3.425   6.135   5.423 -0.7545  1.1034  0.3130
 6576TIP3    H219693   3.322   6.091   5.525 -0.1682  1.7015  1.1805
 6577TIP3   OH219694   4.488   2.916   3.076 -0.1627  0.0507  0.0433
 6577TIP3    H119695   4.466   2.986   3.139  2.4345  1.1509 -0.1600
 6577TIP3    H219696   4.456   2.949   2.992 -0.8611 -0.0019  0.2827
 6578TIP3   OH219697   1.334   0.732   2.255 -0.1349 -0.1675 -0.1367
 6578TIP3    H119698   1.242   0.714   2.241 -0.2406  0.0844  0.2135
 6578TIP3    H219699   1.360   0.787   2.181 -0.6597  1.0771  0.5758
 6579TIP3   OH219700   0.795   3.533   1.752 -0.3729 -0.7134  0.5213
 6579TIP3    H119701   0.788   3.448   1.709  1.3068 -0.1569 -0.9549
 6579TIP3    H219702   0.754   3.594   1.692  2.1815  0.1056 -0.5089
 6580TIP3   OH219703   5.570   6.089   1.761 -0.7029 -0.5203  0.1978
 6580TIP3    H119704   5.618   6.126   1.836 -0.7486  1.4313 -0.6681
 6580TIP3    H219705   5.626   6.019   1.728 -0.7053 -1.4713  2.0502
 6581TIP3   OH219706   4.351   1.034   2.459  0.1489  0.6433  0.0520
 6581TIP3    H119707   4.257   1.013   2.454  0.5790 -1.3592 -1.0813
 6581TIP3    H219708   4.375   1.018   2.550 -0.3396 -0.2888  0.0302
 6582TIP3   OH219709   4.026   6.708   2.987  0.3901 -0.1733  0.5058
 6582TIP3    H119710   4.093   6.682   3.050 -0.7371  0.0405  1.8520
 6582TIP3    H219711   3.945   6.711   3.038 -0.1322  2.7715 -0.2717
 6583TIP3   OH219712   3.910   5.688   5.048 -0.4092  0.2728 -0.1700
 6583TIP3    H119713   3.987   5.723   5.004  0.6822 -1.5472  0.1903
 6583TIP3    H219714   3.887   5.754   5.114  0.5912  1.0118 -0.5525
 6584TIP3   OH219715   0.652   4.684   1.653  0.2162 -0.1510  0.4555
 6584TIP3    H119716   0.656   4.610   1.593  2.9464 -1.0989  1.6465
 6584TIP3    H219717   0.653   4.761   1.596  2.3455 -1.0150 -0.8105
 6585TIP3   OH219718   6.031   4.764   5.449  0.0668  0.2274  0.5680
 6585TIP3    H119719   5.957   4.756   5.389 -0.1365  1.6016  0.5867
 6585TIP3    H219720   6.006   4.711   5.525 -0.9966  0.7815  0.6353
 6586TIP3   OH219721   0.033   1.405   2.035  0.0456 -0.0976 -0.1366
 6586TIP3    H119722  -0.027   1.372   2.103  0.6390  0.5810  0.7444
 6586TIP3    H219723   0.072   1.326   1.999 -0.5233 -0.4926  0.0887
 6587TIP3   OH219724   2.673   2.852   4.471  0.0107  0.3747 -0.3583
 6587TIP3    H119725   2.596   2.862   4.527  1.1134 -0.9281  1.5048
 6587TIP3    H219726   2.718   2.936   4.478 -0.6939  0.7859 -0.6212
 6588TIP3   OH219727   6.013   5.459   1.794 -0.3357 -0.2054 -0.3596
 6588TIP3    H119728   6.013   5.363   1.796  0.6214 -0.2202 -0.4668
 6588TIP3    H219729   6.106   5.483   1.800 -0.6393  0.7425  1.0128
 6589TIP3   OH219730   7.138   3.447   0.234 -0.2898  0.0393  0.0047
 6589TIP3    H119731   7.190   3.375   0.198  0.4026  0.8528 -0.6607
 6589TIP3    H219732   7.195   3.524   0.228 -1.0777  0.6819  0.5296
 6590TIP3   OH219733   2.388   5.269   0.585  0.6500  0.0061 -0.1716
 6590TIP3    H119734   2.292   5.268   0.585  0.5987  1.0707  1.8158
 6590TIP3    H219735   2.412   5.176   0.586 -0.3091 -0.2934 -1.6071
 6591TIP3   OH219736   5.558   0.782   3.803 -0.4917  0.0162  0.2147
 6591TIP3    H119737   5.476   0.818   3.836  0.5019 -0.0052  2.9029
 6591TIP3    H219738   5.574   0.830   3.722 -2.1184  1.4370  0.6701
 6592TIP3   OH219739   5.311   5.661   2.548 -0.4647 -0.6230  0.5283
 6592TIP3    H119740   5.272   5.731   2.601  1.4640 -0.6830  2.1316
 6592TIP3    H219741   5.342   5.705   2.469 -1.0045 -0.0552  0.6220
 6593TIP3   OH219742   2.374   2.328   2.911  0.1683  0.2220  0.0470
 6593TIP3    H119743   2.315   2.261   2.944  0.5923 -0.2493 -0.1416
 6593TIP3    H219744   2.350   2.338   2.818  0.3895  0.0295 -0.0298
 6594TIP3   OH219745   4.302   4.747   4.869 -0.8438  0.2744  0.2094
 6594TIP3    H119746   4.214   4.711   4.878 -1.3835  2.0788  4.2245
 6594TIP3    H219747   4.360   4.674   4.892 -1.1937 -0.6807 -1.6474
 6595TIP3   OH219748   2.050   6.600   4.335  0.0269  0.2946 -0.5175
 6595TIP3    H119749   2.017   6.687   4.312 -0.5374  0.0576 -0.6279
 6595TIP3    H219750   2.122   6.585   4.273  0.7342  1.0492  0.0950
 6596TIP3   OH219751   5.220   1.210   2.814 -0.2387 -0.0910 -0.0816
 6596TIP3    H119752   5.287   1.141   2.811 -0.7589 -0.5758 -1.4585
 6596TIP3    H219753   5.241   1.260   2.893 -0.5991 -2.5933  1.7386
 6597TIP3   OH219754   1.182   5.861   5.230  0.3600 -0.2614 -0.5063
 6597TIP3    H119755   1.152   5.770   5.231 -1.0122  0.1316 -1.8028
 6597TIP3    H219756   1.239   5.868   5.307  0.0270 -2.0476 -0.0408
 6598TIP3   OH219757   1.430   6.592   2.869 -0.1135  0.0759  0.5084
 6598TIP3    H119758   1.444   6.519   2.929 -1.5053  0.5905  1.4954
 6598TIP3    H219759   1.336   6.591   2.849  0.0605  0.8185 -0.4896
 6599TIP3   OH219760   3.537   5.375   0.057 -0.2809  0.5228 -0.0083
 6599TIP3    H119761   3.445   5.378   0.083 -1.0303 -2.2461 -1.9136
 6599TIP3    H219762   3.585   5.359   0.139 -1.7258 -0.1232  0.7435
 6600TIP3   OH219763   3.286   1.460   3.854 -0.0726  0.2494 -0.9008
 6600TIP3    H119764   3.262   1.423   3.939  1.2176  1.1372 -0.1022
 6600TIP3    H219765   3.214   1.519   3.833 -1.2056 -1.2268 -1.2581
 6601TIP3   OH219766   2.061   3.197   4.845  0.5084 -0.6482 -0.1313
 6601TIP3    H119767   2.075   3.270   4.905  0.5567 -1.0476  0.3523
 6601TIP3    H219768   2.132   3.135   4.866 -1.4606 -2.4113  1.9116
 6602TIP3   OH219769   3.024   3.295   4.888  0.4781 -0.1733  0.1233
 6602TIP3    H119770   3.004   3.243   4.966 -0.3893  2.1645  1.5626
 6602TIP3    H219771   3.097   3.350   4.913 -0.9910  1.9617  0.0214
 6603TIP3   OH219772   2.212   0.626   1.388  0.1112  0.7992 -0.2558
 6603TIP3    H119773   2.160   0.653   1.312 -1.0909  2.7464  1.1626
 6603TIP3    H219774   2.173   0.673   1.462  0.4108 -1.9854  1.8439
 6604TIP3   OH219775   7.117   2.181   1.065  0.1346  0.6520  0.0012
 6604TIP3    H119776   7.096   2.121   1.136 -1.5477  0.7911 -0.3554
 6604TIP3    H219777   7.154   2.258   1.109 -0.5111  0.5748  0.6917
 6605TIP3   OH219778   4.985   2.713   1.482 -0.6374 -0.2455  0.1639
 6605TIP3    H119779   4.935   2.657   1.423 -0.1666 -0.0423 -0.4368
 6605TIP3    H219780   5.001   2.793   1.432  0.0971 -0.2235  0.4239
 6606TIP3   OH219781   1.667   5.765   4.602 -0.0676 -0.4263 -0.2043
 6606TIP3    H119782   1.691   5.857   4.602 -1.7519  0.0586  0.5231
 6606TIP3    H219783   1.721   5.726   4.670  0.7565 -0.0213 -0.6113
 6607TIP3   OH219784   2.179   2.655   4.703  0.0571  0.2229  0.0788
 6607TIP3    H119785   2.215   2.718   4.641 -0.3762  0.1912 -0.2165
 6607TIP3    H219786   2.179   2.572   4.654  1.5394 -0.2359  0.7880
 6608TIP3   OH219787   2.875   0.840  -0.005 -0.0916 -0.1913  0.5430
 6608TIP3    H119788   2.953   0.864  -0.054 -0.7928 -0.0582 -0.5317
 6608TIP3    H219789   2.907   0.784   0.066  1.0770  0.5817  0.6572
 6609TIP3   OH219790   0.945   5.398   5.885  0.4424 -0.3032  0.4900
 6609TIP3    H119791   0.942   5.303   5.891 -0.8925 -0.3113  0.0623
 6609TIP3    H219792   0.895   5.419   5.806  1.8391  0.6959 -0.1778
 6610TIP3   OH219793   0.340   0.140   0.616 -0.4054  0.2079 -0.1688
 6610TIP3    H119794   0.344   0.056   0.662 -1.0625 -0.1747 -0.7787
 6610TIP3    H219795   0.361   0.205   0.683 -0.1780 -0.4192  0.3835
 6611TIP3   OH219796   3.722   5.344   5.483  0.4147  0.5774 -0.0992
 6611TIP3    H119797   3.709   5.250   5.496 -1.0305  0.7439 -0.1789
 6611TIP3    H219798   3.703   5.382   5.569  2.9874  0.6703  0.5122
 6612TIP3   OH219799   5.423   2.779   2.691 -0.6336 -0.0068  0.1011
 6612TIP3    H119800   5.499   2.728   2.720 -0.0483  0.7982  0.0046
 6612TIP3    H219801   5.406   2.840   2.763 -1.9479 -0.9740  0.6456
 6613TIP3   OH219802   5.545   5.822   4.313 -0.0215 -0.4533 -0.3777
 6613TIP3    H119803   5.484   5.798   4.383  0.1200 -1.5216 -0.6019
 6613TIP3    H219804   5.574   5.910   4.336 -1.3572 -0.0729 -0.0612
 6614TIP3   OH219805   1.727   3.150   5.559  0.1295 -0.2963  0.7401
 6614TIP3    H119806   1.757   3.070   5.602 -2.4080 -0.0973  3.1247
 6614TIP3    H219807   1.643   3.125   5.519  0.4255  0.6310 -0.5249
 6615TIP3   OH219808   6.816   1.117   1.217  0.5631  0.3777 -0.1562
 6615TIP3    H119809   6.849   1.035   1.180  1.3949 -0.0306  1.4006
 6615TIP3    H219810   6.754   1.089   1.285  0.0808  1.0592 -0.3149
 6616TIP3   OH219811   4.570   0.489   1.768  0.3582 -0.3727 -0.0652
 6616TIP3    H119812   4.595   0.396   1.775 -0.8871 -0.7157  0.0676
 6616TIP3    H219813   4.585   0.524   1.856  0.3945 -0.5565  0.0026
 6617TIP3   OH219814   4.563   2.882   4.435 -0.5785 -0.4232  0.2331
 6617TIP3    H119815   4.624   2.859   4.506 -2.3198 -0.9024  1.6501
 6617TIP3    H219816   4.619   2.897   4.359  1.4456  0.5856  1.8046
 6618TIP3   OH219817   0.888   5.814   4.021 -0.0832 -0.1227  0.2241
 6618TIP3    H119818   0.930   5.841   4.103 -0.3004  1.4556 -0.1557
 6618TIP3    H219819   0.872   5.720   4.032 -0.3164  0.1026  2.0734
 6619TIP3   OH219820   3.861   0.229   0.389  0.3500 -0.5429 -0.0434
 6619TIP3    H119821   3.776   0.192   0.414 -0.0208 -0.1117 -0.6608
 6619TIP3    H219822   3.911   0.154   0.355 -0.2750 -0.5606 -0.9557
 6620TIP3   OH219823   1.185   4.929   2.835 -0.4335 -0.2823 -0.3278
 6620TIP3    H119824   1.098   4.937   2.796 -1.2091 -0.1974  1.3044
 6620TIP3    H219825   1.241   4.985   2.782 -1.9415  1.7855  0.1623
 6621TIP3   OH219826   5.829   0.166   5.005 -0.4053 -0.3080  0.1513
 6621TIP3    H119827   5.802   0.078   5.031 -1.2024 -0.2081 -0.3116
 6621TIP3    H219828   5.752   0.203   4.962  0.5634 -0.1153 -1.4912
 6622TIP3   OH219829   5.641   2.714   0.404  0.1488 -0.0231 -0.4646
 6622TIP3    H119830   5.688   2.686   0.326 -1.6252 -0.5405 -1.3940
 6622TIP3    H219831   5.597   2.795   0.378 -0.4365 -0.1787  0.0272
 6623TIP3   OH219832   6.130   6.278   5.334  0.1327 -0.2330 -0.0031
 6623TIP3    H119833   6.106   6.356   5.384  3.0834  1.3350 -0.8123
 6623TIP3    H219834   6.182   6.225   5.395  1.0791  0.1695 -0.4366
 6624TIP3   OH219835   4.457   5.187   4.269  0.0537 -0.3021 -0.1062
 6624TIP3    H119836   4.468   5.248   4.342 -0.7026 -0.4524  0.1345
 6624TIP3    H219837   4.428   5.105   4.310 -1.5557 -0.0377 -0.6867
 6625TIP3   OH219838   5.235   0.568   2.196  0.2630  0.1768 -0.0971
 6625TIP3    H119839   5.196   0.645   2.238  0.6428 -0.1524  0.9051
 6625TIP3    H219840   5.316   0.553   2.244  0.3114 -0.7036 -0.4280
 6626TIP3   OH219841   5.495   6.057   3.446  0.0271 -0.1049 -0.9406
 6626TIP3    H119842   5.498   6.103   3.363 -0.5058  0.1851 -0.8071
 6626TIP3    H219843   5.566   5.993   3.442  0.5425  0.4864 -1.2740
 6627TIP3   OH219844   0.612   3.368   3.736  0.4406 -0.0222 -0.0478
 6627TIP3    H119845   0.616   3.456   3.773  1.2091  0.0569 -0.3104
 6627TIP3    H219846   0.518   3.349   3.732  0.1593  1.3240 -1.2269
 6628TIP3   OH219847   0.572   6.087   1.528 -0.2146  0.0846 -0.1315
 6628TIP3    H119848   0.498   6.054   1.579 -0.8025 -0.3967 -1.2707
 6628TIP3    H219849   0.548   6.176   1.505  0.1354  0.3699  0.5597
 6629TIP3   OH219850   0.656   6.368   5.653  0.3526  0.0433  0.0066
 6629TIP3    H119851   0.674   6.414   5.735  1.8143  2.2333 -1.4511
 6629TIP3    H219852   0.596   6.426   5.606 -1.7756 -1.9310  0.0806
 6630TIP3   OH219853   5.039   2.029   5.487  0.2195 -0.2735  0.1961
 6630TIP3    H119854   5.067   1.962   5.425 -1.2663 -1.0308  0.3033
 6630TIP3    H219855   5.116   2.046   5.541  1.4903  0.2244 -1.6608
 6631TIP3   OH219856   5.546   2.667   4.005 -0.0152 -0.4723 -0.2209
 6631TIP3    H119857   5.599   2.624   3.939 -0.5520  1.2639 -1.8628
 6631TIP3    H219858   5.517   2.748   3.964 -0.8647  0.4009  1.9509
 6632TIP3   OH219859   3.568   2.301   1.895 -0.3352  0.1823  0.2599
 6632TIP3    H119860   3.544   2.287   1.803 -0.5034 -0.0376  0.3366
 6632TIP3    H219861   3.618   2.382   1.895 -0.9959  0.5891  0.0837
 6633TIP3   OH219862   6.343   3.707   2.790  0.3473  0.3921  0.1036
 6633TIP3    H119863   6.354   3.792   2.748  0.8232  0.8457  1.1055
 6633TIP3    H219864   6.255   3.710   2.828 -0.3699 -0.2888 -1.3920
 6634TIP3   OH219865   0.308   1.933   2.211 -0.1527  0.4180 -0.3596
 6634TIP3    H119866   0.222   1.911   2.173 -0.8892 -0.7814  1.7967
 6634TIP3    H219867   0.291   2.009   2.266  0.7018  1.5846 -1.6532
 6635TIP3   OH219868   6.649   0.751   3.274 -0.0922 -0.1231 -0.1392
 6635TIP3    H119869   6.624   0.842   3.285  0.0586  0.0742 -1.3561
 6635TIP3    H219870   6.595   0.719   3.201  0.1363 -0.8928  0.0160
 6636TIP3   OH219871   2.514   0.373   3.574 -0.0098 -0.0431 -0.1298
 6636TIP3    H119872   2.539   0.430   3.647 -1.4442 -0.3435  0.6395
 6636TIP3    H219873   2.595   0.359   3.525  0.9650  0.3000  1.3197
 6637TIP3   OH219874   2.730   2.088   5.734 -0.2635 -0.2129 -0.3071
 6637TIP3    H119875   2.818   2.112   5.706  0.2073 -0.3293  0.9761
 6637TIP3    H219876   2.731   1.992   5.737 -0.5886 -0.2296 -0.7706
 6638TIP3   OH219877   4.084   0.706   3.931 -0.4220 -0.0536  0.8260
 6638TIP3    H119878   4.125   0.762   3.865 -1.7531 -0.4827 -0.4240
 6638TIP3    H219879   4.157   0.654   3.966  0.1154 -1.1141 -1.6446
 6639TIP3   OH219880   0.891   1.275   3.661 -0.6097 -0.2601 -0.3650
 6639TIP3    H119881   0.889   1.221   3.740 -0.7594  0.7598  0.3409
 6639TIP3    H219882   0.974   1.254   3.620 -0.7712 -1.2043 -0.2337
 6640TIP3   OH219883   1.907   6.049   3.290  0.0011 -0.0138  0.2136
 6640TIP3    H119884   1.938   5.998   3.365  0.3671 -0.6273 -0.3453
 6640TIP3    H219885   1.924   5.993   3.214  0.6227  1.0399 -0.4494
 6641TIP3   OH219886   0.470   6.125   3.916 -0.2739  0.0624 -0.0791
 6641TIP3    H119887   0.492   6.119   4.008 -1.9605 -0.7876  0.3263
 6641TIP3    H219888   0.554   6.120   3.870  0.7711  2.3389  1.4103
 6642TIP3   OH219889   5.694   5.729   1.859  0.3415 -0.1701 -0.5432
 6642TIP3    H119890   5.730   5.685   1.937  0.3814  2.4358  1.0124
 6642TIP3    H219891   5.648   5.805   1.894 -1.1132  0.1466 -2.9989
 6643TIP3   OH219892   5.265   3.152   3.545 -0.0897 -0.1784  0.8190
 6643TIP3    H119893   5.183   3.166   3.497 -0.0959 -3.9765 -0.5919
 6643TIP3    H219894   5.240   3.152   3.637 -1.5809 -0.7051  0.4292
 6644TIP3   OH219895   5.761   4.486   1.981 -0.2957  0.1594  0.2622
 6644TIP3    H119896   5.697   4.429   2.022 -0.7104  0.3794 -0.0698
 6644TIP3    H219897   5.786   4.548   2.049  1.4323 -1.4292  1.1595
 6645TIP3   OH219898   6.675   1.900   3.615  0.1034 -0.2941 -0.0119
 6645TIP3    H119899   6.645   1.907   3.706 -0.3213  2.8265 -0.2985
 6645TIP3    H219900   6.765   1.868   3.622 -0.0839 -0.5723  1.4547
 6646TIP3   OH219901   3.515   3.465   3.314  0.0010  0.0833  0.0625
 6646TIP3    H119902   3.422   3.457   3.294 -0.7711 -0.5881  3.3036
 6646TIP3    H219903   3.526   3.555   3.344  0.9779  0.8841 -2.4596
 6647TIP3   OH219904   6.739   1.908   4.181  0.7404 -0.5398 -0.0567
 6647TIP3    H119905   6.747   1.846   4.254  0.5106  0.5681  0.9527
 6647TIP3    H219906   6.649   1.899   4.151  0.5626 -0.3583  0.4128
 6648TIP3   OH219907   2.796   0.879   4.126 -0.0835  0.8202 -0.5420
 6648TIP3    H119908   2.860   0.812   4.150  0.4634  1.0194 -1.4000
 6648TIP3    H219909   2.763   0.851   4.040 -1.1238  0.7425 -0.1258
 6649TIP3   OH219910   2.099   0.543   1.996 -0.3057  0.2283  0.5801
 6649TIP3    H119911   2.007   0.539   1.970 -0.2250 -0.4516  0.3903
 6649TIP3    H219912   2.129   0.453   1.991  0.7029  0.6165 -0.5395
 6650TIP3   OH219913   1.959   5.850   3.126 -0.1551  0.2650  0.3041
 6650TIP3    H119914   2.035   5.824   3.179 -0.5170 -0.1085  0.6426
 6650TIP3    H219915   1.968   5.798   3.046 -2.0361 -2.6569  1.8335
 6651TIP3   OH219916   6.514   2.450   2.429  0.0026 -0.4110 -0.4184
 6651TIP3    H119917   6.594   2.500   2.416 -0.5467  0.7548  0.5204
 6651TIP3    H219918   6.519   2.379   2.365 -0.0098  1.8167 -3.0442
 6652TIP3   OH219919   7.148   5.253   1.372  0.3414  0.3932 -0.1709
 6652TIP3    H119920   7.121   5.345   1.380 -1.4080 -0.1108  0.0364
 6652TIP3    H219921   7.071   5.203   1.398  1.4917 -1.1524  0.3886
 6653TIP3   OH219922   3.835   4.576   0.325  0.4846  0.0376 -0.1092
 6653TIP3    H119923   3.845   4.525   0.245  0.0060 -1.1503  0.5627
 6653TIP3    H219924   3.859   4.666   0.300 -0.0609 -0.2298 -1.6710
 6654TIP3   OH219925   5.312   3.200   1.703  0.9786 -0.3717  0.1994
 6654TIP3    H119926   5.272   3.282   1.734  2.4598  0.6751 -0.5351
 6654TIP3    H219927   5.242   3.136   1.709 -0.4047  1.0732  0.2891
 6655TIP3   OH219928   3.207   3.618   4.523 -0.1076  0.5436  0.0740
 6655TIP3    H119929   3.198   3.524   4.536 -0.2852  0.7637  1.6652
 6655TIP3    H219930   3.237   3.652   4.607 -0.6783  1.9911 -0.2704
 6656TIP3   OH219931   3.136   3.111   2.691  0.1349 -0.0930 -0.5389
 6656TIP3    H119932   3.231   3.104   2.680  0.2933  1.0419 -0.0381
 6656TIP3    H219933   3.119   3.069   2.775  0.5908  2.1149  0.7176
 6657TIP3   OH219934   2.399   6.087   3.875 -0.0254 -0.6204 -0.2224
 6657TIP3    H119935   2.339   6.145   3.827 -0.4587 -0.3412  0.6414
 6657TIP3    H219936   2.342   6.023   3.917  0.3543 -0.8794 -0.0989
 6658TIP3   OH219937   6.619   0.252   4.420  0.4000  0.3521 -0.4799
 6658TIP3    H119938   6.586   0.320   4.479 -1.8103  0.6938 -1.9707
 6658TIP3    H219939   6.615   0.293   4.333  1.4079 -0.8662 -1.1234
 6659TIP3   OH219940   7.142   1.164   1.198 -0.4311  0.8352  0.0452
 6659TIP3    H119941   7.078   1.094   1.192  0.1255  0.3197  0.0824
 6659TIP3    H219942   7.100   1.239   1.155 -0.2813 -0.0452 -1.6962
 6660TIP3   OH219943   2.933   1.551   3.479  0.2030  0.5417  0.8763
 6660TIP3    H119944   2.857   1.597   3.515  0.8218  1.7662  0.6621
 6660TIP3    H219945   3.008   1.592   3.522  0.9017  1.3110 -0.9963
 6661TIP3   OH219946   1.702   2.463   0.037 -0.1464 -0.1496 -0.3213
 6661TIP3    H119947   1.652   2.544   0.031 -1.4603 -0.9586 -0.7146
 6661TIP3    H219948   1.649   2.406   0.093  0.0865 -1.1988 -1.1336
 6662TIP3   OH219949   1.839   4.279   3.717 -0.3802  0.7751 -0.5237
 6662TIP3    H119950   1.902   4.351   3.720 -1.5169  1.8013 -0.4303
 6662TIP3    H219951   1.755   4.319   3.742 -0.5795 -1.0963  2.2648
 6663TIP3   OH219952   5.790   4.059   0.295 -0.4504 -0.1881  0.1359
 6663TIP3    H119953   5.850   4.015   0.234 -0.8333 -0.4808 -0.0285
 6663TIP3    H219954   5.804   4.152   0.279 -1.4160 -0.2477 -1.2624
 6664TIP3   OH219955   1.956   1.852   4.560 -0.4443  0.2543  0.1594
 6664TIP3    H119956   2.034   1.882   4.513  0.3574 -0.2385  1.1546
 6664TIP3    H219957   1.915   1.933   4.591 -0.3225  0.5166 -0.3601
 6665TIP3   OH219958   6.497   6.052   1.783  0.3098 -0.1106 -0.2398
 6665TIP3    H119959   6.439   6.128   1.785  0.8167  0.2704  0.2497
 6665TIP3    H219960   6.585   6.089   1.786  0.5686 -0.7047 -0.4168
 6666TIP3   OH219961   3.971   6.363   2.841  0.2346 -0.4187 -0.2339
 6666TIP3    H119962   3.979   6.458   2.839 -2.8980  0.0077  1.8912
 6666TIP3    H219963   3.983   6.339   2.933 -1.3414 -1.7640 -0.3367
 6667TIP3   OH219964   2.830   2.315   4.442 -0.4596  0.6723 -0.1757
 6667TIP3    H119965   2.809   2.407   4.429  0.0213  1.2255  2.5133
 6667TIP3    H219966   2.770   2.286   4.511 -1.1785 -1.2964 -1.5381
 6668TIP3   OH219967   1.579   4.265   4.878 -0.0359  0.2653 -0.2748
 6668TIP3    H119968   1.522   4.337   4.903  1.8814  1.7847 -0.0414
 6668TIP3    H219969   1.637   4.253   4.953  0.8042 -0.3195 -0.9944
 6669TIP3   OH219970   0.760   2.907   5.753  0.3601  0.5180  0.0603
 6669TIP3    H119971   0.709   2.826   5.751  1.1218 -0.0274  1.1378
 6669TIP3    H219972   0.815   2.904   5.675  0.6152 -0.1822  0.2595
 6670TIP3   OH219973   1.775   5.681   4.251 -0.6619  0.1390 -0.4409
 6670TIP3    H119974   1.815   5.767   4.243 -0.0732 -0.1986 -1.2871
 6670TIP3    H219975   1.694   5.696   4.300 -0.2109  1.0520  0.0392
 6671TIP3   OH219976   3.937   5.399   3.688 -0.5438 -0.3679 -0.0366
 6671TIP3    H119977   3.878   5.414   3.614  0.0383 -1.5324 -0.7740
 6671TIP3    H219978   3.936   5.304   3.699 -0.7395 -0.1964  1.5765
 6672TIP3   OH219979   4.648   3.268   3.320 -0.1867  0.4083 -0.3271
 6672TIP3    H119980   4.703   3.339   3.289 -0.0390 -0.1745 -1.4413
 6672TIP3    H219981   4.571   3.312   3.356 -1.7235  1.1376 -4.0658
 6673TIP3   OH219982   5.314   5.649   5.870 -0.7287  0.0016  0.1130
 6673TIP3    H119983   5.330   5.706   5.946  0.9218  0.9963 -0.8992
 6673TIP3    H219984   5.247   5.695   5.820 -0.0878  0.5942 -0.2187
 6674TIP3   OH219985   4.199   0.844   5.317 -0.3475  0.1242  0.1688
 6674TIP3    H119986   4.247   0.791   5.381  0.5532  0.3905 -0.2855
 6674TIP3    H219987   4.120   0.871   5.365  0.0215 -0.1758  0.9734
 6675TIP3   OH219988   0.183   3.339   1.642  0.3598  0.0604  0.0603
 6675TIP3    H119989   0.107   3.396   1.645 -0.0497 -0.3453 -1.4979
 6675TIP3    H219990   0.257   3.395   1.663 -0.2237  0.7454  0.3145
 6676TIP3   OH219991   5.851   0.190   3.169  0.2819 -0.6289 -0.2229
 6676TIP3    H119992   5.807   0.114   3.207  1.0832 -0.2703  1.5162
 6676TIP3    H219993   5.864   0.249   3.243  0.6722  0.7186 -1.3407
 6677TIP3   OH219994   0.111   1.490   4.072  0.0852 -0.4939 -0.4857
 6677TIP3    H119995   0.129   1.573   4.116  0.6708 -1.2330  0.7224
 6677TIP3    H219996   0.023   1.501   4.035  0.6363  1.0853 -1.4175
 6678TIP3   OH219997   6.394   0.904   0.034 -0.2011  0.0409  0.8075
 6678TIP3    H119998   6.467   0.932  -0.021 -0.5131 -0.5197  0.0916
 6678TIP3    H219999   6.435   0.872   0.114  0.2649  0.8029  0.8796
 6679TIP3   OH220000   0.341   3.795   2.104  0.0035  0.0639  0.2087
 6679TIP3    H120001   0.265   3.813   2.049 -0.3316 -1.5016  0.0984
 6679TIP3    H220002   0.319   3.832   2.189 -0.5534  0.3048 -0.0364
 6680TIP3   OH220003   2.531   1.283   3.548  0.4037  0.4689  0.5191
 6680TIP3    H120004   2.527   1.210   3.610  0.6735  1.3339  1.5909
 6680TIP3    H220005   2.455   1.338   3.570 -0.9076 -0.3915 -1.5077
 6681TIP3   OH220006   0.894   6.214   3.458  0.2155 -0.5898  0.5395
 6681TIP3    H120007   0.847   6.261   3.389  0.7444 -0.5204  0.2192
 6681TIP3    H220008   0.878   6.264   3.538  3.0581  1.8190 -0.2444
 6682TIP3   OH220009   3.331   6.103   2.808  0.0023 -0.1340 -0.5076
 6682TIP3    H120010   3.403   6.040   2.808  0.4109  0.3118  0.3243
 6682TIP3    H220011   3.346   6.156   2.730  2.1289  1.6231  0.9665
 6683TIP3   OH220012   4.553   6.286   2.760  0.5353  0.3457 -0.3088
 6683TIP3    H120013   4.550   6.241   2.845  0.3844 -1.6870 -1.3180
 6683TIP3    H220014   4.619   6.354   2.771 -0.0945  0.7170  1.6856
 6684TIP3   OH220015   5.627   4.463   1.060 -0.2170  0.4282  0.0631
 6684TIP3    H120016   5.598   4.484   1.149 -1.8711  1.8720 -0.7503
 6684TIP3    H220017   5.636   4.548   1.017  0.5467 -0.2459 -1.1641
 6685TIP3   OH220018   5.875   6.050   1.251 -0.0669  0.3933 -0.0835
 6685TIP3    H120019   5.933   6.103   1.304 -0.6226  2.3867 -1.3635
 6685TIP3    H220020   5.796   6.039   1.305  0.1448  0.6764  0.2837
 6686TIP3   OH220021   1.957   3.466   3.238  0.4878  0.4551 -0.0398
 6686TIP3    H120022   2.012   3.491   3.311  1.7273 -0.7163 -0.5442
 6686TIP3    H220023   1.915   3.385   3.265  1.5608 -0.4172 -0.8839
 6687TIP3   OH220024   1.311   0.657   1.927  0.3050  0.2412  0.2245
 6687TIP3    H120025   1.248   0.687   1.862  0.3244  0.2407  0.2055
 6687TIP3    H220026   1.282   0.569   1.950  0.7524 -0.0657 -0.3615
 6688TIP3   OH220027   2.993   5.130   3.289 -0.8822 -0.4181  0.2787
 6688TIP3    H120028   2.991   5.048   3.241 -1.2567 -1.5061  2.0714
 6688TIP3    H220029   2.928   5.120   3.358 -3.7581  2.8224 -1.5708
 6689TIP3   OH220030   4.638   1.373   1.833 -0.3719 -0.7861  0.0186
 6689TIP3    H120031   4.565   1.356   1.893 -0.4543 -1.3497 -0.2466
 6689TIP3    H220032   4.608   1.344   1.748  0.3880 -1.6104  0.0158
 6690TIP3   OH220033   5.766   5.571   3.424 -0.3311 -0.7215  0.2575
 6690TIP3    H120034   5.800   5.587   3.512  1.1230 -0.4069 -0.3192
 6690TIP3    H220035   5.806   5.488   3.398 -0.2379 -0.4954 -0.3355
 6691TIP3   OH220036   6.467   4.333   2.341  0.1730 -0.2010  0.4647
 6691TIP3    H120037   6.452   4.367   2.429 -2.9057  1.2500 -0.4993
 6691TIP3    H220038   6.394   4.273   2.324  2.4190 -3.0456 -0.0312
 6692TIP3   OH220039   1.576   5.441   3.531 -0.4625  0.5839 -0.4573
 6692TIP3    H120040   1.559   5.348   3.544  0.8655  0.3333 -0.4037
 6692TIP3    H220041   1.562   5.455   3.437  1.6020 -0.1991 -0.9213
 6693TIP3   OH220042   0.086   1.770   4.741  0.0689  0.1477 -0.1384
 6693TIP3    H120043   0.152   1.786   4.808 -0.9288  1.1007  0.6365
 6693TIP3    H220044   0.048   1.856   4.723 -1.6299 -0.5000  0.1485
 6694TIP3   OH220045   5.116   3.144   5.717 -0.4071 -0.5144 -0.1784
 6694TIP3    H120046   5.193   3.092   5.694  0.5089  0.1529  1.2184
 6694TIP3    H220047   5.151   3.218   5.768 -2.0256 -0.6477  1.2487
 6695TIP3   OH220048   4.284   3.794   3.550 -0.0974 -0.3779  0.1457
 6695TIP3    H120049   4.289   3.867   3.612  1.2611 -0.7341  0.4853
 6695TIP3    H220050   4.327   3.826   3.471 -0.0466 -0.6082  0.0787
 6696TIP3   OH220051   4.825   3.864   2.893  0.0914 -0.1230  0.1741
 6696TIP3    H120052   4.879   3.941   2.911  0.8761 -0.4745 -0.5750
 6696TIP3    H220053   4.881   3.809   2.838 -0.5346 -1.1346  0.5380
 6697TIP3   OH220054   1.048   5.876   4.555  0.0894 -0.0760  0.5661
 6697TIP3    H120055   0.992   5.805   4.587  0.3777 -0.0838  1.0623
 6697TIP3    H220056   1.136   5.851   4.582 -0.0123  1.3617  2.4317
 6698TIP3   OH220057   0.573   6.650   3.804 -0.6294 -0.1123  0.4355
 6698TIP3    H120058   0.567   6.561   3.769 -0.1425 -1.0751  2.6821
 6698TIP3    H220059   0.491   6.662   3.852  0.0897 -0.0456  1.6647
 6699TIP3   OH220060   1.417   4.166   1.149 -0.1363 -0.1561 -0.5090
 6699TIP3    H120061   1.506   4.143   1.124  1.0296  4.0520 -0.9777
 6699TIP3    H220062   1.422   4.183   1.243 -0.8868 -1.4030 -0.2210
 6700TIP3   OH220063   0.352   3.648   2.392 -0.2377 -0.4060 -0.3258
 6700TIP3    H120064   0.372   3.593   2.316  0.7620  0.4237 -0.6722
 6700TIP3    H220065   0.379   3.595   2.467  0.5604 -0.4761 -0.6512
 6701TIP3   OH220066   2.653   1.064   5.134  0.2122 -0.2714  0.4344
 6701TIP3    H120067   2.650   1.058   5.039  2.0420 -0.4088  0.3538
 6701TIP3    H220068   2.703   1.144   5.151 -0.1354 -0.2227  1.3039
 6702TIP3   OH220069   2.859   1.459   0.688 -0.2409  0.2006 -0.2899
 6702TIP3    H120070   2.814   1.451   0.772  0.2443  0.2173 -0.0273
 6702TIP3    H220071   2.861   1.553   0.670  0.7122  0.2995  0.2655
 6703TIP3   OH220072   1.908   3.630   1.123 -1.1371 -0.0630  0.2177
 6703TIP3    H120073   1.938   3.584   1.044  1.4884 -2.0571  2.1934
 6703TIP3    H220074   1.932   3.721   1.108 -0.5350 -0.4160 -1.1899
 6704TIP3   OH220075   2.645   2.887   4.926 -0.4989 -0.3129  0.7233
 6704TIP3    H120076   2.581   2.846   4.985 -0.3771 -2.5587 -0.5688
 6704TIP3    H220077   2.684   2.813   4.879  0.6361  1.2595 -0.9363
 6705TIP3   OH220078   3.559   5.882   1.409 -0.4860 -0.5023  0.0720
 6705TIP3    H120079   3.578   5.848   1.497 -1.4989 -0.3527  0.3538
 6705TIP3    H220080   3.626   5.948   1.395  0.0664 -0.9592  0.4746
 6706TIP3   OH220081   6.990   1.376   0.584 -0.2093  0.0052 -0.3352
 6706TIP3    H120082   7.079   1.376   0.547  0.5805  0.6507  1.4620
 6706TIP3    H220083   6.976   1.285   0.610 -0.9101 -0.5392 -2.3973
 6707TIP3   OH220084   4.351   3.880   5.492  0.3396 -0.3427  0.0909
 6707TIP3    H120085   4.354   3.968   5.455 -0.5786 -1.6396 -3.5395
 6707TIP3    H220086   4.442   3.858   5.511  1.2314 -0.1704 -3.3888
 6708TIP3   OH220087   0.430   4.941   3.054 -0.1803 -0.2051  0.5611
 6708TIP3    H120088   0.396   4.904   2.972  0.7683  0.8980 -0.3685
 6708TIP3    H220089   0.360   4.928   3.117 -1.2034 -0.4955 -0.5875
 6709TIP3   OH220090   3.631   5.601   5.629 -0.3293 -0.4051 -0.1904
 6709TIP3    H120091   3.550   5.650   5.614  0.3932  1.1916  0.7885
 6709TIP3    H220092   3.688   5.628   5.557  0.1140  0.3208  0.4203
 6710TIP3   OH220093   4.103   0.699   2.548 -0.0547  0.1380 -0.1312
 6710TIP3    H120094   4.090   0.783   2.504  0.9696 -1.1061 -3.0341
 6710TIP3    H220095   4.197   0.697   2.567  0.0551 -0.5747 -0.6857
 6711TIP3   OH220096   4.463   5.104   2.613 -0.4711  0.1384  0.0404
 6711TIP3    H120097   4.525   5.075   2.680  1.0005 -0.0120 -1.3295
 6711TIP3    H220098   4.470   5.199   2.613 -0.3227  0.1269 -0.0415
 6712TIP3   OH220099   4.761   0.350   2.912  0.0526 -0.3376 -0.1222
 6712TIP3    H120100   4.843   0.344   2.960  0.3593  2.5066 -0.1066
 6712TIP3    H220101   4.731   0.440   2.927 -1.7339 -0.4931 -2.2436
 6713TIP3   OH220102   1.538   6.537   5.191 -0.2395  0.7224  0.1318
 6713TIP3    H120103   1.465   6.501   5.141 -1.3178  0.9382  1.5098
 6713TIP3    H220104   1.607   6.550   5.126 -0.7065 -1.3713 -0.8600
 6714TIP3   OH220105   0.086   1.025   1.499  0.3423  0.4465  0.1334
 6714TIP3    H120106   0.106   1.116   1.517  0.6537  0.6787 -1.3060
 6714TIP3    H220107  -0.004   1.014   1.531  0.2226  1.3215  0.1248
 6715TIP3   OH220108   5.788   5.148   4.012 -0.1300  0.8685  0.2978
 6715TIP3    H120109   5.837   5.230   4.020  2.7351 -0.7947  1.3990
 6715TIP3    H220110   5.834   5.100   3.942 -0.5401 -0.5484  0.9633
 6716TIP3   OH220111   0.762   4.039   0.908 -0.2632 -0.5377 -0.0319
 6716TIP3    H120112   0.783   4.090   0.986  1.2317  0.1692 -0.8478
 6716TIP3    H220113   0.685   4.082   0.870  0.6522  0.8198 -0.4108
 6717TIP3   OH220114   0.694   1.585   3.704 -0.2610 -0.6194 -0.7803
 6717TIP3    H120115   0.695   1.556   3.795 -0.1560  0.0035 -0.5837
 6717TIP3    H220116   0.626   1.653   3.701  2.9590  2.9505 -0.0466
 6718TIP3   OH220117   6.554   2.087   4.809 -0.2068  0.1170 -0.0156
 6718TIP3    H120118   6.635   2.138   4.798 -0.1512  0.5560  2.0507
 6718TIP3    H220119   6.547   2.036   4.728  0.6720  2.0850 -1.4321
 6719TIP3   OH220120   5.133   1.052   5.033  0.1177 -0.0812 -0.7551
 6719TIP3    H120121   5.060   1.104   4.999 -1.2658 -1.4831 -0.0273
 6719TIP3    H220122   5.191   1.116   5.074 -0.6337  1.0718 -1.4347
 6720TIP3   OH220123   4.575   3.388   5.197  0.3022  0.0399  0.1996
 6720TIP3    H120124   4.508   3.320   5.196  2.3434 -2.1582 -2.4242
 6720TIP3    H220125   4.528   3.469   5.178 -1.7266 -1.2370 -0.4954
 6721TIP3   OH220126   0.778   4.554   5.607  0.1287 -0.6274  0.0478
 6721TIP3    H120127   0.768   4.641   5.570  0.5179 -0.7400 -0.3377
 6721TIP3    H220128   0.739   4.496   5.541  0.4811 -0.7960 -0.0159
 6722TIP3   OH220129   0.871   3.990   5.585  0.4628 -0.7667  0.2579
 6722TIP3    H120130   0.963   4.016   5.589  0.1911  0.0292  2.0735
 6722TIP3    H220131   0.872   3.895   5.597  1.1982 -1.2248 -2.6936
 6723TIP3   OH220132   0.798  -0.021   1.060 -0.9687 -0.0757 -0.1313
 6723TIP3    H120133   0.749   0.059   1.080  1.2229  1.5142 -0.8084
 6723TIP3    H220134   0.852  -0.036   1.138 -2.6256 -1.9883  0.7376
 6724TIP3   OH220135   5.668   6.790   2.844 -0.2199  0.4295  0.2628
 6724TIP3    H120136   5.671   6.701   2.878 -0.2985  0.1944 -0.3514
 6724TIP3    H220137   5.602   6.834   2.898 -0.0303  0.1779  0.7029
 6725TIP3   OH220138   0.658   3.635   2.224 -0.2584  0.1663 -0.2723
 6725TIP3    H120139   0.636   3.702   2.159 -0.6788  0.9491  0.6467
 6725TIP3    H220140   0.659   3.682   2.307 -1.6729 -1.1827  0.5625
 6726TIP3   OH220141   7.211   4.465   2.451 -0.2087  0.0816  0.3575
 6726TIP3    H120142   7.164   4.420   2.380 -1.1389  2.0697 -0.3521
 6726TIP3    H220143   7.197   4.409   2.527 -1.9793 -0.4504 -0.3032
 6727TIP3   OH220144   4.577   3.534   1.274 -0.1017 -0.1132 -0.3871
 6727TIP3    H120145   4.640   3.465   1.249 -0.0221 -0.1803 -0.0056
 6727TIP3    H220146   4.574   3.530   1.369 -0.2678  0.2657 -0.3764
 6728TIP3   OH220147   0.714   1.813   5.786  0.5453  0.1671  0.1617
 6728TIP3    H120148   0.708   1.841   5.695 -1.8579 -1.6609 -0.3406
 6728TIP3    H220149   0.632   1.841   5.826  0.2183 -1.6801  0.9010
 6729TIP3   OH220150   2.943   0.332   5.847 -0.2085  0.2085  0.4167
 6729TIP3    H120151   2.999   0.266   5.806  0.3298  0.8438  0.1097
 6729TIP3    H220152   2.881   0.282   5.900  1.4835 -0.4780  1.8383
 6730TIP3   OH220153   2.411   4.402   4.697  0.0111  0.1205  0.2874
 6730TIP3    H120154   2.475   4.403   4.626  0.8087 -0.0098  0.9810
 6730TIP3    H220155   2.381   4.493   4.703 -1.4059 -0.1897 -1.3560
 6731TIP3   OH220156   4.203   0.832   3.707  0.2552  0.6605 -0.6543
 6731TIP3    H120157   4.270   0.819   3.640 -0.9332 -2.7064 -1.4020
 6731TIP3    H220158   4.121   0.836   3.658 -0.3846  1.3775  0.4407
 6732TIP3   OH220159   6.076   1.705   4.811  0.2757 -0.3546  0.3570
 6732TIP3    H120160   6.074   1.718   4.716  0.1169  0.1909  0.4277
 6732TIP3    H220161   6.044   1.616   4.824  3.2023 -1.5968 -0.2900
 6733TIP3   OH220162   2.845   1.939   3.092  0.0948 -0.1585  0.2183
 6733TIP3    H120163   2.895   1.900   3.163  0.3624  0.0832  0.1637
 6733TIP3    H220164   2.767   1.976   3.135  0.3342  0.1276  0.4096
 6734TIP3   OH220165   2.513   3.379   3.360  0.2072  0.1800 -0.7305
 6734TIP3    H120166   2.496   3.304   3.304 -0.3267  0.8971 -1.5545
 6734TIP3    H220167   2.497   3.455   3.304 -0.7235  0.9247  0.4911
 6735TIP3   OH220168   5.683   0.296   2.691 -0.2174  0.9463  0.1964
 6735TIP3    H120169   5.655   0.273   2.603 -0.0482  1.3499  0.0341
 6735TIP3    H220170   5.757   0.238   2.709  0.3308  1.4901 -0.2841
 6736TIP3   OH220171   2.605   3.330   4.066  0.0288 -0.2780 -0.2018
 6736TIP3    H120172   2.683   3.274   4.063  0.6368  0.4524  1.1557
 6736TIP3    H220173   2.639   3.419   4.056 -0.6716  0.0273  0.0663
 6737TIP3   OH220174   4.025   3.433   2.094 -0.0275  0.2298 -0.2717
 6737TIP3    H120175   3.942   3.387   2.099 -0.5280  0.8431 -2.2641
 6737TIP3    H220176   4.090   3.368   2.121 -0.7860 -1.4787 -2.3389
 6738TIP3   OH220177   1.227   4.453   5.441 -0.0530  0.2191 -0.2584
 6738TIP3    H120178   1.161   4.385   5.438 -0.1091  0.1113  1.9773
 6738TIP3    H220179   1.288   4.425   5.510 -0.1603  2.4567  0.8460
 6739TIP3   OH220180   3.342   3.128   2.085 -0.6507 -0.2304  0.0132
 6739TIP3    H120181   3.352   3.041   2.124  0.2372  0.2364  0.8527
 6739TIP3    H220182   3.259   3.160   2.119 -1.0340 -0.7914 -0.3847
 6740TIP3   OH220183   4.233   4.861   2.563  0.2006  0.0446  0.1479
 6740TIP3    H120184   4.222   4.805   2.487 -0.4021  0.0194  0.2418
 6740TIP3    H220185   4.293   4.813   2.620 -0.7999 -0.8189  0.5103
 6741TIP3   OH220186   0.646   0.223   1.136 -0.4221  0.0842  0.4574
 6741TIP3    H120187   0.638   0.307   1.181  0.9862  0.0933  0.7440
 6741TIP3    H220188   0.567   0.216   1.083 -1.6385  0.5748  2.1120
 6742TIP3   OH220189   2.350   4.250   1.267  0.0355  0.4563  0.4675
 6742TIP3    H120190   2.273   4.209   1.228 -0.4753  0.7961  1.1021
 6742TIP3    H220191   2.400   4.177   1.304 -1.1246  0.4087  2.0478
 6743TIP3   OH220192   1.881   0.403   4.003  0.0811  0.1011  0.9902
 6743TIP3    H120193   1.920   0.415   3.916  0.4319  1.7468  1.3487
 6743TIP3    H220194   1.929   0.329   4.041  0.4753 -0.1139  0.0954
 6744TIP3   OH220195   1.897   5.992   4.524  0.3653  0.3234  0.0754
 6744TIP3    H120196   1.926   6.078   4.492  0.0810  0.7316  0.8965
 6744TIP3    H220197   1.813   6.009   4.566 -0.3951 -0.6029 -0.9804
 6745TIP3   OH220198   5.644   1.530   4.721 -0.3395  0.1741 -0.1723
 6745TIP3    H120199   5.632   1.624   4.715 -0.1178  0.2802  0.8342
 6745TIP3    H220200   5.738   1.517   4.711 -0.3905  0.0440 -0.4832
 6746TIP3   OH220201   6.267   3.896   4.705 -0.4399 -0.2415 -0.2379
 6746TIP3    H120202   6.328   3.889   4.632 -0.6032 -0.3022 -0.3694
 6746TIP3    H220203   6.315   3.943   4.773  0.8558 -2.9188  0.8343
 6747TIP3   OH220204   1.646   3.793   3.120  0.4107  0.6049 -0.0839
 6747TIP3    H120205   1.708   3.829   3.057 -0.8846 -0.6606 -2.2014
 6747TIP3    H220206   1.571   3.853   3.116  0.5942  0.9114  0.8264
 6748TIP3   OH220207   3.457   3.123   4.403 -0.1115 -0.0449 -0.0031
 6748TIP3    H120208   3.527   3.099   4.464 -0.0091 -0.3314 -0.2305
 6748TIP3    H220209   3.416   3.200   4.442 -0.3351 -0.4934  0.6564
 6749TIP3   OH220210   1.110   3.855   5.156 -0.0622  0.2716 -0.8406
 6749TIP3    H120211   1.196   3.851   5.114 -0.8733 -0.1278 -2.5760
 6749TIP3    H220212   1.066   3.928   5.114 -0.1482  1.3121  0.9632
 6750TIP3   OH220213   2.492   6.326   1.467 -0.6130  0.0156  0.0407
 6750TIP3    H120214   2.489   6.422   1.474  0.1996  0.0117  0.5974
 6750TIP3    H220215   2.577   6.307   1.428 -0.6465 -0.4922  0.2057
 6751TIP3   OH220216   0.355   2.271   5.270  0.2225 -0.2622  0.0039
 6751TIP3    H120217   0.271   2.288   5.228  0.2343 -1.4701 -0.5666
 6751TIP3    H220218   0.400   2.355   5.269 -1.2913  0.5956  1.0724
 6752TIP3   OH220219   3.452   6.381   0.427 -0.7498  0.7484  0.6930
 6752TIP3    H120220   3.511   6.332   0.484 -1.1116  2.7114  2.8977
 6752TIP3    H220221   3.510   6.432   0.371 -0.4021 -0.3571 -0.0075
 6753TIP3   OH220222   1.952   1.128   0.632  0.7264 -0.2034  0.2198
 6753TIP3    H120223   1.899   1.206   0.615 -0.4619 -0.7082  1.4093
 6753TIP3    H220224   1.905   1.057   0.588  0.4143 -0.6494  1.2393
 6754TIP3   OH220225   4.621   2.186   1.300  0.5160  0.5606  0.2280
 6754TIP3    H120226   4.664   2.222   1.377 -1.1956  0.1487  1.4136
 6754TIP3    H220227   4.552   2.248   1.279  2.1590  1.7335 -2.2680
 6755TIP3   OH220228   1.597   2.016   2.568  0.5888  0.5821 -0.1554
 6755TIP3    H120229   1.665   2.031   2.635  1.4049 -2.1607 -0.2453
 6755TIP3    H220230   1.579   2.103   2.533  2.1472  1.7560  1.7122
 6756TIP3   OH220231   4.159   6.783   3.382 -0.2675  0.0114 -0.7298
 6756TIP3    H120232   4.095   6.740   3.439  0.8386 -0.6570  0.0596
 6756TIP3    H220233   4.242   6.774   3.429  0.1828  2.1586 -1.0092
 6757TIP3   OH220234   6.749  -0.003   4.713 -0.3968 -0.0538  0.0417
 6757TIP3    H120235   6.690   0.072   4.718 -1.9546 -1.0859 -1.4473
 6757TIP3    H220236   6.721  -0.061   4.784 -0.6991 -0.2122 -0.2034
 6758TIP3   OH220237   5.510   2.432   0.277  0.4009  0.3894  0.0218
 6758TIP3    H120238   5.600   2.440   0.247 -0.0006  1.2672 -1.0064
 6758TIP3    H220239   5.492   2.515   0.322  0.5894 -0.4072  1.6654
 6759TIP3   OH220240   4.291   0.311   3.909  0.0593 -0.6441  0.1573
 6759TIP3    H120241   4.376   0.292   3.869  0.3226 -0.2600  0.5204
 6759TIP3    H220242   4.255   0.225   3.932  0.0359 -0.8476 -0.6250
 6760TIP3   OH220243   3.473   5.955   2.161  0.0571 -0.2368  0.4245
 6760TIP3    H120244   3.409   6.026   2.169 -0.3202 -0.7233  2.2010
 6760TIP3    H220245   3.483   5.922   2.250  2.0000 -0.8874  0.0130
 6761TIP3   OH220246   3.568   1.157   2.459  0.5155  0.0041 -0.1304
 6761TIP3    H120247   3.555   1.229   2.520  0.2582  0.4794 -0.7396
 6761TIP3    H220248   3.653   1.173   2.420 -0.1297  0.7652 -1.2865
 6762TIP3   OH220249   1.595   6.342   5.381  0.1229 -0.2998 -0.3618
 6762TIP3    H120250   1.533   6.273   5.357  0.7203 -1.1772  0.5455
 6762TIP3    H220251   1.592   6.403   5.307 -2.8437  0.4513  0.2426
 6763TIP3   OH220252   1.834   0.831   0.763 -0.3041  0.1484 -0.1435
 6763TIP3    H120253   1.885   0.817   0.683 -0.6902 -1.2678 -0.1867
 6763TIP3    H220254   1.751   0.867   0.732 -0.0551  0.6292 -0.2639
 6764TIP3   OH220255   6.287   5.812   1.956  0.3313  0.0731  0.4658
 6764TIP3    H120256   6.270   5.901   1.987 -0.3862 -0.4268  1.5474
 6764TIP3    H220257   6.378   5.795   1.978  0.2792  0.2970  0.8489
 6765TIP3   OH220258   6.980   5.959   4.583  0.6606 -0.4223  0.2364
 6765TIP3    H120259   7.042   6.031   4.570 -0.6930  0.5714 -1.0443
 6765TIP3    H220260   6.894   6.001   4.581 -0.0988 -1.8048  1.6783
 6766TIP3   OH220261   0.552   0.772   2.738 -0.1468  0.2146  0.6016
 6766TIP3    H120262   0.469   0.820   2.739  0.2876  0.9834  0.2786
 6766TIP3    H220263   0.601   0.809   2.665 -0.1623 -1.3738 -0.2418
 6767TIP3   OH220264   5.990   6.364   1.164  0.4068  0.0624 -0.2826
 6767TIP3    H120265   5.971   6.409   1.082 -0.5656  0.4971  0.1649
 6767TIP3    H220266   6.079   6.393   1.187  0.3720  0.5765 -0.7669
 6768TIP3   OH220267   3.677   6.354   5.330  0.3086 -0.6151  0.4304
 6768TIP3    H120268   3.659   6.317   5.416  0.6653 -0.0929  0.7323
 6768TIP3    H220269   3.621   6.304   5.270 -0.6048 -0.3765  1.0786
 6769TIP3   OH220270   1.980   4.845   0.893  0.2672  0.1059  0.9908
 6769TIP3    H120271   1.917   4.916   0.903  0.7084  0.3543  2.2229
 6769TIP3    H220272   2.065   4.886   0.907  0.7250 -0.2354 -0.5934
 6770TIP3   OH220273   3.578   5.843   0.708  0.2241  0.3543 -0.0515
 6770TIP3    H120274   3.485   5.828   0.728 -0.1043  0.1809 -1.5400
 6770TIP3    H220275   3.621   5.761   0.731 -0.4033 -0.4295 -1.5039
 6771TIP3   OH220276   3.966   0.191   4.876  0.4527  0.3002  0.6300
 6771TIP3    H120277   3.900   0.242   4.830  1.3772 -0.5375 -1.7629
 6771TIP3    H220278   3.915   0.127   4.927 -0.6147 -0.4244 -1.2665
 6772TIP3   OH220279   1.934   0.642   1.582  0.3809  0.1808 -0.1618
 6772TIP3    H120280   1.840   0.642   1.602  0.2231  0.2013 -0.8858
 6772TIP3    H220281   1.977   0.652   1.668 -0.2429 -1.1400  0.3335
 6773TIP3   OH220282   2.647   0.143   3.380 -0.0404  0.4414  0.0584
 6773TIP3    H120283   2.665   0.234   3.359  1.1299 -0.1963 -1.9396
 6773TIP3    H220284   2.719   0.116   3.436 -1.0580  1.0473  1.7245
 6774TIP3   OH220285   5.258   5.656   5.432  0.3211  0.4507  0.0607
 6774TIP3    H120286   5.171   5.668   5.393 -1.4275 -1.3549  3.0081
 6774TIP3    H220287   5.281   5.743   5.465 -1.2383  0.6112  0.8135
 6775TIP3   OH220288   5.479   4.999   1.376  0.3469 -0.2598 -0.6755
 6775TIP3    H120289   5.440   5.074   1.423 -0.6900 -0.4446 -1.2144
 6775TIP3    H220290   5.563   5.032   1.345  0.4287  0.3114  0.1028
 6776TIP3   OH220291   2.105   4.608   1.800  0.0067  0.2953 -0.1517
 6776TIP3    H120292   2.085   4.549   1.873  1.3825  1.7468  1.4862
 6776TIP3    H220293   2.020   4.633   1.766 -0.6837 -0.2671  1.0853
 6777TIP3   OH220294   0.675   3.716   3.867 -0.4194  0.2580  0.1596
 6777TIP3    H120295   0.644   3.780   3.932  0.1938 -0.4300  1.1400
 6777TIP3    H220296   0.770   3.719   3.873 -0.3906 -1.3924  0.8627
 6778TIP3   OH220297   6.152   4.956   3.164  0.3773  0.0180 -0.1210
 6778TIP3    H120298   6.111   4.947   3.250  1.2747  0.6861  0.3875
 6778TIP3    H220299   6.102   5.026   3.121  0.8307  0.6823  0.4143
 6779TIP3   OH220300   0.500   3.141   5.124  0.0629 -0.3771 -0.1751
 6779TIP3    H120301   0.471   3.221   5.169  0.6886 -0.4023  0.2819
 6779TIP3    H220302   0.461   3.148   5.037  0.8592  0.8802 -0.4609
 6780TIP3   OH220303   0.463   0.925   5.044  0.3665 -0.0081 -0.0673
 6780TIP3    H120304   0.400   0.853   5.037  0.0568  0.3042 -0.5829
 6780TIP3    H220305   0.452   0.974   4.962  1.4202 -0.0637 -0.2460
 6781TIP3   OH220306   3.496   4.058   3.544 -0.9435  0.0706  0.0388
 6781TIP3    H120307   3.528   4.051   3.634 -0.0081  0.4528 -0.2507
 6781TIP3    H220308   3.555   4.002   3.494 -0.2937  1.2931 -0.6102
 6782TIP3   OH220309   5.962   1.557   3.948 -0.3433 -0.4416 -0.3624
 6782TIP3    H120310   6.049   1.588   3.976 -0.9742  0.6268  0.4745
 6782TIP3    H220311   5.956   1.468   3.984 -0.1088 -0.0332  0.7455
 6783TIP3   OH220312   3.834   0.385   5.191 -0.6352  0.1083 -0.1302
 6783TIP3    H120313   3.761   0.421   5.241  1.5466  3.4755  1.0081
 6783TIP3    H220314   3.826   0.425   5.104 -0.4077  0.1424 -0.1374
 6784TIP3   OH220315   4.759   1.020   4.534  0.0146 -0.3054 -0.5179
 6784TIP3    H120316   4.801   1.106   4.524 -1.7150  0.5757 -0.6369
 6784TIP3    H220317   4.666   1.038   4.524 -0.3941 -2.2180 -0.5225
 6785TIP3   OH220318   5.266   6.649   5.510 -0.2219  0.3397  0.0891
 6785TIP3    H120319   5.321   6.571   5.501  1.3424  1.2782  1.0713
 6785TIP3    H220320   5.327   6.718   5.538 -1.1609  2.4367 -2.6458
 6786TIP3   OH220321   4.098   5.025   1.512  0.1874 -0.4050  0.0800
 6786TIP3    H120322   4.022   4.969   1.502 -0.3378  0.0614  1.2771
 6786TIP3    H220323   4.152   4.981   1.578  1.6001 -1.3790 -1.6411
 6787TIP3   OH220324   1.749   1.287   0.464  0.0157 -0.1372 -0.1136
 6787TIP3    H120325   1.760   1.208   0.410 -1.4083  0.1757 -0.9242
 6787TIP3    H220326   1.729   1.356   0.401  0.8465  0.7928  0.6241
 6788TIP3   OH220327   0.288   6.324   3.863  0.2550  0.6077 -0.2809
 6788TIP3    H120328   0.349   6.254   3.884  1.8355  2.4446  1.6965
 6788TIP3    H220329   0.202   6.287   3.884  1.1178 -0.4157  1.7607
 6789TIP3   OH220330   1.705   2.119   2.260 -0.0050 -0.2506 -1.1303
 6789TIP3    H120331   1.706   2.174   2.181  3.0082 -0.1032 -1.1020
 6789TIP3    H220332   1.722   2.031   2.227  1.5034 -0.1524 -0.6537
 6790TIP3   OH220333   5.298   2.732   2.342 -0.5506  0.3696  0.5810
 6790TIP3    H120334   5.325   2.725   2.434 -0.3465 -1.4600  0.4179
 6790TIP3    H220335   5.212   2.690   2.340 -1.1440  1.5578  0.1437
 6791TIP3   OH220336   4.561   1.264   0.953  0.3633 -0.6301  0.4303
 6791TIP3    H120337   4.473   1.260   0.991 -0.8175 -1.8100 -2.1493
 6791TIP3    H220338   4.572   1.179   0.910  2.0476  0.1462 -0.7945
 6792TIP3   OH220339   4.245   4.696   4.382 -0.1944  0.0241 -0.2273
 6792TIP3    H120340   4.315   4.735   4.434 -1.1733  1.7811 -0.1624
 6792TIP3    H220341   4.229   4.611   4.424  1.9789 -0.5042 -0.3670
 6793TIP3   OH220342   6.964   3.350   2.367  0.0296 -0.1923 -0.5395
 6793TIP3    H120343   6.953   3.364   2.461  1.4298 -2.1081 -0.0380
 6793TIP3    H220344   6.935   3.432   2.328 -0.3172  0.7682  1.5771
 6794TIP3   OH220345   2.182   2.136   5.459  0.0247 -0.1255 -0.2661
 6794TIP3    H120346   2.127   2.061   5.437  0.2247 -0.2934 -0.2037
 6794TIP3    H220347   2.121   2.209   5.469 -0.4252 -0.7060  1.6820
 6795TIP3   OH220348   5.013   4.128   2.415 -0.1397  0.0143  0.0067
 6795TIP3    H120349   4.957   4.089   2.483  0.5926 -1.0200  0.0354
 6795TIP3    H220350   5.010   4.222   2.433  1.9883 -0.3380  3.0656
 6796TIP3   OH220351   5.976   4.027   3.089 -0.0355 -0.6141 -0.4023
 6796TIP3    H120352   6.052   4.079   3.062  0.3950 -1.0971 -0.1088
 6796TIP3    H220353   6.006   3.975   3.163  0.1062 -2.7168 -1.8517
 6797TIP3   OH220354   1.628   1.580   5.436 -0.7412 -0.3705  0.1295
 6797TIP3    H120355   1.541   1.602   5.469 -0.3423 -0.1802  1.1066
 6797TIP3    H220356   1.677   1.555   5.515 -0.1747 -1.3695 -0.5234
 6798TIP3   OH220357   5.329   1.466   1.462 -0.5770  0.0737 -0.5208
 6798TIP3    H120358   5.338   1.373   1.479 -1.8321  0.3257  2.0149
 6798TIP3    H220359   5.398   1.507   1.513 -0.2769  0.5802 -1.3081
 6799TIP3   OH220360   0.904   4.309   4.451 -0.1840 -0.0096 -0.3818
 6799TIP3    H120361   0.916   4.399   4.421 -4.4515  0.9469  0.1044
 6799TIP3    H220362   0.840   4.272   4.389  0.4800 -2.2865  0.2047
 6800TIP3   OH220363   4.158   1.510   0.673  0.0975 -0.0507 -0.4493
 6800TIP3    H120364   4.139   1.588   0.725 -1.0352 -0.0920 -0.7768
 6800TIP3    H220365   4.091   1.447   0.699  1.4100 -1.2066  0.3410
 6801TIP3   OH220366   3.762   5.663   3.206 -0.2598 -0.3369  0.2596
 6801TIP3    H120367   3.776   5.750   3.167 -2.4169 -0.3283 -0.6344
 6801TIP3    H220368   3.722   5.681   3.291 -2.2196 -0.4177 -0.5970
 6802TIP3   OH220369   0.557   5.258   0.994 -0.3792  0.2958  0.2688
 6802TIP3    H120370   0.547   5.260   1.089 -0.0629  0.2031  0.3069
 6802TIP3    H220371   0.637   5.208   0.980 -1.5107 -1.4634 -0.1429
 6803TIP3   OH220372   2.610   4.232   1.886  0.0724 -0.8231 -0.0044
 6803TIP3    H120373   2.576   4.305   1.834  0.3840 -0.5594  0.1547
 6803TIP3    H220374   2.583   4.252   1.975  1.0198 -0.3721  0.1941
 6804TIP3   OH220375   5.124   4.343   2.551 -0.3524 -0.1049  0.3591
 6804TIP3    H120376   5.088   4.421   2.593  0.8763  1.6951 -1.7012
 6804TIP3    H220377   5.170   4.297   2.621 -1.3152  0.8607  1.6845
 6805TIP3   OH220378   3.801   5.979   2.387 -0.1440  0.0713 -0.6469
 6805TIP3    H120379   3.848   5.935   2.316  2.1008  1.2343  0.0482
 6805TIP3    H220380   3.802   5.916   2.459 -1.4999 -0.6948 -1.2590
 6806TIP3   OH220381   6.827   2.582   5.607 -0.5137 -0.0467 -0.4270
 6806TIP3    H120382   6.843   2.564   5.699 -1.2421 -1.5107 -0.5518
 6806TIP3    H220383   6.763   2.654   5.607 -1.2499 -0.6873  0.2428
 6807TIP3   OH220384   0.795   6.467   1.499  0.4110  0.0677  0.3829
 6807TIP3    H120385   0.843   6.401   1.451 -1.6407 -0.9623 -0.3507
 6807TIP3    H220386   0.752   6.419   1.570  0.0957  0.8670  0.7468
 6808TIP3   OH220387   6.811   0.955   4.469 -0.2327  0.2980  0.6138
 6808TIP3    H120388   6.829   0.918   4.556 -1.3726 -2.0231 -0.0496
 6808TIP3    H220389   6.819   0.881   4.410 -1.9157  1.2688 -0.9388
 6809TIP3   OH220390   4.152   2.459   1.854  0.0112  0.2043  0.4012
 6809TIP3    H120391   4.142   2.368   1.826 -0.1747  0.1456  0.6536
 6809TIP3    H220392   4.245   2.469   1.871  0.3967  0.7034 -1.8028
 6810TIP3   OH220393   0.030   3.713   2.433  0.3004  0.1688  0.0696
 6810TIP3    H120394  -0.017   3.748   2.509 -0.4381 -1.0156  0.1969
 6810TIP3    H220395   0.101   3.775   2.418 -0.8711  1.6521  0.3271
 6811TIP3   OH220396   1.438   3.654   3.533  0.2359  0.4184  0.1448
 6811TIP3    H120397   1.492   3.610   3.599  1.7878  0.8962 -0.7527
 6811TIP3    H220398   1.354   3.667   3.576  0.3334 -1.6655  1.0941
 6812TIP3   OH220399   5.384   1.895   2.618 -0.3063  0.2615  0.2566
 6812TIP3    H120400   5.332   1.833   2.566 -0.4666  0.2178  0.4643
 6812TIP3    H220401   5.358   1.981   2.586 -0.9791  0.2665  0.7828
 6813TIP3   OH220402   4.605   6.741   5.405  0.0558 -1.1436 -0.1771
 6813TIP3    H120403   4.641   6.798   5.472 -1.1436  0.5472 -0.8992
 6813TIP3    H220404   4.677   6.729   5.343 -0.2332  1.4197 -1.1216
 6814TIP3   OH220405   5.807   6.038   3.437 -0.4180 -0.3203  0.3638
 6814TIP3    H120406   5.806   6.023   3.532 -2.1682  0.3256  0.4921
 6814TIP3    H220407   5.768   5.958   3.400  1.5846 -1.2075  0.0168
 6815TIP3   OH220408   0.604   4.141   0.114  0.5734  0.3942 -0.1708
 6815TIP3    H120409   0.626   4.234   0.105 -1.4463  1.1136  1.4662
 6815TIP3    H220410   0.595   4.109   0.025  2.9105  1.3032 -0.8088
 6816TIP3   OH220411   5.149   4.890   2.801  0.5002  0.9204  0.3429
 6816TIP3    H120412   5.096   4.816   2.831 -0.3146  0.9668 -0.9221
 6816TIP3    H220413   5.090   4.965   2.805  0.1816  0.8404 -1.8288
 6817TIP3   OH220414   3.607   5.882   4.658  0.0858  0.0429 -0.2408
 6817TIP3    H120415   3.579   5.831   4.734  0.2301 -0.3859 -0.4658
 6817TIP3    H220416   3.626   5.969   4.691  1.0985 -0.4001  0.3845
 6818TIP3   OH220417   5.800   0.286   4.742  0.2145 -0.0783 -0.0065
 6818TIP3    H120418   5.746   0.364   4.757 -2.3132 -1.8258  0.4887
 6818TIP3    H220419   5.845   0.272   4.825  0.1601  0.4599  0.1189
 6819TIP3   OH220420   5.046   3.591   4.555  1.0658  0.3470  0.3085
 6819TIP3    H120421   5.126   3.643   4.571  0.5623  0.8849  1.1501
 6819TIP3    H220422   4.983   3.624   4.618  0.0780  0.1028 -0.5178
 6820TIP3   OH220423   6.036   3.119   1.601  0.2438 -0.3397 -0.0848
 6820TIP3    H120424   6.064   3.126   1.692  0.5535 -1.8793 -0.0492
 6820TIP3    H220425   5.941   3.124   1.605  0.2625  3.5124 -0.0852
 6821TIP3   OH220426   5.340   3.716   2.838  0.2502 -0.6851  0.0514
 6821TIP3    H120427   5.352   3.635   2.788  0.9139 -0.7236  0.2603
 6821TIP3    H220428   5.364   3.786   2.778 -1.0501 -0.5694 -0.3798
 6822TIP3   OH220429   2.025   0.722   2.613 -0.0610 -0.0360  0.5343
 6822TIP3    H120430   2.057   0.718   2.522  0.6903  2.9651  0.5656
 6822TIP3    H220431   2.099   0.693   2.666  0.1346 -0.0177  0.2724
 6823TIP3   OH220432   5.191   3.680   3.088 -0.3000  0.4925  0.5022
 6823TIP3    H120433   5.183   3.635   3.004 -1.1339  0.5823  0.5231
 6823TIP3    H220434   5.270   3.732   3.080 -1.0547  1.5073 -0.7161
 6824TIP3   OH220435   5.729   1.061   4.110  0.1608 -0.1271  0.7548
 6824TIP3    H120436   5.704   1.111   4.188  1.5830 -1.0774  1.8904
 6824TIP3    H220437   5.651   1.010   4.088  0.2873 -1.3409  2.8066
 6825TIP3   OH220438   6.187   0.452   3.385  0.0747  0.2348  0.2867
 6825TIP3    H120439   6.211   0.400   3.309 -1.9563  0.2856 -0.4550
 6825TIP3    H220440   6.259   0.514   3.396  0.3753  0.2928 -1.6531
 6826TIP3   OH220441   6.279   1.762   3.350 -0.5024 -0.2323  0.2558
 6826TIP3    H120442   6.371   1.754   3.326  0.1714  1.8344  1.8910
 6826TIP3    H220443   6.268   1.703   3.425 -0.5365 -0.5009  0.0422
 6827TIP3   OH220444   1.857   4.971   4.494 -0.2755 -0.3212  0.0190
 6827TIP3    H120445   1.913   5.030   4.442 -1.2415 -0.3647 -1.1201
 6827TIP3    H220446   1.901   4.886   4.487  1.3302  0.2670  1.9831
 6828TIP3   OH220447   2.915   5.278   2.947  0.3155  0.1771 -0.2743
 6828TIP3    H120448   2.982   5.346   2.947 -0.8023  1.3572  1.1836
 6828TIP3    H220449   2.954   5.206   2.898  3.1035  0.3862  1.3844
 6829TIP3   OH220450   4.935   1.278   3.945 -0.2060  0.3204 -0.5887
 6829TIP3    H120451   4.934   1.320   4.031 -1.8340  1.9522 -1.3142
 6829TIP3    H220452   4.850   1.236   3.938 -0.0214  0.0533 -1.3254
 6830TIP3   OH220453   0.566   4.403   2.602  0.2682 -0.4686  0.5915
 6830TIP3    H120454   0.601   4.487   2.572  0.0897 -0.5296  0.2054
 6830TIP3    H220455   0.496   4.426   2.663  0.2760 -0.3346  0.5503
 6831TIP3   OH220456   4.700   0.638   5.197 -0.3877 -0.2348  0.1726
 6831TIP3    H120457   4.728   0.559   5.150 -1.8039 -1.1006  0.7259
 6831TIP3    H220458   4.605   0.641   5.184 -0.2443  2.1424 -0.9583
 6832TIP3   OH220459   1.967   1.266   4.907 -0.0629  0.4410  0.0248
 6832TIP3    H120460   2.030   1.216   4.959 -1.0095  0.5832  1.3504
 6832TIP3    H220461   1.908   1.200   4.872 -1.5333  0.5899  2.0768
 6833TIP3   OH220462   0.905   6.409   0.033 -0.2585  0.3100 -0.3132
 6833TIP3    H120463   0.906   6.409  -0.063 -0.9905  0.1722 -0.3279
 6833TIP3    H220464   0.987   6.368   0.058 -0.4957 -0.5372 -0.8969
 6834TIP3   OH220465   3.066   1.069   2.399 -0.8022  0.3172  0.7040
 6834TIP3    H120466   3.155   1.057   2.432 -0.7832  0.0838  0.5693
 6834TIP3    H220467   3.052   1.163   2.402 -0.0888  0.4777 -0.4876
 6835TIP3   OH220468   4.821   0.035   0.228 -0.8522  0.2073 -0.0929
 6835TIP3    H120469   4.819  -0.036   0.292 -0.3653 -0.5035 -0.8388
 6835TIP3    H220470   4.758   0.007   0.161 -0.4342  0.3286 -0.5373
 6836TIP3   OH220471   2.616   1.045   4.856 -0.2554  0.2326  0.1358
 6836TIP3    H120472   2.579   0.979   4.797  1.6781 -0.2386 -0.6110
 6836TIP3    H220473   2.593   1.129   4.816  0.0483 -0.0628 -0.6823
 6837TIP3   OH220474   0.567   1.814   1.598 -0.6551  0.1797 -0.7672
 6837TIP3    H120475   0.555   1.753   1.670 -0.6115 -0.3299 -1.1851
 6837TIP3    H220476   0.645   1.865   1.621 -0.4125 -0.2486 -0.6432
 6838TIP3   OH220477   6.434   2.126   5.563  0.1510  0.2659  0.2338
 6838TIP3    H120478   6.454   2.200   5.620 -0.0096 -0.2958  1.0345
 6838TIP3    H220479   6.453   2.158   5.475  0.4584  1.1293  0.6019
 6839TIP3   OH220480   6.074   4.003   1.844  0.0574  0.3282  0.2068
 6839TIP3    H120481   6.061   4.085   1.797  0.0288  1.9899  2.9331
 6839TIP3    H220482   6.162   4.010   1.881  0.0768 -0.9243  0.4441
 6840TIP3   OH220483   4.178   6.713   4.272  0.8444 -0.2300 -0.1210
 6840TIP3    H120484   4.254   6.731   4.327 -0.8004  2.5362  1.4845
 6840TIP3    H220485   4.172   6.788   4.214 -1.8947  0.8679  1.3972
 6841TIP3   OH220486   5.116   3.731   5.335  0.7009 -0.0802 -0.0980
 6841TIP3    H120487   5.104   3.641   5.306  1.0621 -0.3363  0.5304
 6841TIP3    H220488   5.030   3.760   5.364  0.8128 -0.6275  0.8162
 6842TIP3   OH220489   2.028   0.888   3.121  0.0544 -0.4876 -0.4191
 6842TIP3    H120490   1.941   0.851   3.137  0.5297 -1.7204 -0.5799
 6842TIP3    H220491   2.012   0.981   3.107 -1.7409 -1.2011 -4.3434
 6843TIP3   OH220492   2.871   3.362   3.716  0.3669 -0.3987  0.0199
 6843TIP3    H120493   2.953   3.317   3.737  0.6189  0.5662  1.1603
 6843TIP3    H220494   2.866   3.435   3.777 -0.2824  0.8750 -1.4689
 6844TIP3   OH220495   0.329   6.294   0.871 -0.2779  0.1387  0.0157
 6844TIP3    H120496   0.241   6.320   0.844 -0.4930 -1.5093 -1.0191
 6844TIP3    H220497   0.314   6.230   0.941  0.0654 -0.3554 -0.3540
 6845TIP3   OH220498   3.056   2.210   4.362  0.3300  0.0965 -0.4449
 6845TIP3    H120499   2.971   2.236   4.396  1.1071  1.1717  0.7690
 6845TIP3    H220500   3.105   2.291   4.355  1.4613 -0.5725 -0.5528
 6846TIP3   OH220501   0.065   1.675   3.782  0.0134  0.0205 -0.0295
 6846TIP3    H120502   0.131   1.605   3.781 -0.9842 -0.9378 -0.9522
 6846TIP3    H220503   0.115   1.754   3.764  1.4143 -0.1637  2.5333
 6847TIP3   OH220504   7.059   6.207   4.508 -0.6049 -0.5252 -0.1429
 6847TIP3    H120505   6.975   6.252   4.505  0.3565  1.3896  0.1847
 6847TIP3    H220506   7.097   6.220   4.421 -0.0970 -0.2344  0.1140
 6848TIP3   OH220507   6.667   3.239   4.197  0.1444 -0.0825  0.2059
 6848TIP3    H120508   6.729   3.169   4.216 -0.0076 -0.2798 -0.0048
 6848TIP3    H220509   6.617   3.250   4.278  1.1615  0.8170  0.7194
 6849TIP3   OH220510   1.288   1.285   2.677  0.5002  0.1477 -0.6259
 6849TIP3    H120511   1.253   1.333   2.751  1.1992 -0.5464  0.1885
 6849TIP3    H220512   1.313   1.352   2.613 -0.4748  0.7304 -0.4091
 6850TIP3   OH220513   6.667   3.787   3.074  0.7594  0.0441  0.9121
 6850TIP3    H120514   6.747   3.754   3.034  1.3278  2.0808  0.2668
 6850TIP3    H220515   6.691   3.871   3.112 -1.0086  0.6164  0.8816
 6851TIP3   OH220516   5.281   3.517   0.202 -0.4770  0.2960 -0.2072
 6851TIP3    H120517   5.371   3.483   0.201  0.1684  1.7168 -3.1224
 6851TIP3    H220518   5.229   3.448   0.161 -0.2386  0.3876 -0.6838
 6852TIP3   OH220519   5.040   5.423   0.922 -0.0536  0.1170  0.5000
 6852TIP3    H120520   4.980   5.447   0.993 -1.8486  1.6827 -1.4197
 6852TIP3    H220521   5.004   5.466   0.845  0.1503 -3.7056 -2.0107
 6853TIP3   OH220522   3.591   4.066   2.388  0.2021  0.3193  0.2166
 6853TIP3    H120523   3.616   4.027   2.472  1.9069 -0.5709 -0.6463
 6853TIP3    H220524   3.666   4.122   2.365 -0.0957  0.2865 -0.8633
 6854TIP3   OH220525   2.714   5.058   1.449  0.0041  0.2458 -0.0630
 6854TIP3    H120526   2.741   4.966   1.460 -0.6086  0.1166  0.4636
 6854TIP3    H220527   2.618   5.054   1.448 -0.1089  1.0547  1.9096
 6855TIP3   OH220528   7.102   2.555   3.409  0.1913 -0.2228  0.0616
 6855TIP3    H120529   7.070   2.498   3.339  1.1702 -0.6704 -0.0363
 6855TIP3    H220530   7.023   2.589   3.450 -0.4635 -2.5138  0.8520
 6856TIP3   OH220531   4.125   4.520   0.468  0.1049  0.1773 -1.0785
 6856TIP3    H120532   4.040   4.553   0.441 -0.4787 -0.9441 -0.6807
 6856TIP3    H220533   4.179   4.598   0.478 -0.8928  0.9099 -1.2524
 6857TIP3   OH220534   5.146   6.413   5.159  0.7257 -0.2635  0.0040
 6857TIP3    H120535   5.200   6.347   5.117  3.0011  2.7668 -2.3382
 6857TIP3    H220536   5.091   6.448   5.090  0.5068  1.1268  0.8331
 6858TIP3   OH220537   2.045   4.938   4.977 -0.3539 -0.3536  0.4596
 6858TIP3    H120538   2.086   5.022   4.960 -0.0050 -0.5104  0.5129
 6858TIP3    H220539   2.031   4.900   4.890 -0.4855 -0.2517  0.4373
 6859TIP3   OH220540   4.507   6.707   1.595 -0.5041  0.3261  0.0479
 6859TIP3    H120541   4.550   6.733   1.514  0.2774  1.8227  0.8876
 6859TIP3    H220542   4.481   6.790   1.635 -0.9437 -0.3860  1.2854
 6860TIP3   OH220543   5.884   2.901   0.480 -0.2858  0.0464 -0.0046
 6860TIP3    H120544   5.822   2.973   0.487  1.2433  1.5515 -0.9911
 6860TIP3    H220545   5.954   2.923   0.542  0.4750 -0.2527 -0.7275
 6861TIP3   OH220546   3.019   6.351   1.583 -0.1064 -0.4551 -0.2962
 6861TIP3    H120547   2.926   6.339   1.603  0.4283 -0.3061  2.7493
 6861TIP3    H220548   3.043   6.433   1.626  1.6509 -1.0216 -0.0918
 6862TIP3   OH220549   5.561   2.993   3.095 -0.0592 -0.7315  0.8336
 6862TIP3    H120550   5.654   3.015   3.098 -0.9014  4.2469 -0.1997
 6862TIP3    H220551   5.522   3.046   3.165 -2.3649 -0.7256 -0.3752
 6863TIP3   OH220552   3.064   5.873   5.404 -0.1680  0.1541  0.6854
 6863TIP3    H120553   3.129   5.932   5.366 -0.4377  0.6657  1.0036
 6863TIP3    H220554   2.981   5.898   5.364  0.0079 -1.4314 -0.7941
 6864TIP3   OH220555   1.539   4.378   0.716 -0.4340  0.5328 -0.4500
 6864TIP3    H120556   1.452   4.350   0.743  0.0903 -0.5129  0.2105
 6864TIP3    H220557   1.542   4.472   0.736 -0.8225  0.2312  1.1237
 6865TIP3   OH220558   3.095   0.060   2.162  0.1295 -0.0403  0.0330
 6865TIP3    H120559   3.056   0.144   2.135  0.7863 -0.2440 -1.6626
 6865TIP3    H220560   3.020   0.008   2.190 -0.5720  0.3401 -1.0668
 6866TIP3   OH220561   4.400   2.533   0.374  0.3488 -0.2106  0.1390
 6866TIP3    H120562   4.400   2.442   0.405  3.4723 -0.6942 -0.9545
 6866TIP3    H220563   4.406   2.526   0.279  0.2373  1.1516  0.0158
 6867TIP3   OH220564   4.524   3.044   1.568  0.1287  0.2161  0.0319
 6867TIP3    H120565   4.518   3.011   1.478  0.5937 -1.8541  0.6880
 6867TIP3    H220566   4.611   3.083   1.574 -0.3514  1.4568 -0.7147
 6868TIP3   OH220567   3.032   6.636   0.516  0.1294  0.4664 -0.2176
 6868TIP3    H120568   2.958   6.582   0.488  0.5288  0.3735 -1.1298
 6868TIP3    H220569   3.109   6.589   0.486  0.6190  0.1535  1.4443
 6869TIP3   OH220570   0.285   2.555   1.766 -0.7694  0.1683  0.3697
 6869TIP3    H120571   0.334   2.532   1.845  2.0929  0.2300 -1.2378
 6869TIP3    H220572   0.265   2.648   1.776  4.9371  2.0011 -1.2579
 6870TIP3   OH220573   2.368   4.023   3.530 -0.7173  0.2806 -0.2679
 6870TIP3    H120574   2.433   4.005   3.598  0.9730  2.7020 -1.1016
 6870TIP3    H220575   2.371   3.946   3.473 -0.8563 -0.9791  1.3429
 6871TIP3   OH220576   0.961   4.964   4.752  0.2559 -1.0105 -0.7423
 6871TIP3    H120577   1.003   4.917   4.680  3.0930  0.9395 -0.5048
 6871TIP3    H220578   1.029   5.021   4.787 -1.7973  0.1177  1.7521
 6872TIP3   OH220579   4.592   0.150   2.789  0.0720  0.0467  0.4692
 6872TIP3    H120580   4.634   0.233   2.766  0.0039 -0.0701 -0.1006
 6872TIP3    H220581   4.499   0.164   2.772  0.3412 -1.0312 -2.5268
 6873TIP3   OH220582   3.384   2.050   5.827  0.0099  0.2500 -0.1021
 6873TIP3    H120583   3.441   2.112   5.873 -3.0266  1.6615  2.1027
 6873TIP3    H220584   3.445   1.992   5.780  3.1335  3.1211 -0.0448
 6874TIP3   OH220585   4.521   4.043   2.020 -0.2449  0.0884  0.1718
 6874TIP3    H120586   4.476   3.984   1.959 -0.4976  1.5554 -1.1256
 6874TIP3    H220587   4.500   4.131   1.988 -0.0902  0.9132  2.1977
 6875TIP3   OH220588   4.468   3.886   1.614  0.1338 -0.3713  0.4192
 6875TIP3    H120589   4.440   3.826   1.684  0.2592  1.4229  2.1040
 6875TIP3    H220590   4.540   3.935   1.653  1.1754 -0.2770 -1.5173
 6876TIP3   OH220591   2.558   0.749   1.412 -0.6128  0.2256 -0.3414
 6876TIP3    H120592   2.647   0.748   1.376 -0.5741  0.2267 -0.2454
 6876TIP3    H220593   2.501   0.750   1.335 -0.5300  0.2022 -0.4030
 6877TIP3   OH220594   7.103   6.021   1.088  0.3597 -0.6907 -0.5503
 6877TIP3    H120595   7.154   5.940   1.089 -2.9298 -2.9656 -0.6930
 6877TIP3    H220596   7.084   6.038   1.180  0.7087 -0.2773 -0.5506
 6878TIP3   OH220597   1.616   4.825   1.795 -0.3494 -0.2147  0.6212
 6878TIP3    H120598   1.684   4.853   1.734 -2.5269 -0.0237 -1.8868
 6878TIP3    H220599   1.564   4.904   1.811 -0.0091 -0.3386  2.5346
 6879TIP3   OH220600   2.753   6.532   2.292  0.2976 -0.0749 -0.1718
 6879TIP3    H120601   2.831   6.511   2.344  0.4406 -0.0924 -0.3951
 6879TIP3    H220602   2.682   6.537   2.357  0.1382 -1.8023 -0.1840
 6880TIP3   OH220603   5.192   3.013   1.333 -0.0490  0.8998  0.4038
 6880TIP3    H120604   5.115   3.002   1.277 -0.3491 -0.6473  1.0520
 6880TIP3    H220605   5.156   3.036   1.419 -0.1847 -2.8374  1.5707
 6881TIP3   OH220606   4.967   6.355   0.158  0.1698  0.2045  0.4046
 6881TIP3    H120607   4.898   6.330   0.220  0.7645 -2.4989  0.1276
 6881TIP3    H220608   4.921   6.368   0.075 -0.0973 -1.3471  0.2740
 6882TIP3   OH220609   4.814   2.305   3.084  0.2398  0.3248  0.1096
 6882TIP3    H120610   4.904   2.333   3.070  0.2549  1.0773  1.5425
 6882TIP3    H220611   4.764   2.387   3.092 -0.1983 -0.0403  1.4706
 6883TIP3   OH220612   1.602   3.727   1.877 -0.1061 -0.0416  0.3700
 6883TIP3    H120613   1.566   3.654   1.827  0.4240 -1.1182  1.5095
 6883TIP3    H220614   1.622   3.690   1.963  1.5387  1.0858  0.5229
 6884TIP3   OH220615   0.412   0.322   0.403 -0.0778 -0.1226  0.2007
 6884TIP3    H120616   0.435   0.388   0.468  0.7830 -0.3397  0.1246
 6884TIP3    H220617   0.408   0.240   0.452  0.5890 -0.2888 -0.0187
 6885TIP3   OH220618   4.765   4.458   2.439  0.2779  0.2313  0.1945
 6885TIP3    H120619   4.734   4.367   2.437 -0.1324  0.3358  1.3271
 6885TIP3    H220620   4.708   4.503   2.377  1.7231 -0.6254 -1.8686
 6886TIP3   OH220621   3.675   4.038   4.689  0.1464 -0.7820 -0.2537
 6886TIP3    H120622   3.696   4.011   4.779  0.6490  1.4476  0.3628
 6886TIP3    H220623   3.580   4.054   4.691  0.3335  0.3393  0.2156
 6887TIP3   OH220624   1.226   6.289   3.640  0.1391  0.6223  0.1194
 6887TIP3    H120625   1.210   6.347   3.566  0.3223 -0.7879 -1.0612
 6887TIP3    H220626   1.321   6.272   3.637  0.4344  1.7821  1.6440
 6888TIP3   OH220627   2.682   4.626   2.746 -0.4289  0.4087 -0.2769
 6888TIP3    H120628   2.753   4.565   2.723  0.9701  0.2925  3.5507
 6888TIP3    H220629   2.606   4.593   2.699  1.1258 -2.0435 -1.2895
 6889TIP3   OH220630   3.250   3.035   5.658  0.4998 -0.1171 -0.3355
 6889TIP3    H120631   3.199   3.095   5.712  0.4863 -0.8788  0.5231
 6889TIP3    H220632   3.207   2.950   5.671  1.3675 -0.5724 -0.4180
 6890TIP3   OH220633   6.505   4.225   0.688 -0.4452  0.0338  0.3526
 6890TIP3    H120634   6.498   4.153   0.750  2.5014 -1.5304 -0.9445
 6890TIP3    H220635   6.461   4.194   0.609 -0.1919  0.1180  0.1759
 6891TIP3   OH220636   1.414   4.788   1.334 -0.5654 -0.0886 -0.3136
 6891TIP3    H120637   1.331   4.779   1.288 -1.4290 -0.1621  1.1922
 6891TIP3    H220638   1.481   4.783   1.265 -1.7608 -0.8147 -1.4580
 6892TIP3   OH220639   1.495   3.329   2.854  0.2262 -0.0168  0.3501
 6892TIP3    H120640   1.455   3.345   2.768  0.9025  1.9488  0.3667
 6892TIP3    H220641   1.540   3.245   2.844  0.0356  0.0355 -1.1284
 6893TIP3   OH220642   6.959   0.471   3.202 -0.1301 -0.4139 -0.4667
 6893TIP3    H120643   7.004   0.450   3.284 -0.2909  0.3681 -0.1733
 6893TIP3    H220644   6.869   0.441   3.216 -0.2338  0.0002 -0.2408
 6894TIP3   OH220645   6.569   1.561   1.061  0.5957  0.5919  0.2865
 6894TIP3    H120646   6.517   1.628   1.105  0.6099  0.7554  0.0599
 6894TIP3    H220647   6.521   1.480   1.075  0.6597  0.6233  0.6978
 6895TIP3   OH220648   2.215   1.210   3.209  0.1361  0.2854 -0.3137
 6895TIP3    H120649   2.128   1.170   3.215  0.0526  0.6109  1.0127
 6895TIP3    H220650   2.251   1.179   3.126 -1.3142  0.2790 -0.9608
 6896TIP3   OH220651   5.271   2.766   4.107  0.2199  0.0673  0.2453
 6896TIP3    H120652   5.339   2.703   4.082  1.6920  1.8514 -0.5159
 6896TIP3    H220653   5.318   2.833   4.156 -1.1881  0.8480  0.5747
 6897TIP3   OH220654   3.650   5.616   2.280 -0.4449  0.5311  0.6955
 6897TIP3    H120655   3.703   5.635   2.202 -1.4495 -0.0931 -0.1595
 6897TIP3    H220656   3.714   5.608   2.350  0.6377 -0.4533 -0.3508
 6898TIP3   OH220657   0.865   2.814   0.491 -0.3829  0.3433  0.8104
 6898TIP3    H120658   0.817   2.894   0.473 -1.2862 -0.5075 -0.8107
 6898TIP3    H220659   0.944   2.842   0.537  0.9068  2.5554 -2.4027
 6899TIP3   OH220660   1.116   4.803   3.817 -0.1510  0.5638  0.1240
 6899TIP3    H120661   1.056   4.730   3.832 -0.2705  0.9402  1.5428
 6899TIP3    H220662   1.173   4.805   3.894 -0.5957  2.3825  0.4659
 6900TIP3   OH220663   5.925   5.958   0.166 -0.2202 -0.5215 -0.7392
 6900TIP3    H120664   5.992   6.023   0.189  0.7798 -0.9643 -2.2557
 6900TIP3    H220665   5.915   5.905   0.245  1.3795 -0.5697 -0.5406
 6901TIP3   OH220666   2.612   3.355   4.520 -0.8685  0.2505 -0.3680
 6901TIP3    H120667   2.541   3.404   4.479  0.7591  1.1701 -2.2814
 6901TIP3    H220668   2.680   3.350   4.452  0.0249 -2.5568  0.5724
 6902TIP3   OH220669   0.086   6.365   2.833  0.2235 -0.4170 -0.0750
 6902TIP3    H120670   0.022   6.295   2.821  1.3139 -1.4196 -0.2709
 6902TIP3    H220671   0.120   6.381   2.745 -0.8416  1.2240 -0.2418
 6903TIP3   OH220672   1.412   1.431   3.154  0.1903  0.6416 -0.0463
 6903TIP3    H120673   1.335   1.412   3.100 -1.6058  3.0132  1.4780
 6903TIP3    H220674   1.392   1.391   3.239  0.3784  1.6627  0.5013
 6904TIP3   OH220675   0.054   0.483   2.645  0.1618 -0.0853 -0.2115
 6904TIP3    H120676   0.002   0.562   2.632  2.0207  1.0100 -1.5535
 6904TIP3    H220677   0.120   0.508   2.710  2.0150  0.2043 -2.0854
 6905TIP3   OH220678   6.811   5.975   5.459 -0.2093 -0.8419  0.1317
 6905TIP3    H120679   6.868   5.898   5.466 -1.1279 -1.6470 -0.7899
 6905TIP3    H220680   6.758   5.958   5.381  0.3143  1.2572 -0.7415
 6906TIP3   OH220681   4.540   1.528   0.027 -0.5461 -0.3352 -0.4167
 6906TIP3    H120682   4.536   1.613   0.072  0.3524  0.4286 -1.7072
 6906TIP3    H220683   4.521   1.464   0.096  0.0124  0.8327  0.8902
 6907TIP3   OH220684   6.382   6.493   2.654 -0.3615  0.0689  0.0201
 6907TIP3    H120685   6.334   6.547   2.717 -1.4304 -0.2019 -0.5461
 6907TIP3    H220686   6.338   6.508   2.571  1.6087  1.1453 -0.9004
 6908TIP3   OH220687   2.138   4.972   4.356  0.1740 -0.4991 -1.0793
 6908TIP3    H120688   2.097   5.059   4.355 -1.7650 -1.3600 -2.5708
 6908TIP3    H220689   2.221   4.984   4.310 -0.0506  0.5738 -1.2405
 6909TIP3   OH220690   0.590   0.176   5.359 -0.3011 -0.2387 -0.2479
 6909TIP3    H120691   0.632   0.102   5.402  0.4318  1.0518  1.3505
 6909TIP3    H220692   0.497   0.166   5.380 -0.0077  0.1358  1.3458
 6910TIP3   OH220693   5.678   0.019   0.800  0.2405  0.0428 -0.4389
 6910TIP3    H120694   5.741   0.082   0.835 -0.1425  0.0598  0.2292
 6910TIP3    H220695   5.722  -0.018   0.723  0.1295  1.7526 -1.3773
 6911TIP3   OH220696   2.148   2.679   2.524  0.0612  0.1762  0.2219
 6911TIP3    H120697   2.116   2.685   2.614 -1.9314  0.0847 -0.4261
 6911TIP3    H220698   2.144   2.768   2.491 -1.3180 -0.0907 -0.4094
 6912TIP3   OH220699   0.989   2.618   0.727 -0.0801 -0.2145  0.3779
 6912TIP3    H120700   0.899   2.602   0.700  0.2766 -0.3425 -0.8022
 6912TIP3    H220701   1.022   2.681   0.663  0.1114  1.2940  1.8984
 6913TIP3   OH220702   2.914   6.327   0.928  0.2196  0.5955 -0.0558
 6913TIP3    H120703   2.844   6.328   0.994 -0.1658 -1.1429 -0.3863
 6913TIP3    H220704   2.889   6.256   0.868  1.2711  1.2345 -1.2949
 6914TIP3   OH220705   4.902   5.704   2.728 -0.5181 -0.0168  0.3594
 6914TIP3    H120706   4.819   5.656   2.726  0.9657 -2.7816 -0.5229
 6914TIP3    H220707   4.923   5.711   2.821 -1.7987  0.8797  0.6011
 6915TIP3   OH220708   5.956   4.366   3.932  0.1956 -0.0865 -0.1072
 6915TIP3    H120709   5.924   4.439   3.879 -2.4942  0.7726  2.4124
 6915TIP3    H220710   6.027   4.404   3.984  2.0944 -0.6503 -2.1563
 6916TIP3   OH220711   2.448   3.999   2.850  0.0887  0.1446  0.2798
 6916TIP3    H120712   2.487   3.920   2.813 -1.1734 -0.3707 -0.0178
 6916TIP3    H220713   2.492   4.071   2.805  1.0424 -0.3850  0.3405
 6917TIP3   OH220714   5.917   6.296   3.462 -0.1340  0.0128  0.5129
 6917TIP3    H120715   5.995   6.266   3.508  0.6522  1.3474  0.1344
 6917TIP3    H220716   5.868   6.217   3.442  1.0464 -0.8452  0.9156
 6918TIP3   OH220717   6.090   0.405   1.759 -0.0209  0.0201 -0.2323
 6918TIP3    H120718   6.115   0.356   1.837 -1.1495 -0.3434 -0.0813
 6918TIP3    H220719   6.135   0.360   1.687  1.7692  0.9170  0.2803
 6919TIP3   OH220720   2.386   2.999   2.245  0.3531  0.2016  0.3470
 6919TIP3    H120721   2.402   2.937   2.316 -0.8901 -1.1703 -0.5160
 6919TIP3    H220722   2.309   2.965   2.200  1.3353  0.7760 -1.9240
 6920TIP3   OH220723   6.195   1.602   1.016 -0.2381  0.0440 -0.2184
 6920TIP3    H120724   6.281   1.645   1.018  0.0788 -0.6105  0.4676
 6920TIP3    H220725   6.209   1.522   0.966 -1.1505  1.3590 -2.7480
 6921TIP3   OH220726   5.756   3.959   5.362  0.3516 -0.2988  0.2338
 6921TIP3    H120727   5.837   3.913   5.341  1.1491  0.2111  1.9768
 6921TIP3    H220728   5.785   4.047   5.387 -0.8941  0.3400 -0.4779
 6922TIP3   OH220729   5.741   5.171   0.257 -0.0948 -0.6698 -0.2287
 6922TIP3    H120730   5.766   5.129   0.340 -0.6477 -0.2653  0.1526
 6922TIP3    H220731   5.822   5.173   0.206  0.8684  1.2061  1.2333
 6923TIP3   OH220732   2.887   0.875   3.284  0.0891  1.0290 -0.1139
 6923TIP3    H120733   2.873   0.939   3.354 -1.4545 -1.2332  1.8159
 6923TIP3    H220734   2.972   0.836   3.304 -0.3715  0.3513  0.5861
 6924TIP3   OH220735   1.704   6.315   0.341 -0.5857 -0.2129 -0.4626
 6924TIP3    H120736   1.797   6.322   0.320 -0.0646  0.1924  1.7871
 6924TIP3    H220737   1.689   6.379   0.410 -2.3860 -0.7860 -0.2553
 6925TIP3   OH220738   6.799   0.416   5.706 -0.6685  0.4908  0.1893
 6925TIP3    H120739   6.789   0.420   5.801 -0.1668  0.8358  0.2330
 6925TIP3    H220740   6.726   0.362   5.676 -0.3980 -0.2586  0.8485
 6926TIP3   OH220741   2.050   1.583   2.140  0.1251 -0.1758 -0.0548
 6926TIP3    H120742   2.036   1.552   2.051  1.1347  0.9299 -0.6236
 6926TIP3    H220743   2.145   1.586   2.150  0.0428  1.2298  0.4990
 6927TIP3   OH220744   6.706   3.319   0.347  0.6018 -0.0392  0.0039
 6927TIP3    H120745   6.731   3.384   0.413  1.5022  0.6204 -0.9562
 6927TIP3    H220746   6.738   3.355   0.264 -2.1385  0.0860 -1.1026
 6928TIP3   OH220747   2.666   3.721   4.656 -0.0473 -0.0787 -0.1103
 6928TIP3    H120748   2.654   3.764   4.572 -0.6978  0.1303  0.0836
 6928TIP3    H220749   2.603   3.649   4.656  1.8602 -1.8500 -0.9415
 6929TIP3   OH220750   3.055   5.151   0.252  0.2231 -0.3772  0.1423
 6929TIP3    H120751   3.098   5.090   0.192 -0.1358 -0.0776 -0.4241
 6929TIP3    H220752   3.021   5.096   0.323 -0.7770 -0.9346 -0.7470
 6930TIP3   OH220753   6.432   2.540   3.406 -0.5713 -0.1596  0.2255
 6930TIP3    H120754   6.353   2.491   3.383 -0.9491 -0.6212  2.2575
 6930TIP3    H220755   6.436   2.534   3.502  0.8404  1.5627  0.3180
 6931TIP3   OH220756   4.986   4.950   5.382  0.1428  0.5983  0.2661
 6931TIP3    H120757   5.043   4.899   5.323 -0.7392  1.6137 -1.5551
 6931TIP3    H220758   5.005   4.915   5.469  1.7956 -0.7218 -0.5495
 6932TIP3   OH220759   3.091   5.428   0.326  0.5207  0.2610 -0.2318
 6932TIP3    H120760   3.043   5.432   0.409  0.0362  0.5867 -0.5262
 6932TIP3    H220761   3.083   5.337   0.298  0.0691  0.3133 -0.2811
 6933TIP3   OH220762   2.431   1.029   3.365 -0.4441 -0.0551 -0.1967
 6933TIP3    H120763   2.372   1.021   3.441  0.6351  0.7221  0.7667
 6933TIP3    H220764   2.412   1.116   3.330 -0.0601  0.1009 -0.0284
 6934TIP3   OH220765   7.165   3.464   1.700  0.3970 -0.3391  0.0456
 6934TIP3    H120766   7.136   3.418   1.779  0.0977  0.4141  0.3843
 6934TIP3    H220767   7.084   3.485   1.653  0.5629 -0.6343 -0.3822
 6935TIP3   OH220768   5.649   0.315   1.608  0.6352  0.0073 -0.2645
 6935TIP3    H120769   5.647   0.352   1.520  0.4340  0.3676 -0.1127
 6935TIP3    H220770   5.682   0.386   1.663 -0.6066  0.2867  0.1719
 6936TIP3   OH220771   6.309   2.145   2.600 -0.2771  0.1162  0.2280
 6936TIP3    H120772   6.252   2.077   2.565  0.1807  0.4088 -1.1738
 6936TIP3    H220773   6.388   2.099   2.627  0.1911  0.1039 -1.0850
 6937TIP3   OH220774   0.089   5.215   2.336  0.0904  0.5147  0.3565
 6937TIP3    H120775   0.043   5.159   2.398  0.0604  1.5784  1.3106
 6937TIP3    H220776   0.140   5.154   2.283 -1.3248 -0.5737  0.1740
 6938TIP3   OH220777   4.083   2.855   0.586 -0.0035 -0.4295 -0.2992
 6938TIP3    H120778   4.101   2.769   0.547  2.0933  0.1457 -0.7502
 6938TIP3    H220779   3.990   2.853   0.606 -0.1604 -2.5469 -0.9413
 6939TIP3   OH220780   0.278   1.780   0.850 -0.4229  0.1268 -0.5689
 6939TIP3    H120781   0.315   1.693   0.861  1.5632  0.9912  0.1888
 6939TIP3    H220782   0.191   1.775   0.889 -0.1246 -1.3721 -0.0552
 6940TIP3   OH220783   6.864   5.470   4.328 -0.4754 -0.1238 -0.3250
 6940TIP3    H120784   6.894   5.386   4.362 -0.4820 -0.0451 -0.1258
 6940TIP3    H220785   6.849   5.454   4.235 -0.8028 -0.4317 -0.2213
 6941TIP3   OH220786   6.788   2.059   1.384 -0.2370  0.1854 -0.2321
 6941TIP3    H120787   6.790   1.964   1.395 -0.9135  0.3424  1.4623
 6941TIP3    H220788   6.881   2.085   1.385 -0.0666 -0.4143 -0.2559
 6942TIP3   OH220789   3.738   0.539   4.977 -0.3108  0.3314  0.4220
 6942TIP3    H120790   3.646   0.552   4.999 -0.1758  1.1084  0.5596
 6942TIP3    H220791   3.741   0.454   4.933 -0.9660 -0.0911  1.1744
 6943TIP3   OH220792   2.060   1.518   3.714  0.3837 -0.2436 -0.3138
 6943TIP3    H120793   1.973   1.550   3.740 -0.9675 -0.9318 -3.4804
 6943TIP3    H220794   2.107   1.596   3.684 -1.0385 -0.3444 -3.1703
 6944TIP3   OH220795   2.326   4.054   2.135 -0.2579 -0.0032  0.3477
 6944TIP3    H120796   2.390   4.117   2.166  1.5281 -1.6014  0.1282
 6944TIP3    H220797   2.242   4.087   2.166  0.9192  0.8959  2.8192
 6945TIP3   OH220798   3.121   0.097   1.515 -0.0011  0.6825 -0.0949
 6945TIP3    H120799   3.167   0.015   1.536  0.8685  1.3609  0.7740
 6945TIP3    H220800   3.037   0.089   1.559  0.5438  0.7313  0.9904
 6946TIP3   OH220801   6.994   5.300   4.855  0.9806 -0.4776  0.3296
 6946TIP3    H120802   7.081   5.339   4.867  0.7512  0.7855 -1.6844
 6946TIP3    H220803   7.006   5.230   4.792  0.4914 -0.0774 -0.2195
 6947TIP3   OH220804   3.578   3.970   1.914 -0.2973  0.4130  1.0641
 6947TIP3    H120805   3.547   3.949   1.826 -0.8688  3.3703  0.4633
 6947TIP3    H220806   3.515   4.034   1.948  0.0532 -0.4369  3.5583
 6948TIP3   OH220807   6.902   6.793   3.895  0.0863  0.0434  0.3132
 6948TIP3    H120808   6.969   6.846   3.853  1.1785 -0.9169  0.7614
 6948TIP3    H220809   6.867   6.738   3.825  1.1728 -0.8222  0.4065
 6949TIP3   OH220810   1.385   2.151   1.849  0.5241  0.0467  0.3316
 6949TIP3    H120811   1.371   2.144   1.943  0.7641 -1.3678  0.2892
 6949TIP3    H220812   1.474   2.119   1.836 -0.2805 -2.0039 -0.5923
 6950TIP3   OH220813   5.932   2.983   4.367  0.0736 -0.4779  0.5744
 6950TIP3    H120814   5.965   2.983   4.278  0.6219  0.0664  0.7690
 6950TIP3    H220815   5.837   2.977   4.358  0.0567  0.5125 -0.0781
 6951TIP3   OH220816   0.856   1.583   5.526  0.0891 -0.1613 -0.6579
 6951TIP3    H120817   0.785   1.527   5.556  0.1419  0.2042  0.1950
 6951TIP3    H220818   0.814   1.652   5.475 -0.5259  1.5061  1.9070
 6952TIP3   OH220819   7.139   2.217   1.703 -0.1727  0.3395  0.4120
 6952TIP3    H120820   7.229   2.232   1.676 -1.1158  1.0543 -2.6811
 6952TIP3    H220821   7.112   2.298   1.746  0.8574 -0.2212  2.2451
 6953TIP3   OH220822   4.865   5.966   3.076 -0.2613  0.0484  1.0031
 6953TIP3    H120823   4.795   5.911   3.042 -0.7499  1.6409 -0.6989
 6953TIP3    H220824   4.820   6.038   3.121  0.2695  0.8609  0.2596
 6954TIP3   OH220825   6.844   4.054   1.465  0.0143 -0.3583  0.3794
 6954TIP3    H120826   6.876   4.144   1.460  0.7477 -0.3389  3.5459
 6954TIP3    H220827   6.897   4.006   1.402  0.3926  1.1770 -0.5387
 6955TIP3   OH220828   2.092   5.871   1.666  0.4167  0.4503 -0.3500
 6955TIP3    H120829   2.138   5.788   1.658  1.0329  0.7398  0.1388
 6955TIP3    H220830   2.154   5.937   1.634  1.0325  1.0407  1.9088
 6956TIP3   OH220831   1.454   0.096   2.000 -0.6816  0.3062  0.2066
 6956TIP3    H120832   1.533   0.122   1.952 -0.1699 -0.3158  0.6971
 6956TIP3    H220833   1.409   0.178   2.018  0.1275  0.7211  0.3946
 6957TIP3   OH220834   6.968   1.559   2.081  0.3790 -0.0163 -0.1432
 6957TIP3    H120835   7.017   1.484   2.048  0.5997  0.0571  0.0120
 6957TIP3    H220836   6.965   1.620   2.007 -1.6496 -1.0335 -0.9999
 6958TIP3   OH220837   4.495   6.195   2.166  0.1991 -0.1206 -0.3836
 6958TIP3    H120838   4.540   6.268   2.123  0.3200  0.8315  1.2744
 6958TIP3    H220839   4.565   6.143   2.205  0.0711 -0.8186 -1.0489
 6959TIP3   OH220840   2.493   5.018   0.264 -0.2477  0.5159 -0.3489
 6959TIP3    H120841   2.516   5.012   0.172  0.8206 -1.1962 -0.0128
 6959TIP3    H220842   2.397   5.028   0.265 -0.0480  4.2733 -1.6810
 6960TIP3   OH220843   1.614   4.947   4.239  0.3444 -0.4313 -0.2628
 6960TIP3    H120844   1.602   4.880   4.172 -3.9611  0.7010 -0.9823
 6960TIP3    H220845   1.638   5.025   4.190 -0.7944 -0.0893 -0.3217
 6961TIP3   OH220846   2.718   4.747   0.807  0.3812 -0.5142  0.0226
 6961TIP3    H120847   2.724   4.812   0.877 -0.1634 -1.3946  0.9091
 6961TIP3    H220848   2.778   4.677   0.834  0.2696 -0.8009 -0.4583
 6962TIP3   OH220849   0.861   6.070   5.411  0.3677  0.0537  0.1958
 6962TIP3    H120850   0.922   6.140   5.434  0.3986  0.6506 -1.5760
 6962TIP3    H220851   0.842   6.084   5.318  0.0729 -2.0655 -0.1135
 6963TIP3   OH220852   5.051   3.280   0.373 -0.4684  0.0232 -0.5958
 6963TIP3    H120853   5.106   3.206   0.396  0.5342  1.2738  1.2847
 6963TIP3    H220854   5.017   3.312   0.456 -1.3701  1.2979 -1.4162
 6964TIP3   OH220855   1.622   5.004   2.876 -0.2078 -0.2985  0.3345
 6964TIP3    H120856   1.526   5.007   2.881 -0.2994 -0.4177 -0.9011
 6964TIP3    H220857   1.640   5.000   2.782  1.0702  1.6771  0.4284
 6965TIP3   OH220858   4.595   3.623   4.078  0.2051 -0.1344 -0.3998
 6965TIP3    H120859   4.500   3.609   4.082  0.0563  0.7138 -0.6822
 6965TIP3    H220860   4.615   3.679   4.153  0.5914 -0.8217  0.0218
 6966TIP3   OH220861   6.250   5.609   3.111 -0.5536 -0.0220 -0.4171
 6966TIP3    H120862   6.232   5.517   3.093 -0.6553  0.2026 -1.5628
 6966TIP3    H220863   6.202   5.657   3.042 -1.6657  0.9711  0.9783
 6967TIP3   OH220864   5.629   1.668   1.824  0.0630 -0.9126  0.2273
 6967TIP3    H120865   5.650   1.607   1.895  2.5110  0.5226  0.8595
 6967TIP3    H220866   5.572   1.733   1.865  1.5914 -0.0045  0.9776
 6968TIP3   OH220867   6.798   6.160   5.039  0.0861  0.3270 -0.2399
 6968TIP3    H120868   6.859   6.099   5.082  0.0242  1.4169  1.4898
 6968TIP3    H220869   6.853   6.215   4.984  0.1156 -1.3889 -2.0634
 6969TIP3   OH220870   5.186   1.352   0.745 -0.6020  0.2110 -0.1812
 6969TIP3    H120871   5.098   1.337   0.711 -1.3332  0.6190  1.4571
 6969TIP3    H220872   5.183   1.438   0.785  0.3217 -0.0817  0.5684
 6970TIP3   OH220873   6.947   1.813   1.022  0.0364 -0.4987  0.1712
 6970TIP3    H120874   6.928   1.770   1.105  0.5938 -0.6269  0.2386
 6970TIP3    H220875   6.893   1.892   1.023 -0.4679 -0.8479  0.3533
 6971TIP3   OH220876   5.006   5.499   3.166  0.5176  0.3814 -0.0353
 6971TIP3    H120877   4.918   5.536   3.173  0.6404  0.4434  1.3803
 6971TIP3    H220878   5.017   5.483   3.072 -1.6228 -1.1903 -0.0930
 6972TIP3   OH220879   3.419   5.985   0.348  0.0350  0.0083 -0.1356
 6972TIP3    H120880   3.426   6.013   0.439  1.2104 -0.8726  0.0675
 6972TIP3    H220881   3.508   5.993   0.313 -0.1628 -0.7545 -0.8638
 6973TIP3   OH220882   4.236   1.717   3.837  0.2068  0.1069 -0.1223
 6973TIP3    H120883   4.245   1.767   3.756 -0.1907  0.4612  0.0495
 6973TIP3    H220884   4.285   1.636   3.820 -1.2775 -0.6030 -1.3815
 6974TIP3   OH220885   3.765   5.961   0.566 -0.3931  0.4166  0.6470
 6974TIP3    H120886   3.691   5.973   0.626 -1.7436  0.3763 -0.9437
 6974TIP3    H220887   3.747   6.021   0.494  0.2767 -0.7737 -0.5550
 6975TIP3   OH220888   5.427   5.775   3.198 -0.0650 -0.5294  0.1017
 6975TIP3    H120889   5.409   5.770   3.104  1.4044 -1.0590 -0.1945
 6975TIP3    H220890   5.348   5.742   3.240 -1.3807  1.2801 -0.8678
 6976TIP3   OH220891   2.091   3.469   4.995 -0.4528 -0.1325 -0.1267
 6976TIP3    H120892   2.106   3.532   4.924  0.5603  1.3689  1.3395
 6976TIP3    H220893   2.141   3.505   5.069 -1.5344 -1.5981  1.3682
 6977TIP3   OH220894   7.032   4.430   4.782  0.4780  0.5384 -0.3338
 6977TIP3    H120895   6.970   4.459   4.849 -1.8588  1.1019 -2.5647
 6977TIP3    H220896   7.105   4.491   4.788  0.3479  0.5592  1.6334
 6978TIP3   OH220897   3.266   6.413   5.244 -0.4340  0.0336  0.1527
 6978TIP3    H120898   3.205   6.365   5.188 -0.3406 -0.3740  0.3971
 6978TIP3    H220899   3.350   6.406   5.199 -0.4341  0.0378  0.1517
 6979TIP3   OH220900   1.524   6.742   3.757 -0.1788 -0.2827 -0.3603
 6979TIP3    H120901   1.578   6.706   3.828  0.0820 -1.6366 -1.1944
 6979TIP3    H220902   1.443   6.692   3.760 -0.0414 -0.5860 -1.1876
 6980TIP3   OH220903   5.236   0.600  -0.012 -0.1242 -0.2565 -0.0250
 6980TIP3    H120904   5.328   0.624  -0.025 -0.8198  1.2149 -3.1344
 6980TIP3    H220905   5.199   0.673   0.039  0.0696 -0.0376 -0.1995
 6981TIP3   OH220906   0.566   2.252   2.079  0.1629 -0.0207 -0.0343
 6981TIP3    H120907   0.610   2.192   2.139  0.5629  0.4847  0.1764
 6981TIP3    H220908   0.603   2.231   1.993  0.0554 -0.3052 -0.0123
 6982TIP3   OH220909   4.366   5.387   1.206  0.3373 -0.0836  0.6740
 6982TIP3    H120910   4.434   5.357   1.145  0.0253 -1.2044  0.8584
 6982TIP3    H220911   4.287   5.393   1.152  0.5953  1.3509  0.4296
 6983TIP3   OH220912   3.765   2.867   3.753 -0.0538  0.4981  0.3725
 6983TIP3    H120913   3.760   2.778   3.786  1.6160 -0.5949 -1.9877
 6983TIP3    H220914   3.695   2.873   3.688  0.7147  0.3575 -0.5021
 6984TIP3   OH220915   0.887   4.733   5.271 -0.4198 -0.4892 -0.0908
 6984TIP3    H120916   0.839   4.807   5.308 -0.2490 -0.2821 -0.2847
 6984TIP3    H220917   0.965   4.724   5.327  0.6780  0.8392 -1.3304
 6985TIP3   OH220918   6.224   4.350   1.116 -0.0910 -0.3201  0.3754
 6985TIP3    H120919   6.152   4.410   1.132 -0.3006 -0.9078  1.7750
 6985TIP3    H220920   6.213   4.324   1.025 -1.9411 -0.7521  0.6726
 6986TIP3   OH220921   3.102   5.184   3.907  0.3939 -0.0757 -0.2379
 6986TIP3    H120922   3.121   5.229   3.989 -2.1166 -0.4867  0.6659
 6986TIP3    H220923   3.143   5.098   3.915  0.5633  0.0651  0.3893
 6987TIP3   OH220924   5.286   6.300   5.414 -0.5102  0.2322  0.4312
 6987TIP3    H120925   5.209   6.326   5.466 -0.8543  1.3321 -0.5800
 6987TIP3    H220926   5.251   6.282   5.327  0.2196 -0.5106  0.2830
 6988TIP3   OH220927   0.240   4.802   1.973  0.1271 -0.1554  0.1557
 6988TIP3    H120928   0.259   4.743   2.046  1.0722 -0.5803 -0.4129
 6988TIP3    H220929   0.297   4.772   1.902  0.2664  1.1304 -0.3058
 6989TIP3   OH220930   2.160   5.772   5.580 -0.1013 -0.7245  0.0557
 6989TIP3    H120931   2.071   5.737   5.570 -1.5359  2.4270  0.6815
 6989TIP3    H220932   2.189   5.740   5.666 -0.8006 -1.3442  0.0745
 6990TIP3   OH220933   2.306   3.737   1.577 -0.3299  0.3294  0.2414
 6990TIP3    H120934   2.323   3.684   1.655 -3.1094  0.0045  0.7410
 6990TIP3    H220935   2.354   3.818   1.592  2.4780 -1.2348  0.3471
 6991TIP3   OH220936   6.157   3.691   4.851  0.5863  0.0847 -0.2441
 6991TIP3    H120937   6.158   3.721   4.942 -1.3371 -0.6024  0.0390
 6991TIP3    H220938   6.188   3.766   4.801 -0.2754  1.1797  0.8011
 6992TIP3   OH220939   3.824   1.700   5.011  0.7273  0.0747 -0.1619
 6992TIP3    H120940   3.883   1.672   5.081 -1.0233  1.8842  2.2367
 6992TIP3    H220941   3.772   1.771   5.051 -1.0917  0.5051 -3.0066
 6993TIP3   OH220942   1.805   5.910   3.823  0.3728 -0.1076  0.0296
 6993TIP3    H120943   1.840   5.967   3.755  1.1111 -1.0448 -0.4018
 6993TIP3    H220944   1.796   5.824   3.781  0.6930 -0.6719  1.0521
 6994TIP3   OH220945   6.240   5.057   2.496 -0.5920 -0.0666  0.0171
 6994TIP3    H120946   6.219   5.088   2.408  0.1094  0.0959 -0.1024
 6994TIP3    H220947   6.162   5.076   2.548 -1.6283 -1.5890 -0.9132
 6995TIP3   OH220948   2.539   0.591   1.697  0.4491  0.2843 -0.0153
 6995TIP3    H120949   2.467   0.531   1.681  0.5206  0.4197 -0.8870
 6995TIP3    H220950   2.559   0.580   1.790 -0.8880  0.4724  0.3104
 6996TIP3   OH220951   6.425   2.598   5.202  0.3061 -0.9304 -0.3638
 6996TIP3    H120952   6.432   2.635   5.290  0.0997  1.5418 -1.3142
 6996TIP3    H220953   6.367   2.523   5.212 -1.9231  0.8565  1.2293
 6997TIP3   OH220954   2.021   2.534   2.823 -0.2138 -0.0868  0.3553
 6997TIP3    H120955   2.000   2.440   2.829  2.6727 -0.7835  1.1278
 6997TIP3    H220956   2.107   2.536   2.781 -0.2181  2.2505  0.3694
 6998TIP3   OH220957   7.137   3.576   5.331 -0.3435 -0.4994  0.2691
 6998TIP3    H120958   7.128   3.665   5.363  0.3851 -0.4250  0.2806
 6998TIP3    H220959   7.097   3.521   5.399 -1.5042 -0.1396 -0.0965
 6999TIP3   OH220960   0.984   2.230   0.726 -0.1402  0.0514  0.7833
 6999TIP3    H120961   1.057   2.266   0.775 -0.1901 -1.0071  1.6742
 6999TIP3    H220962   0.907   2.273   0.762 -0.0383  0.4599  0.5130
 7000TIP3   OH220963   6.191   1.092   5.218  0.2770  0.0630  0.5815
 7000TIP3    H120964   6.137   1.145   5.276  1.7221  0.0294  2.0292
 7000TIP3    H220965   6.242   1.037   5.277  1.7248 -0.0510 -0.7190
 7001TIP3   OH220966   1.459   1.208   1.928  0.0214 -0.8342  0.1215
 7001TIP3    H120967   1.393   1.182   1.864 -0.1528  0.8850 -0.4579
 7001TIP3    H220968   1.542   1.183   1.888 -0.1283 -0.3897 -0.4937
 7002TIP3   OH220969   4.603   1.760   3.742 -0.3813 -0.1247 -0.0170
 7002TIP3    H120970   4.598   1.741   3.835 -0.1774  0.9187  0.2131
 7002TIP3    H220971   4.542   1.831   3.728 -1.6704 -1.3707 -1.0080
 7003TIP3   OH220972   4.695   4.133   0.401  0.1069 -0.0780  0.7223
 7003TIP3    H120973   4.762   4.068   0.424  1.7067  0.8224 -1.1658
 7003TIP3    H220974   4.732   4.217   0.427  1.1273  0.7696 -2.9827
 7004TIP3   OH220975   4.487   2.360   1.110 -0.1083 -0.1583  0.2085
 7004TIP3    H120976   4.532   2.443   1.127  1.3521 -0.5693 -1.3022
 7004TIP3    H220977   4.411   2.361   1.168  2.1221  0.3538  3.3836
 7005TIP3   OH220978   0.713   2.498   1.522 -0.3084 -0.3069  0.0194
 7005TIP3    H120979   0.792   2.464   1.564  0.0794 -0.0847 -0.5154
 7005TIP3    H220980   0.708   2.589   1.551  0.1133 -0.0707 -0.6069
 7006TIP3   OH220981   4.858   2.447   5.654  0.1270  0.2638  0.3360
 7006TIP3    H120982   4.885   2.384   5.588 -0.5439 -0.7682  1.0232
 7006TIP3    H220983   4.869   2.402   5.737  1.1115  1.6005  0.9732
 7007TIP3   OH220984   1.390   5.588   4.874 -0.2128 -0.0480 -0.4109
 7007TIP3    H120985   1.475   5.562   4.912 -0.7376 -1.6164 -0.2568
 7007TIP3    H220986   1.369   5.518   4.812 -1.3719  0.3510 -0.4839
 7008TIP3   OH220987   5.552   5.263   2.000 -0.0596 -0.0203 -0.5560
 7008TIP3    H120988   5.618   5.331   1.987  0.3863 -0.0041  1.4745
 7008TIP3    H220989   5.602   5.182   2.012 -0.4725 -0.2643 -0.4464
 7009TIP3   OH220990   2.403   6.548   1.164 -0.3648 -0.1541 -0.0918
 7009TIP3    H120991   2.328   6.568   1.220 -0.8811  0.5748 -1.0228
 7009TIP3    H220992   2.478   6.547   1.223 -0.9829 -0.0046  0.7047
 7010TIP3   OH220993   4.083   0.965   4.070 -0.0358 -0.1686 -0.1703
 7010TIP3    H120994   4.093   0.870   4.077  0.2893 -0.1503 -0.3910
 7010TIP3    H220995   4.073   0.981   3.976 -0.8634 -0.0587 -0.0764
 7011TIP3   OH220996   3.716   4.455   3.450 -0.8883  0.4298 -0.8874
 7011TIP3    H120997   3.810   4.472   3.444 -0.6530 -0.9215 -1.3927
 7011TIP3    H220998   3.707   4.363   3.428 -2.4188  0.7083 -1.5587
 7012TIP3   OH220999   2.444   3.851   1.091 -0.2040  0.6761  0.5635
 7012TIP3    H121000   2.364   3.801   1.101 -0.5271  1.3817  1.6016
 7012TIP3    H221001   2.451   3.867   0.997 -0.8568 -0.0629  0.3847
 7013TIP3   OH221002   0.785   0.804   3.984 -0.0682  0.0058 -0.0326
 7013TIP3    H121003   0.831   0.861   4.046  0.1073  0.2137 -0.3492
 7013TIP3    H221004   0.746   0.736   4.038  1.1203 -0.5261  0.1862
 7014TIP3   OH221005   1.425   3.938   3.130  0.4899 -0.3996  0.1774
 7014TIP3    H121006   1.403   4.026   3.100  1.3634 -0.2814 -0.1354
 7014TIP3    H221007   1.359   3.918   3.197 -1.2138 -0.4796 -1.4506
 7015TIP3   OH221008   5.134   2.778   4.646  0.0881 -0.0209 -0.1351
 7015TIP3    H121009   5.105   2.721   4.717 -0.9549  1.4617  0.6665
 7015TIP3    H221010   5.109   2.866   4.673  1.7653  0.8699 -1.2845
 7016TIP3   OH221011   1.822   3.245   2.096  0.1420 -0.6085 -0.1840
 7016TIP3    H121012   1.798   3.263   2.005 -2.1733  0.6534  0.5858
 7016TIP3    H221013   1.849   3.330   2.131  0.7742 -1.0356  0.3832
 7017TIP3   OH221014   0.710   0.747   1.066 -0.2815  0.8745 -1.0268
 7017TIP3    H121015   0.749   0.706   1.143 -2.2068  0.1505 -0.3921
 7017TIP3    H221016   0.687   0.835   1.095 -0.8964  0.6428 -0.8143
 7018TIP3   OH221017   4.973   4.588   1.871  0.3407 -0.1484  0.0556
 7018TIP3    H121018   4.980   4.518   1.936  0.5630  0.0964  0.2948
 7018TIP3    H221019   5.046   4.572   1.811  2.2603  1.6009  1.7791
 7019TIP3   OH221020   6.428   4.039   1.083 -0.1540  0.1541 -0.3134
 7019TIP3    H121021   6.474   4.013   1.163 -0.0806  2.4052  0.4542
 7019TIP3    H221022   6.337   4.014   1.098  0.1686 -1.0402 -0.2939
 7020TIP3   OH221023   6.482   5.379   2.020  0.4650  0.4525  0.6165
 7020TIP3    H121024   6.559   5.333   1.986  0.9885 -0.3631  2.7421
 7020TIP3    H221025   6.507   5.472   2.018  0.6013  0.4188 -0.7703
 7021TIP3   OH221026   4.342   2.003   4.220 -0.0365  0.5495 -0.5648
 7021TIP3    H121027   4.314   1.912   4.211 -1.5755  0.8256  0.9602
 7021TIP3    H221028   4.410   2.000   4.287 -0.6475  0.6004  0.0689
 7022TIP3   OH221029   2.503   0.870   4.692  0.3072  0.3542  0.2820
 7022TIP3    H121030   2.578   0.820   4.658 -0.5402 -0.7896  0.0381
 7022TIP3    H221031   2.452   0.892   4.614 -0.1854  0.1477  0.5393
 7023TIP3   OH221032   1.106   5.187   5.685  0.2083 -0.2742 -0.2676
 7023TIP3    H121033   1.192   5.147   5.668  0.2292 -0.3026 -0.0995
 7023TIP3    H221034   1.104   5.198   5.780  0.3956  0.5692 -0.3585
 7024TIP3   OH221035   2.914   4.089   5.456  0.4856  0.4070 -0.2421
 7024TIP3    H121036   2.883   4.142   5.529 -0.4631 -0.3129 -0.1030
 7024TIP3    H221037   2.834   4.061   5.411  0.9267 -1.1372 -0.1311
 7025TIP3   OH221038   0.604   4.110   2.100  0.4673 -0.5665 -0.0136
 7025TIP3    H121039   0.521   4.157   2.096  1.2140  0.7504 -0.9157
 7025TIP3    H221040   0.665   4.172   2.140  1.0520 -1.4814  0.5510
 7026TIP3   OH221041   5.965   0.587   4.672  0.0212  0.2172 -0.1307
 7026TIP3    H121042   6.006   0.660   4.626  0.8131 -0.3251 -0.3021
 7026TIP3    H221043   5.960   0.615   4.763  2.0724 -0.2396  0.1575
 7027TIP3   OH221044   1.113   0.931   5.863  0.2244 -0.4741 -0.2037
 7027TIP3    H121045   1.028   0.895   5.839 -1.1231  1.0447  1.9636
 7027TIP3    H221046   1.142   0.877   5.937 -0.0995  0.5856  0.7193
 7028TIP3   OH221047   5.890   6.466   2.510 -0.0082 -0.2082  0.0520
 7028TIP3    H121048   5.851   6.535   2.564  1.1616  0.8959 -0.4680
 7028TIP3    H221049   5.902   6.506   2.424 -0.4156 -1.4585 -0.6201
 7029TIP3   OH221050   4.188   2.989   3.060  0.1720  0.8130  0.6570
 7029TIP3    H121051   4.187   2.933   3.138 -1.1902  0.4235  0.4008
 7029TIP3    H221052   4.106   3.039   3.066  0.6475  1.6753  0.0944
 7030TIP3   OH221053   0.008   5.240   1.957  0.2179  0.0799  0.1485
 7030TIP3    H121054   0.089   5.277   1.994  1.1051 -0.4104 -1.2280
 7030TIP3    H221055   0.008   5.269   1.866 -1.3576  0.3527  0.2088
 7031TIP3   OH221056   2.383   4.889   5.764 -0.2158  0.1941  0.0838
 7031TIP3    H121057   2.458   4.887   5.824  0.7958 -2.0804 -1.1528
 7031TIP3    H221058   2.319   4.831   5.805 -1.0207  1.4701  0.7067
 7032TIP3   OH221059   5.523   6.533   4.539 -0.2052  0.5285  0.1654
 7032TIP3    H121060   5.500   6.623   4.516 -2.1697  0.1558  0.5181
 7032TIP3    H221061   5.500   6.481   4.462  2.4421  0.4591 -0.6778
 7033TIP3   OH221062   6.730   2.287   0.197  0.2833 -0.5707 -0.5088
 7033TIP3    H121063   6.697   2.352   0.136  0.1368 -0.2579 -0.0961
 7033TIP3    H221064   6.811   2.325   0.232 -0.0262 -0.4156  0.0544
 7034TIP3   OH221065   4.925   4.561   1.103  0.1796  0.4575  0.4772
 7034TIP3    H121066   4.836   4.564   1.138  0.0916  1.1824  0.2086
 7034TIP3    H221067   4.974   4.624   1.155  1.6381 -2.8642  3.4944
 7035TIP3   OH221068   0.252   1.975   0.337 -0.0827 -0.1478  0.7558
 7035TIP3    H121069   0.302   2.028   0.275 -2.3786 -0.0664 -1.2118
 7035TIP3    H221070   0.317   1.941   0.399  2.1263  1.0250 -0.7852
 7036TIP3   OH221071   1.183   6.822   4.876  0.2048 -0.0226  0.1430
 7036TIP3    H121072   1.258   6.784   4.831  0.1366 -1.0606  0.8663
 7036TIP3    H221073   1.125   6.747   4.893 -0.5754  0.6259  0.3859
 7037TIP3   OH221074   3.266   6.273   3.002 -0.5064 -0.4916 -0.1782
 7037TIP3    H121075   3.291   6.200   2.945  0.4466  0.1339 -0.5889
 7037TIP3    H221076   3.272   6.350   2.946  3.0963  0.5192  1.3483
 7038TIP3   OH221077   5.494   1.878   3.404  0.2840 -0.2625 -0.0348
 7038TIP3    H121078   5.408   1.887   3.362 -0.0434 -1.4004  0.3402
 7038TIP3    H221079   5.542   1.957   3.378 -0.8075  0.3058 -0.4041
 7039TIP3   OH221080   2.302   4.586   0.613 -0.1019  0.2291 -0.2039
 7039TIP3    H121081   2.343   4.663   0.654  0.0470  0.3396 -0.5563
 7039TIP3    H221082   2.311   4.602   0.519 -0.8897  0.2154 -0.2829
 7040TIP3   OH221083   7.099   4.137   2.933 -0.2777  0.4287 -0.2711
 7040TIP3    H121084   7.111   4.073   3.003 -1.6755  0.5714  0.1428
 7040TIP3    H221085   7.159   4.208   2.954  1.7009 -0.9312 -1.0314
 7041TIP3   OH221086   1.868   2.062   0.168  0.9238 -0.0387 -0.1423
 7041TIP3    H121087   1.951   2.063   0.218 -0.0572  1.6155  1.6016
 7041TIP3    H221088   1.893   2.092   0.081  1.9751  2.3944  0.8727
 7042TIP3   OH221089   2.168   4.326   2.187 -0.2030 -0.1479  0.0159
 7042TIP3    H121090   2.139   4.269   2.258 -1.1297  0.9424  0.5488
 7042TIP3    H221091   2.158   4.415   2.222 -1.8169  0.4711 -1.8774
 7043TIP3   OH221092   5.277   1.647   4.818 -0.1086 -0.2349 -0.0305
 7043TIP3    H121093   5.338   1.709   4.778  0.2678  0.1004  1.0102
 7043TIP3    H221094   5.199   1.699   4.838  0.2314 -0.0681  0.9004
 7044TIP3   OH221095   0.364   5.561   1.219 -0.2069 -0.2097  0.1934
 7044TIP3    H121096   0.378   5.630   1.284 -0.8217  0.5158 -0.4289
 7044TIP3    H221097   0.279   5.583   1.179 -0.0049 -0.8435 -0.6016
 7045TIP3   OH221098   6.489   5.073   2.075 -0.4115  0.0199  0.2151
 7045TIP3    H121099   6.466   5.162   2.101 -0.2616 -0.2818  1.4544
 7045TIP3    H221100   6.411   5.039   2.032 -0.7318  0.5120  0.4068
 7046TIP3   OH221101   6.920   0.988   3.462 -0.5093  0.1048  0.9508
 7046TIP3    H121102   6.900   0.895   3.459  2.1807 -0.5131 -0.0773
 7046TIP3    H221103   6.931   1.014   3.371  0.0069  1.1219  1.2830
 7047TIP3   OH221104   5.218   1.141   5.773 -0.1682 -0.1789  0.1565
 7047TIP3    H121105   5.263   1.209   5.822  0.0468 -0.9997  1.1454
 7047TIP3    H221106   5.236   1.161   5.681  2.0633 -0.3616  0.5105
 7048TIP3   OH221107   6.614   0.637   2.191 -0.5773  0.6191 -0.2657
 7048TIP3    H121108   6.555   0.611   2.261 -0.0218  1.8991  0.7164
 7048TIP3    H221109   6.664   0.710   2.227  1.6337 -0.4164 -1.0604
 7049TIP3   OH221110   6.004   5.874   1.443  0.1994  0.0226 -0.7015
 7049TIP3    H121111   6.011   5.780   1.457 -1.2838 -0.1881 -1.2042
 7049TIP3    H221112   5.965   5.882   1.356  0.6280  1.1172 -0.8051
 7050TIP3   OH221113   4.852   4.115   5.419 -0.7921  0.1126  0.2366
 7050TIP3    H121114   4.848   4.150   5.508  0.2699 -1.0129  0.7581
 7050TIP3    H221115   4.916   4.170   5.374 -2.0282  1.2884 -0.1470
 7051TIP3   OH221116   5.110   4.048   2.165 -0.0162  0.3063 -0.1393
 7051TIP3    H121117   5.059   4.052   2.084 -0.7936 -2.4532  0.1444
 7051TIP3    H221118   5.056   4.094   2.230 -1.1859 -0.7604 -0.3302
 7052TIP3   OH221119   4.355   2.300   5.580  0.5950  0.6572  0.0991
 7052TIP3    H121120   4.324   2.234   5.642  0.1302  1.0721  0.3139
 7052TIP3    H221121   4.292   2.298   5.509  1.7333 -0.6031 -0.9272
 7053TIP3   OH221122   2.165   4.872   0.526  0.0006 -0.0593  0.2562
 7053TIP3    H121123   2.218   4.865   0.605  0.1832 -0.0380  0.1337
 7053TIP3    H221124   2.081   4.831   0.550  0.2984 -0.6832  0.2442
 7054TIP3   OH221125   4.987   4.452   4.609 -0.2475 -0.4015 -0.2448
 7054TIP3    H121126   4.945   4.407   4.536 -0.2854 -1.0301  0.1605
 7054TIP3    H221127   4.960   4.404   4.687  2.8198 -2.1665 -0.0929
 7055TIP3   OH221128   1.282   3.452   3.423 -0.2769 -0.3158  0.1966
 7055TIP3    H121129   1.351   3.507   3.460 -1.2254 -1.2242  3.6318
 7055TIP3    H221130   1.204   3.508   3.425 -0.3320 -0.3637 -0.5183
 7056TIP3   OH221131   2.246   0.832   3.271 -0.3371 -0.0809  0.8759
 7056TIP3    H121132   2.311   0.898   3.247 -0.4897 -0.4780 -0.6881
 7056TIP3    H221133   2.169   0.853   3.218 -1.1708 -0.1959  1.9951
 7057TIP3   OH221134   2.265   0.165   3.752  0.3313  0.1641 -0.0581
 7057TIP3    H121135   2.285   0.235   3.814  1.2312 -1.0241  1.0386
 7057TIP3    H221136   2.337   0.165   3.690 -0.0356  0.6609 -0.4949
 7058TIP3   OH221137   2.149   4.212   2.691  0.5201  0.1788  0.6382
 7058TIP3    H121138   2.146   4.226   2.785 -0.8333  1.8381  0.3754
 7058TIP3    H221139   2.229   4.257   2.663  1.1775 -0.7096  1.0119
 7059TIP3   OH221140   6.581   0.209   4.734  0.1793 -0.1374 -0.2567
 7059TIP3    H121141   6.556   0.255   4.814 -1.5805 -1.7781  0.2261
 7059TIP3    H221142   6.499   0.203   4.684  0.7250 -1.2147 -1.0530
 7060TIP3   OH221143   3.566   4.127   2.760  0.0192  0.2832  0.2555
 7060TIP3    H121144   3.494   4.140   2.698 -0.5222  0.0706  0.8305
 7060TIP3    H221145   3.629   4.072   2.712  0.6966  1.9973 -0.9249
 7061TIP3   OH221146   6.984   6.518   1.346  0.4267 -0.0065 -0.0763
 7061TIP3    H121147   7.021   6.517   1.258 -1.6083  1.4443 -1.0359
 7061TIP3    H221148   6.890   6.508   1.333 -0.0961  1.6932  1.7746
 7062TIP3   OH221149   1.589   3.648   0.634 -0.0864 -0.4819  0.3332
 7062TIP3    H121150   1.628   3.735   0.631 -0.4815 -0.3160  0.0446
 7062TIP3    H221151   1.497   3.661   0.613 -0.5202 -0.7489  1.9494
 7063TIP3   OH221152   1.165   4.841   4.625 -0.0375  0.6513  0.2732
 7063TIP3    H121153   1.168   4.879   4.537 -1.7277  0.8339  0.2604
 7063TIP3    H221154   1.255   4.815   4.643  0.0240 -1.3701 -2.3559
 7064TIP3   OH221155   0.372   6.033   1.696  0.1654 -0.2574 -0.3858
 7064TIP3    H121156   0.286   6.075   1.689  0.1445 -0.0562  0.8409
 7064TIP3    H221157   0.353   5.947   1.734  0.4902 -0.2329 -0.1647
 7065TIP3   OH221158   1.596   3.201   0.348  0.8308  0.1689  0.6962
 7065TIP3    H121159   1.505   3.173   0.339  0.9664 -0.3220  0.8147
 7065TIP3    H221160   1.641   3.126   0.386  1.7583 -0.4399 -1.4745
 7066TIP3   OH221161   1.151   0.504   4.016  0.1734 -0.0898  0.8478
 7066TIP3    H121162   1.184   0.584   4.057 -0.1772  1.1453 -1.1369
 7066TIP3    H221163   1.218   0.438   4.036  1.4022  1.1501  1.0323
 7067TIP3   OH221164   3.595   0.178   0.470 -0.9233 -0.1545  0.0386
 7067TIP3    H121165   3.574   0.085   0.477 -1.4017 -0.2723 -2.2367
 7067TIP3    H221166   3.513   0.224   0.489 -0.4605 -0.0870  2.1581
 7068TIP3   OH221167   0.128   5.653   1.574 -0.0920 -0.4070 -0.6642
 7068TIP3    H121168   0.071   5.629   1.500  0.6965 -1.0989 -1.0735
 7068TIP3    H221169   0.212   5.613   1.552  1.6087  3.3100 -1.7303
 7069TIP3   OH221170   2.759   1.263   2.245 -0.5900 -0.0573 -0.0856
 7069TIP3    H121171   2.797   1.255   2.332  0.3774  1.3067 -0.3520
 7069TIP3    H221172   2.736   1.173   2.221  1.2283 -0.7829  0.6658
 7070TIP3   OH221173   3.104   5.336   4.145 -0.3034 -0.3257 -0.2402
 7070TIP3    H121174   3.045   5.334   4.221  0.8292  2.7461  0.8740
 7070TIP3    H221175   3.077   5.413   4.095  0.3213 -1.1075 -1.8635
 7071TIP3   OH221176   6.331   5.682   5.822 -0.1668 -0.3509 -0.1066
 7071TIP3    H121177   6.353   5.742   5.751 -1.2595  1.5613  1.1014
 7071TIP3    H221178   6.297   5.604   5.778 -0.2543  0.5514 -1.7025
 7072TIP3   OH221179   1.862   4.057   1.432  0.7694 -0.0228  0.4035
 7072TIP3    H121180   1.800   4.059   1.359  0.0404  0.7578  1.0192
 7072TIP3    H221181   1.813   4.020   1.504  0.4949  1.9903  1.3268
 7073TIP3   OH221182   2.653   0.333   5.493 -0.3228 -0.1645  0.4821
 7073TIP3    H121183   2.711   0.265   5.460  0.2373  0.7194 -0.4116
 7073TIP3    H221184   2.676   0.411   5.442 -2.9599  0.0078 -0.6038
 7074TIP3   OH221185   6.217   4.282   4.660  0.5553 -0.0734  0.0970
 7074TIP3    H121186   6.206   4.377   4.665  0.2128 -0.1637  1.8925
 7074TIP3    H221187   6.154   4.248   4.724  0.3748 -1.5404 -0.8241
 7075TIP3   OH221188   6.732   1.548   3.764  0.2035  0.0541  0.4119
 7075TIP3    H121189   6.768   1.479   3.819 -0.1011 -0.1810  0.3252
 7075TIP3    H221190   6.772   1.534   3.678 -0.2544 -0.3463  0.2567
 7076TIP3   OH221191   4.819   1.102   3.675  0.0592 -0.1779 -0.1711
 7076TIP3    H121192   4.862   1.188   3.677  0.5191 -0.3650 -1.4160
 7076TIP3    H221193   4.752   1.107   3.744 -0.4951  1.4708 -0.7937
 7077TIP3   OH221194   5.757   0.541   0.136  0.3425  0.6348 -0.2531
 7077TIP3    H121195   5.757   0.637   0.136 -2.3012  0.7537  2.5054
 7077TIP3    H221196   5.665   0.517   0.135  0.9405 -1.9822 -1.3632
 7078TIP3   OH221197   1.472   2.762   3.614 -0.0012 -0.0024 -0.1451
 7078TIP3    H121198   1.386   2.783   3.579 -0.7845  0.4715  1.8825
 7078TIP3    H221199   1.492   2.674   3.580 -0.1592  0.8307 -2.5462
 7079TIP3   OH221200   1.240   2.916   4.112  0.0435 -0.1049  0.2948
 7079TIP3    H121201   1.222   3.002   4.149 -3.0503  0.4638 -2.1380
 7079TIP3    H221202   1.287   2.934   4.031  0.0235 -0.7890  0.1245
 7080TIP3   OH221203   3.869   0.744   5.137 -0.0063 -0.0159  0.4300
 7080TIP3    H121204   3.843   0.699   5.056  0.1021 -2.8957  1.8583
 7080TIP3    H221205   3.953   0.703   5.160  0.7171  1.8397  1.2445
 7081TIP3   OH221206  -0.017   2.783   3.723  0.3080  0.6446  0.6717
 7081TIP3    H121207   0.016   2.865   3.760 -0.4958  0.5523  1.6203
 7081TIP3    H221208   0.005   2.717   3.788  0.3657  0.2066  0.2131
 7082TIP3   OH221209   1.833   1.915   4.097 -0.2962  0.1776  0.6732
 7082TIP3    H121210   1.802   1.895   4.186 -1.2408 -2.9155 -0.2180
 7082TIP3    H221211   1.756   1.948   4.052 -1.1088 -2.5156 -0.1070
 7083TIP3   OH221212   2.841   1.442   1.525 -0.3471 -0.2007 -0.2991
 7083TIP3    H121213   2.936   1.452   1.530 -0.4658  1.1031 -0.4668
 7083TIP3    H221214   2.821   1.373   1.589  0.8516 -1.5571 -1.3353
 7084TIP3   OH221215   6.152   6.630   4.806 -0.3170  0.4739  0.2904
 7084TIP3    H121216   6.080   6.671   4.757 -0.5057  0.7835  0.8035
 7084TIP3    H221217   6.120   6.542   4.826 -0.8033  0.7958  0.9979
 7085TIP3   OH221218   0.413   5.208   1.797  0.0845 -0.3058  0.3117
 7085TIP3    H121219   0.343   5.156   1.836  0.0194 -0.3555  0.1301
 7085TIP3    H221220   0.407   5.294   1.839 -0.9304  0.1206 -0.6513
 7086TIP3   OH221221   5.214   2.138   5.191 -0.1038 -0.2615 -0.2244
 7086TIP3    H121222   5.223   2.233   5.186  2.5536 -0.4856 -0.9607
 7086TIP3    H221223   5.252   2.114   5.276 -2.0653 -0.6121  0.6238
 7087TIP3   OH221224   2.599   2.938   5.490 -0.2078  0.1417 -0.1084
 7087TIP3    H121225   2.611   2.862   5.546  1.2189  0.5349  0.1629
 7087TIP3    H221226   2.628   2.908   5.403  0.2563  0.3337 -0.0230
 7088TIP3   OH221227   1.816   0.283   4.902 -0.1924  0.1602  0.1352
 7088TIP3    H121228   1.807   0.375   4.876  3.0666  0.8374  1.0345
 7088TIP3    H221229   1.781   0.280   4.991 -0.3546  0.5051  0.0865
 7089TIP3   OH221230   1.559   2.998   5.421 -0.1436  0.1688 -0.0637
 7089TIP3    H121231   1.490   2.937   5.396  0.6512 -0.4092 -0.8931
 7089TIP3    H221232   1.635   2.972   5.370  1.5155 -0.8797  2.6865
 7090TIP3   OH221233   2.504   0.729   0.194  0.5415 -0.3135 -0.8142
 7090TIP3    H121234   2.532   0.794   0.129 -3.3219 -0.0328 -2.4824
 7090TIP3    H221235   2.548   0.649   0.168  0.9000  0.3499 -2.4000
 7091TIP3   OH221236   6.472   6.197   3.782  0.0517 -0.7678 -0.1835
 7091TIP3    H121237   6.541   6.263   3.778  0.0221 -0.7715 -0.9864
 7091TIP3    H221238   6.511   6.123   3.829 -0.4657  0.4411  2.3264
 7092TIP3   OH221239   0.377   2.430   0.668  0.5813 -0.5878  0.0211
 7092TIP3    H121240   0.414   2.458   0.751 -0.2400  0.0017  0.2086
 7092TIP3    H221241   0.366   2.511   0.618 -1.0924 -0.6191  0.2588
 7093TIP3   OH221242   5.144   3.263   4.255  0.3885 -0.2216  0.1613
 7093TIP3    H121243   5.120   3.265   4.162  1.2690 -0.4492 -0.0821
 7093TIP3    H221244   5.107   3.181   4.288 -1.3822  0.6322  0.4467
 7094TIP3   OH221245   0.204   0.433   1.707  0.4071 -0.3652  0.1039
 7094TIP3    H121246   0.293   0.459   1.682  0.5675  0.5175  1.4578
 7094TIP3    H221247   0.211   0.340   1.729  0.7583 -0.5627 -0.8063
 7095TIP3   OH221248   5.005   6.430   0.792 -0.0665  0.8866  0.3230
 7095TIP3    H121249   5.016   6.519   0.827  0.2880  1.4304 -1.1161
 7095TIP3    H221250   5.089   6.387   0.810  0.7910  1.7421 -1.4030
 7096TIP3   OH221251   5.554   0.882   1.308 -0.5147  0.1228  0.3405
 7096TIP3    H121252   5.518   0.902   1.395 -1.1437 -1.1758  0.4069
 7096TIP3    H221253   5.649   0.889   1.319 -0.4806 -1.5538  1.5909
 7097TIP3   OH221254   6.648   0.491   1.407 -0.1349  0.4248 -0.4453
 7097TIP3    H121255   6.693   0.534   1.334 -0.6788  1.1999 -0.3412
 7097TIP3    H221256   6.653   0.555   1.479  0.3154 -0.2891  0.1719
 7098TIP3   OH221257   5.123   2.124   3.244 -0.0284  0.0309 -0.1277
 7098TIP3    H121258   5.147   2.194   3.304  0.1426  1.5275 -1.8615
 7098TIP3    H221259   5.129   2.163   3.157 -0.8816 -1.8714 -1.1131
 7099TIP3   OH221260   5.387   3.457   0.608 -0.2135 -0.8362 -0.3662
 7099TIP3    H121261   5.369   3.549   0.586  0.8739 -0.5769 -0.2210
 7099TIP3    H221262   5.475   3.458   0.644 -0.4702 -1.8400  0.3386
 7100TIP3   OH221263   6.622   6.196   0.770 -0.4152  0.1345 -0.6610
 7100TIP3    H121264   6.672   6.120   0.801 -0.1403  0.2843 -0.7336
 7100TIP3    H221265   6.687   6.264   0.757 -0.9233  1.1407  1.6260
 7101TIP3   OH221266   5.329   0.868   5.039  0.2527  0.4183  0.0449
 7101TIP3    H121267   5.261   0.934   5.021 -0.4849  0.4096  2.5187
 7101TIP3    H221268   5.390   0.911   5.098  1.8074  0.0172 -1.1950
 7102TIP3   OH221269   4.118   1.951   3.204  0.0633 -0.0161  0.1169
 7102TIP3    H121270   4.036   1.987   3.238  0.7657  0.3564  1.5003
 7102TIP3    H221271   4.186   1.999   3.251  1.1415  0.9198 -2.2396
 7103TIP3   OH221272   2.396   4.795   0.756 -0.1240 -0.6811 -0.0473
 7103TIP3    H121273   2.332   4.840   0.811  0.8193  1.5287 -0.6374
 7103TIP3    H221274   2.480   4.805   0.802  0.6341  0.9809 -1.6755
 7104TIP3   OH221275   1.529   2.500   3.561  0.3714 -0.5157  0.0871
 7104TIP3    H121276   1.552   2.407   3.554 -1.1856 -0.8694 -1.2012
 7104TIP3    H221277   1.449   2.508   3.508  0.4096  1.5432  0.2681
 7105TIP3   OH221278   5.655   0.896   0.558  1.1086  0.5134  0.4092
 7105TIP3    H121279   5.650   0.815   0.506  0.8517 -1.2024  2.9529
 7105TIP3    H221280   5.595   0.956   0.513  0.0793 -1.2459 -0.6932
 7106TIP3   OH221281   6.336   3.454   2.646 -0.3940 -0.1340  0.3465
 7106TIP3    H121282   6.358   3.523   2.708 -1.3077 -0.1619  0.7110
 7106TIP3    H221283   6.344   3.373   2.697  0.2913 -0.2771  0.0255
 7107TIP3   OH221284   3.724   1.635   5.715  0.0069  0.0405 -0.4993
 7107TIP3    H121285   3.690   1.551   5.746  1.2546  0.0746  1.1111
 7107TIP3    H221286   3.650   1.676   5.671 -1.2302 -1.0238  0.5006
 7108TIP3   OH221287   2.711   1.220   5.713  0.1844  0.6184 -0.3039
 7108TIP3    H121288   2.799   1.215   5.751  0.7793  2.2820 -1.3653
 7108TIP3    H221289   2.662   1.275   5.775  0.0070  0.0621  0.0566
 7109TIP3   OH221290   5.933   2.210   0.134 -0.2761 -0.0621 -0.1850
 7109TIP3    H121291   5.900   2.120   0.140 -1.7197  0.4786  0.6204
 7109TIP3    H221292   5.854   2.263   0.131  0.5573  1.2277  0.1857
 7110TIP3   OH221293   4.043   0.977   1.316  0.2869 -0.1342  0.6577
 7110TIP3    H121294   4.070   1.004   1.228  1.0740  1.2050  1.2832
 7110TIP3    H221295   4.076   0.888   1.326  2.4999  0.6251  0.5334
 7111TIP3   OH221296   1.855   2.532   1.157  0.2711 -0.4184 -0.6836
 7111TIP3    H121297   1.916   2.566   1.222 -0.0789 -0.5189 -0.2949
 7111TIP3    H221298   1.877   2.578   1.077  2.0592 -1.7333 -1.0195
 7112TIP3   OH221299   4.385   3.409   3.323  0.3106  0.0270  0.1290
 7112TIP3    H121300   4.379   3.429   3.230  1.0594 -2.4554 -0.5149
 7112TIP3    H221301   4.295   3.391   3.350  0.3298 -1.5425 -0.7270
 7113TIP3   OH221302   2.863   0.411   4.019 -0.3104  0.2112  0.7935
 7113TIP3    H121303   2.914   0.346   4.067  0.0747  0.4852  0.7596
 7113TIP3    H221304   2.796   0.440   4.081  0.2087  0.5941  1.1892
 7114TIP3   OH221305   6.225   3.827   5.873 -0.3860 -0.3899 -0.3858
 7114TIP3    H121306   6.268   3.810   5.790 -0.1430 -0.6384 -0.2110
 7114TIP3    H221307   6.135   3.797   5.860 -0.2214 -0.8869 -0.4008
 7115TIP3   OH221308   5.142   1.042   1.327  0.3364  0.4706 -0.0301
 7115TIP3    H121309   5.169   0.958   1.364  1.2185  1.0939  0.7896
 7115TIP3    H221310   5.150   1.030   1.232 -2.4266 -1.3105 -0.1554
 7116TIP3   OH221311   6.061   6.205   2.492  0.1394  0.5315  0.1753
 7116TIP3    H121312   6.000   6.152   2.543 -0.4601 -0.8523 -1.8607
 7116TIP3    H221313   6.011   6.284   2.470 -0.6205 -0.1819 -0.7098
 7117TIP3   OH221314   4.954   1.947   3.391  0.3217 -0.4591 -0.6034
 7117TIP3    H121315   4.977   2.027   3.343 -1.6849  1.0956  0.8793
 7117TIP3    H221316   5.001   1.954   3.474 -0.7101 -0.2794 -0.0311
 7118TIP3   OH221317   0.581   5.022   4.257 -0.0930  1.0995  0.4487
 7118TIP3    H121318   0.653   5.000   4.199  0.7134  0.1229  1.7481
 7118TIP3    H221319   0.540   4.937   4.278 -1.1436  1.5595  0.3408
 7119TIP3   OH221320   0.661   1.276   1.649  0.1171 -0.1247 -0.1733
 7119TIP3    H121321   0.659   1.190   1.690  0.8034  0.0816  0.3042
 7119TIP3    H221322   0.578   1.281   1.601  0.7643 -1.6752 -1.5333
 7120TIP3   OH221323   2.374   1.220   1.277  0.5548  0.3365  0.5060
 7120TIP3    H121324   2.419   1.302   1.257  0.8455 -0.1056 -0.7311
 7120TIP3    H221325   2.439   1.152   1.262 -0.1483 -0.2291 -0.0392
 7121TIP3   OH221326   0.990   5.551   3.409  0.2502  0.1458 -0.1751
 7121TIP3    H121327   0.899   5.574   3.390  0.4915  1.2457 -0.0825
 7121TIP3    H221328   1.000   5.570   3.503  0.2437 -1.1389  0.0945
 7122TIP3   OH221329   0.534   6.344   1.423  0.7146  0.2936 -0.4600
 7122TIP3    H121330   0.599   6.408   1.396 -0.3985  1.8917  0.4642
 7122TIP3    H221331   0.478   6.332   1.346  1.7071 -0.6310 -1.0610
 7123TIP3   OH221332   1.519   4.543   1.679 -0.8894  0.1928  0.4261
 7123TIP3    H121333   1.471   4.541   1.596 -1.9666  0.8110  1.0200
 7123TIP3    H221334   1.602   4.499   1.659 -0.3070  1.9806 -1.4948
 7124TIP3   OH221335   4.250   1.986   2.503 -0.2628  0.8162 -0.1661
 7124TIP3    H121336   4.303   2.064   2.520 -0.6407  1.0104  0.1648
 7124TIP3    H221337   4.184   2.015   2.440  0.3463  0.4313 -1.0019
 7125TIP3   OH221338   6.347   0.252   5.627 -0.8859 -0.1416  0.5538
 7125TIP3    H121339   6.266   0.232   5.675 -0.2274  0.0223  1.7606
 7125TIP3    H221340   6.336   0.207   5.543 -2.1200 -0.3343  0.7927
 7126TIP3   OH221341   2.415   2.049   0.836 -0.2444  0.4918  0.5284
 7126TIP3    H121342   2.359   2.101   0.894  0.4690  1.4116  0.4019
 7126TIP3    H221343   2.394   1.958   0.858 -2.8176  0.7640 -0.4791
 7127TIP3   OH221344   7.097   3.667   0.462  0.8211  0.4261  0.4278
 7127TIP3    H121345   7.104   3.600   0.529  0.0568 -1.3264 -1.1392
 7127TIP3    H221346   7.158   3.639   0.394  0.9168  1.6464 -0.0194
 7128TIP3   OH221347   0.975   4.217   1.387  0.4522 -0.3784 -0.2158
 7128TIP3    H121348   0.930   4.270   1.452  0.7744  0.1561 -0.4282
 7128TIP3    H221349   1.013   4.280   1.326  0.1999 -0.8717 -0.8977
 7129TIP3   OH221350   5.554   3.289   4.055  0.6534 -0.2139  0.0608
 7129TIP3    H121351   5.589   3.253   3.974 -2.4562 -0.3867 -1.3808
 7129TIP3    H221352   5.543   3.383   4.037  0.3334 -0.1789  0.4167
 7130TIP3   OH221353   0.299   4.310   2.451  1.0635 -0.1273 -0.5868
 7130TIP3    H121354   0.335   4.395   2.475  0.1076  0.0847  0.1248
 7130TIP3    H221355   0.224   4.298   2.508 -0.8974  0.0769 -2.9475
 7131TIP3   OH221356   0.605   4.108   2.786  0.0272 -0.0976 -0.0468
 7131TIP3    H121357   0.660   4.176   2.746 -0.3670 -0.3543 -1.0634
 7131TIP3    H221358   0.659   4.029   2.783  1.1455  0.4550  2.6637
 7132TIP3   OH221359   6.650   0.970   2.622 -0.4276 -0.1174 -0.5026
 7132TIP3    H121360   6.739   0.971   2.586 -0.0449  0.8747  0.3949
 7132TIP3    H221361   6.595   0.996   2.548  0.1453  0.2247 -0.8260
 7133TIP3   OH221362   3.164   4.926   1.099  0.1489 -0.1548  0.1236
 7133TIP3    H121363   3.237   4.940   1.159  0.0156 -1.2185  0.5410
 7133TIP3    H221364   3.155   4.831   1.093 -0.6244 -0.0455 -0.6250
 7134TIP3   OH221365   2.311   1.644   1.356  0.4397  0.0373  0.1416
 7134TIP3    H121366   2.358   1.572   1.315 -1.1378 -0.5370 -0.7763
 7134TIP3    H221367   2.377   1.692   1.405  1.6452 -1.6757  0.2702
 7135TIP3   OH221368   6.002   3.237   1.336 -0.2803 -0.2007  0.6226
 7135TIP3    H121369   6.046   3.185   1.403  0.9130 -0.0062  0.0103
 7135TIP3    H221370   5.984   3.174   1.265 -0.4689 -0.1573  0.6315
 7136TIP3   OH221371   4.735   3.350   2.146  0.1985  0.1468 -0.1478
 7136TIP3    H121372   4.799   3.320   2.083 -0.8954 -1.2223 -0.6595
 7136TIP3    H221373   4.659   3.375   2.094 -0.7572 -1.0937  0.5884
 7137TIP3   OH221374   4.556   5.100   5.209 -0.4641  0.2798 -0.1833
 7137TIP3    H121375   4.600   5.136   5.133 -0.5180  1.6062  0.3821
 7137TIP3    H221376   4.625   5.090   5.275 -0.9477  2.5791  0.7828
 7138TIP3   OH221377   5.958   5.554   5.054 -0.6221 -0.5813 -0.2076
 7138TIP3    H121378   5.993   5.495   4.987 -0.6496 -0.0412 -0.7006
 7138TIP3    H221379   6.035   5.594   5.094 -0.6427  0.0787 -0.8135
 7139TIP3   OH221380   7.183   5.287   4.178  0.4433  0.4960 -0.1965
 7139TIP3    H121381   7.208   5.379   4.182  1.2424  0.2547  0.7871
 7139TIP3    H221382   7.115   5.283   4.111  0.5584  1.7610 -0.4040
 7140TIP3   OH221383   3.315   4.291   0.295 -0.6190  0.1086 -0.3507
 7140TIP3    H121384   3.256   4.225   0.259  0.3470 -0.4168 -1.0214
 7140TIP3    H221385   3.269   4.374   0.284 -0.7607 -0.1472 -1.9526
 7141TIP3   OH221386   4.181   6.411   4.347 -0.1909 -0.2400  0.4631
 7141TIP3    H121387   4.201   6.502   4.325  0.2783 -0.7521 -1.5067
 7141TIP3    H221388   4.214   6.399   4.436  0.1535  1.3867  0.5786
 7142TIP3   OH221389   4.545   2.173   4.635  0.4180  0.7128 -0.4959
 7142TIP3    H121390   4.590   2.254   4.611  1.4474 -0.3803 -2.4822
 7142TIP3    H221391   4.457   2.184   4.599  1.1287  0.2219 -2.5175
 7143TIP3   OH221392   1.856   6.654   4.757 -0.2308  0.2644  0.0280
 7143TIP3    H121393   1.933   6.608   4.724  1.3362  1.8965  1.1926
 7143TIP3    H221394   1.890   6.735   4.793 -2.7864  2.1467 -1.4279
 7144TIP3   OH221395   4.369   6.686   3.556  0.0278  0.0371 -0.2284
 7144TIP3    H121396   4.341   6.699   3.647  0.8398 -2.6107  0.5171
 7144TIP3    H221397   4.442   6.746   3.544 -1.4927  2.0407  0.0716
 7145TIP3   OH221398   6.512   1.975   1.650  0.1071  0.1211 -0.3207
 7145TIP3    H121399   6.493   1.975   1.744  1.0837 -1.1175 -0.0941
 7145TIP3    H221400   6.473   2.056   1.618 -0.0580  0.6782  1.1902
 7146TIP3   OH221401   3.314   5.325   2.846  0.4172 -0.1127  0.5447
 7146TIP3    H121402   3.353   5.407   2.816  1.8185 -1.0679 -0.3594
 7146TIP3    H221403   3.237   5.352   2.896  0.1996  1.6853 -0.6888
 7147TIP3   OH221404   2.143   3.011   3.121  0.0808 -0.2937 -0.2768
 7147TIP3    H121405   2.064   3.053   3.155 -0.7896 -1.5707 -0.6500
 7147TIP3    H221406   2.191   3.081   3.078 -0.0680  0.8306  1.2942
 7148TIP3   OH221407   2.679   6.122   5.512 -0.6672 -0.3245 -0.1205
 7148TIP3    H121408   2.587   6.101   5.526 -1.2039  1.0926 -1.2744
 7148TIP3    H221409   2.691   6.206   5.555 -0.0548 -0.2305 -0.4685
 7149TIP3   OH221410   1.521   1.794   4.311 -0.1499 -0.3999  0.1866
 7149TIP3    H121411   1.562   1.736   4.375  1.9355 -2.3640 -2.6797
 7149TIP3    H221412   1.588   1.860   4.292 -1.1058  0.7428  0.6279
 7150TIP3   OH221413   4.631   4.862   5.449 -0.1136 -0.4918 -0.0918
 7150TIP3    H121414   4.696   4.866   5.379 -0.2153 -1.3524 -0.2507
 7150TIP3    H221415   4.577   4.786   5.428  0.0761 -0.9907  1.0937
 7151TIP3   OH221416   4.395   0.739   2.548 -0.1964  0.0611  0.2403
 7151TIP3    H121417   4.398   0.752   2.643 -0.9353  0.6306  0.1918
 7151TIP3    H221418   4.486   0.718   2.525 -0.0632 -0.3553  1.1050
 7152TIP3   OH221419   5.929   1.220   5.272 -0.1812  0.0826  0.3409
 7152TIP3    H121420   5.974   1.262   5.345  2.0202  0.1819 -0.9733
 7152TIP3    H221421   5.908   1.293   5.213 -0.5251 -0.1551  0.1709
 7153TIP3   OH221422   6.658   3.043   5.891 -0.4801 -0.4380  0.6598
 7153TIP3    H121423   6.580   3.047   5.836  0.6068 -1.7132 -1.0674
 7153TIP3    H221424   6.674   2.949   5.903  2.2009 -0.3559 -1.2325
 7154TIP3   OH221425   1.564   3.106   4.009 -0.2961 -0.6807 -0.2351
 7154TIP3    H121426   1.555   3.040   3.941 -1.7287  1.4374 -2.2746
 7154TIP3    H221427   1.617   3.175   3.969 -1.6113  0.8627  0.5449
 7155TIP3   OH221428   1.407   1.159   3.776 -0.0158  0.1255 -0.5136
 7155TIP3    H121429   1.366   1.236   3.815 -0.4982 -0.6509  0.5744
 7155TIP3    H221430   1.342   1.090   3.787  0.2004 -0.3289 -1.9366
 7156TIP3   OH221431   6.193   2.980   2.405  0.3540 -0.4562  0.1322
 7156TIP3    H121432   6.238   3.061   2.427  0.5632 -0.1002 -1.4905
 7156TIP3    H221433   6.102   2.995   2.430  0.3153  0.4450 -0.5111
 7157TIP3   OH221434   4.137   4.460   5.476  0.1106 -0.0458  0.4936
 7157TIP3    H121435   4.085   4.382   5.457 -0.7927  0.6849 -0.1650
 7157TIP3    H221436   4.197   4.433   5.545 -1.7965 -0.6664  2.0006
 7158TIP3   OH221437   0.993   4.247   3.679 -0.1809  0.2507 -0.4100
 7158TIP3    H121438   0.936   4.214   3.609  1.8876 -0.7338 -1.7311
 7158TIP3    H221439   0.982   4.342   3.675  0.5081  0.2932 -2.7140
 7159TIP3   OH221440   5.895   2.662   1.131 -0.5564 -0.3905  0.0071
 7159TIP3    H121441   5.800   2.671   1.130 -0.9558 -3.0641  1.6726
 7159TIP3    H221442   5.914   2.591   1.069  0.0950 -1.1735  1.0599
 7160TIP3   OH221443   6.325   4.484   5.820  0.0239 -0.2065 -0.3411
 7160TIP3    H121444   6.351   4.576   5.826 -0.2859 -0.2181  2.0908
 7160TIP3    H221445   6.298   4.461   5.908 -0.8720 -2.3809 -1.1202
 7161TIP3   OH221446   5.394   0.755   2.547  0.6778  0.1277 -0.1804
 7161TIP3    H121447   5.432   0.670   2.527 -0.7860 -0.5578 -0.1170
 7161TIP3    H221448   5.431   0.814   2.480  2.2439 -0.3710  0.1995
 7162TIP3   OH221449   3.012   4.716   4.888 -0.5686  0.3711 -0.1433
 7162TIP3    H121450   3.076   4.716   4.958  0.1010 -0.5641 -0.7214
 7162TIP3    H221451   2.949   4.784   4.912  0.7662  1.4789  0.3149
 7163TIP3   OH221452   3.315   5.896   1.270  0.0396 -0.2797  0.0390
 7163TIP3    H121453   3.250   5.885   1.340 -0.6362 -1.7007 -0.7687
 7163TIP3    H221454   3.395   5.859   1.307  0.6481  2.0757  1.2859
 7164TIP3   OH221455   6.057   6.208   4.287  0.0782 -0.0411  0.0219
 7164TIP3    H121456   6.079   6.198   4.379 -0.5872  1.8750  0.4470
 7164TIP3    H221457   5.962   6.194   4.283  0.2493 -1.1670 -0.5786
 7165TIP3   OH221458   2.736   4.516   4.744  0.2348  0.4514  0.1557
 7165TIP3    H121459   2.784   4.491   4.666  0.5948  1.1219  0.1546
 7165TIP3    H221460   2.743   4.440   4.802  0.4592  0.1754 -0.2302
 7166TIP3   OH221461   6.067   2.116   0.377  0.1588 -0.5115 -0.2836
 7166TIP3    H121462   6.033   2.029   0.354 -1.5996  0.2173 -0.5887
 7166TIP3    H221463   6.055   2.168   0.298  1.0870  0.0598 -0.0630
 7167TIP3   OH221464   4.663   6.223   2.448  0.1160  0.0573 -0.1475
 7167TIP3    H121465   4.699   6.169   2.378  0.2066 -0.6143  0.3954
 7167TIP3    H221466   4.576   6.186   2.464 -0.1655  0.6256 -0.3446
 7168TIP3   OH221467   6.914   4.931   2.180 -0.7342 -0.2739  0.1535
 7168TIP3    H121468   6.937   5.024   2.176  2.4752 -0.9890 -0.1335
 7168TIP3    H221469   6.861   4.916   2.102 -2.4665  1.5286  0.8952
 7169TIP3   OH221470   6.320   0.897   3.458  0.8237  0.0959 -0.0742
 7169TIP3    H121471   6.252   0.850   3.506  1.4608  0.9559  1.7838
 7169TIP3    H221472   6.283   0.911   3.371 -0.6523 -0.9886  0.3419
 7170TIP3   OH221473   3.820   4.890   0.591 -0.2750  0.1283 -0.4245
 7170TIP3    H121474   3.753   4.822   0.576 -1.1333  0.5087  1.4717
 7170TIP3    H221475   3.774   4.959   0.637  1.4840  0.3067  1.1552
 7171TIP3   OH221476   0.614   5.172   0.652 -0.0009 -0.2541 -0.1882
 7171TIP3    H121477   0.707   5.159   0.669 -0.0444 -0.7276 -0.3118
 7171TIP3    H221478   0.572   5.091   0.680 -0.2752 -0.3852 -0.9654
 7172TIP3   OH221479   6.788   4.982   1.217 -0.0836  0.2765  0.0665
 7172TIP3    H121480   6.813   5.015   1.303 -0.8505 -1.3224  0.9350
 7172TIP3    H221481   6.737   4.903   1.235 -1.7944  0.8691 -1.7839
 7173TIP3   OH221482   0.243   2.689   0.624 -0.2819 -0.8833 -0.0184
 7173TIP3    H121483   0.248   2.779   0.656  0.8554  0.1027 -2.6982
 7173TIP3    H221484   0.155   2.661   0.648 -0.5832  0.8299  1.1023
 7174TIP3   OH221485   2.689   5.132   4.092  0.0134 -0.1430 -0.2643
 7174TIP3    H121486   2.681   5.148   4.186  1.3169 -0.2804 -0.1032
 7174TIP3    H221487   2.628   5.061   4.074 -0.5118  0.1330  0.4078
 7175TIP3   OH221488   0.362   4.055   2.506  0.6962 -0.6573  0.1057
 7175TIP3    H121489   0.335   4.142   2.474  2.0618  0.0110  0.6961
 7175TIP3    H221490   0.350   4.060   2.601  0.9668 -1.0573  0.1596
 7176TIP3   OH221491   1.509   2.681   1.504 -0.2158 -0.2842  0.7746
 7176TIP3    H121492   1.489   2.614   1.439 -1.1053 -0.4499  1.2118
 7176TIP3    H221493   1.605   2.682   1.508 -0.1651 -0.7300 -0.0515
 7177TIP3   OH221494   0.992   4.423   2.110  0.7484 -0.2700  0.0799
 7177TIP3    H121495   0.971   4.505   2.154  1.6101 -0.2022  0.3664
 7177TIP3    H221496   0.927   4.417   2.040 -1.5837 -1.0634  2.1440
 7178TIP3   OH221497   4.537   1.946   1.172  0.3199 -0.3007 -0.3751
 7178TIP3    H121498   4.562   2.023   1.224  0.9296  0.4925 -1.8081
 7178TIP3    H221499   4.581   1.958   1.088 -1.0293 -1.3252 -1.2609
 7179TIP3   OH221500   6.471   1.848   4.088 -0.1267  0.1011 -0.7852
 7179TIP3    H121501   6.432   1.792   4.155 -0.0197 -0.7575 -1.4203
 7179TIP3    H221502   6.477   1.792   4.010  2.9297 -0.0369 -0.5798
 7180TIP3   OH221503   5.424   2.871   3.877  0.1103  0.0114  0.2777
 7180TIP3    H121504   5.413   2.966   3.869 -0.4307 -0.0114  0.6522
 7180TIP3    H221505   5.438   2.841   3.787 -2.0532  0.1905 -0.1916
 7181TIP3   OH221506   2.169   5.622   1.133  0.1801 -0.1745 -0.2882
 7181TIP3    H121507   2.161   5.603   1.040  2.6346 -2.2412 -0.2049
 7181TIP3    H221508   2.162   5.537   1.176  1.2936  0.4316  1.1967
 7182TIP3   OH221509   5.010   4.258   1.781  0.4914 -0.4932  0.7394
 7182TIP3    H121510   5.052   4.339   1.754  0.8525 -0.3225  1.7903
 7182TIP3    H221511   4.959   4.282   1.858 -0.0909 -1.0849  0.5459
 7183TIP3   OH221512   2.983   1.803   3.268 -0.4385 -0.3715  0.1466
 7183TIP3    H121513   2.986   1.782   3.362  0.4646 -1.8875 -0.1739
 7183TIP3    H221514   3.056   1.754   3.231 -1.1687 -0.3078 -1.4514
 7184TIP3   OH221515   4.405   0.281   4.733 -0.6391 -0.1263 -0.3247
 7184TIP3    H121516   4.365   0.319   4.656  0.3446 -0.4617 -1.0255
 7184TIP3    H221517   4.497   0.308   4.729 -0.2174 -1.4232 -0.1352
 7185TIP3   OH221518   1.073   3.264   4.065  0.0312 -0.2776  0.3571
 7185TIP3    H121519   1.063   3.351   4.103  2.8220  0.1941  0.2623
 7185TIP3    H221520   1.133   3.219   4.126 -2.4824 -2.7497  1.2490
 7186TIP3   OH221521   5.417   4.679   0.396  0.4315 -0.3045  0.0971
 7186TIP3    H121522   5.461   4.760   0.421 -0.9401  0.3031  0.6155
 7186TIP3    H221523   5.334   4.706   0.357  0.2942 -1.4393 -0.4680
 7187TIP3   OH221524   0.386   2.178   1.363  0.6767 -0.3434  0.1936
 7187TIP3    H121525   0.432   2.094   1.372  0.4581 -0.5904 -0.8247
 7187TIP3    H221526   0.444   2.231   1.308  0.3159 -0.2255 -0.0790
 7188TIP3   OH221527   0.385   2.098   4.427 -0.2420  0.0444 -0.0900
 7188TIP3    H121528   0.322   2.033   4.456 -0.3055 -0.4160 -1.2201
 7188TIP3    H221529   0.431   2.124   4.507 -1.3256 -0.1696  0.6286
 7189TIP3   OH221530   0.854   4.665   2.133 -0.0326 -0.4070  0.3626
 7189TIP3    H121531   0.883   4.694   2.046  0.6879  1.6831  1.2437
 7189TIP3    H221532   0.896   4.726   2.194 -1.2268 -1.2792  2.1403
 7190TIP3   OH221533   0.725   6.329   3.635 -0.3685  0.5921 -0.3162
 7190TIP3    H121534   0.748   6.285   3.717 -1.1563  0.1418 -0.3331
 7190TIP3    H221535   0.633   6.350   3.644 -0.1090  1.8513 -0.5013
 7191TIP3   OH221536   5.349   4.720   4.845 -0.2234  0.2442 -0.4932
 7191TIP3    H121537   5.394   4.648   4.888  2.2646  1.1370 -1.4103
 7191TIP3    H221538   5.359   4.794   4.905 -1.9188  0.1203  0.0013
 7192TIP3   OH221539   2.092   2.598   3.519  0.3281  0.7027 -0.0208
 7192TIP3    H121540   2.054   2.663   3.460 -1.2717 -1.7482 -1.8956
 7192TIP3    H221541   2.033   2.598   3.594  0.5218  1.5903  0.1483
 7193TIP3   OH221542   6.642   3.683   4.454 -0.3979  0.2686  0.0398
 7193TIP3    H121543   6.607   3.699   4.541  0.9073  0.4217  0.5703
 7193TIP3    H221544   6.706   3.613   4.467 -0.7005 -0.2016 -0.9285
 7194TIP3   OH221545   2.115   4.076   2.358 -0.0143 -0.3075  0.4348
 7194TIP3    H121546   2.183   4.052   2.421  1.1508 -2.0073 -1.3512
 7194TIP3    H221547   2.067   3.995   2.343 -1.5194  0.5253  0.5162
 7195TIP3   OH221548   5.516   3.379   1.604 -0.1166  0.3488  0.1846
 7195TIP3    H121549   5.430   3.337   1.603  0.8075 -1.6848  0.6548
 7195TIP3    H221550   5.551   3.365   1.516  0.1723  0.1686  0.3257
 7196TIP3   OH221551   0.169   0.143   3.548 -0.7347 -0.7811 -0.1435
 7196TIP3    H121552   0.220   0.176   3.474 -0.0559  0.1156  0.6933
 7196TIP3    H221553   0.108   0.214   3.568  0.2208 -0.2916  1.1895
 7197TIP3   OH221554   4.402   6.056   3.997 -0.0654 -0.0449 -0.3417
 7197TIP3    H121555   4.378   5.966   4.017  1.8743 -0.5399  0.0054
 7197TIP3    H221556   4.362   6.108   4.067 -0.0362 -0.8093  0.2558
 7198TIP3   OH221557   5.513   3.059   5.179 -0.5589 -0.0828  1.0379
 7198TIP3    H121558   5.571   3.098   5.114 -0.2939 -0.5155  1.0070
 7198TIP3    H221559   5.431   3.044   5.132  0.0277 -1.5569  0.4235
 7199TIP3   OH221560   2.463   2.456   2.021 -0.1551 -0.0844 -0.6855
 7199TIP3    H121561   2.514   2.534   2.000  0.7092 -0.8771 -1.7022
 7199TIP3    H221562   2.508   2.417   2.096 -0.7224  0.4988 -0.0310
 7200TIP3   OH221563   2.366   1.598   5.853  0.1852 -0.7075  0.1831
 7200TIP3    H121564   2.277   1.619   5.826 -0.5095 -0.0387  2.7317
 7200TIP3    H221565   2.392   1.672   5.908  2.2043 -1.0581 -0.2281
 7201TIP3   OH221566   4.923   5.275   4.726  0.1319  0.0368 -0.3061
 7201TIP3    H121567   4.945   5.251   4.816  0.0919  1.4409  0.0993
 7201TIP3    H221568   4.959   5.203   4.673 -1.1497 -1.5685  0.8998
 7202TIP3   OH221569   2.315   2.437   3.856  0.4651  0.0108  0.0219
 7202TIP3    H121570   2.299   2.368   3.921  0.1344  1.9864  2.1893
 7202TIP3    H221571   2.383   2.401   3.799  2.3856 -1.0785  2.7966
 7203TIP3   OH221572   0.152   2.443   3.364  0.4567  0.0890  0.2124
 7203TIP3    H121573   0.232   2.461   3.412  0.5797 -2.2621  1.0422
 7203TIP3    H221574   0.083   2.483   3.417  0.8724  0.1071  0.7466
 7204TIP3   OH221575   4.710   5.104   2.297  0.4468  0.2174 -0.0178
 7204TIP3    H121576   4.698   5.142   2.209 -0.6363  0.5332  0.2517
 7204TIP3    H221577   4.758   5.023   2.281  0.0296  0.1314 -0.9428
 7205TIP3   OH221578   2.381  -0.023   3.444 -0.5172 -0.3606  0.2851
 7205TIP3    H121579   2.313   0.038   3.474 -0.6741 -0.7204  0.6788
 7205TIP3    H221580   2.457   0.033   3.428 -1.0612  0.1215 -0.6930
 7206TIP3   OH221581   3.738   6.755   2.568 -0.1277  0.2123 -0.1157
 7206TIP3    H121582   3.760   6.828   2.625  1.3263 -0.7960  0.6798
 7206TIP3    H221583   3.727   6.794   2.481  0.1036  1.4347  0.3927
 7207TIP3   OH221584   2.281   6.288   4.532 -0.5923  0.5864 -0.2734
 7207TIP3    H121585   2.272   6.335   4.614  0.6353  0.8463 -0.2565
 7207TIP3    H221586   2.296   6.197   4.557  0.7172  0.8162 -0.1489
 7208TIP3   OH221587   0.867   5.465   0.711 -0.6020  0.4695 -0.6200
 7208TIP3    H121588   0.805   5.398   0.682 -0.7848  1.2245 -2.0298
 7208TIP3    H221589   0.945   5.451   0.657 -1.0789  2.1277 -1.8168
 7209TIP3   OH221590   3.753   2.802   1.804  0.4179  0.2118 -0.6445
 7209TIP3    H121591   3.842   2.787   1.836  0.4356  2.7415  0.7294
 7209TIP3    H221592   3.697   2.789   1.880 -0.4361 -1.1900 -1.4599
 7210TIP3   OH221593   2.878   0.745   1.354 -0.2763  0.2047  0.0310
 7210TIP3    H121594   2.951   0.803   1.376 -1.1540  1.2111  0.3739
 7210TIP3    H221595   2.880   0.677   1.422 -0.3938  0.9219  0.7640
 7211TIP3   OH221596   3.816   3.780   0.691 -0.0746  0.5217 -0.0575
 7211TIP3    H121597   3.779   3.825   0.767  0.0984 -1.2325  1.1394
 7211TIP3    H221598   3.888   3.836   0.662 -0.6752  1.6325  0.5495
 7212TIP3   OH221599   7.079   3.773   2.660 -0.2638  0.6398 -0.2398
 7212TIP3    H121600   7.122   3.726   2.731  1.8673  1.4060 -0.9189
 7212TIP3    H221601   6.987   3.775   2.684  0.1599 -0.4919  1.6923
 7213TIP3   OH221602   2.408   5.409   0.075  0.2658 -0.0444  0.3094
 7213TIP3    H121603   2.334   5.362   0.038 -0.8759  0.8643  1.3601
 7213TIP3    H221604   2.421   5.484   0.016  1.6355 -1.2053 -0.9632
 7214TIP3   OH221605   0.761   5.706   0.778  0.2186 -0.0531 -0.3244
 7214TIP3    H121606   0.692   5.670   0.833  0.6786 -0.5139 -0.0408
 7214TIP3    H221607   0.807   5.630   0.743  1.2866  0.2464  0.3925
 7215TIP3   OH221608   4.344   2.530   5.755 -0.3542 -0.0606 -0.0834
 7215TIP3    H121609   4.266   2.585   5.745 -0.4182 -0.3110 -1.0903
 7215TIP3    H221610   4.337   2.465   5.684  1.4827  0.7880 -1.1182
 7216TIP3   OH221611   3.946   4.809   4.419  0.0260  0.1572  0.1100
 7216TIP3    H121612   3.900   4.752   4.481 -0.0831  0.5035  0.3490
 7216TIP3    H221613   4.036   4.778   4.420 -0.0302 -0.0022  0.2463
 7217TIP3   OH221614   0.799   2.901   1.403  0.0379  0.3657 -0.3742
 7217TIP3    H121615   0.798   2.894   1.498 -0.9213 -2.6170 -0.4870
 7217TIP3    H221616   0.867   2.840   1.375 -0.7948 -0.0324 -1.6306
 7218TIP3   OH221617   4.518   0.365   2.255  0.4640 -0.2498 -0.0683
 7218TIP3    H121618   4.425   0.367   2.233  0.7801  0.8439 -1.5463
 7218TIP3    H221619   4.551   0.286   2.213  0.2266 -0.5705  0.3477
 7219TIP3   OH221620   4.825   1.019   2.509 -0.4144 -0.6045  0.1548
 7219TIP3    H121621   4.793   0.950   2.452 -1.2213 -0.5406  0.4975
 7219TIP3    H221622   4.747   1.046   2.559 -0.6021  1.8750 -1.3240
 7220TIP3   OH221623   2.524   5.669   1.945  0.4018  0.3049  0.1077
 7220TIP3    H121624   2.445   5.626   1.911  1.4023 -1.8196  0.3426
 7220TIP3    H221625   2.519   5.655   2.040  0.3439  1.4740  0.2946
 7221TIP3   OH221626   6.852   5.692   0.989  0.6757 -0.1872  0.3854
 7221TIP3    H121627   6.840   5.729   1.077 -0.8017  1.8207 -0.5922
 7221TIP3    H221628   6.879   5.766   0.935 -0.2191 -0.9793 -1.2221
 7222TIP3   OH221629   0.214   2.542   3.768  0.5159 -0.1306  0.6815
 7222TIP3    H121630   0.279   2.478   3.739  1.0650  0.9802 -0.6476
 7222TIP3    H221631   0.130   2.506   3.740  0.9457  0.4222 -1.5228
 7223TIP3   OH221632   1.645   5.145   3.797  0.1816 -0.2873 -0.5330
 7223TIP3    H121633   1.734   5.179   3.791  0.1096  0.5098  1.8380
 7223TIP3    H221634   1.589   5.220   3.778  0.0076 -0.5355 -1.0148
 7224TIP3   OH221635   1.276   3.900   1.890 -0.9310  0.2412  0.3037
 7224TIP3    H121636   1.191   3.946   1.886  0.2320  2.5391  0.3233
 7224TIP3    H221637   1.260   3.826   1.948 -3.1962 -0.0399 -0.5547
 7225TIP3   OH221638   4.030   3.936   3.767 -0.1698  0.4796  0.3528
 7225TIP3    H121639   3.982   3.858   3.795 -0.9941  1.0645  0.6159
 7225TIP3    H221640   3.987   4.008   3.813 -0.6031  1.2966 -1.2545
 7226TIP3   OH221641   3.577   2.932   2.699 -0.0276  0.2589 -0.0608
 7226TIP3    H121642   3.635   3.003   2.671 -0.3370  0.8765  0.8428
 7226TIP3    H221643   3.634   2.855   2.703  0.2818  0.4098 -1.1707
 7227TIP3   OH221644   3.809   2.331   1.699  0.5999 -0.0209 -0.0248
 7227TIP3    H121645   3.760   2.381   1.634 -0.4593  0.1167  0.8606
 7227TIP3    H221646   3.802   2.382   1.780 -1.9006 -2.2669  1.3631
 7228TIP3   OH221647   3.914   1.775   2.259  0.6718 -0.1469 -0.4471
 7228TIP3    H121648   3.865   1.814   2.187  0.9139 -0.8126 -0.9814
 7228TIP3    H221649   3.970   1.709   2.218  1.0940 -0.2753  0.3040
 7229TIP3   OH221650   2.762   1.287   2.524 -0.4455  0.0495  0.2976
 7229TIP3    H121651   2.692   1.327   2.576 -1.8851 -1.4510 -0.3840
 7229TIP3    H221652   2.760   1.195   2.549  1.6369  0.0454  0.5886
 7230TIP3   OH221653   0.484   4.390   1.950  0.2915 -0.4237  1.2296
 7230TIP3    H121654   0.422   4.370   1.880 -0.5666  0.1503  1.8059
 7230TIP3    H221655   0.456   4.336   2.024 -0.9784  1.4956  2.2390
 7231TIP3   OH221656   5.838   1.443   3.420  0.5696  1.2679  0.3861
 7231TIP3    H121657   5.781   1.517   3.397 -0.4693  0.3228 -0.1288
 7231TIP3    H221658   5.817   1.425   3.512 -1.3073 -0.1829 -0.2551
 7232TIP3   OH221659   1.323   0.087   1.473  0.1830 -0.4021 -0.7182
 7232TIP3    H121660   1.297   0.161   1.528 -1.6959 -2.0640  0.7376
 7232TIP3    H221661   1.301   0.115   1.384  1.0841  1.4081 -0.4262
 7233TIP3   OH221662   2.145   2.573   5.647 -0.0457 -0.1792  0.1393
 7233TIP3    H121663   2.133   2.532   5.732 -3.2965 -2.3237 -1.1596
 7233TIP3    H221664   2.208   2.517   5.602 -0.3374 -0.5543  0.2047
 7234TIP3   OH221665   3.122   4.765   5.517 -0.5573  0.3571  0.5643
 7234TIP3    H121666   3.094   4.694   5.575 -1.2934 -0.6549 -0.9783
 7234TIP3    H221667   3.204   4.734   5.479 -2.3036 -1.0904 -2.3558
 7235TIP3   OH221668   3.194   3.673   1.482  0.4870 -0.0461  0.2846
 7235TIP3    H121669   3.222   3.744   1.424 -0.6265  0.6613  0.5692
 7235TIP3    H221670   3.160   3.606   1.424  1.8634 -0.5175 -0.0089
 7236TIP3   OH221671   3.314   4.307   5.324 -0.4062 -0.1790 -0.2982
 7236TIP3    H121672   3.352   4.303   5.236 -0.0404  0.2879 -0.1659
 7236TIP3    H221673   3.373   4.365   5.373  0.6327 -2.0730  0.8634
 7237TIP3   OH221674   4.258   1.531   4.998  0.2904  0.0168  0.0149
 7237TIP3    H121675   4.210   1.461   4.954  0.4801 -0.0317 -0.1151
 7237TIP3    H221676   4.214   1.540   5.083  0.5778 -0.6036  0.2368
 7238TIP3   OH221677   4.393   6.732   5.783 -0.2222 -0.0451 -0.6460
 7238TIP3    H121678   4.310   6.763   5.820  0.4653  0.9370  0.1334
 7238TIP3    H221679   4.450   6.808   5.785  0.5414 -0.5582 -1.7039
 7239TIP3   OH221680   2.804   2.855   0.334 -0.0809  0.4110 -0.4997
 7239TIP3    H121681   2.864   2.857   0.409  0.1881  0.8640 -0.7163
 7239TIP3    H221682   2.835   2.783   0.280 -0.3741 -0.0186 -0.0986
 7240TIP3   OH221683   6.625   0.625   0.815  0.3043 -0.0182  0.2848
 7240TIP3    H121684   6.549   0.678   0.837 -0.8301 -0.2047 -2.7264
 7240TIP3    H221685   6.608   0.593   0.727  2.1386 -3.2930  0.9450
 7241TIP3   OH221686   1.199   6.494   2.531  0.5289 -0.2141  0.6259
 7241TIP3    H121687   1.173   6.422   2.473 -1.4902 -0.9581  2.2817
 7241TIP3    H221688   1.259   6.453   2.594  1.3886  0.1841  0.0753
 7242TIP3   OH221689   4.927   6.572   2.289 -0.0848  0.3380  0.0942
 7242TIP3    H121690   4.993   6.502   2.287  0.2307  0.6316  0.0181
 7242TIP3    H221691   4.975   6.648   2.323 -0.3083  0.6359 -0.2531
 7243TIP3   OH221692   4.172   5.588   1.303  0.0877  0.4722  0.2148
 7243TIP3    H121693   4.236   5.656   1.280  2.4729 -1.6732 -0.0173
 7243TIP3    H221694   4.222   5.526   1.356 -1.8883 -1.2764  0.1575
 7244TIP3   OH221695   2.911   1.511   2.223  0.2339 -0.3028  0.6035
 7244TIP3    H121696   2.844   1.443   2.229 -1.7369  1.4800  0.0743
 7244TIP3    H221697   2.933   1.514   2.130  0.6220 -0.4671  0.6869
 7245TIP3   OH221698   0.065   1.918   3.206  0.0801  0.2822 -0.1461
 7245TIP3    H121699   0.069   2.011   3.181  0.6457  0.1936 -0.3939
 7245TIP3    H221700   0.089   1.871   3.127  0.9726 -0.0350  0.2983
 7246TIP3   OH221701   2.078   1.403   0.559 -0.6404 -0.1695 -0.1621
 7246TIP3    H121702   2.168   1.411   0.592 -0.7767  0.5404  0.0419
 7246TIP3    H221703   2.081   1.327   0.501  0.1072 -0.1230 -0.1943
 7247TIP3   OH221704   5.144   6.057   5.590  0.1278 -0.2677  0.3323
 7247TIP3    H121705   5.167   6.145   5.619 -1.2892  0.0318  0.5971
 7247TIP3    H221706   5.164   6.056   5.496  0.5791  0.1794  0.4201
 7248TIP3   OH221707   6.544   0.780   1.900 -0.4815  0.6582 -0.0985
 7248TIP3    H121708   6.523   0.717   1.969 -1.1430  0.9687 -0.0098
 7248TIP3    H221709   6.479   0.850   1.911 -2.7253 -0.7239 -2.9681
 7249TIP3   OH221710   3.505   0.716   3.979 -0.8882  0.1110 -0.2268
 7249TIP3    H121711   3.423   0.750   3.943 -0.6851  1.2885  0.3972
 7249TIP3    H221712   3.542   0.664   3.907 -2.3983 -0.8765 -0.3639
 7250TIP3   OH221713   6.128   1.350   5.423  0.1150  0.1138 -0.2334
 7250TIP3    H121714   6.190   1.326   5.491 -0.5194 -0.9969 -0.0189
 7250TIP3    H221715   6.130   1.446   5.421  0.2419  0.1608  1.2565
 7251TIP3   OH221716   2.899   6.521   3.567  0.4887  0.0756 -0.3827
 7251TIP3    H121717   2.892   6.451   3.632 -1.5173  0.5564 -0.0032
 7251TIP3    H221718   2.835   6.498   3.500 -0.1203  1.4502 -0.3165
 7252TIP3   OH221719   6.192   4.220   3.606  0.4403  0.2281 -0.1687
 7252TIP3    H121720   6.191   4.146   3.545 -0.3662  0.1519 -0.0719
 7252TIP3    H221721   6.109   4.265   3.591 -1.1492 -1.4083  2.7952
 7253TIP3   OH221722   3.401   1.668   5.566  0.0662  0.1881  0.2665
 7253TIP3    H121723   3.450   1.592   5.534 -0.0612  0.3567 -0.3550
 7253TIP3    H221724   3.325   1.631   5.610 -0.2849 -0.0491 -0.5122
 7254TIP3   OH221725   1.343   6.037   0.473 -0.1770  0.0236  0.7139
 7254TIP3    H121726   1.299   5.953   0.458 -0.7933  0.2428  1.2455
 7254TIP3    H221727   1.410   6.018   0.539 -0.6896  0.0563  1.2545
 7255TIP3   OH221728   3.851   4.721   4.711 -0.1121 -0.3732 -0.5629
 7255TIP3    H121729   3.811   4.654   4.767 -1.1022 -0.2122 -1.0580
 7255TIP3    H221730   3.807   4.802   4.737 -0.6487 -0.3114 -1.6148
 7256TIP3   OH221731   0.469   4.008   4.746 -0.1473 -0.0806 -0.1778
 7256TIP3    H121732   0.447   3.936   4.686  0.5991 -0.8311  0.4239
 7256TIP3    H221733   0.496   3.964   4.827  0.5868  0.8722  0.1067
 7257TIP3   OH221734   6.224   2.872   2.769  0.2385 -0.3532  0.0111
 7257TIP3    H121735   6.310   2.896   2.735  0.5505 -1.9362 -0.3965
 7257TIP3    H221736   6.206   2.786   2.731 -1.1306 -0.4556  0.8131
 7258TIP3   OH221737   0.669   1.664   4.888  0.1775 -0.3145 -0.0549
 7258TIP3    H121738   0.632   1.675   4.976  0.3760  0.0716 -0.0188
 7258TIP3    H221739   0.634   1.738   4.838 -0.0137 -0.5880 -0.3286
 7259TIP3   OH221740   5.569   3.199   2.510 -0.1141 -0.0279 -0.3769
 7259TIP3    H121741   5.627   3.272   2.532  0.0510  0.6182 -2.6738
 7259TIP3    H221742   5.510   3.234   2.443 -0.3274 -1.8689 -1.2150
 7260TIP3   OH221743   1.113   3.556   5.048 -0.6666 -0.0313  0.0642
 7260TIP3    H121744   1.207   3.543   5.039 -0.6589 -1.4742  1.7415
 7260TIP3    H221745   1.074   3.479   5.004 -0.9784 -0.4474  1.0449
 7261TIP3   OH221746   4.059   0.506   0.161  0.0532 -0.5924  0.0132
 7261TIP3    H121747   4.049   0.602   0.156 -0.3099 -0.6374 -0.1784
 7261TIP3    H221748   4.004   0.473   0.090  0.9033 -0.8996 -0.5178
 7262TIP3   OH221749   6.053   1.804   0.694 -0.0461  0.1621  1.0565
 7262TIP3    H121750   6.115   1.732   0.685 -1.4116 -0.8745 -0.8698
 7262TIP3    H221751   6.056   1.827   0.787 -0.3694 -3.1949  2.0230
 7263TIP3   OH221752   2.587   6.001   0.037 -0.2823  0.3028 -0.2340
 7263TIP3    H121753   2.585   6.097   0.040  0.8916  0.4355 -2.0399
 7263TIP3    H221754   2.509   5.977  -0.013 -0.0797  0.3837 -0.5920
 7264TIP3   OH221755   4.473   5.932   1.833  0.1449 -0.5728  0.1828
 7264TIP3    H121756   4.555   5.895   1.867  1.3848  2.4827  0.8205
 7264TIP3    H221757   4.414   5.935   1.908  0.7469  0.4815  0.6458
 7265TIP3   OH221758   6.907   2.781   0.961  0.1721  0.1276 -0.2086
 7265TIP3    H121759   6.971   2.776   0.889 -1.0329 -1.1863 -1.2508
 7265TIP3    H221760   6.915   2.871   0.994  3.3697 -0.2980  0.5266
 7266TIP3   OH221761   5.601   0.393   2.073 -0.3679  0.1595  0.5688
 7266TIP3    H121762   5.509   0.367   2.082 -0.7702  1.0577 -0.6515
 7266TIP3    H221763   5.599   0.488   2.077  0.4332  0.2116  0.0000
 7267TIP3   OH221764   1.332   6.679   5.255 -0.8419  0.2251  0.2905
 7267TIP3    H121765   1.408   6.624   5.238 -1.9411 -0.5952 -2.6858
 7267TIP3    H221766   1.363   6.747   5.315  1.6048 -1.3036  0.8801
 7268TIP3   OH221767   6.687   6.306   3.658  0.2031 -0.3274 -0.4288
 7268TIP3    H121768   6.732   6.386   3.631 -0.0620 -0.0888 -0.1723
 7268TIP3    H221769   6.755   6.238   3.656  0.2952 -0.2212 -1.2254
 7269TIP3   OH221770   2.649   4.564   1.474 -0.7038  0.1161 -0.0158
 7269TIP3    H121771   2.646   4.634   1.408  0.1943 -0.7987 -1.0619
 7269TIP3    H221772   2.644   4.483   1.424  0.9119 -0.6316  0.9455
 7270TIP3   OH221773   0.521   1.847   2.042 -0.2356 -0.4958 -0.1380
 7270TIP3    H121774   0.560   1.779   2.097  2.0139  1.1007  0.3398
 7270TIP3    H221775   0.445   1.877   2.091  1.2564  0.3164  1.7845
 7271TIP3   OH221776   3.128   6.652   3.505  0.2530 -0.0003  0.0877
 7271TIP3    H121777   3.056   6.590   3.510  1.1894 -1.2589 -1.1194
 7271TIP3    H221778   3.101   6.726   3.559 -1.8443 -0.5069 -0.2079
 7272TIP3   OH221779   0.248   6.038   5.401  0.1640  0.2742  0.1226
 7272TIP3    H121780   0.161   5.999   5.389 -0.1971  1.1939 -0.2748
 7272TIP3    H221781   0.271   6.016   5.492 -0.4265 -0.0694  0.1978
 7273TIP3   OH221782   3.284   3.595   5.261 -0.0923  0.6374  0.0234
 7273TIP3    H121783   3.221   3.523   5.265  0.5502  0.0828  0.3381
 7273TIP3    H221784   3.304   3.614   5.353  1.1488 -0.0443 -0.0952
 7274TIP3   OH221785   1.446   1.589   0.208  0.0970 -0.6266 -0.4682
 7274TIP3    H121786   1.397   1.609   0.287  0.0970 -0.2702 -0.5573
 7274TIP3    H221787   1.521   1.538   0.238  0.7148  0.4768 -0.0980
 7275TIP3   OH221788   6.923   5.876   2.322 -0.5712  0.2692  0.6251
 7275TIP3    H121789   6.896   5.880   2.414 -0.4052 -1.6996  0.7976
 7275TIP3    H221790   7.018   5.869   2.326 -0.4595  1.4457  0.2375
 7276TIP3   OH221791   4.088   0.389   2.699 -0.3210 -0.0697  0.4925
 7276TIP3    H121792   4.122   0.309   2.741 -0.2725 -0.2489  0.1199
 7276TIP3    H221793   4.155   0.413   2.636 -0.4442  0.1312  0.4381
 7277TIP3   OH221794   3.614   5.383   4.483  0.3208  0.6383 -0.3960
 7277TIP3    H121795   3.565   5.417   4.408  0.2616  0.1252 -0.5970
 7277TIP3    H221796   3.632   5.460   4.537  0.8391  1.0943 -1.2049
 7278TIP3   OH221797   6.891   5.528   2.714  0.4050 -0.1654 -0.3989
 7278TIP3    H121798   6.808   5.531   2.761 -0.0877  0.2288 -1.2787
 7278TIP3    H221799   6.927   5.442   2.734  0.4460  0.1759  1.0899
 7279TIP3   OH221800   2.050   3.765   2.965  0.0828 -0.1017 -0.2171
 7279TIP3    H121801   1.999   3.725   3.034  1.6164 -0.5246  0.7229
 7279TIP3    H221802   1.993   3.763   2.888 -1.1510 -0.8609  0.6852
 7280TIP3   OH221803   6.754   3.655   1.271  0.8738 -0.0305  0.4553
 7280TIP3    H121804   6.808   3.675   1.348  0.1174  1.0433  0.7266
 7280TIP3    H221805   6.799   3.698   1.198 -0.2923  2.0788  0.9002
 7281TIP3   OH221806   6.829   2.139   4.037  0.3308 -0.2058 -0.1963
 7281TIP3    H121807   6.803   2.061   4.086  1.8271 -0.8775 -0.4165
 7281TIP3    H221808   6.923   2.131   4.026  0.4385  1.3376 -0.7730
 7282TIP3   OH221809   0.533   5.796   5.584  0.0200 -0.1825 -0.0532
 7282TIP3    H121810   0.588   5.872   5.607 -0.0957 -0.3547  0.8113
 7282TIP3    H221811   0.508   5.812   5.493  0.7519  0.3585 -0.1721
 7283TIP3   OH221812   4.208   2.344   5.368 -0.2993 -0.1680 -0.5537
 7283TIP3    H121813   4.260   2.371   5.293  0.4530 -2.2543 -0.8366
 7283TIP3    H221814   4.117   2.358   5.341  0.0040  0.0889 -1.4491
 7284TIP3   OH221815   0.636   6.496   2.161  0.2204  0.3087 -0.0517
 7284TIP3    H121816   0.579   6.538   2.098  1.3051  0.2171 -1.1329
 7284TIP3    H221817   0.695   6.565   2.190 -0.5115  0.4466  1.1913
 7285TIP3   OH221818   2.642   0.108   4.215 -0.6856  0.0495 -0.1369
 7285TIP3    H121819   2.580   0.165   4.259  1.0951  3.4568 -1.6309
 7285TIP3    H221820   2.610   0.102   4.125  0.7903  1.5475 -0.8277
 7286TIP3   OH221821   5.512   2.806   5.336  0.3453 -0.5534 -0.0643
 7286TIP3    H121822   5.425   2.770   5.320  0.1136  0.0931 -0.3155
 7286TIP3    H221823   5.515   2.885   5.281  0.9112 -0.3130  0.3099
 7287TIP3   OH221824   4.109   6.783   5.835 -0.1747  0.3699 -0.2941
 7287TIP3    H121825   4.048   6.820   5.772  1.5418  2.2676 -0.9454
 7287TIP3    H221826   4.128   6.695   5.801 -1.5875  0.2153 -0.7269
 7288TIP3   OH221827   3.996   3.326   4.614 -0.5205  0.6742 -0.7221
 7288TIP3    H121828   3.989   3.421   4.607 -1.8608  0.5505 -1.4804
 7288TIP3    H221829   3.909   3.297   4.643  0.1185 -0.2558  0.3444
 7289TIP3   OH221830   5.434   0.638   3.106 -0.5301  0.0828 -0.2405
 7289TIP3    H121831   5.519   0.672   3.133 -0.3546 -0.5466  0.0194
 7289TIP3    H221832   5.392   0.610   3.187 -0.9151  0.2258 -0.3870
 7290TIP3   OH221833   1.323   5.751   0.877 -0.1727  0.4653 -0.1114
 7290TIP3    H121834   1.295   5.687   0.811 -0.4576  0.9304 -0.4464
 7290TIP3    H221835   1.281   5.723   0.958 -0.0059  0.0219 -0.1733
 7291TIP3   OH221836   1.141   5.224   0.318  0.1194 -0.2067 -0.5958
 7291TIP3    H121837   1.148   5.308   0.271 -1.7962 -0.1985 -0.9564
 7291TIP3    H221838   1.092   5.167   0.258  1.0994 -1.4929 -0.2131
 7292TIP3   OH221839   1.106   0.006   2.614 -0.4334 -0.4108  0.3664
 7292TIP3    H121840   1.048   0.017   2.539 -0.3053 -0.6408  0.2333
 7292TIP3    H221841   1.053   0.032   2.689 -0.5107 -0.0307  0.1800
 7293TIP3   OH221842   0.127   6.507   1.743 -0.4508 -0.2739 -0.0112
 7293TIP3    H121843   0.066   6.581   1.751 -1.1025 -0.9356  1.6850
 7293TIP3    H221844   0.092   6.441   1.804  0.0954 -1.9998 -1.4803
 7294TIP3   OH221845   2.273   2.701   3.947  0.4408 -0.4451  0.0322
 7294TIP3    H121846   2.310   2.647   3.878  2.3684 -2.4860  2.4432
 7294TIP3    H221847   2.310   2.788   3.933  1.2738 -0.9598 -1.1343
 7295TIP3   OH221848   7.186   2.425   3.651 -0.1300 -0.3962 -0.2054
 7295TIP3    H121849   7.103   2.442   3.606  0.4817  0.7375 -0.9653
 7295TIP3    H221850   7.196   2.330   3.648  0.2393 -0.3585 -3.1874
 7296TIP3   OH221851   4.335   0.344   2.540  0.3271  0.4009 -0.6489
 7296TIP3    H121852   4.327   0.250   2.525 -1.5268  0.3527  0.4910
 7296TIP3    H221853   4.349   0.380   2.452 -1.9229 -0.6684 -1.5255
 7297TIP3   OH221854   4.644   6.490   2.481  0.3790 -0.1770 -0.2283
 7297TIP3    H121855   4.635   6.399   2.511 -0.6598 -0.4710 -1.3303
 7297TIP3    H221856   4.643   6.483   2.385  1.5682  0.9007 -0.3359
 7298TIP3   OH221857   6.265   0.462   4.785  0.0908 -0.0326  0.0883
 7298TIP3    H121858   6.301   0.520   4.718 -1.5074  2.3305  1.1446
 7298TIP3    H221859   6.312   0.485   4.865  0.6493 -1.4793  0.2030
 7299TIP3   OH221860   6.343   4.065   2.308  0.0772 -0.2419  0.3317
 7299TIP3    H121861   6.414   4.068   2.244  0.2143  0.1987  0.5014
 7299TIP3    H221862   6.386   4.052   2.392 -0.1482 -1.4780  0.2707
 7300TIP3   OH221863   6.943   5.097   5.604  0.1846 -0.6266 -0.0949
 7300TIP3    H121864   7.023   5.057   5.638  0.0395 -1.9895 -1.2734
 7300TIP3    H221865   6.974   5.170   5.551  0.4964  0.3984  1.4443
 7301TIP3   OH221866   3.033   2.508   3.688  0.0173 -0.6927  0.0974
 7301TIP3    H121867   2.958   2.459   3.653  0.5004 -0.7142 -0.9580
 7301TIP3    H221868   3.081   2.444   3.740 -0.9643 -0.5435  1.2361
 7302TIP3   OH221869   3.791   3.818   1.150 -0.4252 -0.2106  0.4840
 7302TIP3    H121870   3.885   3.800   1.142 -0.0035  0.6618  2.7846
 7302TIP3    H221871   3.762   3.761   1.221 -1.5981 -0.2747 -0.0393
 7303TIP3   OH221872   0.043   0.505   3.054 -0.2624 -0.9527  0.8136
 7303TIP3    H121873   0.024   0.490   3.147  0.1362 -1.0074  0.8879
 7303TIP3    H221874   0.091   0.588   3.052 -1.9059  0.0219  0.4614
 7304TIP3   OH221875   6.388   5.683   3.416  0.2147  0.4059 -0.1777
 7304TIP3    H121876   6.469   5.705   3.462  0.4263  1.5219 -1.0439
 7304TIP3    H221877   6.413   5.677   3.324 -0.7827  1.3047 -0.5285
 7305TIP3   OH221878   0.517   1.139   0.678 -0.6748 -0.3934  0.0891
 7305TIP3    H121879   0.588   1.095   0.631 -0.5359 -0.6954  0.5711
 7305TIP3    H221880   0.521   1.230   0.647 -3.0646 -1.2777 -3.4280
 7306TIP3   OH221881   0.598   5.745   3.058 -0.7716 -0.3912 -0.4665
 7306TIP3    H121882   0.613   5.836   3.032  1.0573 -0.7520 -0.7856
 7306TIP3    H221883   0.607   5.695   2.977 -1.5796 -0.9033 -0.2571
 7307TIP3   OH221884   5.275   3.191   2.609 -0.7686 -0.1256  0.6349
 7307TIP3    H121885   5.342   3.239   2.560 -0.2986 -0.2095  1.1864
 7307TIP3    H221886   5.254   3.116   2.553  0.2857 -0.6160  0.8693
 7308TIP3   OH221887   7.199   5.113   3.041  0.0969  0.2133  0.2876
 7308TIP3    H121888   7.227   5.129   2.951 -0.4936  0.2827  0.1134
 7308TIP3    H221889   7.135   5.181   3.059 -1.5323 -1.1643 -0.0364
 7309TIP3   OH221890   4.281   5.143   1.857 -0.6232  0.2971  0.1448
 7309TIP3    H121891   4.232   5.061   1.863  0.6285 -0.3894  1.9069
 7309TIP3    H221892   4.262   5.187   1.940 -0.0934  1.1006 -0.1554
 7310TIP3   OH221893   3.166   4.721   1.451  0.1159  0.3542 -0.6344
 7310TIP3    H121894   3.156   4.754   1.541  1.7860  1.2595 -0.7398
 7310TIP3    H221895   3.205   4.794   1.403 -0.1510 -0.3432 -1.9515
 7311TIP3   OH221896   0.918   5.391   5.451 -0.1936  0.0532  0.0203
 7311TIP3    H121897   0.827   5.416   5.465 -0.8030 -1.8203 -0.2930
 7311TIP3    H221898   0.927   5.306   5.495  0.8897 -0.6665 -1.4936
 7312TIP3   OH221899   2.292   6.212   2.997  0.4234  0.5261 -0.3269
 7312TIP3    H121900   2.241   6.291   3.016  3.2485  2.8318 -1.4340
 7312TIP3    H221901   2.292   6.206   2.902 -0.1548 -1.1381 -0.2388
 7313TIP3   OH221902   0.709   1.967   1.039 -0.3170  0.2181  0.2784
 7313TIP3    H121903   0.753   1.985   0.956 -0.6250  1.3145  0.3338
 7313TIP3    H221904   0.616   1.980   1.020 -0.3897  0.4595  0.7942
 7314TIP3   OH221905   4.346   6.317   1.581 -0.4312  0.2083 -1.1805
 7314TIP3    H121906   4.419   6.318   1.520 -0.0909  0.3684 -0.7791
 7314TIP3    H221907   4.386   6.299   1.666 -0.8351  0.4723 -0.9293
 7315TIP3   OH221908   4.182   0.477   0.624  0.0738  0.4671  0.6243
 7315TIP3    H121909   4.204   0.390   0.657  0.4669  0.8398  1.3686
 7315TIP3    H221910   4.098   0.465   0.580 -0.4128 -0.0680  1.6759
 7316TIP3   OH221911   2.763   6.202   4.748  0.2215  0.0756  0.1454
 7316TIP3    H121912   2.809   6.193   4.832 -2.6091 -1.6151  1.7003
 7316TIP3    H221913   2.692   6.263   4.767  0.8986  1.5448 -1.7676
 7317TIP3   OH221914   0.037   4.936   3.378  0.1448  0.1422 -0.0554
 7317TIP3    H121915   0.113   4.930   3.319 -0.0815 -2.1374 -0.1865
 7317TIP3    H221916   0.070   4.905   3.462 -0.6217 -0.8456 -0.1101
 7318TIP3   OH221917   1.418   0.866   5.814 -0.6676  0.0257  0.1389
 7318TIP3    H121918   1.510   0.854   5.793 -0.2298  0.5777  1.5942
 7318TIP3    H221919   1.374   0.877   5.729  0.3868 -1.5248 -0.6467
 7319TIP3   OH221920   3.728   4.506   4.858 -0.5797 -0.0118  0.2135
 7319TIP3    H121921   3.664   4.451   4.813 -0.9019 -0.0274  0.6894
 7319TIP3    H221922   3.805   4.450   4.869 -0.7102 -0.1922  0.2080
 7320TIP3   OH221923   1.797   6.260   2.421  0.2899  0.4333  0.4273
 7320TIP3    H121924   1.729   6.326   2.432 -0.4118 -0.2559  0.2725
 7320TIP3    H221925   1.750   6.179   2.403  1.1886  0.2108 -1.0874
 7321TIP3   OH221926   1.993   5.896   3.503  0.4945  0.6661 -0.6141
 7321TIP3    H121927   2.082   5.932   3.509  0.7513 -0.1871  2.1433
 7321TIP3    H221928   2.006   5.801   3.508 -0.5835  0.5616  0.6359
 7322TIP3   OH221929   6.626   5.981   3.914  0.0395  0.5273  0.6040
 7322TIP3    H121930   6.576   5.910   3.956  0.2962 -0.5114 -0.7728
 7322TIP3    H221931   6.707   5.939   3.884  1.3021  1.9464  1.8409
 7323TIP3   OH221932   4.260   4.657   1.378  0.4634  0.2758  0.5273
 7323TIP3    H121933   4.276   4.751   1.367  0.6915  0.2607  0.7243
 7323TIP3    H221934   4.292   4.618   1.297 -0.9759  0.5130 -0.1883
 7324TIP3   OH221935   1.480   0.895   3.383  0.7010  0.0328 -0.1043
 7324TIP3    H121936   1.486   0.962   3.315  0.4007 -2.0461 -2.3310
 7324TIP3    H221937   1.555   0.838   3.367  0.8208 -0.3478  1.5826
 7325TIP3   OH221938   1.797   4.047   0.415 -1.1997  0.4339  0.0820
 7325TIP3    H121939   1.763   4.132   0.440  0.0943  0.8689  0.4233
 7325TIP3    H221940   1.762   4.032   0.327  0.3264  2.3367 -0.9139
 7326TIP3   OH221941   0.873   5.987   0.238 -0.4572  0.0708 -0.4445
 7326TIP3    H121942   0.783   6.018   0.228  0.2753  1.8875 -1.8778
 7326TIP3    H221943   0.908   5.987   0.149  1.4171  0.7953  0.2578
 7327TIP3   OH221944   6.192   2.696   3.099 -0.3494 -0.8437 -0.2157
 7327TIP3    H121945   6.164   2.720   3.187  0.2684 -1.3446  0.1158
 7327TIP3    H221946   6.165   2.771   3.045 -0.0468 -0.1932  0.5161
 7328TIP3   OH221947   5.652   2.476   2.602 -0.5677 -0.1375 -0.2169
 7328TIP3    H121948   5.736   2.522   2.604  0.1646 -1.3832 -0.6190
 7328TIP3    H221949   5.609   2.509   2.523  0.1981 -0.5251 -0.8194
 7329TIP3   OH221950   0.525   0.471   0.612 -0.5214  0.2147  0.4614
 7329TIP3    H121951   0.511   0.509   0.699 -2.1620  1.4171 -0.2493
 7329TIP3    H221952   0.607   0.510   0.582  0.9753 -1.5387  2.0922
 7330TIP3   OH221953   1.777   5.436   3.236 -0.3768 -0.5014 -0.2450
 7330TIP3    H121954   1.856   5.398   3.275 -0.5499 -0.6881 -0.0744
 7330TIP3    H221955   1.719   5.361   3.221 -1.5670 -0.1020  1.9815
 7331TIP3   OH221956   1.621   5.380   1.956 -0.3088  0.5401 -0.6447
 7331TIP3    H121957   1.589   5.469   1.945  1.4835  1.1779 -1.0272
 7331TIP3    H221958   1.638   5.348   1.868  0.3916  0.3395 -0.4446
 7332TIP3   OH221959   6.622   5.795   1.836  0.0497 -0.5195 -0.0051
 7332TIP3    H121960   6.600   5.879   1.797  0.5632 -0.7683 -0.8571
 7332TIP3    H221961   6.717   5.788   1.826  0.1162 -0.8283  0.8142
 7333TIP3   OH221962   1.798   1.577   5.215  0.1070  0.3661  0.0882
 7333TIP3    H121963   1.877   1.524   5.227  0.7101  1.0961 -0.5600
 7333TIP3    H221964   1.735   1.541   5.278  0.6023 -0.8965 -0.1029
 7334TIP3   OH221965   5.257   5.875   1.628  0.2960 -0.1444  0.2697
 7334TIP3    H121966   5.326   5.818   1.594 -0.8844 -1.8853  0.7053
 7334TIP3    H221967   5.260   5.952   1.571  0.2681 -1.7211 -1.9740
 7335TIP3   OH221968   2.891   6.139   2.970  0.0928 -0.2696 -0.0059
 7335TIP3    H121969   2.808   6.126   2.924  0.4015  1.0952 -1.0182
 7335TIP3    H221970   2.958   6.121   2.904  0.6191 -1.2119  0.7585
 7336TIP3   OH221971   5.800   4.739   0.562 -0.5059 -0.0059 -0.5724
 7336TIP3    H121972   5.787   4.661   0.509  0.0444 -1.0262  0.7405
 7336TIP3    H221973   5.729   4.738   0.626 -0.5985  0.6686 -0.6580
 7337TIP3   OH221974   5.633   6.573   0.013  0.8549 -0.5891 -0.3862
 7337TIP3    H121975   5.669   6.659  -0.008  1.2233 -0.5166  0.4723
 7337TIP3    H221976   5.541   6.589   0.033  1.1288 -0.2319  0.6620
 7338TIP3   OH221977   1.103   3.629   0.750  0.1180 -0.2152  0.3659
 7338TIP3    H121978   1.069   3.548   0.712 -1.0743  0.9799 -1.2461
 7338TIP3    H221979   1.164   3.662   0.684  0.9537 -0.0029  1.2187
 7339TIP3   OH221980   6.558   0.981   2.143  0.3053 -0.2170  0.5013
 7339TIP3    H121981   6.536   1.002   2.052  0.6559 -0.2236  0.4169
 7339TIP3    H221982   6.640   1.026   2.160  0.7682 -1.0388  0.4960
 7340TIP3   OH221983   0.050   0.815   4.585  0.2954  0.0104  0.6984
 7340TIP3    H121984   0.089   0.796   4.499 -1.3608  0.8433 -0.2864
 7340TIP3    H221985  -0.020   0.751   4.594 -0.5550  0.9304  0.6972
 7341TIP3   OH221986   0.733   5.072   2.284 -0.5186 -0.4058 -0.6599
 7341TIP3    H121987   0.681   5.048   2.361 -0.8917  0.1557 -0.7341
 7341TIP3    H221988   0.685   5.033   2.210 -0.8393  0.1139 -0.7285
 7342TIP3   OH221989   6.357   6.193   4.976 -0.5420 -0.9369  0.2738
 7342TIP3    H121990   6.387   6.225   5.062 -2.6653  1.8029  0.1550
 7342TIP3    H221991   6.414   6.238   4.913 -1.8832  0.7883  0.1977
 7343TIP3   OH221992   3.656   2.575   5.442  0.1441 -0.9258 -0.2983
 7343TIP3    H121993   3.722   2.641   5.419  1.8894 -2.5868 -0.2257
 7343TIP3    H221994   3.585   2.626   5.482  2.1772  0.7415  1.4138
 7344TIP3   OH221995   6.052   0.580   0.909 -0.3559 -0.5084  0.0623
 7344TIP3    H121996   6.021   0.553   0.996 -1.3674 -0.4456 -0.2656
 7344TIP3    H221997   6.009   0.664   0.893  1.3816  0.4813  0.3172
 7345TIP3   OH221998   1.139   4.882   5.650  0.7975 -0.2521  0.1045
 7345TIP3    H121999   1.074   4.949   5.629 -0.1715 -1.0693  0.3728
 7345TIP3    H222000   1.142   4.826   5.573 -0.7664 -1.6969  1.0128
 7346TIP3   OH222001   2.144   4.274   5.211  0.0446 -0.4257 -0.7689
 7346TIP3    H122002   2.075   4.291   5.275  2.2547  1.8523  1.1774
 7346TIP3    H222003   2.102   4.290   5.126 -1.6522  1.6691  0.3798
 7347TIP3   OH222004   6.659   3.076   5.162  0.1804 -0.4502  0.7198
 7347TIP3    H122005   6.710   3.010   5.210  1.3448 -0.1900 -0.1336
 7347TIP3    H222006   6.651   3.041   5.074 -0.1286  0.0660  0.5394
 7348TIP3   OH222007   2.846   1.770   2.690  0.5971 -0.3394 -0.3039
 7348TIP3    H122008   2.760   1.806   2.671 -0.4097 -1.1586  2.2119
 7348TIP3    H222009   2.859   1.700   2.626 -0.1286  0.4505 -1.3377
 7349TIP3   OH222010   5.826   4.042   4.548 -0.3889 -0.4665 -0.2470
 7349TIP3    H122011   5.867   3.968   4.503 -0.5874  0.0279 -1.2616
 7349TIP3    H222012   5.874   4.119   4.517 -1.2144 -0.0151 -0.4286
 7350TIP3   OH222013   5.197   0.810   1.765  0.0063  0.4168 -0.0895
 7350TIP3    H122014   5.265   0.806   1.831 -0.1511  1.7260  0.1716
 7350TIP3    H222015   5.126   0.860   1.806 -0.9440 -0.5160 -0.5162
 7351TIP3   OH222016   5.551   4.111   2.467 -0.3596  0.6274 -0.5913
 7351TIP3    H122017   5.628   4.166   2.481  0.8247 -0.5669 -2.0842
 7351TIP3    H222018   5.493   4.166   2.414 -0.2275  1.2536 -0.1097
 7352TIP3   OH222019   3.546   6.396   4.306 -0.6093 -0.1966  0.6478
 7352TIP3    H122020   3.554   6.476   4.357 -0.0225  0.3076 -0.2113
 7352TIP3    H222021   3.519   6.425   4.219  1.0781 -0.7651 -0.1051
 7353TIP3   OH222022   0.952   1.816   3.584 -0.2383  0.6683 -0.0591
 7353TIP3    H122023   0.915   1.779   3.665  0.0890  0.5209  0.0262
 7353TIP3    H222024   0.997   1.896   3.613 -0.4829  0.8443 -0.1617
 7354TIP3   OH222025   1.045   6.582   4.859 -0.7924 -0.6529  0.1947
 7354TIP3    H122026   1.041   6.499   4.811 -0.8694 -1.3622  1.4057
 7354TIP3    H222027   0.972   6.634   4.823 -2.6461 -2.2401  1.4805
 7355TIP3   OH222028   0.091   0.621   0.913 -0.2192 -0.4263  0.0238
 7355TIP3    H122029   0.121   0.588   0.998  0.5202 -0.8065 -0.3713
 7355TIP3    H222030   0.035   0.551   0.879 -0.7292 -0.1605  0.3094
 7356TIP3   OH222031   1.876   5.776   1.462 -0.0820 -0.7083 -0.0778
 7356TIP3    H122032   1.941   5.800   1.527  0.0087 -1.1198 -0.0142
 7356TIP3    H222033   1.878   5.681   1.459 -0.9770 -0.7527  0.2361
 7357TIP3   OH222034   2.239   0.585   0.664  0.5175 -0.0469  0.1732
 7357TIP3    H122035   2.237   0.521   0.734  0.0670 -0.3513 -0.1140
 7357TIP3    H222036   2.246   0.670   0.709 -0.9244 -0.1524  0.6422
 7358TIP3   OH222037   0.701   0.226   3.429  0.4903 -0.1075  0.6020
 7358TIP3    H122038   0.624   0.265   3.388 -1.3177 -1.7674  2.1714
 7358TIP3    H222039   0.752   0.300   3.461 -0.4878  1.0507 -0.4145
 7359TIP3   OH222040   1.836   1.956   1.065  0.9394 -0.3512 -0.2575
 7359TIP3    H122041   1.867   1.891   1.003  0.8905 -1.2333  0.6132
 7359TIP3    H222042   1.905   1.962   1.131  1.1324  0.8040 -0.5467
 7360TIP3   OH222043   5.540   3.253   1.130  0.0940 -0.0886 -0.1094
 7360TIP3    H122044   5.469   3.316   1.126  1.5132  1.7457  1.4625
 7360TIP3    H222045   5.498   3.167   1.121 -2.3136  0.9160  0.8379
 7361TIP3   OH222046   4.796   3.019   5.509 -0.3178 -0.1522 -0.4819
 7361TIP3    H122047   4.862   3.070   5.462 -1.2942  1.5555 -0.1024
 7361TIP3    H222048   4.813   3.038   5.602 -0.9059 -0.2299 -0.3505
 7362TIP3   OH222049   0.940   1.423   5.200  0.0875 -0.2043 -0.4519
 7362TIP3    H122050   0.939   1.404   5.294  1.8545 -0.7281 -0.5214
 7362TIP3    H222051   0.922   1.339   5.158  0.2534 -0.1640 -0.6042
 7363TIP3   OH222052   2.765   3.014   5.786 -0.0364  0.1045 -0.0744
 7363TIP3    H122053   2.785   3.017   5.692  0.1719 -1.3981 -0.1161
 7363TIP3    H222054   2.736   3.102   5.808  0.6039  0.6698 -1.3962
 7364TIP3   OH222055   6.010   0.884   0.852 -0.5100 -0.1055  0.1768
 7364TIP3    H122056   5.976   0.927   0.773 -0.7346  1.7567  1.2421
 7364TIP3    H222057   5.933   0.875   0.909 -0.0441  0.0298  0.8279
 7365TIP3   OH222058   0.474   2.874   0.463  0.1205  0.4785  0.0874
 7365TIP3    H122059   0.512   2.786   0.463  0.8000  0.7413 -1.4138
 7365TIP3    H222060   0.549   2.932   0.480  0.2528  0.9236 -1.7557
 7366TIP3   OH222061   7.083   5.930   2.847  0.1315  0.1913  0.0164
 7366TIP3    H122062   7.045   5.907   2.762 -1.2203  0.4926  0.5297
 7366TIP3    H222063   7.059   6.022   2.860 -0.8456 -0.2295  1.3394
 7367TIP3   OH222064   1.046   4.440   1.228  0.1259 -0.7488 -0.5432
 7367TIP3    H122065   0.974   4.503   1.231 -0.2643 -1.1964 -0.4548
 7367TIP3    H222066   1.102   4.471   1.157  0.6843  0.4970  0.3868
 7368TIP3   OH222067   1.113   5.224   3.483  0.0134  0.2565  0.3562
 7368TIP3    H122068   1.065   5.167   3.544 -0.6009  0.2856 -0.0833
 7368TIP3    H222069   1.049   5.290   3.458  0.4270  0.5609  0.0959
 7369TIP3   OH222070   5.527   4.058   3.634 -0.1654 -0.3830  0.4376
 7369TIP3    H122071   5.446   4.062   3.686  0.4625  0.1294  1.3994
 7369TIP3    H222072   5.578   4.133   3.663  2.0116 -2.3546  2.1303
 7370TIP3   OH222073   0.067   0.244   2.322  0.2500 -0.5050 -0.2288
 7370TIP3    H122074   0.085   0.245   2.416 -0.6592 -1.0369 -0.0446
 7370TIP3    H222075  -0.023   0.214   2.314 -0.2031  0.9907 -1.1977
 7371TIP3   OH222076   4.481   4.744   2.698 -0.0756  0.0283 -0.4671
 7371TIP3    H122077   4.504   4.657   2.665 -3.1084 -1.0504 -0.0832
 7371TIP3    H222078   4.447   4.729   2.786 -1.5875  1.4182 -0.7546
 7372TIP3   OH222079   5.735   5.755   2.771 -0.0978 -0.1781  0.0518
 7372TIP3    H122080   5.721   5.697   2.846 -0.3545 -0.2126 -0.0211
 7372TIP3    H222081   5.676   5.829   2.787 -0.6358 -0.4929 -0.4394
 7373TIP3   OH222082   2.855   3.067   2.903 -0.0946 -0.2545 -0.1132
 7373TIP3    H122083   2.943   3.035   2.883 -0.9281 -1.7844 -1.5981
 7373TIP3    H222084   2.869   3.143   2.960  2.2563  0.6571 -1.7687
 7374TIP3   OH222085   1.430   1.100   3.185 -0.2316 -0.3471  0.0862
 7374TIP3    H122086   1.418   1.182   3.232 -0.1777 -0.8048  0.9077
 7374TIP3    H222087   1.342   1.078   3.153  0.1909  1.4713 -2.6351
 7375TIP3   OH222088   6.055   3.119   2.076 -0.3630  0.6295 -0.7178
 7375TIP3    H122089   6.062   3.174   1.999  0.1874  0.5421 -0.7377
 7375TIP3    H222090   6.135   3.066   2.075 -1.5664 -1.3000 -1.5696
 7376TIP3   OH222091   2.507   2.002   4.287  0.3424  0.2004 -0.1010
 7376TIP3    H122092   2.442   2.059   4.245  0.4998  1.5764  1.4038
 7376TIP3    H222093   2.591   2.034   4.254  0.4477  1.0736  0.9681
 7377TIP3   OH222094   4.692   4.264   3.676  0.2973  0.1542 -0.0307
 7377TIP3    H122095   4.770   4.210   3.692 -0.2492 -0.3574  1.0099
 7377TIP3    H222096   4.631   4.239   3.745 -1.1339 -0.0509 -1.3244
 7378TIP3   OH222097   5.611   1.388   5.815 -0.1507 -0.1421 -0.5542
 7378TIP3    H122098   5.634   1.295   5.818 -1.0566 -0.3584  1.1946
 7378TIP3    H222099   5.628   1.419   5.905 -0.5377  1.2106 -0.9292
 7379TIP3   OH222100   3.570   5.235   5.714 -0.0727 -0.0671  0.1403
 7379TIP3    H122101   3.480   5.209   5.695  0.1838  0.4074 -2.0376
 7379TIP3    H222102   3.624   5.171   5.668  0.5846  2.0351 -2.3278
 7380TIP3   OH222103   6.822   5.430   2.152  0.4180 -0.2663  0.6228
 7380TIP3    H122104   6.883   5.357   2.158 -0.6400 -1.0982  1.4730
 7380TIP3    H222105   6.753   5.399   2.092 -0.8563 -0.6032  2.2028
 7381TIP3   OH222106   4.002   4.026   4.303 -0.0653 -0.5555 -0.1607
 7381TIP3    H122107   4.000   4.019   4.207 -1.1416  1.2737 -0.3231
 7381TIP3    H222108   3.916   3.995   4.331  0.4429 -1.5985  0.2763
 7382TIP3   OH222109   1.529   5.641   4.071 -0.2928 -0.2416  0.6056
 7382TIP3    H122110   1.616   5.681   4.063 -0.4193  0.0949  0.8677
 7382TIP3    H222111   1.492   5.682   4.149 -0.4354 -0.8661  0.8673
 7383TIP3   OH222112   3.915   2.376   3.417  0.5248 -0.0142 -0.2408
 7383TIP3    H122113   3.859   2.423   3.355 -0.2552  2.0837  1.9157
 7383TIP3    H222114   3.991   2.432   3.428  0.2300  0.1123  1.3469
 7384TIP3   OH222115   3.589   4.903   2.319 -0.3143 -0.1055  0.2427
 7384TIP3    H122116   3.560   4.981   2.366  1.2422 -0.0727  1.2075
 7384TIP3    H222117   3.656   4.863   2.376 -0.8350 -1.9750 -0.3679
 7385TIP3   OH222118   4.206   3.785   5.722 -0.2131 -0.3189 -0.4631
 7385TIP3    H122119   4.255   3.812   5.644 -2.0435  0.0252 -1.5693
 7385TIP3    H222120   4.114   3.786   5.694 -0.8610 -1.1116  1.4482
 7386TIP3   OH222121   6.305   4.030   2.890 -0.2094 -0.8142  0.5097
 7386TIP3    H122122   6.325   4.123   2.881  0.1439 -0.7555  1.6935
 7386TIP3    H222123   6.248   4.010   2.816  1.0182 -0.0476 -0.6945
 7387TIP3   OH222124   3.492   5.015   1.047  0.0419  0.4413  0.0080
 7387TIP3    H122125   3.531   4.938   1.005 -0.8540 -1.3229  2.2002
 7387TIP3    H222126   3.567   5.069   1.072  0.9558 -1.1931  1.0300
 7388TIP3   OH222127   1.430   0.285   4.025  0.3376 -0.3229 -0.1717
 7388TIP3    H122128   1.440   0.293   4.120 -0.0980  0.3201 -0.1786
 7388TIP3    H222129   1.491   0.215   4.001 -0.7680 -1.7016  0.8102
 7389TIP3   OH222130   2.901   5.268   2.507 -0.2191 -0.1523  0.1817
 7389TIP3    H122131   2.856   5.190   2.477  0.5526 -0.5020 -0.1007
 7389TIP3    H222132   2.831   5.329   2.530 -0.8338 -0.4931 -0.7238
 7390TIP3   OH222133   1.826   2.699   3.542 -0.2265  0.1660  0.0538
 7390TIP3    H122134   1.760   2.728   3.479 -0.6048  0.8829  0.7691
 7390TIP3    H222135   1.808   2.606   3.554 -0.7512  0.2332 -0.1872
 7391TIP3   OH222136   2.118   0.603   3.910 -0.2658  0.7776  0.3303
 7391TIP3    H122137   2.057   0.649   3.853  1.1823  0.9626 -1.1301
 7391TIP3    H222138   2.186   0.668   3.929  0.7573 -0.1372 -0.1201
 7392TIP3   OH222139   6.229   3.597   5.700  0.1106  0.3117  0.7129
 7392TIP3    H122140   6.232   3.538   5.625  1.3795  2.0139 -0.6578
 7392TIP3    H222141   6.319   3.598   5.733 -0.1026  0.7691  1.3079
 7393TIP3   OH222142  -0.019   3.065   1.203  0.4154  0.3701 -0.2903
 7393TIP3    H122143   0.037   3.114   1.264  0.5832 -1.5237  1.1805
 7393TIP3    H222144   0.017   2.976   1.204 -0.7483 -0.1512 -1.7278
 7394TIP3   OH222145   5.668   4.576   3.671 -0.3966  0.0571 -0.0867
 7394TIP3    H122146   5.696   4.666   3.657  1.5884 -0.4672  0.2770
 7394TIP3    H222147   5.634   4.576   3.761  0.2841  0.2917  0.1778
 7395TIP3   OH222148   1.950   6.372   5.155  0.6138 -0.0280  0.1019
 7395TIP3    H122149   1.945   6.468   5.154 -0.6959  0.0655  3.6321
 7395TIP3    H222150   1.869   6.344   5.114  0.2026  0.4317  0.5809
 7396TIP3   OH222151   5.376   1.689   3.998  0.4098 -0.4261  0.0264
 7396TIP3    H122152   5.390   1.661   3.907 -0.1057 -2.0960  0.4340
 7396TIP3    H222153   5.351   1.781   3.991  3.5132  0.4450 -1.2835
 7397TIP3   OH222154   0.479   5.764   4.290 -0.5718  0.0532  0.5369
 7397TIP3    H122155   0.476   5.788   4.197 -0.3278  0.8193  0.7236
 7397TIP3    H222156   0.412   5.696   4.299  0.5823 -1.3020 -0.5671
 7398TIP3   OH222157   1.661   4.902   2.591 -0.3615 -0.0123 -0.4161
 7398TIP3    H122158   1.743   4.852   2.595 -1.1798 -1.2910  1.7431
 7398TIP3    H222159   1.593   4.836   2.577 -1.2228  0.8065 -0.1821
 7399TIP3   OH222160   2.436   2.007   0.269 -0.0564 -0.0851 -0.4072
 7399TIP3    H122161   2.471   1.938   0.326 -0.0288 -1.0729 -1.5867
 7399TIP3    H222162   2.352   2.029   0.309  1.1148  1.1858  1.5427
 7400TIP3   OH222163   5.022   1.938   4.122 -0.1760 -0.3176 -0.0989
 7400TIP3    H122164   5.074   1.967   4.048 -0.3376  0.2760  0.0147
 7400TIP3    H222165   4.967   1.868   4.087 -0.5986  0.2801 -0.6650
 7401TIP3   OH222166   3.420   3.499   4.113  0.8861 -0.0753 -0.6368
 7401TIP3    H122167   3.484   3.428   4.110 -1.0212 -1.8779 -0.7796
 7401TIP3    H222168   3.381   3.500   4.025  1.3791  1.6870 -0.8816
 7402TIP3   OH222169   3.202   3.724   0.627 -0.1200 -0.4527  0.0110
 7402TIP3    H122170   3.131   3.727   0.690  1.4799 -1.3068  1.9810
 7402TIP3    H222171   3.277   3.761   0.674  0.4199  1.9759 -2.5172
 7403TIP3   OH222172   0.079   5.322   5.388  0.5048  0.6435 -0.4240
 7403TIP3    H122173   0.155   5.351   5.439 -1.4859  1.9300  2.0378
 7403TIP3    H222174   0.072   5.228   5.407  1.2339  0.5992 -0.3453
 7404TIP3   OH222175   3.363   1.825   0.151  0.6859  0.0324 -0.7421
 7404TIP3    H122176   3.361   1.740   0.195 -1.2055  1.4718  2.3504
 7404TIP3    H222177   3.289   1.823   0.090  0.3511 -0.3759 -0.3276
 7405TIP3   OH222178   1.379   5.338   4.756 -0.0536  0.2884  0.0959
 7405TIP3    H122179   1.398   5.310   4.666  1.3776  0.8035  0.2106
 7405TIP3    H222180   1.321   5.271   4.790  0.7283 -0.8150 -0.6790
 7406TIP3   OH222181   6.074   1.603   2.259 -0.0798  0.2964  0.5518
 7406TIP3    H122182   6.153   1.623   2.208 -1.2314  0.2865 -1.3611
 7406TIP3    H222183   6.084   1.653   2.340  2.5038 -0.8013  0.9969
 7407TIP3   OH222184   3.952   0.302   3.375  0.0499 -0.0046  0.1150
 7407TIP3    H122185   3.915   0.223   3.414 -0.9944  0.3796 -0.0774
 7407TIP3    H222186   3.969   0.278   3.284 -1.8786  0.4640 -0.4215
 7408TIP3   OH222187   3.369   2.318   2.543 -0.4753  0.2820  0.0033
 7408TIP3    H122188   3.424   2.366   2.480  1.7616  0.4115  1.9276
 7408TIP3    H222189   3.322   2.386   2.590 -0.1380  0.3609  0.2300
 7409TIP3   OH222190   4.418   5.754   0.321 -0.3517 -0.2853  0.3973
 7409TIP3    H122191   4.415   5.813   0.396  0.5560  1.1321 -0.6175
 7409TIP3    H222192   4.348   5.785   0.263  0.3298  0.0295 -0.2822
 7410TIP3   OH222193   5.540   4.536   4.893 -0.4866 -0.3432  0.4984
 7410TIP3    H122194   5.484   4.461   4.914  0.0344 -0.8551  0.0984
 7410TIP3    H222195   5.589   4.508   4.816  1.1959 -0.3832  1.5300
 7411TIP3   OH222196   6.674   0.449   1.820  0.0969  0.4312  0.1470
 7411TIP3    H122197   6.602   0.388   1.803 -0.2522  0.5342  1.2052
 7411TIP3    H222198   6.736   0.433   1.749 -0.3963 -0.5325 -0.0857
 7412TIP3   OH222199   0.594   4.622   5.094 -0.7404  0.2135 -0.3245
 7412TIP3    H122200   0.613   4.699   5.147  0.1676  0.6288 -1.2145
 7412TIP3    H222201   0.540   4.654   5.022 -0.6240 -0.0322 -0.5255
 7413TIP3   OH222202   5.035   5.517   4.505 -0.1646 -0.3044 -0.5214
 7413TIP3    H122203   5.056   5.561   4.422  0.8721 -0.7702 -0.5119
 7413TIP3    H222204   5.045   5.586   4.571  0.6208 -0.3370 -0.6009
 7414TIP3   OH222205   0.597   1.498   4.681 -0.0336  0.3086 -0.0558
 7414TIP3    H122206   0.642   1.546   4.750  3.3726 -0.7463 -1.3196
 7414TIP3    H222207   0.558   1.423   4.726  2.0833 -0.3432  0.8193
 7415TIP3   OH222208   6.096   0.651   3.766 -0.4008 -0.1477  0.1516
 7415TIP3    H122209   6.061   0.660   3.677  1.0582  0.0829 -0.4329
 7415TIP3    H222210   6.139   0.566   3.766  1.2003  0.6262  0.0211
 7416TIP3   OH222211   3.588   5.731   1.757  0.0966 -0.1543  0.5902
 7416TIP3    H122212   3.531   5.794   1.801  0.2147  0.5480 -0.2397
 7416TIP3    H222213   3.537   5.649   1.758 -2.4616  1.1216 -2.8886
 7417TIP3   OH222214   4.287   1.259   1.053  0.3811  0.4234  0.3066
 7417TIP3    H122215   4.258   1.188   0.996  1.0417  0.2056  0.2358
 7417TIP3    H222216   4.206   1.302   1.081 -0.0380 -0.5788  0.6511
 7418TIP3   OH222217   2.107   1.659   5.774 -0.1655 -0.1635 -0.3590
 7418TIP3    H122218   2.065   1.674   5.859  1.4424 -0.4327  0.5201
 7418TIP3    H222219   2.089   1.739   5.724  0.3371  0.7474  0.8766
 7419TIP3   OH222220   2.421   2.312   4.617 -0.1782  0.0145  0.8537
 7419TIP3    H122221   2.432   2.386   4.676  2.3781  0.1999  0.2544
 7419TIP3    H222222   2.508   2.273   4.610 -0.6317 -0.7334 -1.8101
 7420TIP3   OH222223   1.262   4.913   2.523  0.1469  0.4980  0.3705
 7420TIP3    H122224   1.183   4.904   2.576  0.5418 -0.2138  0.8485
 7420TIP3    H222225   1.238   4.977   2.455 -1.4939 -1.1783 -0.7318
 7421TIP3   OH222226   6.868   1.484   4.041  0.5965  0.0791  0.1359
 7421TIP3    H122227   6.895   1.407   3.991  2.0426 -0.0792  1.0827
 7421TIP3    H222228   6.922   1.480   4.121 -0.9655  0.8254  1.2655
 7422TIP3   OH222229   1.157   3.202   0.582 -0.3268 -0.1301  0.2602
 7422TIP3    H122230   1.160   3.107   0.593  0.0766 -0.2744 -0.9729
 7422TIP3    H222231   1.237   3.234   0.623  0.3279 -0.4928 -0.6998
 7423TIP3   OH222232   4.797   1.612   5.275 -0.1763  0.0908 -0.6747
 7423TIP3    H122233   4.803   1.686   5.215 -0.2098  0.4399 -0.2506
 7423TIP3    H222234   4.885   1.575   5.276 -0.2382 -0.0711 -1.1332
 7424TIP3   OH222235   2.551   6.243   3.522 -0.3764  0.2694  0.2857
 7424TIP3    H122236   2.531   6.285   3.606 -2.1130 -0.0840  0.0825
 7424TIP3    H222237   2.563   6.151   3.543 -0.7310  0.1934  0.1542
 7425TIP3   OH222238   3.946   5.571   1.813  0.6812  0.2192  0.6892
 7425TIP3    H122239   3.930   5.539   1.724 -0.4963  2.0487  0.1716
 7425TIP3    H222240   3.958   5.492   1.866  0.0139 -0.9597 -0.8422
 7426TIP3   OH222241   0.367   3.356   3.455  0.4852 -0.1315 -1.0209
 7426TIP3    H122242   0.302   3.295   3.419 -1.0670 -0.1446  1.5368
 7426TIP3    H222243   0.380   3.420   3.385 -0.9845 -1.0934 -2.2692
 7427TIP3   OH222244   0.968   5.181   3.158  0.3340  0.3704 -0.5627
 7427TIP3    H122245   1.055   5.178   3.197 -0.2619  0.6053  0.8296
 7427TIP3    H222246   0.979   5.236   3.080  1.2273  1.2941  0.1821
 7428TIP3   OH222247   1.459   2.691   4.989 -0.0015 -0.1446 -0.3130
 7428TIP3    H122248   1.447   2.618   4.928 -0.6321  1.0296 -1.6131
 7428TIP3    H222249   1.551   2.715   4.979 -0.0222 -0.1659 -0.5481
 7429TIP3   OH222250   6.573   2.188   3.069  1.3938 -0.2606 -0.5414
 7429TIP3    H122251   6.479   2.199   3.066  1.3320  0.5211  2.1083
 7429TIP3    H222252   6.588   2.122   3.137  2.7818  0.1771 -0.3759
 7430TIP3   OH222253   4.879   3.268   0.159  0.3874  0.5482 -0.3584
 7430TIP3    H122254   4.811   3.293   0.222  1.1073  1.1380  0.2052
 7430TIP3    H222255   4.961   3.280   0.206  0.9009  0.0132 -1.0876
 7431TIP3   OH222256   1.849   3.570   5.811 -0.2201  0.2483  0.3255
 7431TIP3    H122257   1.820   3.593   5.899 -1.0487  0.2770  0.0550
 7431TIP3    H222258   1.838   3.475   5.806 -3.1547  0.5436 -0.7404
 7432TIP3   OH222259   5.225   2.377   2.160  0.3953  1.1226  0.3181
 7432TIP3    H122260   5.303   2.372   2.216  0.2200  1.3391  0.5910
 7432TIP3    H222261   5.249   2.331   2.080 -0.1109 -1.2524  1.4521
 7433TIP3   OH222262   4.670   5.492   2.214  0.0309  0.4673  0.1845
 7433TIP3    H122263   4.730   5.470   2.285  0.2901  0.4753 -0.0333
 7433TIP3    H222264   4.658   5.410   2.167 -2.5099 -0.3274  1.9906
 7434TIP3   OH222265   5.869   2.443   4.363  0.0142 -0.0301 -0.1505
 7434TIP3    H122266   5.807   2.421   4.433  1.0699 -0.4940  0.6626
 7434TIP3    H222267   5.894   2.359   4.326  0.8920  0.0698  0.1883
 7435TIP3   OH222268   5.385   0.562   5.520 -0.1252 -0.2879 -0.4515
 7435TIP3    H122269   5.427   0.627   5.464  0.9802 -1.0131 -0.5021
 7435TIP3    H222270   5.379   0.484   5.466 -0.1813 -0.6248  0.0362
 7436TIP3   OH222271   3.146   1.337   1.257  0.0461 -0.1806 -0.1978
 7436TIP3    H122272   3.104   1.398   1.195 -1.2461  0.2972  1.0840
 7436TIP3    H222273   3.123   1.250   1.223  1.2233  0.0127 -1.5936
 7437TIP3   OH222274   5.854   1.811   5.342 -0.0481  0.4635  0.2398
 7437TIP3    H122275   5.899   1.785   5.262 -0.1296  0.9024  0.0474
 7437TIP3    H222276   5.800   1.886   5.315 -0.4042  0.3405  0.6070
 7438TIP3   OH222277   2.750   2.882   3.906  0.8544 -0.4679  0.1826
 7438TIP3    H122278   2.665   2.925   3.900  0.4988 -1.3837 -2.2155
 7438TIP3    H222279   2.744   2.829   3.986  0.1771  1.4267  1.4604
 7439TIP3   OH222280   3.840   1.785   3.121  0.1540  0.3009 -0.0833
 7439TIP3    H122281   3.887   1.710   3.158 -0.4850  0.4245  1.0476
 7439TIP3    H222282   3.875   1.796   3.033  0.6315 -0.9927 -0.0621
 7440TIP3   OH222283   5.586   1.517   5.246  0.2416  0.3374  0.3913
 7440TIP3    H122284   5.636   1.534   5.326  0.6788 -3.3638  1.0873
 7440TIP3    H222285   5.540   1.435   5.264 -0.5828 -0.0202 -2.7677
 7441TIP3   OH222286   1.136   1.600   5.404 -0.3205 -0.1907 -0.7957
 7441TIP3    H122287   1.059   1.607   5.461  1.0182 -0.5245  1.1771
 7441TIP3    H222288   1.122   1.666   5.336 -1.3570  1.2744  0.7537
 7442TIP3   OH222289   4.430   6.004   2.892 -0.3144  0.2313 -0.3140
 7442TIP3    H122290   4.365   6.029   2.826 -1.7597 -1.7959  0.2478
 7442TIP3    H222291   4.388   6.024   2.976  0.8258  1.2211  0.0438
 7443TIP3   OH222292   3.611   2.695   0.650  0.4457 -0.1077 -0.0597
 7443TIP3    H122293   3.559   2.629   0.696 -0.4694  0.1944 -0.6423
 7443TIP3    H222294   3.686   2.711   0.708 -2.2969  2.7585  3.1638
 7444TIP3   OH222295   0.831   2.969   0.869 -0.1357  0.1678 -0.5411
 7444TIP3    H122296   0.741   3.003   0.864 -1.1641 -2.1724  0.4275
 7444TIP3    H222297   0.828   2.907   0.941  1.6693 -1.6709 -1.9569
 7445TIP3   OH222298   6.174   2.620   4.534  0.1165  0.0122  0.3252
 7445TIP3    H122299   6.125   2.702   4.527 -2.3641 -1.3915  0.1966
 7445TIP3    H222300   6.155   2.589   4.623  0.1745 -0.9495  0.0063
 7446TIP3   OH222301   6.084   4.979   4.235 -0.5095 -0.4167 -0.3941
 7446TIP3    H122302   5.992   4.956   4.221 -1.1466  1.6026  0.0105
 7446TIP3    H222303   6.109   5.025   4.155 -0.4515  0.6504  0.2129
 7447TIP3   OH222304   5.753   2.810   3.820 -0.4019  0.4714  0.1155
 7447TIP3    H122305   5.812   2.764   3.879  0.0664  0.2332 -0.5391
 7447TIP3    H222306   5.701   2.741   3.779  1.2753  0.3420 -1.9472
 7448TIP3   OH222307   1.433   5.635   4.523 -0.1617 -0.5285 -0.4082
 7448TIP3    H122308   1.524   5.650   4.549 -0.1348 -1.6183  0.1987
 7448TIP3    H222309   1.384   5.703   4.568  0.3177 -0.1103 -0.5088
 7449TIP3   OH222310   4.886   4.627   0.232  0.6511  0.0520  0.0255
 7449TIP3    H122311   4.972   4.643   0.269 -0.1773  1.7985  1.3697
 7449TIP3    H222312   4.826   4.631   0.307 -0.4804 -2.8909 -0.5887
 7450TIP3   OH222313   2.134   1.257   3.594  0.0223 -0.4425  0.1190
 7450TIP3    H122314   2.120   1.329   3.655 -0.8243 -0.0723 -0.5000
 7450TIP3    H222315   2.135   1.298   3.507  0.5256 -1.0508 -0.1754
 7451TIP3   OH222316   5.310   0.044   0.012 -0.3183  0.0044 -0.1526
 7451TIP3    H122317   5.225   0.060   0.052  0.6257  2.4520  1.0763
 7451TIP3    H222318   5.329  -0.047   0.032 -1.7233 -0.0098  1.3772
 7452TIP3   OH222319   4.719   1.619   5.678  0.5594 -0.0015  0.2942
 7452TIP3    H122320   4.813   1.641   5.677  0.7512 -0.7006  1.4506
 7452TIP3    H222321   4.716   1.525   5.662  0.1493 -0.2238  1.5794
 7453TIP3   OH222322   5.871   0.989   3.173 -0.0882 -0.0646  0.5124
 7453TIP3    H122323   5.957   0.975   3.131 -0.4809  0.0825 -0.3710
 7453TIP3    H222324   5.859   1.084   3.172 -0.0796 -0.0587  1.0105
 7454TIP3   OH222325   4.912   2.791   3.531 -0.2729  0.4297 -0.9933
 7454TIP3    H122326   4.901   2.754   3.619  0.0975  0.5885 -0.8774
 7454TIP3    H222327   4.833   2.765   3.484 -1.2524  1.7322 -0.1281
 7455TIP3   OH222328   0.768   6.184   2.717 -0.3861 -0.1999 -0.3396
 7455TIP3    H122329   0.811   6.169   2.801 -0.2149  2.5580  0.1507
 7455TIP3    H222330   0.680   6.214   2.740 -0.8127 -0.7304 -1.2164
 7456TIP3   OH222331   6.704   2.912   2.022  0.2596 -0.7627 -0.2993
 7456TIP3    H122332   6.651   2.930   2.100 -0.2117  3.1032 -1.2960
 7456TIP3    H222333   6.648   2.858   1.967 -0.9177 -0.4395  0.5393
 7457TIP3   OH222334   3.092   3.574   0.337 -0.4080  0.2043 -0.1897
 7457TIP3    H122335   3.007   3.567   0.380 -0.1513  1.2850  0.5456
 7457TIP3    H222336   3.105   3.668   0.325  0.7983  0.0721 -0.0667
 7458TIP3   OH222337   4.180   0.160   2.820  0.1202  0.8190  0.0315
 7458TIP3    H122338   4.224   0.170   2.905 -1.1799 -1.6560  1.1077
 7458TIP3    H222339   4.240   0.104   2.770 -1.6371 -2.8429  1.6190
 7459TIP3   OH222340   6.918   0.923   0.413  0.0427  0.3485  0.4312
 7459TIP3    H122341   7.007   0.956   0.408  0.1562  0.0186  0.2453
 7459TIP3    H222342   6.874   0.963   0.338  0.3995 -0.5612 -0.2829
 7460TIP3   OH222343   4.144   5.497   1.043 -0.3814  0.3164 -0.3576
 7460TIP3    H122344   4.117   5.522   1.132  0.7241  0.8395 -0.1567
 7460TIP3    H222345   4.200   5.569   1.014 -1.7614  0.7905 -1.9936
 7461TIP3   OH222346   0.228   6.151   1.369  0.2740 -0.8187 -0.4540
 7461TIP3    H122347   0.192   6.111   1.448  2.5361 -0.9067  0.6046
 7461TIP3    H222348   0.241   6.243   1.393  0.9594 -0.8439 -0.7152
 7462TIP3   OH222349   1.526   0.697   2.889 -0.0211  0.2356  0.6581
 7462TIP3    H122350   1.556   0.745   2.966  0.6224  0.8560  0.0304
 7462TIP3    H222351   1.603   0.691   2.832 -0.9084  1.4124 -0.7501
 7463TIP3   OH222352   6.656   4.477   0.720  0.2650  0.1694  0.0692
 7463TIP3    H122353   6.642   4.571   0.733 -1.2286  0.1002 -0.8160
 7463TIP3    H222354   6.671   4.468   0.626  0.8419 -0.4367  0.2169
 7464TIP3   OH222355   0.725   5.685   4.365  0.3449  0.0250  0.7004
 7464TIP3    H122356   0.734   5.604   4.315  1.0500  0.0198  0.8340
 7464TIP3    H222357   0.640   5.721   4.337 -0.9511 -1.7616  2.1101
 7465TIP3   OH222358   1.459   5.584   5.739  0.0086 -0.6894 -0.3941
 7465TIP3    H122359   1.423   5.604   5.652 -2.0655 -0.1585  0.5267
 7465TIP3    H222360   1.467   5.489   5.740 -1.3440 -0.8200 -0.6683
 7466TIP3   OH222361   4.995   5.023   3.799 -0.0198 -0.0531 -0.0227
 7466TIP3    H122362   4.953   5.023   3.885  0.1361  0.4577  0.0595
 7466TIP3    H222363   4.960   4.946   3.755  0.9259 -1.1204  1.0015
 7467TIP3   OH222364   6.114   1.965   4.914 -0.0924  0.5604  0.0766
 7467TIP3    H122365   6.207   1.948   4.897 -0.5628 -1.5470 -0.7277
 7467TIP3    H222366   6.068   1.912   4.848 -1.8756  1.6595  0.3712
 7468TIP3   OH222367   3.324   4.322   5.051 -0.3635  0.2400 -0.2692
 7468TIP3    H122368   3.361   4.404   5.019  0.2699 -0.1537 -0.5644
 7468TIP3    H222369   3.280   4.284   4.975 -0.9911  0.4831 -0.0360
 7469TIP3   OH222370   6.854   3.763   2.817  0.5256 -0.0069 -0.0755
 7469TIP3    H122371   6.769   3.720   2.817  0.7249 -0.5210 -2.3047
 7469TIP3    H222372   6.900   3.725   2.893  0.1039 -2.5680 -1.0044
 7470TIP3   OH222373   6.546   4.936   0.222 -0.3126  0.1180  0.5246
 7470TIP3    H122374   6.453   4.960   0.219 -0.5541 -0.1204  3.5170
 7470TIP3    H222375   6.546   4.847   0.256  1.0538  0.5323  1.6547
 7471TIP3   OH222376   5.572   3.450   3.734 -0.0114  0.4064 -0.7499
 7471TIP3    H122377   5.605   3.384   3.795  0.0603 -0.5849 -1.8247
 7471TIP3    H222378   5.612   3.428   3.650 -0.8156  1.1846 -1.3630
 7472TIP3   OH222379   4.975   1.730   0.446 -0.1524  0.2651 -0.2828
 7472TIP3    H122380   4.964   1.696   0.535  0.6080 -0.6641 -0.5295
 7472TIP3    H222381   5.068   1.748   0.438 -0.0437 -0.5689 -1.1865
 7473TIP3   OH222382   2.679   6.085   5.840  0.2391 -0.2014  0.0361
 7473TIP3    H122383   2.686   6.012   5.779 -0.2625 -1.5267  1.5097
 7473TIP3    H222384   2.585   6.098   5.852  0.2962 -0.8914  1.5381
 7474TIP3   OH222385   3.235   6.002   5.679  0.1856  0.4975 -0.6360
 7474TIP3    H122386   3.147   6.017   5.644  0.4581  0.2094 -1.4624
 7474TIP3    H222387   3.227   6.022   5.773 -0.6991  0.7021 -0.7454
 7475TIP3   OH222388   2.242   3.984   4.368 -0.4525 -0.2489 -0.0173
 7475TIP3    H122389   2.175   4.026   4.421 -1.1829 -0.1092 -1.0275
 7475TIP3    H222390   2.224   3.890   4.376  0.7642 -0.3749  1.6904
 7476TIP3   OH222391   5.435   1.717   4.572  0.1426  0.0009 -0.2544
 7476TIP3    H122392   5.434   1.631   4.531  0.8295 -1.0409  1.7571
 7476TIP3    H222393   5.503   1.766   4.526  1.2200 -1.2782 -0.0776
 7477TIP3   OH222394   6.897   5.017   2.901  0.5966  0.2181  0.1142
 7477TIP3    H122395   6.906   5.005   2.996 -2.4001  1.0848  0.6142
 7477TIP3    H222396   6.807   5.048   2.890 -0.0727 -2.4315 -3.2770
 7478TIP3   OH222397   2.074   6.061   0.753  0.3286  0.0187 -0.3354
 7478TIP3    H122398   2.077   6.004   0.676 -0.2126 -1.2957  0.5927
 7478TIP3    H222399   2.135   6.022   0.815 -1.6950 -0.9210  1.1748
 7479TIP3   OH222400   3.862   4.256   0.819 -0.0167 -0.1367  0.2143
 7479TIP3    H122401   3.855   4.300   0.735 -1.4155  1.9678  1.3351
 7479TIP3    H222402   3.772   4.254   0.853  0.6152 -0.1749  2.0115
 7480TIP3   OH222403   2.112   4.717   3.239  0.0088  0.1216 -0.1138
 7480TIP3    H122404   2.067   4.633   3.231 -0.9214  0.6406 -0.5210
 7480TIP3    H222405   2.201   4.694   3.267 -0.1240 -1.0079 -0.5590
 7481TIP3   OH222406   3.971   2.597   1.569  0.0193 -0.3157 -1.0518
 7481TIP3    H122407   3.878   2.579   1.558 -0.2284 -0.9117  1.3654
 7481TIP3    H222408   4.011   2.511   1.580  0.7782 -0.0301 -1.4923
 7482TIP3   OH222409   6.660   0.655   0.041  0.4231  0.2368 -0.0601
 7482TIP3    H122410   6.585   0.596   0.049  0.5232  0.2274  0.8352
 7482TIP3    H222411   6.726   0.602  -0.004  0.3915 -0.2326  0.4301
 7483TIP3   OH222412   6.131   6.019   2.301 -0.4440  0.3819 -0.1689
 7483TIP3    H122413   6.177   5.939   2.327 -2.7101 -0.7702  0.5212
 7483TIP3    H222414   6.106   6.060   2.384 -0.0440  1.3825 -0.5279
 7484TIP3   OH222415   4.759   2.291   3.831 -0.1794  0.2947  0.1147
 7484TIP3    H122416   4.832   2.336   3.872 -1.1982  2.5312 -0.3676
 7484TIP3    H222417   4.763   2.318   3.739 -1.3728  0.1422  0.0067
 7485TIP3   OH222418   1.148   4.946   1.598 -0.3850  0.0255  0.3794
 7485TIP3    H122419   1.229   4.994   1.581  0.7269 -1.5096  1.0647
 7485TIP3    H222420   1.163   4.902   1.682 -2.1519  0.1256  0.7925
 7486TIP3   OH222421   0.574   5.552   0.954  0.6520 -0.2714  0.2711
 7486TIP3    H122422   0.583   5.625   1.016 -0.3672  0.1210 -0.0277
 7486TIP3    H222423   0.518   5.489   0.999  1.1001 -0.6422  0.3157
 7487TIP3   OH222424   6.918   1.388   1.314 -0.3717 -0.0620 -0.0102
 7487TIP3    H122425   6.890   1.301   1.284 -1.8268  0.4775 -0.3200
 7487TIP3    H222426   6.981   1.417   1.249 -1.5732  0.0227 -1.1875
 7488TIP3   OH222427   4.573   4.858   2.468  0.5839 -0.3665  0.0598
 7488TIP3    H122428   4.527   4.848   2.551 -0.3985 -2.4461 -0.6664
 7488TIP3    H222429   4.588   4.953   2.460 -1.1064  0.0867  1.6182
 7489TIP3   OH222430   3.869   4.973   3.173  0.0404  0.0784  0.4981
 7489TIP3    H122431   3.953   5.019   3.172  0.1110 -0.0294  1.0071
 7489TIP3    H222432   3.818   5.015   3.104  0.8455 -0.5013 -0.4713
 7490TIP3   OH222433   2.663   6.263   0.032 -0.1970 -0.3281 -0.1318
 7490TIP3    H122434   2.744   6.313   0.023  0.3258 -0.9360  1.0178
 7490TIP3    H222435   2.596   6.329   0.047  0.4804  0.0591  1.3565
 7491TIP3   OH222436   2.996   5.951   4.404  0.0647 -0.2434 -0.2976
 7491TIP3    H122437   3.077   5.964   4.355  0.2638 -1.9160 -0.4674
 7491TIP3    H222438   2.926   5.964   4.339  0.1729  1.2358 -0.1422
 7492TIP3   OH222439   1.222   0.063   3.291 -0.1079 -0.0072  0.0428
 7492TIP3    H122440   1.230   0.095   3.381 -0.1824 -1.2083  0.4854
 7492TIP3    H222441   1.300   0.099   3.247  0.7925 -0.7295  0.9943
 7493TIP3   OH222442   6.642   0.865   1.338  0.3248  0.0820  0.3552
 7493TIP3    H122443   6.650   0.920   1.416 -1.3614  0.8798  0.0021
 7493TIP3    H222444   6.727   0.823   1.330  0.3187 -0.6416  3.0885
 7494TIP3   OH222445   6.826   3.148   3.237  0.2184  0.6442  0.1353
 7494TIP3    H122446   6.767   3.213   3.274  2.8909  3.0245  0.5279
 7494TIP3    H222447   6.884   3.124   3.310  2.4628  1.7240 -1.1846
 7495TIP3   OH222448   6.877   2.059   0.258 -0.0767  0.4398  0.0108
 7495TIP3    H122449   6.830   2.139   0.282 -1.2065 -0.6691  1.7103
 7495TIP3    H222450   6.819   2.015   0.195  0.1499  0.5585 -0.2810
 7496TIP3   OH222451   1.645   5.687   2.728 -0.1203 -0.1832  0.4584
 7496TIP3    H122452   1.736   5.707   2.705 -0.2014  1.8759  1.6873
 7496TIP3    H222453   1.651   5.629   2.804  0.2240  1.1549  1.4890
 7497TIP3   OH222454   4.639   5.768   2.227 -0.1652  0.0204  0.6161
 7497TIP3    H122455   4.685   5.688   2.199  0.7466  0.2225  1.4931
 7497TIP3    H222456   4.548   5.740   2.238 -0.1898 -0.4992 -0.6985
 7498TIP3   OH222457   3.933   3.141   1.234  0.2616 -0.0220  0.1899
 7498TIP3    H122458   3.919   3.157   1.327 -2.4653 -0.0504 -0.1279
 7498TIP3    H222459   4.015   3.092   1.230  0.8366  0.6330  2.4825
 7499TIP3   OH222460   2.407   2.043   5.274  0.3104 -0.2336  0.7739
 7499TIP3    H122461   2.358   2.058   5.355 -0.7652 -1.4980  0.3957
 7499TIP3    H222462   2.455   1.962   5.289 -1.4188 -1.5814 -0.4714
 7500TIP3   OH222463   1.295   3.624   4.436 -0.5329 -0.2832  0.1772
 7500TIP3    H122464   1.282   3.572   4.356  0.8165  0.1463 -0.3527
 7500TIP3    H222465   1.269   3.713   4.412 -1.3458 -0.3882  0.6195
 7501TIP3   OH222466   4.850   6.368   3.139 -0.0041 -0.4523 -0.3921
 7501TIP3    H122467   4.821   6.437   3.199 -0.5878 -0.6389 -0.4563
 7501TIP3    H222468   4.773   6.312   3.129  0.3685 -0.9232 -0.6060
 7502TIP3   OH222469   0.936   2.835   5.580 -0.3347 -0.0456 -0.8078
 7502TIP3    H122470   0.991   2.909   5.555  0.5795  0.2642  1.8264
 7502TIP3    H222471   0.989   2.786   5.643 -2.7544 -0.1339  1.3216
 7503TIP3   OH222472   2.197   6.069   3.513  0.2137  0.0108  0.1502
 7503TIP3    H122473   2.210   6.127   3.438  0.9110 -1.3471 -0.8161
 7503TIP3    H222474   2.279   6.020   3.521 -0.8787 -1.9393 -0.0442
 7504TIP3   OH222475   0.992   3.965   1.965  0.4105  0.0430  0.1781
 7504TIP3    H122476   0.947   3.895   2.011 -0.7785  1.4611  1.2789
 7504TIP3    H222477   0.942   3.978   1.885  1.4877 -1.2997 -0.7425
 7505TIP3   OH222478   3.157   2.562   0.113  0.3894 -0.6729  0.3270
 7505TIP3    H122479   3.153   2.516   0.197  0.9308 -1.4038 -0.0479
 7505TIP3    H222480   3.225   2.517   0.063 -0.1559 -0.4547 -0.6341
 7506TIP3   OH222481   3.212   1.754   1.057  0.0542  0.4231  0.1508
 7506TIP3    H122482   3.259   1.722   1.134  0.8402  1.3170  0.0494
 7506TIP3    H222483   3.125   1.713   1.064  0.9537 -1.6150  0.0990
 7507TIP3   OH222484   4.387   4.738   3.413 -0.3061  0.6409 -0.2047
 7507TIP3    H122485   4.478   4.710   3.411 -1.0163 -2.2377  1.8575
 7507TIP3    H222486   4.344   4.688   3.344 -0.7982 -0.1602  0.6587
 7508TIP3   OH222487   4.687   2.398   4.517  0.1432  0.1104  0.1661
 7508TIP3    H122488   4.689   2.392   4.422  0.8353 -0.4639  0.2089
 7508TIP3    H222489   4.778   2.387   4.544  0.2457  2.1011  0.8104
 7509TIP3   OH222490   7.140   6.409   5.440 -0.3790 -0.0366  0.3965
 7509TIP3    H122491   7.114   6.423   5.531  0.9740  0.8411  0.6720
 7509TIP3    H222492   7.226   6.449   5.433  0.0498 -1.1200 -0.9832
 7510TIP3   OH222493   4.901   6.070   5.119  0.2432 -0.3479  0.2578
 7510TIP3    H122494   4.925   6.059   5.027  0.3874  1.5466  0.0346
 7510TIP3    H222495   4.807   6.087   5.118  0.6592  2.2194  0.1787
 7511TIP3   OH222496   1.693   6.618   4.970 -0.5210 -0.6101 -0.3617
 7511TIP3    H122497   1.631   6.676   4.926 -0.7973 -1.2564 -0.8446
 7511TIP3    H222498   1.750   6.586   4.899  0.0964 -0.3443  0.0128
 7512TIP3   OH222499   5.879   6.743   0.649  0.8064  0.0970  0.4475
 7512TIP3    H122500   5.938   6.796   0.595 -2.0048  1.8015 -1.1861
 7512TIP3    H222501   5.859   6.798   0.724  1.0763 -0.3628  0.8590
 7513TIP3   OH222502   1.750   1.620   0.613  0.5082 -0.0546 -0.1625
 7513TIP3    H122503   1.829   1.611   0.561 -0.4885 -3.6288 -1.3538
 7513TIP3    H222504   1.733   1.532   0.647 -1.2932  1.2341  2.6589
 7514TIP3   OH222505   3.413   2.823   2.975 -0.5225  0.2805  0.6105
 7514TIP3    H122506   3.401   2.841   3.069 -0.4777  1.9217  0.3321
 7514TIP3    H222507   3.398   2.908   2.933  0.1176 -0.2937 -0.8137
 7515TIP3   OH222508   2.364   4.342   3.154  0.1316  0.3367  0.4494
 7515TIP3    H122509   2.327   4.256   3.131  0.1597  0.9032 -1.9343
 7515TIP3    H222510   2.405   4.327   3.239 -0.2891 -1.8896  0.3432
 7516TIP3   OH222511   5.979   2.122   5.164 -0.3025 -0.1453  0.0642
 7516TIP3    H122512   6.008   2.177   5.237  0.2254 -1.3207  0.7726
 7516TIP3    H222513   6.059   2.080   5.133 -0.9644 -2.1452  0.9395
 7517TIP3   OH222514   6.154   3.103   5.035 -0.2525  0.1679 -0.6511
 7517TIP3    H122515   6.237   3.139   5.002  0.2337  0.4036  0.7593
 7517TIP3    H222516   6.174   3.011   5.053 -0.4429  0.1042 -0.7640
 7518TIP3   OH222517   3.877   4.402   3.892 -0.1446 -0.5075 -0.2652
 7518TIP3    H122518   3.863   4.492   3.862 -0.4078 -1.5739 -3.8705
 7518TIP3    H222519   3.968   4.400   3.920  0.8130  0.3119 -2.9920
 7519TIP3   OH222520   4.641   1.377   5.428  0.2617 -0.3605  0.3613
 7519TIP3    H122521   4.688   1.361   5.509  0.7110 -0.6460  0.0459
 7519TIP3    H222522   4.646   1.294   5.380  0.0670 -0.1715  0.0089
 7520TIP3   OH222523   2.218   2.650   0.083 -0.1534  0.0050  0.0578
 7520TIP3    H122524   2.290   2.712   0.087  0.1512 -0.3204 -0.2911
 7520TIP3    H222525   2.149   2.696   0.035 -0.2670  0.3978  0.5898
 7521TIP3   OH222526   4.960   1.122   0.810  0.1524 -0.3157 -0.3986
 7521TIP3    H122527   4.983   1.152   0.898  0.4505 -1.8351  0.0872
 7521TIP3    H222528   5.015   1.044   0.798  1.3599  0.8039 -2.6114
 7522TIP3   OH222529   2.706   4.621   1.933  0.1042 -0.4158 -0.1928
 7522TIP3    H122530   2.677   4.639   1.843  0.7433  1.0045 -0.1338
 7522TIP3    H222531   2.790   4.666   1.941 -0.7936  1.0770  1.6800
 7523TIP3   OH222532   0.470   2.086   2.612  0.2112 -0.3180 -0.2361
 7523TIP3    H122533   0.460   2.079   2.707  2.0025  0.9735  0.0930
 7523TIP3    H222534   0.384   2.112   2.580 -1.4890 -4.3218  0.5295
 7524TIP3   OH222535   0.107   1.967   1.781  0.8793 -0.1628  0.9010
 7524TIP3    H122536   0.139   1.995   1.695  2.2122  0.8850  1.6944
 7524TIP3    H222537   0.022   1.928   1.764  1.2642 -0.2713 -0.9356
 7525TIP3   OH222538   3.373   4.730   5.380  0.1998  0.1490  0.7446
 7525TIP3    H122539   3.367   4.808   5.435  0.3131  0.6685  0.0499
 7525TIP3    H222540   3.458   4.692   5.402  0.6392  0.8450  0.3158
 7526TIP3   OH222541   7.036   2.785   2.301 -0.3255  0.1418 -0.3654
 7526TIP3    H122542   7.023   2.880   2.300 -2.3145 -0.0526  0.6416
 7526TIP3    H222543   7.006   2.755   2.216 -1.7067  0.2542  0.0530
 7527TIP3   OH222544   4.763   4.476   1.320 -0.1621  0.1848  0.1984
 7527TIP3    H122545   4.680   4.428   1.326  0.4959 -1.3138 -1.8246
 7527TIP3    H222546   4.829   4.409   1.304  1.0960  1.5762 -0.7093
 7528TIP3   OH222547   4.631   1.513   1.357  0.1023  0.3696  0.4366
 7528TIP3    H122548   4.601   1.580   1.296  0.0083 -0.2558 -0.2197
 7528TIP3    H222549   4.642   1.434   1.303 -0.8043 -0.4279  1.3745
 7529TIP3   OH222550   6.123   4.776   3.649 -0.4606  0.4832  0.0462
 7529TIP3    H122551   6.094   4.848   3.705  1.3637 -0.6859  2.7150
 7529TIP3    H222552   6.066   4.703   3.672 -0.2848  0.2331 -0.2980
 7530TIP3   OH222553   0.947   0.244   5.785 -0.1634 -0.2313 -0.3635
 7530TIP3    H122554   0.892   0.240   5.863  0.4358  1.2227  0.1662
 7530TIP3    H222555   1.014   0.177   5.799 -0.7893 -0.8441 -0.2363
 7531TIP3   OH222556   5.758   4.519   2.275  0.4499  0.1529  0.2945
 7531TIP3    H122557   5.696   4.587   2.301 -0.3655 -0.5627  0.2334
 7531TIP3    H222558   5.831   4.568   2.236 -0.9871  0.9433 -1.5763
 7532TIP3   OH222559   3.286   4.050   4.492  0.2909 -0.2192  0.3812
 7532TIP3    H122560   3.344   4.038   4.567  0.5459  0.0264  0.2259
 7532TIP3    H222561   3.343   4.084   4.423  0.0803 -0.5451  0.0426
 7533TIP3   OH222562   1.683   4.752   4.079  0.1438  0.3036  0.4196
 7533TIP3    H122563   1.666   4.783   3.990 -1.2901  0.3831  0.6930
 7533TIP3    H222564   1.705   4.659   4.068 -0.1673  0.2757 -0.0064
 7534TIP3   OH222565   1.728   1.311   1.527 -0.2077 -0.3531 -0.5635
 7534TIP3    H122566   1.633   1.318   1.532 -0.1392 -0.0237  0.5446
 7534TIP3    H222567   1.745   1.217   1.518 -0.6094 -0.5053  0.2252
 7535TIP3   OH222568   2.090   2.242   4.780  0.5641 -0.2178  0.7892
 7535TIP3    H122569   2.009   2.215   4.738  0.0758  1.9655  0.1800
 7535TIP3    H222570   2.087   2.202   4.867 -1.1454 -0.1952  0.7761
 7536TIP3   OH222571   0.236   1.664   1.578 -0.3246 -0.2107  0.4874
 7536TIP3    H122572   0.150   1.646   1.541 -0.4793  0.4670  0.5046
 7536TIP3    H222573   0.298   1.629   1.513 -0.5990 -1.3281  0.7999
 7537TIP3   OH222574   3.125   5.917   2.463 -0.4731  0.1023 -0.1143
 7537TIP3    H122575   3.044   5.867   2.455 -0.4720  0.2308 -1.0945
 7537TIP3    H222576   3.193   5.856   2.432 -0.2734  0.1816  0.1704
 7538TIP3   OH222577   2.724   5.101   4.371 -0.0905  0.3028  0.1107
 7538TIP3    H122578   2.765   5.187   4.362  0.6029  0.3554  2.8106
 7538TIP3    H222579   2.675   5.107   4.453 -1.6473 -1.2791 -0.6624
 7539TIP3   OH222580   5.790   5.023   5.501 -1.0644  0.2026  0.2972
 7539TIP3    H122581   5.744   4.945   5.473 -1.9886  0.0697  2.0515
 7539TIP3    H222582   5.792   5.017   5.597 -1.1428  2.2983  0.4825
 7540TIP3   OH222583   6.681   6.396   1.453  0.0613  0.0255  0.1072
 7540TIP3    H122584   6.625   6.321   1.473 -0.7342  0.2491 -1.1528
 7540TIP3    H222585   6.650   6.427   1.368  2.1083  0.1602 -0.6610
 7541TIP3   OH222586   0.696   6.531   5.857 -0.2335 -0.0498 -0.1639
 7541TIP3    H122587   0.665   6.560   5.943 -1.4823  2.4860 -1.3763
 7541TIP3    H222588   0.778   6.578   5.844 -2.5649  3.8310 -2.3983
 7542TIP3   OH222589   7.194   5.237   1.664 -0.1241 -0.3703  0.2847
 7542TIP3    H122590   7.235   5.190   1.591  1.4398  0.0422  0.8596
 7542TIP3    H222591   7.153   5.312   1.623 -0.2347 -0.7413 -0.3083
 7543TIP3   OH222592   1.882   0.342   0.617 -0.0321 -0.7043  0.0740
 7543TIP3    H122593   1.835   0.398   0.678  0.8434 -0.7953  0.8586
 7543TIP3    H222594   1.934   0.402   0.564  0.5852 -0.7218  0.6374
 7544TIP3   OH222595   6.873   4.567   4.208  0.3128 -0.2507 -0.7296
 7544TIP3    H122596   6.962   4.540   4.189  0.1591  0.6432 -2.9962
 7544TIP3    H222597   6.822   4.486   4.206  0.6486 -0.4440 -2.2570
 7545TIP3   OH222598   2.724   1.549   4.448  0.4344  0.4622 -0.2803
 7545TIP3    H122599   2.751   1.542   4.356  1.4744  0.9840 -0.0257
 7545TIP3    H222600   2.730   1.459   4.482 -1.3406 -0.0003 -1.0701
 7546TIP3   OH222601   6.442   6.242   2.084 -0.8825 -0.1134  0.5514
 7546TIP3    H122602   6.385   6.172   2.117  1.2055 -2.1777  0.0809
 7546TIP3    H222603   6.418   6.252   1.992 -1.6248  0.2746  0.7805
 7547TIP3   OH222604   3.991   5.847   2.224 -0.5439 -0.7114  0.2109
 7547TIP3    H122605   4.041   5.770   2.195  0.9539  0.1848  0.2773
 7547TIP3    H222606   4.035   5.921   2.182 -0.7620  0.2750  1.6445
 7548TIP3   OH222607   6.195   3.531   2.093 -0.1514 -0.5023  0.0786
 7548TIP3    H122608   6.208   3.599   2.026 -2.1220  2.1480  2.1524
 7548TIP3    H222609   6.106   3.500   2.079  0.2416 -1.6524  0.0610
 7549TIP3   OH222610   6.791   3.504   5.391 -0.1510 -0.1782 -0.0416
 7549TIP3    H122611   6.724   3.441   5.365  0.5514 -0.7612 -0.4922
 7549TIP3    H222612   6.765   3.586   5.349 -0.8177 -0.2818  0.1633
 7550TIP3   OH222613   3.265   6.463   2.801  0.0514 -0.2491 -0.0325
 7550TIP3    H122614   3.195   6.524   2.827 -0.0211 -0.1886 -0.3672
 7550TIP3    H222615   3.254   6.454   2.706 -0.8518 -1.9164  0.2017
 7551TIP3   OH222616   0.320   2.974   5.251  0.7704 -0.5353  0.3266
 7551TIP3    H122617   0.307   3.031   5.327  0.8895 -0.2368  0.1244
 7551TIP3    H222618   0.407   2.997   5.218  0.1996  0.2796 -0.6836
 7552TIP3   OH222619   4.107   6.230   1.698  0.0597 -0.5781  0.4436
 7552TIP3    H122620   4.184   6.258   1.648  0.2643 -0.0260  1.0577
 7552TIP3    H222621   4.037   6.226   1.633  0.2567  0.4181  0.1521
 7553TIP3   OH222622   1.279   4.907   3.077  0.9047  0.2888 -0.2109
 7553TIP3    H122623   1.248   4.921   2.988 -1.3123 -0.0032  0.4441
 7553TIP3    H222624   1.256   4.987   3.124  1.3364  0.1334  0.2796
 7554TIP3   OH222625   6.653   0.701   3.667 -0.4509  0.1157  0.0041
 7554TIP3    H122626   6.590   0.652   3.720  0.3329 -0.3331  0.5387
 7554TIP3    H222627   6.623   0.792   3.673 -1.5346 -0.1903 -0.4585
 7555TIP3   OH222628   6.824   4.637   3.421 -0.6618  0.5935 -0.0707
 7555TIP3    H122629   6.898   4.641   3.360 -0.6528  1.1127 -0.0365
 7555TIP3    H222630   6.851   4.691   3.495  0.2243 -1.7505  1.4206
 7556TIP3   OH222631   2.656   5.551   4.446 -0.2956 -0.8967 -0.4030
 7556TIP3    H122632   2.696   5.552   4.359 -1.4046 -0.3471 -0.9198
 7556TIP3    H222633   2.562   5.542   4.430 -0.6250  0.2657  0.6887
 7557TIP3   OH222634   6.426   6.469   3.372  0.0794  0.0045  0.0216
 7557TIP3    H122635   6.410   6.501   3.461 -1.4737 -0.0087 -0.2301
 7557TIP3    H222636   6.369   6.522   3.316 -1.2173 -1.9106 -0.6032
 7558TIP3   OH222637   1.599   5.666   1.930 -0.0143  1.0167  0.2970
 7558TIP3    H122638   1.604   5.665   2.026 -0.7454 -1.5486  0.3786
 7558TIP3    H222639   1.510   5.696   1.911 -0.6074 -0.5020  0.5374
 7559TIP3   OH222640   0.722   4.309   3.267  0.1045 -0.5592 -0.2426
 7559TIP3    H122641   0.756   4.298   3.178 -1.9428  0.4795 -1.2128
 7559TIP3    H222642   0.755   4.396   3.294 -1.4667  0.3285 -1.0777
 7560TIP3   OH222643   0.112   5.549   1.059 -0.9798 -0.2990  0.4340
 7560TIP3    H122644   0.063   5.534   0.978  0.0739  0.1779 -0.3198
 7560TIP3    H222645   0.142   5.462   1.085 -3.1689 -0.7704  1.5624
 7561TIP3   OH222646   4.320   5.536   0.623 -0.6322 -0.7285  0.2309
 7561TIP3    H122647   4.279   5.524   0.537  1.1442 -3.2049 -0.3844
 7561TIP3    H222648   4.264   5.489   0.684  0.3474 -2.7634 -0.3539
 7562TIP3   OH222649   0.788   2.153   4.946  0.4146  0.0659 -0.2037
 7562TIP3    H122650   0.883   2.163   4.945  0.4761 -0.4839 -1.0937
 7562TIP3    H222651   0.754   2.236   4.915  0.6327  0.0188 -0.5634
 7563TIP3   OH222652   3.031   4.855   3.216  0.1839 -0.5665 -0.7857
 7563TIP3    H122653   2.943   4.831   3.247  0.6385  1.6764  2.8365
 7563TIP3    H222654   3.089   4.788   3.253  0.1806 -1.8752 -2.9289
 7564TIP3   OH222655   7.006   0.066   2.217  0.0332  0.2380  0.3759
 7564TIP3    H122656   6.939   0.008   2.182  1.7407 -1.1962 -0.6995
 7564TIP3    H222657   7.012   0.137   2.153 -1.2247  1.0198  1.0813
 7565TIP3   OH222658   1.052   5.234   1.870  0.2082 -0.2271  0.0949
 7565TIP3    H122659   1.046   5.231   1.775  2.1612  0.0436 -0.0760
 7565TIP3    H222660   1.142   5.262   1.888 -0.5071  1.0324  2.0117
 7566TIP3   OH222661   0.580   4.960   5.698 -0.0689  0.0856 -0.7675
 7566TIP3    H122662   0.491   4.972   5.732 -0.1337  0.4536 -1.0571
 7566TIP3    H222663   0.633   4.941   5.775 -0.1493  1.2577 -0.3954
 7567TIP3   OH222664   2.243   6.009   4.424 -0.0644  0.5758 -0.0494
 7567TIP3    H122665   2.167   5.951   4.433 -0.4803  1.0302 -0.5630
 7567TIP3    H222666   2.316   5.958   4.458 -0.5193 -0.0427  0.0224
 7568TIP3   OH222667   2.282   6.015   5.072 -0.7041 -0.4631  0.1109
 7568TIP3    H122668   2.287   6.033   5.166 -0.5329  0.2207 -0.0287
 7568TIP3    H222669   2.262   6.100   5.032 -1.6435 -0.9068 -0.3939
 7569TIP3   OH222670   2.326   5.481   0.339  0.6323  0.5585  0.2764
 7569TIP3    H122671   2.375   5.482   0.257  2.0103 -1.4165  0.9930
 7569TIP3    H222672   2.391   5.455   0.405 -1.1029 -0.9965  1.4736
 7570TIP3   OH222673   6.793   4.545   5.708  0.2083 -0.1777  0.3013
 7570TIP3    H122674   6.734   4.563   5.634 -1.4718 -1.3048  1.2777
 7570TIP3    H222675   6.767   4.608   5.775  0.6181 -0.2123  0.4932
 7571TIP3   OH222676   6.070   6.142   0.988  0.1046  0.8800  0.2592
 7571TIP3    H122677   6.007   6.184   1.046  0.5040  2.2629 -0.2662
 7571TIP3    H222678   6.139   6.207   0.976  1.7667 -0.6791  0.9817
 7572TIP3   OH222679   4.673   0.899   0.045  0.4093 -0.1083  0.3751
 7572TIP3    H122680   4.648   0.957  -0.026  1.2640  0.3705  0.4536
 7572TIP3    H222681   4.592   0.884   0.094  0.1516  0.9007  0.2750
 7573TIP3   OH222682   3.212   5.757   0.227  0.1024 -0.0575  0.1514
 7573TIP3    H122683   3.255   5.696   0.168  1.2289  0.4258  0.4478
 7573TIP3    H222684   3.283   5.798   0.275 -0.5939  1.7773 -0.3039
 7574TIP3   OH222685   6.982   4.620   2.160 -0.5148 -0.2276 -0.1745
 7574TIP3    H122686   6.938   4.631   2.076 -0.2154 -0.4431 -0.3634
 7574TIP3    H222687   6.995   4.525   2.168 -0.7164 -0.2241  0.2031
 7575TIP3   OH222688   0.593   3.832   2.038 -0.2181 -0.0939 -0.7095
 7575TIP3    H122689   0.596   3.925   2.062 -1.8920  0.1651 -1.3507
 7575TIP3    H222690   0.500   3.810   2.041  0.2715 -2.2759  1.2517
 7576TIP3   OH222691   3.428   6.135   4.117  0.4767 -0.2201 -0.0379
 7576TIP3    H122692   3.381   6.166   4.194 -2.3714 -1.4203 -1.1743
 7576TIP3    H222693   3.409   6.200   4.050  2.5104  0.5420  0.0546
 7577TIP3   OH222694   1.632   6.086   2.962  0.0170  0.6189 -0.0906
 7577TIP3    H122695   1.545   6.108   2.994  0.9501  1.1704  2.2014
 7577TIP3    H222696   1.640   5.992   2.978 -0.4548  0.3620 -1.1957
 7578TIP3   OH222697   3.336   1.639   1.282 -0.6059 -0.3404 -0.0492
 7578TIP3    H122698   3.286   1.575   1.332 -0.1229 -0.5832  0.1284
 7578TIP3    H222699   3.380   1.692   1.348  2.0543 -2.2363 -0.1535
 7579TIP3   OH222700   6.244   0.994   5.590 -0.3819 -0.8482 -0.4025
 7579TIP3    H122701   6.291   0.979   5.508 -0.0798 -0.6177 -0.2740
 7579TIP3    H222702   6.204   0.910   5.612  1.0680 -1.4145  0.1832
 7580TIP3   OH222703   2.464   1.517   2.452  0.5850 -0.0178  0.1781
 7580TIP3    H122704   2.382   1.531   2.499 -1.9391  1.9440 -4.1815
 7580TIP3    H222705   2.472   1.422   2.445 -0.6947 -0.2626  1.5725
 7581TIP3   OH222706   1.999   3.728   0.627 -0.1773 -0.3201 -0.3240
 7581TIP3    H122707   2.033   3.771   0.549 -1.4043  2.2227  0.4280
 7581TIP3    H222708   1.946   3.655   0.593  1.0153 -0.5801 -1.7126
 7582TIP3   OH222709   6.361   5.395   3.337 -0.2467 -0.5607  0.1553
 7582TIP3    H122710   6.293   5.373   3.273  0.7587  0.5990 -1.3890
 7582TIP3    H222711   6.329   5.474   3.380  0.2972  0.2327 -0.8758
 7583TIP3   OH222712   3.401   5.260   4.808  0.4562 -0.3530 -0.1706
 7583TIP3    H122713   3.389   5.336   4.750  0.8371 -0.6481 -0.6407
 7583TIP3    H222714   3.412   5.299   4.895  1.3469  0.1873 -0.4990
 7584TIP3   OH222715   1.363   6.763   2.008 -0.1392 -0.4376  0.2288
 7584TIP3    H122716   1.396   6.846   2.043  0.0395 -0.4794  0.1619
 7584TIP3    H222717   1.421   6.697   2.047 -0.6266 -0.5820  0.7231
 7585TIP3   OH222718   3.638   1.143   3.124  0.1758 -0.4190  0.2054
 7585TIP3    H122719   3.725   1.139   3.165  1.0666 -0.4629 -1.5862
 7585TIP3    H222720   3.596   1.218   3.165  0.3686 -1.3995  2.3395
 7586TIP3   OH222721   6.270   3.732   4.439 -0.0196 -0.2500 -0.2735
 7586TIP3    H122722   6.299   3.679   4.365  1.3283 -1.4453  1.0347
 7586TIP3    H222723   6.238   3.668   4.503 -2.3936  0.8313 -0.2640
 7587TIP3   OH222724   1.574   1.128   4.223 -0.5477 -0.1093 -0.6445
 7587TIP3    H122725   1.565   1.032   4.225  0.7503 -0.2659 -1.3636
 7587TIP3    H222726   1.616   1.147   4.140 -2.1681  1.2576 -1.2224
 7588TIP3   OH222727   0.070   5.805   1.147  0.2318  0.3344  0.6346
 7588TIP3    H122728   0.010   5.763   1.208 -0.4118  1.0001  0.4796
 7588TIP3    H222729   0.092   5.738   1.083 -1.4878  0.4665 -0.1262
 7589TIP3   OH222730   2.208   1.869   2.150  0.1162 -0.0711  0.0670
 7589TIP3    H122731   2.212   1.776   2.131 -1.6467  0.0055 -0.9853
 7589TIP3    H222732   2.291   1.904   2.119  0.6315 -1.2327  0.1004
 7590TIP3   OH222733   6.137   0.884   0.493 -0.5374  0.1674  0.6174
 7590TIP3    H122734   6.064   0.833   0.459 -0.3853 -0.8412  1.7461
 7590TIP3    H222735   6.173   0.831   0.564  2.0028  0.0609 -0.6059
 7591TIP3   OH222736   5.813   5.336   0.612  0.3785 -0.3103  0.2485
 7591TIP3    H122737   5.734   5.283   0.627 -0.9933  1.6371  0.2755
 7591TIP3    H222738   5.836   5.368   0.699  0.0964  0.5845  0.0031
 7592TIP3   OH222739   5.672   5.021   1.760 -0.0647  0.1938  0.2008
 7592TIP3    H122740   5.710   4.959   1.697  0.4054 -0.9159  1.5338
 7592TIP3    H222741   5.579   5.021   1.739  0.0423 -0.3603 -0.3304
 7593TIP3   OH222742   1.696   4.628   0.550  0.4662 -0.1272  0.0852
 7593TIP3    H122743   1.694   4.657   0.642 -0.0946 -2.0093  0.7118
 7593TIP3    H222744   1.789   4.620   0.530  0.5968 -0.2066  0.6766
 7594TIP3   OH222745   0.306   1.821   5.259 -0.3980  0.1942  0.5409
 7594TIP3    H122746   0.343   1.838   5.346 -0.2565  1.0193  0.3182
 7594TIP3    H222747   0.213   1.840   5.269 -0.2194  1.2508  0.2595
 7595TIP3   OH222748   0.328   5.712   3.114 -0.4731 -0.3312 -0.5227
 7595TIP3    H122749   0.304   5.805   3.122 -0.5736 -0.4942  1.8787
 7595TIP3    H222750   0.424   5.712   3.114 -0.4714 -0.2475 -0.0180
 7596TIP3   OH222751   3.498   4.695   4.635  0.1795  0.5327  0.4466
 7596TIP3    H122752   3.542   4.776   4.612 -0.0265  0.3645 -0.5834
 7596TIP3    H222753   3.506   4.689   4.730  2.0857  0.6725  0.3301
 7597TIP3   OH222754   5.777   4.363   4.134  0.0734 -0.3771  0.3210
 7597TIP3    H122755   5.820   4.386   4.052  3.6214 -0.7872  1.8880
 7597TIP3    H222756   5.814   4.279   4.159 -0.8011 -0.2165  2.4233
 7598TIP3   OH222757   1.015   5.031   3.667 -0.0842  0.4637 -0.5380
 7598TIP3    H122758   0.924   5.053   3.689  0.4573  1.3293  0.9686
 7598TIP3    H222759   1.031   4.948   3.712 -0.1914  0.1748 -1.0209
 7599TIP3   OH222760   6.824   0.747   1.938  0.4485 -0.2740 -0.3289
 7599TIP3    H122761   6.735   0.716   1.926  0.8346 -1.2521 -0.8294
 7599TIP3    H222762   6.847   0.720   2.027  0.6976 -1.2622 -0.6763
 7600TIP3   OH222763   7.114   4.248   4.047  0.0838 -0.0253 -0.2384
 7600TIP3    H122764   7.066   4.290   3.976 -0.7635  0.3725  0.5422
 7600TIP3    H222765   7.046   4.221   4.109  0.7427 -1.0396  0.0710
 7601TIP3   OH222766   6.746   4.720   0.352  0.3451  0.0732 -0.3738
 7601TIP3    H122767   6.740   4.624   0.349 -2.0631  0.1324  0.4349
 7601TIP3    H222768   6.793   4.738   0.433 -0.8605 -0.4381  0.4732
 7602TIP3   OH222769   4.388   3.316   5.870 -0.2491  0.1394  0.3930
 7602TIP3    H122770   4.434   3.239   5.839  0.6148 -0.2854  2.5107
 7602TIP3    H222771   4.456   3.383   5.880 -0.8575  0.9542 -0.6793
 7603TIP3   OH222772   1.934   2.991   2.053  0.4329 -0.1234 -0.3434
 7603TIP3    H122773   1.873   2.928   2.015  1.1459 -1.6811  0.9725
 7603TIP3    H222774   1.885   3.073   2.055 -0.5543 -0.6183 -2.0278
 7604TIP3   OH222775   3.073   0.280   5.389 -0.1500 -0.2520 -0.3555
 7604TIP3    H122776   3.002   0.304   5.329 -0.8210  0.2136  0.5960
 7604TIP3    H222777   3.094   0.361   5.435  0.0992 -0.6741  0.2962
 7605TIP3   OH222778   1.766   2.414   1.441 -0.3607 -0.3919  0.1295
 7605TIP3    H122779   1.711   2.449   1.371  1.2385  2.6363  0.2195
 7605TIP3    H222780   1.785   2.490   1.496  0.9534 -2.0704  2.1120
 7606TIP3   OH222781   6.514   5.643   2.412  0.0962 -0.1218  0.3913
 7606TIP3    H122782   6.490   5.551   2.417 -0.8908  0.1376  0.6194
 7606TIP3    H222783   6.587   5.646   2.350 -0.1864 -0.9901  0.0062
 7607TIP3   OH222784   3.600   3.282   4.159 -0.4787 -0.1100  0.7957
 7607TIP3    H122785   3.694   3.298   4.149 -0.5620 -1.2812 -3.6377
 7607TIP3    H222786   3.589   3.189   4.137 -2.6989 -0.0203  1.2588
 7608TIP3   OH222787   3.195   1.890   0.834  0.1165  0.0604  0.0854
 7608TIP3    H122788   3.242   1.965   0.871  1.8496  0.1485 -2.0506
 7608TIP3    H222789   3.199   1.823   0.902 -0.1348  1.3729  1.4538
 7609TIP3   OH222790   6.732   3.259   1.516 -0.0622  0.2213 -0.1526
 7609TIP3    H122791   6.800   3.279   1.580  1.3349 -2.4162 -0.6739
 7609TIP3    H222792   6.658   3.315   1.541  1.1715  0.8734  2.3826
 7610TIP3   OH222793   4.108   1.480   1.297 -0.3685 -0.1937 -0.2370
 7610TIP3    H122794   4.078   1.412   1.357 -1.4123  0.9456  0.5938
 7610TIP3    H222795   4.040   1.487   1.231 -0.2949  0.0846 -0.2857
 7611TIP3   OH222796   6.687   4.298   1.970 -0.3311  0.4212 -0.0209
 7611TIP3    H122797   6.713   4.339   1.887 -0.9210 -0.7494 -0.8132
 7611TIP3    H222798   6.625   4.358   2.009 -2.2172 -0.2669 -1.8051
 7612TIP3   OH222799   6.078   0.364   3.920  0.2203 -0.5165  0.6027
 7612TIP3    H122800   6.142   0.311   3.967  0.8953  0.6181  0.9915
 7612TIP3    H222801   6.031   0.413   3.988  0.7229  0.6033  0.1587
 7613TIP3   OH222802   1.813   6.077   0.546 -0.1516 -0.0206 -0.1070
 7613TIP3    H122803   1.829   6.003   0.606  0.7228  0.1614 -0.1100
 7613TIP3    H222804   1.795   6.035   0.462 -1.8010 -0.2979  0.3369
 7614TIP3   OH222805   3.013   0.185   3.822 -0.0647 -0.2411 -0.0383
 7614TIP3    H122806   2.946   0.136   3.869 -0.4777 -0.3094 -0.6920
 7614TIP3    H222807   3.086   0.190   3.883 -0.9131  0.4446  0.9381
 7615TIP3   OH222808   4.438   3.469   3.815  0.1377 -0.4860 -0.6200
 7615TIP3    H122809   4.416   3.561   3.826 -0.6335 -0.8666  1.7744
 7615TIP3    H222810   4.355   3.427   3.790  0.2077 -0.6638 -0.5594
 7616TIP3   OH222811   5.953   6.637   1.391  0.5438  0.0838 -0.3580
 7616TIP3    H122812   6.023   6.579   1.363 -0.1770 -1.1843  0.3599
 7616TIP3    H222813   5.992   6.725   1.390  3.0906 -0.8254  2.8016
 7617TIP3   OH222814   2.457   2.754   5.074 -0.2010 -0.0545 -0.3927
 7617TIP3    H122815   2.396   2.689   5.040  1.2487 -1.7383  0.1140
 7617TIP3    H222816   2.404   2.808   5.133 -1.3162 -1.1082 -0.3997
 7618TIP3   OH222817   6.976   3.682   1.461 -0.0659  0.2810 -0.0655
 7618TIP3    H122818   7.043   3.739   1.499 -0.1847  1.5501 -1.6574
 7618TIP3    H222819   7.026   3.614   1.414  0.0887  0.3309  0.0275
 7619TIP3   OH222820   1.213   6.296   3.947 -0.2001 -0.3023 -0.4767
 7619TIP3    H122821   1.248   6.231   4.008  1.7027  0.8327 -0.2805
 7619TIP3    H222822   1.219   6.255   3.861  1.7878 -0.1489 -0.4643
 7620TIP3   OH222823   6.465   5.556   0.077  0.2738  0.0144 -0.1549
 7620TIP3    H122824   6.468   5.464   0.103  2.3727  0.5445  1.8057
 7620TIP3    H222825   6.409   5.598   0.142  0.4535  0.3520 -0.2162
 7621TIP3   OH222826   4.746   1.673   4.944 -0.3466 -0.5400 -0.9881
 7621TIP3    H122827   4.772   1.649   4.855 -1.4586  1.3841 -1.8869
 7621TIP3    H222828   4.828   1.691   4.990  0.2088  3.3282 -3.1179
 7622TIP3   OH222829   2.501   1.105   0.269  0.4115 -0.3795  0.1182
 7622TIP3    H122830   2.562   1.167   0.229  0.7972 -0.7099  0.1900
 7622TIP3    H222831   2.554   1.055   0.330 -0.0128 -0.4142  0.4648
 7623TIP3   OH222832   0.815   1.277   5.762 -0.2352  0.0504  0.2787
 7623TIP3    H122833   0.897   1.322   5.742 -1.1146  1.9775  0.7591
 7623TIP3    H222834   0.813   1.273   5.858 -1.4369  1.5197  0.3374
 7624TIP3   OH222835   1.684   6.183   4.169 -0.0591 -0.1341 -0.4650
 7624TIP3    H122836   1.697   6.272   4.204  0.3266 -0.9356  1.5393
 7624TIP3    H222837   1.668   6.197   4.076  0.6018  2.0023 -0.3228
 7625TIP3   OH222838   6.676   4.907   1.986 -0.4733  0.4947  0.1005
 7625TIP3    H122839   6.623   4.947   2.056 -2.2952  0.5345 -1.2134
 7625TIP3    H222840   6.621   4.836   1.952  1.2944 -0.9335  0.1222
 7626TIP3   OH222841   2.853   4.717   0.071 -0.7922  0.3311  0.2901
 7626TIP3    H122842   2.801   4.787   0.030 -1.5940 -0.6974 -0.5139
 7626TIP3    H222843   2.883   4.755   0.153  1.9755  2.9785 -1.7255
 7627TIP3   OH222844   4.898   4.418   3.063 -0.1525 -0.2809 -0.4545
 7627TIP3    H122845   4.976   4.382   3.105 -1.0940 -1.0404  0.7015
 7627TIP3    H222846   4.832   4.349   3.069 -0.8747  0.2670 -1.5843
 7628TIP3   OH222847   4.437   1.260   2.345 -0.4704  0.3810  0.0141
 7628TIP3    H122848   4.425   1.314   2.423  0.3274  1.1074 -0.3443
 7628TIP3    H222849   4.410   1.172   2.371  0.6240  0.4299  1.3656
 7629TIP3   OH222850   4.702   4.985   1.669  0.1655  0.0039  0.5519
 7629TIP3    H122851   4.639   5.024   1.730  0.4524  0.3576  0.6242
 7629TIP3    H222852   4.740   4.912   1.718  0.4741  0.3554  0.8329
 7630TIP3   OH222853   3.370   4.001   0.013  0.5702  0.0629 -0.3937
 7630TIP3    H122854   3.314   3.986   0.089 -0.0812 -0.2557 -0.9248
 7630TIP3    H222855   3.455   4.023   0.050  0.5628 -1.2230  0.4278
 7631TIP3   OH222856   2.268   6.594   5.459 -0.0758 -0.0129  0.2883
 7631TIP3    H122857   2.178   6.589   5.426  0.5263 -0.7004 -1.3753
 7631TIP3    H222858   2.278   6.684   5.489 -0.6605  0.7099 -1.5805
 7632TIP3   OH222859   3.822   5.587   2.531  0.1297  0.4732  0.1857
 7632TIP3    H122860   3.845   5.675   2.561  1.7480  0.2401 -0.3166
 7632TIP3    H222861   3.905   5.541   2.523 -0.6962 -1.1908  0.6377
 7633TIP3   OH222862   1.650   0.818   4.996  0.1442 -0.1599  0.2154
 7633TIP3    H122863   1.602   0.741   5.028  0.0394 -0.2853 -0.2354
 7633TIP3    H222864   1.583   0.887   4.990  0.6066  0.6278  2.6789
 7634TIP3   OH222865   4.842   1.697   1.473  0.2473 -0.1396  0.0012
 7634TIP3    H122866   4.834   1.667   1.564 -0.9862  1.3237  0.4135
 7634TIP3    H222867   4.791   1.634   1.423  0.0467 -0.3523  0.4626
 7635TIP3   OH222868   5.587   2.071   1.257 -0.1690 -0.4632 -1.5088
 7635TIP3    H122869   5.573   2.013   1.332  1.4362  1.9362  0.8161
 7635TIP3    H222870   5.501   2.110   1.240 -0.2186  0.4179  0.4683
 7636TIP3   OH222871   6.230   3.492   5.226 -0.5944 -0.0133 -0.4237
 7636TIP3    H122872   6.231   3.585   5.251  1.0778  0.4587 -2.0287
 7636TIP3    H222873   6.159   3.486   5.162  1.1014  0.8747 -2.5138
 7637TIP3   OH222874   5.896   1.855   2.528 -0.3704  0.3067  0.8345
 7637TIP3    H122875   5.803   1.858   2.503 -0.4016  0.0868  0.9303
 7637TIP3    H222876   5.896   1.853   2.623 -0.2637  0.3645  0.8365
 7638TIP3   OH222877   0.248   0.313   2.563 -0.1124 -0.3074  0.4067
 7638TIP3    H122878   0.240   0.265   2.646 -0.1697 -0.3354  0.3847
 7638TIP3    H222879   0.191   0.389   2.574  0.9442  0.4277  0.9297
 7639TIP3   OH222880   0.939   0.328   2.722  0.3028  0.1323  0.0343
 7639TIP3    H122881   0.953   0.416   2.758 -1.9421  0.8365 -0.6391
 7639TIP3    H222882   0.881   0.342   2.647 -0.2866 -1.9549  0.0393
 7640TIP3   OH222883   5.329   1.195   1.455  0.1669 -0.2741 -0.1113
 7640TIP3    H122884   5.281   1.161   1.379  2.2815 -1.7599 -0.8782
 7640TIP3    H222885   5.296   1.145   1.529 -1.4884  0.7727 -0.0841
 7641TIP3   OH222886   0.303   5.053   0.562  0.1073 -0.2195 -0.1610
 7641TIP3    H122887   0.323   5.136   0.604 -0.7666  0.9753 -1.9858
 7641TIP3    H222888   0.207   5.053   0.553  0.1669 -1.0503 -0.9129
 7642TIP3   OH222889   1.281   1.360   3.895 -0.2871 -0.1375  0.4663
 7642TIP3    H122890   1.238   1.446   3.899  1.2250  0.6135  1.3226
 7642TIP3    H222891   1.241   1.311   3.967  1.3129  1.0916  2.2767
 7643TIP3   OH222892   7.055   3.088   2.349 -0.4784 -0.1212  0.1110
 7643TIP3    H122893   7.020   3.177   2.338 -0.8780  0.1576  2.8827
 7643TIP3    H222894   7.126   3.082   2.285 -0.2903  2.2801 -0.0070
 7644TIP3   OH222895   2.570   2.577   3.714  0.2436  0.6894  0.5045
 7644TIP3    H122896   2.594   2.539   3.629 -0.0288 -0.0774  0.7629
 7644TIP3    H222897   2.650   2.618   3.745  0.5008  0.4787  0.1329
 7645TIP3   OH222898   4.257   6.745   0.608  0.0680 -0.6336  0.6677
 7645TIP3    H122899   4.269   6.671   0.548 -0.7683 -0.4193  0.2212
 7645TIP3    H222900   4.344   6.760   0.644  0.8741 -0.0809 -1.3336
 7646TIP3   OH222901   0.239   3.308   4.389 -0.3318  0.1273  0.0854
 7646TIP3    H122902   0.237   3.403   4.398  0.1383  0.4059 -2.1831
 7646TIP3    H222903   0.287   3.293   4.307 -0.7536 -2.0423  0.1920
 7647TIP3   OH222904   2.614   0.036   5.446 -0.1729  0.1980  0.1905
 7647TIP3    H122905   2.635   0.083   5.365 -1.1521  1.9585  0.8802
 7647TIP3    H222906   2.535   0.080   5.478 -0.3173 -1.0532  1.6439
 7648TIP3   OH222907   0.990   1.718   5.753  0.0800  0.3609  0.0812
 7648TIP3    H122908   0.911   1.770   5.758 -0.8969 -0.9231 -1.0979
 7648TIP3    H222909   0.974   1.656   5.682  1.6317 -0.7855  0.6511
 7649TIP3   OH222910   6.089   6.537   4.469  0.5419 -0.0602 -0.0846
 7649TIP3    H122911   6.111   6.629   4.457 -0.2884  0.1063 -0.4234
 7649TIP3    H222912   6.142   6.491   4.404  1.1163  0.1572  0.2289
 7650TIP3   OH222913   5.510   0.754   0.757 -0.5521  0.0441 -0.0496
 7650TIP3    H122914   5.588   0.801   0.726 -1.0761  0.5495 -0.6114
 7650TIP3    H222915   5.436   0.804   0.723 -1.1308 -1.2515 -0.7887
 7651TIP3   OH222916   7.044   3.279   3.183 -0.2232 -0.2270  0.2352
 7651TIP3    H122917   7.098   3.202   3.198 -1.7653 -1.0044  2.1489
 7651TIP3    H222918   6.954   3.246   3.183 -0.9194  1.5499  1.0747
 7652TIP3   OH222919   6.627   5.438   4.835 -0.8767  0.1662 -0.0958
 7652TIP3    H122920   6.692   5.506   4.853 -0.3974 -0.0015 -1.1216
 7652TIP3    H222921   6.553   5.461   4.891 -0.1896  0.7359  0.6014
 7653TIP3   OH222922   4.453   1.227   3.379 -0.4243  0.0468 -0.5067
 7653TIP3    H122923   4.495   1.313   3.389 -0.9923  0.2797 -0.0940
 7653TIP3    H222924   4.392   1.221   3.452 -2.4681  0.4951 -2.0902
 7654TIP3   OH222925   3.961   6.702   1.142  0.3613 -0.4397  0.3278
 7654TIP3    H122926   3.917   6.786   1.155  0.3041 -0.6335  1.4822
 7654TIP3    H222927   3.945   6.680   1.050  0.0535  0.6245  0.1199
 7655TIP3   OH222928   5.805   2.032   4.929  0.0770 -0.0564  0.2844
 7655TIP3    H122929   5.885   2.023   4.980 -0.5114  0.2090  1.2850
 7655TIP3    H222930   5.742   2.071   4.990 -1.3968 -2.0160  0.1157
 7656TIP3   OH222931   0.760   3.947   3.345 -1.1047  0.1371 -0.2728
 7656TIP3    H122932   0.772   3.870   3.401  1.4623  0.7420  0.1253
 7656TIP3    H222933   0.736   4.017   3.406  1.0946  0.6548  0.0745
 7657TIP3   OH222934   0.148   0.268   4.914 -0.2048  0.0481  0.0097
 7657TIP3    H122935   0.063   0.312   4.905 -0.9328 -1.6529 -2.5563
 7657TIP3    H222936   0.206   0.317   4.856  0.0340 -0.0069  0.1996
 7658TIP3   OH222937   2.393   6.133   4.217 -0.1319 -0.1329 -0.8050
 7658TIP3    H122938   2.392   6.201   4.284  0.3496  1.3280 -2.2154
 7658TIP3    H222939   2.358   6.055   4.261  0.4747  0.6678  1.2100
 7659TIP3   OH222940   6.770   4.327   4.750 -0.3402 -0.5015  0.3762
 7659TIP3    H122941   6.700   4.382   4.785 -0.3074  0.0231 -0.3721
 7659TIP3    H222942   6.849   4.356   4.796 -0.4239 -0.3360  0.4171
 7660TIP3   OH222943   5.936   2.259   3.744 -0.0095 -0.1675 -0.5935
 7660TIP3    H122944   5.937   2.164   3.735  0.9269 -0.1271 -0.9940
 7660TIP3    H222945   5.947   2.274   3.838 -1.4467 -0.4638 -0.3658
 7661TIP3   OH222946   4.913   1.958   1.422  0.2249 -0.4751 -0.1553
 7661TIP3    H122947   4.896   1.864   1.415  0.5473 -0.6074  0.7061
 7661TIP3    H222948   4.906   1.977   1.516  2.9698 -0.2090  0.0907
 7662TIP3   OH222949   1.539  -0.026   1.207 -0.0456  0.9662  0.0572
 7662TIP3    H122950   1.502   0.048   1.254  1.1781  0.9795  1.0385
 7662TIP3    H222951   1.632  -0.005   1.197  0.0994  0.0699 -0.6507
 7663TIP3   OH222952   4.993   2.189   4.420  0.1825  0.0388 -0.2969
 7663TIP3    H122953   5.066   2.127   4.410 -0.5303 -0.7211 -1.0369
 7663TIP3    H222954   4.925   2.139   4.465  0.1833  0.8011  0.5603
 7664TIP3   OH222955   1.305   3.432   0.263  0.6117  0.2850 -0.5242
 7664TIP3    H122956   1.373   3.387   0.213  1.6978 -1.6642  2.4258
 7664TIP3    H222957   1.225   3.382   0.246  1.1780 -0.9654  0.3883
 7665TIP3   OH222958   6.475   4.327   3.549  0.3868  0.7949 -0.4880
 7665TIP3    H122959   6.456   4.409   3.594 -1.0989  0.0202  0.3971
 7665TIP3    H222960   6.395   4.308   3.500  1.3712  0.7613 -2.1239
 7666TIP3   OH222961   6.169   2.370   0.060  0.2734 -0.2022  0.0780
 7666TIP3    H122962   6.219   2.345  -0.018  0.3398  0.4979 -0.1159
 7666TIP3    H222963   6.107   2.298   0.074  1.1723 -0.9641  0.1818
 7667TIP3   OH222964   6.747   2.399   5.357 -0.5100 -0.0499 -0.2352
 7667TIP3    H122965   6.657   2.392   5.327 -0.6452 -0.2904  0.2165
 7667TIP3    H222966   6.776   2.308   5.368 -0.3105  0.0289 -0.0964
 7668TIP3   OH222967   1.231   3.483   1.058  0.1927  0.0876  0.0359
 7668TIP3    H122968   1.178   3.403   1.062  0.2146  0.0814  0.2552
 7668TIP3    H222969   1.171   3.551   1.029  0.6658 -0.4168 -2.2799
 7669TIP3   OH222970   7.084   4.783   5.732  0.1591 -0.1137 -0.4667
 7669TIP3    H122971   7.033   4.826   5.801  1.6335  0.2023  0.4743
 7669TIP3    H222972   7.104   4.696   5.768  1.2214  0.1739 -0.3171
 7670TIP3   OH222973   1.958   5.300   4.708  0.1067  0.2991  0.1776
 7670TIP3    H122974   1.886   5.290   4.771  0.4359 -1.1861  0.3685
 7670TIP3    H222975   1.998   5.384   4.730  0.1365 -0.1306  1.8877
 7671TIP3   OH222976   6.935   1.508   3.564 -0.0148 -0.4228  0.4293
 7671TIP3    H122977   6.929   1.418   3.533  2.9916 -0.3040 -0.8684
 7671TIP3    H222978   6.911   1.561   3.488 -0.3496 -0.1229  0.7434
 7672TIP3   OH222979   3.121   2.829   3.179  0.3523  0.4564  0.4697
 7672TIP3    H122980   3.039   2.844   3.225  0.1378 -1.0583  0.6258
 7672TIP3    H222981   3.171   2.910   3.192 -0.4662  0.7886  1.7333
 7673TIP3   OH222982   6.932   0.940   5.177  0.2148  0.3441 -0.2717
 7673TIP3    H122983   6.954   0.875   5.110  0.3014  0.6498 -0.5432
 7673TIP3    H222984   6.977   0.908   5.255  0.9380  0.5024 -0.6085
 7674TIP3   OH222985   3.299   5.111   2.291 -0.2407 -0.0163 -0.1587
 7674TIP3    H122986   3.366   5.077   2.232 -1.1356 -1.1349 -0.5763
 7674TIP3    H222987   3.344   5.126   2.374  0.6110 -0.3232 -0.5601
 7675TIP3   OH222988   3.518   5.925   2.824  0.5986 -0.2054 -0.1858
 7675TIP3    H122989   3.482   5.859   2.884 -0.6197  1.2754  0.7932
 7675TIP3    H222990   3.467   5.913   2.744 -0.3034  0.1401  0.3135
 7676TIP3   OH222991   5.576   4.096   5.605 -0.4603 -0.0363  0.0120
 7676TIP3    H122992   5.509   4.155   5.640 -0.9111 -0.3232 -0.3640
 7676TIP3    H222993   5.633   4.078   5.680  0.4168  1.8440 -0.1407
 7677TIP3   OH222994   3.514   5.777   5.263  0.2164 -0.2563 -0.3037
 7677TIP3    H122995   3.583   5.715   5.240  0.4101  0.3884 -1.5161
 7677TIP3    H222996   3.521   5.786   5.358  0.7518 -1.4073 -0.2169
 7678TIP3   OH222997   3.396   0.642   0.051  0.2603  0.3060 -0.1564
 7678TIP3    H122998   3.313   0.594   0.042  0.3562  0.3821 -1.7188
 7678TIP3    H222999   3.373   0.733   0.031  0.6622  0.3805 -0.2837
 7679TIP3   OH223000   5.842   1.170   1.622 -0.0931  0.1719 -0.1055
 7679TIP3    H123001   5.775   1.102   1.618 -1.3120  1.3910 -1.9669
 7679TIP3    H223002   5.834   1.207   1.710 -1.2882 -0.2701 -0.0145
 7680TIP3   OH223003   0.401   2.394   4.041  0.0953  0.1121  0.0414
 7680TIP3    H123004   0.375   2.324   3.980 -0.4585 -1.4873  1.9990
 7680TIP3    H223005   0.334   2.392   4.109  1.7281  0.4966  1.7214
 7681TIP3   OH223006   2.431   3.891   0.741  0.4994  0.2605 -0.0289
 7681TIP3    H123007   2.355   3.928   0.696 -1.1677 -0.3082  2.1388
 7681TIP3    H223008   2.464   3.962   0.795  1.7843  0.6010 -1.1941
 7682TIP3   OH223009   2.581   3.008   1.041  0.1328  0.2450  0.0887
 7682TIP3    H123010   2.653   3.067   1.061 -0.2339  0.3905  1.0320
 7682TIP3    H223011   2.623   2.932   1.000  0.8352  0.2781  0.7213
 7683TIP3   OH223012   2.869   6.693   1.022 -0.0355 -0.0595 -0.6396
 7683TIP3    H123013   2.800   6.675   0.958 -0.2394 -0.1812 -0.3924
 7683TIP3    H223014   2.948   6.656   0.984  0.2480  1.5792 -1.7014
 7684TIP3   OH223015   2.604   5.067   3.675 -0.0625  0.3048  1.1849
 7684TIP3    H123016   2.642   5.052   3.589 -1.7343 -0.8190  0.5941
 7684TIP3    H223017   2.675   5.046   3.736  0.9085  0.3648  0.1126
 7685TIP3   OH223018   7.164   5.637   1.357 -0.5851 -0.6540  0.0513
 7685TIP3    H123019   7.095   5.592   1.309 -1.1460  0.0857  0.1552
 7685TIP3    H223020   7.118   5.689   1.423  0.0116  0.3792 -0.3205
 7686TIP3   OH223021   5.083   3.297   3.971 -0.4248  0.0263 -0.1078
 7686TIP3    H123022   5.017   3.347   3.922 -0.4778  1.8256  1.6637
 7686TIP3    H223023   5.166   3.339   3.949 -0.0562 -1.1043 -0.9564
 7687TIP3   OH223024   5.871   5.994   3.692 -0.0662 -0.8281 -0.7530
 7687TIP3    H123025   5.895   6.020   3.781 -1.9639  0.3102 -0.5279
 7687TIP3    H223026   5.950   6.008   3.641  1.1029 -1.6129  0.7447
 7688TIP3   OH223027   6.923   0.584   0.997  0.1229 -0.0732  0.0010
 7688TIP3    H123028   6.979   0.566   0.922  2.7334  4.3483  0.5315
 7688TIP3    H223029   6.841   0.615   0.959  0.5153 -0.2160 -0.9752
 7689TIP3   OH223030   4.571   5.386   1.386 -0.6184 -0.6554  0.1492
 7689TIP3    H123031   4.556   5.457   1.449  1.5602  0.9828 -1.0337
 7689TIP3    H223032   4.484   5.363   1.354 -1.5345  0.2244  1.8647
 7690TIP3   OH223033   1.898   6.288   0.714 -0.0258 -0.1783  0.3190
 7690TIP3    H123034   1.904   6.215   0.652  2.6706  0.8678 -0.7853
 7690TIP3    H223035   1.974   6.278   0.771 -0.8537  0.5473  1.5970
 7691TIP3   OH223036   0.806   2.977   2.875  0.0976  0.0797  0.3262
 7691TIP3    H123037   0.757   3.045   2.827 -0.4155 -0.6736 -0.2360
 7691TIP3    H223038   0.890   3.018   2.895 -0.5025  1.1739  0.7224
 7692TIP3   OH223039   5.792   1.458   0.398 -0.6405  0.0743  0.4903
 7692TIP3    H123040   5.712   1.430   0.353 -0.3016 -0.5827  0.2728
 7692TIP3    H223041   5.801   1.551   0.377 -0.1053 -0.3749 -1.4226
 7693TIP3   OH223042   3.687   3.943   3.101 -0.1775  0.0900  0.3173
 7693TIP3    H123043   3.665   4.028   3.063 -2.7953 -0.9723 -0.8086
 7693TIP3    H223044   3.779   3.951   3.127  1.2318  1.7096 -4.1860
 7694TIP3   OH223045   6.729   3.531   0.138 -0.1071  0.4235 -0.9217
 7694TIP3    H123046   6.753   3.587   0.064  0.1568 -0.5569 -1.6091
 7694TIP3    H223047   6.732   3.588   0.214  2.3987  0.8610 -1.2610
 7695TIP3   OH223048   0.275   0.670   4.396 -0.2468 -0.5182  0.0135
 7695TIP3    H123049   0.298   0.595   4.451  1.1545 -1.4550 -1.7582
 7695TIP3    H223050   0.208   0.636   4.336 -2.5565  0.7764  1.7102
 7696TIP3   OH223051   5.431   4.623   4.611  0.3118  0.3104 -0.3503
 7696TIP3    H123052   5.385   4.663   4.685 -0.8414  0.2849 -1.0416
 7696TIP3    H223053   5.490   4.560   4.652  0.9410  1.4922  0.6491
 7697TIP3   OH223054   6.221   6.112   3.866  0.1041  0.2000  0.1459
 7697TIP3    H123055   6.176   6.121   3.782 -1.3270  1.1474  0.9627
 7697TIP3    H223056   6.301   6.162   3.857  0.5078 -0.6160 -1.0025
 7698TIP3   OH223057   2.519   6.451   1.826 -0.5011  0.0954 -0.7705
 7698TIP3    H123058   2.472   6.372   1.799 -0.5820 -0.2909  0.4078
 7698TIP3    H223059   2.463   6.489   1.895  1.1258 -0.6841  1.0845
 7699TIP3   OH223060   1.519   2.623   5.838  0.2594  0.0241 -0.1790
 7699TIP3    H123061   1.601   2.598   5.794 -1.6268  0.8981 -4.7661
 7699TIP3    H223062   1.462   2.548   5.828 -1.0273  1.1327 -1.6514
 7700TIP3   OH223063   0.978   0.898   0.202  0.2209  0.0841  0.1507
 7700TIP3    H123064   1.027   0.817   0.210  0.2449  0.2717  2.2919
 7700TIP3    H223065   0.942   0.896   0.113  1.5954 -1.4611 -0.3959
 7701TIP3   OH223066   1.190   1.401   4.996 -0.4214 -0.5616  0.6923
 7701TIP3    H123067   1.145   1.400   5.081 -1.4384 -1.2168  0.1727
 7701TIP3    H223068   1.129   1.444   4.937 -0.1173 -0.9447  0.0901
 7702TIP3   OH223069   3.071   2.819   5.677  0.5547 -0.9684  0.6344
 7702TIP3    H123070   3.004   2.819   5.745  1.5896 -0.1847  1.6927
 7702TIP3    H223071   3.108   2.731   5.680 -0.2022 -1.3206  0.2256
 7703TIP3   OH223072   2.758   5.524   4.186 -0.2650 -0.3752  0.1977
 7703TIP3    H123073   2.686   5.523   4.124  0.6230  2.1690 -1.0232
 7703TIP3    H223074   2.837   5.521   4.132  0.5312  0.9074  1.2245
 7704TIP3   OH223075   1.673   0.598   1.279  0.3039  0.4025  0.4471
 7704TIP3    H123076   1.711   0.680   1.310  0.6302 -0.3084  2.0103
 7704TIP3    H223077   1.677   0.604   1.184  0.0079  2.3404  0.5092
 7705TIP3   OH223078   1.861   3.359   4.107 -0.2683  0.2440  0.4043
 7705TIP3    H123079   1.888   3.272   4.136 -0.6204  0.4545  1.4204
 7705TIP3    H223080   1.936   3.415   4.128  0.9447 -0.1586 -2.4265
 7706TIP3   OH223081   6.151   6.666   2.666 -0.1287 -0.7456 -0.3959
 7706TIP3    H123082   6.060   6.668   2.634  0.0964 -0.0611 -1.0437
 7706TIP3    H223083   6.145   6.696   2.756 -0.4372  0.4434 -0.7833
 7707TIP3   OH223084   2.542   4.805   2.110  0.0377  0.1192 -0.4481
 7707TIP3    H123085   2.524   4.764   2.195  0.3001 -2.2214 -1.4659
 7707TIP3    H223086   2.604   4.747   2.067 -0.3920  1.0338 -2.4224
 7708TIP3   OH223087   2.093   5.962   0.464  0.1229 -0.3456 -0.9020
 7708TIP3    H123088   2.167   5.921   0.508  1.1711  1.0638 -1.2886
 7708TIP3    H223089   2.017   5.935   0.515  1.1551  0.2547  1.0409
 7709TIP3   OH223090   2.172   0.802   5.561  1.1836 -0.5446 -0.2797
 7709TIP3    H123091   2.195   0.796   5.468  0.5187  0.5258 -0.5377
 7709TIP3    H223092   2.080   0.828   5.561  0.8914 -1.5056  0.6981
 7710TIP3   OH223093   6.513   2.070   4.372  0.6947 -0.2608 -0.4333
 7710TIP3    H123094   6.455   1.998   4.395  0.9758 -0.8566 -1.5214
 7710TIP3    H223095   6.569   2.081   4.448 -0.7264  0.2192  0.5719
 7711TIP3   OH223096   6.040   3.382   5.059 -0.3249 -0.5440 -0.1521
 7711TIP3    H123097   6.092   3.304   5.037 -0.9689 -0.2144 -3.3868
 7711TIP3    H223098   6.000   3.408   4.976 -0.1215  3.2724  0.7410
 7712TIP3   OH223099   5.949   3.255   2.341 -0.0541  0.3336  0.3811
 7712TIP3    H123100   6.001   3.212   2.272 -1.5676 -0.1428 -0.5000
 7712TIP3    H223101   5.932   3.185   2.405  0.3175  0.4707  0.6312
 7713TIP3   OH223102   2.345   4.605   1.682  0.3457 -0.1146  0.3759
 7713TIP3    H123103   2.274   4.627   1.743  0.4236  1.6109 -0.1135
 7713TIP3    H223104   2.314   4.526   1.637 -0.2819 -0.6596  1.6991
 7714TIP3   OH223105   6.836   0.642   1.260  0.4223  0.1781  0.1974
 7714TIP3    H123106   6.866   0.617   1.173  0.3741 -2.0560  0.7579
 7714TIP3    H223107   6.911   0.686   1.300  1.0877 -0.4485 -0.3288
 7715TIP3   OH223108   5.759   4.786   5.061 -0.2360 -0.1568  0.6979
 7715TIP3    H123109   5.714   4.865   5.090 -2.5168 -1.2166  0.2529
 7715TIP3    H223110   5.780   4.802   4.969 -1.0503 -0.2076  0.5004
 7716TIP3   OH223111   3.249   5.792   2.754 -0.2131  0.0459  0.2493
 7716TIP3    H123112   3.200   5.735   2.695  0.5477 -2.3832  1.7830
 7716TIP3    H223113   3.190   5.804   2.829 -0.4727  1.5795 -0.1773
 7717TIP3   OH223114   5.243   3.349   5.430  0.2628  0.9585  0.2701
 7717TIP3    H123115   5.241   3.383   5.341  0.5977 -3.9110 -1.9122
 7717TIP3    H223116   5.317   3.289   5.432 -0.7039 -0.3632  3.3238
 7718TIP3   OH223117   6.546   4.254   4.460  0.5763 -0.4172  0.2469
 7718TIP3    H123118   6.619   4.316   4.460 -1.3036  1.9382  0.8880
 7718TIP3    H223119   6.563   4.197   4.535  1.9681 -0.2292  0.1045
 7719TIP3   OH223120   5.660   3.450   0.693  0.0018 -0.2296  0.1871
 7719TIP3    H123121   5.671   3.402   0.775 -0.1318 -1.2584 -0.3708
 7719TIP3    H223122   5.736   3.508   0.689 -0.0268 -0.1187  1.0636
 7720TIP3   OH223123   1.473   4.915   4.474 -0.4476 -0.2765  0.2223
 7720TIP3    H123124   1.397   4.884   4.424 -0.8653 -0.7648  1.1324
 7720TIP3    H223125   1.536   4.943   4.407 -0.6050 -1.8106 -0.6259
 7721TIP3   OH223126   5.785   6.303   1.613  0.4589 -0.4327 -0.4375
 7721TIP3    H123127   5.777   6.208   1.624 -0.3616 -0.6614 -2.6073
 7721TIP3    H223128   5.868   6.316   1.568  0.8170 -0.0541  0.3096
 7722TIP3   OH223129   6.087   1.127   0.111  0.4189  0.1173 -0.2708
 7722TIP3    H123130   6.053   1.184   0.181  0.0755 -0.5572  0.1222
 7722TIP3    H223131   6.104   1.044   0.154  1.8906  0.2083 -0.6296
 7723TIP3   OH223132   6.012   0.572   2.963 -0.1040 -0.0595 -0.0240
 7723TIP3    H123133   6.071   0.498   2.949 -0.3602 -0.0659 -1.1077
 7723TIP3    H223134   5.927   0.540   2.935 -0.2846  0.5292 -0.1458
 7724TIP3   OH223135   3.265   2.763   1.843  0.4443  0.1567  0.7851
 7724TIP3    H123136   3.315   2.687   1.874  0.9718  1.2883  2.8821
 7724TIP3    H223137   3.241   2.810   1.923 -3.4323  0.0639 -0.1235
 7725TIP3   OH223138   1.102   3.860   1.600  0.0834  0.0783  0.4539
 7725TIP3    H123139   1.177   3.851   1.659  1.4146 -0.5123 -1.2183
 7725TIP3    H223140   1.139   3.899   1.521 -1.7845  1.5243  0.2471
 7726TIP3   OH223141   6.234   5.162   5.125  0.9105 -0.1546 -0.1595
 7726TIP3    H123142   6.219   5.229   5.191  1.9489  0.6287 -0.7042
 7726TIP3    H223143   6.167   5.096   5.144 -0.0363  0.9400  0.4781
 7727TIP3   OH223144   4.943   2.921   2.189 -0.3641  0.1746 -0.0101
 7727TIP3    H123145   4.887   2.880   2.255  1.1302  1.9396  2.4974
 7727TIP3    H223146   4.992   2.849   2.150 -1.5494 -0.9490  0.5270
 7728TIP3   OH223147   1.460   1.553   4.432 -0.3623 -0.5895 -0.5773
 7728TIP3    H123148   1.387   1.492   4.436 -0.8217 -0.0960 -1.2094
 7728TIP3    H223149   1.474   1.580   4.523  1.2914 -3.2501  0.0774
 7729TIP3   OH223150   1.892   3.946   3.311 -0.2906 -0.4559 -0.0760
 7729TIP3    H123151   1.866   3.960   3.220  0.1945  0.7544 -0.0404
 7729TIP3    H223152   1.824   3.990   3.363 -0.6829 -1.3217  0.1740
 7730TIP3   OH223153   2.557   3.963   3.749  0.1052  0.9068 -0.2195
 7730TIP3    H123154   2.643   3.985   3.712  0.2996  2.2159  0.9300
 7730TIP3    H223155   2.566   3.983   3.842 -0.4732 -1.9775  0.5255
 7731TIP3   OH223156   3.292   5.619   1.742 -0.4979 -0.0148  0.2770
 7731TIP3    H123157   3.329   5.531   1.751 -2.8697 -0.8916  2.8590
 7731TIP3    H223158   3.246   5.617   1.659 -0.9950 -1.4418  0.5624
 7732TIP3   OH223159   5.795   0.094   4.499  0.8125 -0.3802  0.7249
 7732TIP3    H123160   5.753   0.127   4.578 -0.7285 -1.6793  0.5062
 7732TIP3    H223161   5.730   0.106   4.430  2.6355  2.0570 -0.7459
 7733TIP3   OH223162   0.666   2.315   1.285 -0.0070 -0.2533  0.4015
 7733TIP3    H123163   0.656   2.336   1.377  1.3717  1.2594  0.2378
 7733TIP3    H223164   0.759   2.327   1.267 -0.1306 -1.1673 -1.0506
 7734TIP3   OH223165   4.592   3.634   2.948 -0.5132  0.2656  0.3342
 7734TIP3    H123166   4.497   3.629   2.939 -0.3597  0.4822 -1.7814
 7734TIP3    H223167   4.606   3.696   3.019 -1.9348 -0.8690  1.6748
 7735TIP3   OH223168   4.798   5.386   1.600  0.0287 -0.1764  0.2154
 7735TIP3    H123169   4.742   5.390   1.523  1.5360 -0.1644 -0.9420
 7735TIP3    H223170   4.814   5.477   1.623 -0.0935 -0.1738  0.2891
 7736TIP3   OH223171   0.492   2.377   2.317  0.0921 -0.3987 -0.5801
 7736TIP3    H123172   0.511   2.470   2.303  0.1986  0.3089  3.2768
 7736TIP3    H223173   0.516   2.335   2.234  0.5170  2.8897 -2.2963
 7737TIP3   OH223174   6.950   5.580   0.669 -0.2990 -0.1994 -0.0557
 7737TIP3    H123175   7.023   5.609   0.725  2.4457 -3.1202 -1.7368
 7737TIP3    H223176   6.888   5.541   0.730 -0.3178  1.9514  1.4092
 7738TIP3   OH223177   4.067   2.520   2.110 -0.0029  0.4181 -0.2502
 7738TIP3    H123178   4.040   2.438   2.151 -1.1071  0.9965  0.2245
 7738TIP3    H223179   4.099   2.494   2.024 -0.1593 -0.5299 -0.0382
 7739TIP3   OH223180   5.651   6.155   5.100 -0.2342 -0.1296 -0.1875
 7739TIP3    H123181   5.725   6.200   5.142 -0.7176  2.0401 -1.4960
 7739TIP3    H223182   5.672   6.158   5.007 -0.9746 -1.4268 -0.4055
 7740TIP3   OH223183   2.205   0.410   0.883  0.4612  0.5029  0.3709
 7740TIP3    H123184   2.145   0.361   0.827 -0.5637  1.6363  0.4529
 7740TIP3    H223185   2.221   0.352   0.957 -1.7206  0.7275  1.0826
 7741TIP3   OH223186   3.236   6.341   4.828 -0.2860  0.0160 -0.3314
 7741TIP3    H123187   3.238   6.248   4.804  1.4354 -0.0724  0.0191
 7741TIP3    H223188   3.284   6.385   4.758  1.0338  0.2961  0.7097
 7742TIP3   OH223189   2.682   2.246   1.450 -0.3111  0.2594 -0.0240
 7742TIP3    H123190   2.651   2.220   1.537  1.0594 -0.4965  0.2765
 7742TIP3    H223191   2.605   2.238   1.394 -0.9293 -0.4753  0.8816
 7743TIP3   OH223192   0.402   4.975   0.082  0.1908  0.0100 -0.3354
 7743TIP3    H123193   0.421   4.882   0.088  0.0886  0.0580  1.1258
 7743TIP3    H223194   0.457   5.006   0.010  0.5340 -1.1030 -0.5675
 7744TIP3   OH223195   1.430   0.712   5.170 -0.7718  0.2220 -0.1794
 7744TIP3    H123196   1.356   0.652   5.175 -2.3220  1.8520 -1.9127
 7744TIP3    H223197   1.405   0.776   5.103  0.7421  2.8218  1.5323
 7745TIP3   OH223198   1.280   2.728   5.559  0.3207  0.7721  0.2114
 7745TIP3    H123199   1.353   2.787   5.575  0.9044  0.3655 -0.8685
 7745TIP3    H223200   1.225   2.737   5.637  1.0675  1.7321  0.6563
 7746TIP3   OH223201   0.179   4.693   0.237  0.2171  0.6686 -0.0116
 7746TIP3    H123202   0.235   4.768   0.259 -0.4128  0.9747  0.6000
 7746TIP3    H223203   0.203   4.626   0.301 -0.0492  0.7733  0.2021
 7747TIP3   OH223204   3.477   0.461   5.053 -0.0551  0.1668  0.0318
 7747TIP3    H123205   3.530   0.383   5.070  2.8568  1.9778 -0.0138
 7747TIP3    H223206   3.453   0.454   4.960 -0.4792 -0.9936  0.2111
 7748TIP3   OH223207   3.209   2.303   3.714  0.5104  0.0936  0.3479
 7748TIP3    H123208   3.283   2.244   3.701  0.1758 -0.3020  0.2301
 7748TIP3    H223209   3.137   2.246   3.741 -0.4498  0.1227 -1.9329
 7749TIP3   OH223210   3.630   4.129   1.166 -0.2182 -0.1336 -0.7753
 7749TIP3    H123211   3.625   4.128   1.070 -1.4209 -1.0690 -0.7237
 7749TIP3    H223212   3.602   4.218   1.190 -0.4736 -0.0722 -1.2754
 7750TIP3   OH223213   5.272   5.818   0.711 -0.3746  0.5309  0.4343
 7750TIP3    H123214   5.229   5.777   0.786 -1.3098 -0.1359 -0.4405
 7750TIP3    H223215   5.237   5.907   0.709  0.4864  0.9135  1.4160
 7751TIP3   OH223216   6.014   1.741   1.158 -0.2001 -0.0380  0.2683
 7751TIP3    H123217   6.062   1.782   1.230 -2.3960 -0.5813  2.1436
 7751TIP3    H223218   6.077   1.679   1.120  1.0600  0.3698  1.6000
 7752TIP3   OH223219   3.887   3.987   5.151 -0.0879  0.7436  0.4410
 7752TIP3    H123220   3.805   3.972   5.197  0.6713  2.1223  2.3970
 7752TIP3    H223221   3.919   4.070   5.186  2.2687  0.1266 -0.0516
 7753TIP3   OH223222   6.911   4.842   2.706  0.0200  0.1581 -0.0113
 7753TIP3    H123223   6.928   4.907   2.774 -0.9824 -0.4284  0.8358
 7753TIP3    H223224   6.876   4.767   2.753  0.1339 -0.5910 -1.0920
 7754TIP3   OH223225   6.866   5.479   5.058 -0.1419  0.3335 -0.8307
 7754TIP3    H123226   6.875   5.389   5.027  1.5969  0.0966  0.2523
 7754TIP3    H223227   6.903   5.532   4.988 -1.0796  0.2288 -1.4287
 7755TIP3   OH223228   1.580   5.566   0.910  0.0855  0.1285 -0.0133
 7755TIP3    H123229   1.666   5.568   0.953  0.2238 -2.1712 -0.0709
 7755TIP3    H223230   1.537   5.488   0.946 -1.6469  0.7601 -0.6253
 7756TIP3   OH223231   3.500   4.383   1.153  0.2906  0.0012  0.4301
 7756TIP3    H123232   3.461   4.428   1.228  2.6233 -0.8305  2.2786
 7756TIP3    H223233   3.556   4.449   1.112 -3.2117  1.4174 -2.6567
 7757TIP3   OH223234   4.499   6.453   3.458 -0.0489  0.2334  0.1289
 7757TIP3    H123235   4.441   6.513   3.505 -1.6633 -0.4607 -0.8827
 7757TIP3    H223236   4.504   6.489   3.370 -1.3758 -1.2738 -0.6151
 7758TIP3   OH223237   4.822   3.475   3.256 -0.2491  0.0492 -0.3517
 7758TIP3    H123238   4.840   3.541   3.188  4.6354 -1.0098 -0.5078
 7758TIP3    H223239   4.862   3.511   3.335  2.1458 -2.3435 -0.3449
 7759TIP3   OH223240   6.819   5.510   4.047 -0.3576  0.1786 -0.2048
 7759TIP3    H123241   6.746   5.505   3.985 -0.5425 -0.7505  0.0648
 7759TIP3    H223242   6.836   5.603   4.058 -2.6875  0.5219  1.1060
 7760TIP3   OH223243   3.975   5.596   3.909  0.1732 -0.3450 -0.0118
 7760TIP3    H123244   3.902   5.583   3.969 -0.4383  0.0616 -0.6409
 7760TIP3    H223245   3.956   5.539   3.834  0.7531 -0.6022  0.0308
 7761TIP3   OH223246   0.399   3.069   1.836 -0.2716 -0.0789  0.1806
 7761TIP3    H123247   0.468   3.131   1.815  0.3230 -0.8116 -0.0523
 7761TIP3    H223248   0.348   3.061   1.755 -0.3792  0.1346  0.2254
 7762TIP3   OH223249   1.209   1.328   5.341  0.1446  0.6868  0.0419
 7762TIP3    H123250   1.199   1.423   5.342 -0.7879  0.6312  2.1264
 7762TIP3    H223251   1.126   1.295   5.377  0.5264 -0.9176 -0.4533
 7763TIP3   OH223252   2.354   1.076   5.499  0.6680 -0.0047 -0.1376
 7763TIP3    H123253   2.431   1.033   5.535  1.1701  0.5805 -0.4918
 7763TIP3    H223254   2.298   1.093   5.575  0.6236 -0.9318  0.0538
 7764TIP3   OH223255   7.114   6.537   4.508 -0.3351 -0.0251 -0.1109
 7764TIP3    H123256   7.155   6.481   4.442 -0.0014 -0.4688  0.4671
 7764TIP3    H223257   7.082   6.612   4.458 -1.5667 -1.1108 -1.0298
 7765TIP3   OH223258   2.192   5.547   3.001 -0.1667  0.5931  0.0001
 7765TIP3    H123259   2.139   5.495   2.940  2.5070  0.7535 -2.7253
 7765TIP3    H223260   2.276   5.502   3.003  0.8722  2.4876  0.9923
 7766TIP3   OH223261   4.506   5.625   1.536 -0.1354 -0.5821  0.4032
 7766TIP3    H123262   4.570   5.694   1.550 -0.0508  0.4273 -3.5802
 7766TIP3    H223263   4.422   5.664   1.560  0.2760 -0.3807  1.5432
 7767TIP3   OH223264   6.215   3.985   5.147 -0.0091 -0.2156  0.4813
 7767TIP3    H123265   6.233   3.973   5.053 -0.6916 -0.4862  0.3818
 7767TIP3    H223266   6.257   4.068   5.169 -0.1853  0.0487 -0.1609
 7768TIP3   OH223267   4.662   3.369   0.629 -0.3294 -0.3738  0.1973
 7768TIP3    H123268   4.753   3.361   0.657 -0.1266  0.2633 -0.2546
 7768TIP3    H223269   4.663   3.345   0.536 -0.7389 -0.9832  0.3354
 7769TIP3   OH223270   1.417   0.146   4.734 -0.0670  0.5749 -0.5142
 7769TIP3    H123271   1.470   0.070   4.758 -0.9907  0.4332  1.2119
 7769TIP3    H223272   1.364   0.165   4.812  0.7577  3.5426 -0.5546
 7770TIP3   OH223273   1.962   0.306   1.096 -0.4506  0.4043  0.3738
 7770TIP3    H123274   1.956   0.342   1.185  0.2396  0.1428  0.5384
 7770TIP3    H223275   2.053   0.277   1.089 -1.1257 -2.0077  0.5252
 7771TIP3   OH223276   4.080   1.863   1.021  0.1199 -0.1066 -0.1534
 7771TIP3    H123277   4.072   1.794   0.955  0.4011 -0.3644  0.0828
 7771TIP3    H223278   4.057   1.944   0.973 -0.2572 -0.3626 -0.4161
 7772TIP3   OH223279   2.679   5.621   1.311 -0.4867 -0.9202 -0.3101
 7772TIP3    H123280   2.756   5.663   1.350 -0.9266 -0.4870  0.0976
 7772TIP3    H223281   2.611   5.688   1.313 -0.4708 -0.8048 -2.0384
 7773TIP3   OH223282   1.298   0.201   1.168  0.1353 -0.3431 -0.0503
 7773TIP3    H123283   1.301   0.285   1.214  2.2456  0.5673 -1.7175
 7773TIP3    H223284   1.325   0.221   1.079  1.9068 -2.9836 -0.1968
 7774TIP3   OH223285   4.072   6.285   0.834 -0.2605 -0.0840 -0.4834
 7774TIP3    H123286   4.025   6.208   0.800 -1.3279 -0.3451  1.4735
 7774TIP3    H223287   4.029   6.305   0.917  0.0917  2.5761 -0.8767
 7775TIP3   OH223288   4.999   6.564   4.954  0.4411  0.2983 -0.2765
 7775TIP3    H123289   4.958   6.649   4.973 -0.8777 -0.1935 -0.8180
 7775TIP3    H223290   5.070   6.585   4.894 -2.0972  0.7030 -3.3721
 7776TIP3   OH223291   5.152   0.773   1.496  0.0523 -0.2146  0.1159
 7776TIP3    H123292   5.167   0.684   1.464 -0.2793 -1.0075  2.0270
 7776TIP3    H223293   5.156   0.765   1.591  2.0775  2.2062  0.3224
 7777TIP3   OH223294   1.056   2.089   2.382 -0.5918  0.3746  0.2470
 7777TIP3    H123295   1.035   2.158   2.320  0.8885  0.8317  0.2181
 7777TIP3    H223296   1.113   2.131   2.447 -0.7916 -0.4864  1.0136
 7778TIP3   OH223297   1.708   6.598   1.149  0.0218 -0.1618 -0.3492
 7778TIP3    H123298   1.685   6.507   1.128  2.5521 -0.9916  0.0969
 7778TIP3    H223299   1.791   6.612   1.103  0.0123  1.7162  0.1458
 7779TIP3   OH223300   4.270   2.785   1.898 -0.2750  0.0285 -0.0717
 7779TIP3    H123301   4.331   2.721   1.860 -1.7534 -1.5879  0.1916
 7779TIP3    H223302   4.298   2.869   1.860  0.5926 -0.9993 -1.8560
 7780TIP3   OH223303   2.581   4.946   2.514 -0.4143  0.3512 -0.5360
 7780TIP3    H123304   2.660   4.978   2.469  0.7207 -1.1818  0.2660
 7780TIP3    H223305   2.565   4.861   2.474 -0.2918 -0.3560  0.8572
 7781TIP3   OH223306   5.910   1.356   4.391 -0.1161  0.3981 -0.2067
 7781TIP3    H123307   5.873   1.357   4.303 -0.3635  0.6751 -0.1000
 7781TIP3    H223308   6.004   1.342   4.377 -0.1269  0.6172 -0.5231
 7782TIP3   OH223309   5.623   1.780   2.511  0.0207 -0.2118 -0.2356
 7782TIP3    H123310   5.627   1.691   2.546  0.2133  0.9861  3.0997
 7782TIP3    H223311   5.544   1.818   2.551  1.0585  1.7401  0.0706
 7783TIP3   OH223312   6.829   5.669   5.768  1.0963 -0.3252 -0.3535
 7783TIP3    H123313   6.871   5.594   5.810  0.6901  0.4337  1.4773
 7783TIP3    H223314   6.740   5.639   5.749  1.7314 -1.2055 -2.2603
 7784TIP3   OH223315   1.174   3.723   2.351  0.0068 -0.5769 -0.4366
 7784TIP3    H123316   1.205   3.804   2.310 -0.0407  0.2340  1.0565
 7784TIP3    H223317   1.153   3.748   2.441 -1.7306 -1.8681 -0.4305
 7785TIP3   OH223318   6.473   6.227   4.268  0.3967 -0.0032  0.0433
 7785TIP3    H123319   6.416   6.289   4.221  1.7388  0.9494 -0.3817
 7785TIP3    H223320   6.552   6.222   4.214  0.2939 -2.1700  0.0374
 7786TIP3   OH223321   0.045   6.333   5.127 -0.0362 -0.0390 -0.0118
 7786TIP3    H123322   0.098   6.258   5.152 -0.9737 -1.1373 -1.2174
 7786TIP3    H223323   0.051   6.336   5.031  0.4236  1.7768  0.0297
 7787TIP3   OH223324   2.037   5.213   0.449  0.1979  0.4486 -1.2007
 7787TIP3    H123325   2.001   5.134   0.409  2.0984 -0.1666 -1.8349
 7787TIP3    H223326   1.976   5.282   0.426 -0.9780 -0.6619 -1.5061
 7788TIP3   OH223327   6.170   6.464   0.148 -0.2555 -0.0637  0.3838
 7788TIP3    H123328   6.114   6.541   0.142  1.0691  0.8357 -1.1884
 7788TIP3    H223329   6.246   6.493   0.198  0.5224 -0.1294 -0.7152
 7789TIP3   OH223330   7.069   3.313   3.677  0.2667 -0.1525 -0.0835
 7789TIP3    H123331   7.123   3.264   3.614 -0.7796  0.1399 -1.2509
 7789TIP3    H223332   7.123   3.389   3.700  0.6157 -0.1873 -0.7469
 7790TIP3   OH223333   4.310   6.162   4.985  0.4368  0.0249  0.1777
 7790TIP3    H123334   4.391   6.128   4.948 -0.3654 -0.5556 -1.1079
 7790TIP3    H223335   4.335   6.245   5.026  1.7567 -0.3863  0.2388
 7791TIP3   OH223336   6.532   3.315   4.729  0.8335 -0.4503  0.4824
 7791TIP3    H123337   6.609   3.372   4.731  0.4298  0.1479 -0.3103
 7791TIP3    H223338   6.458   3.375   4.723  0.2489 -1.0002  1.8268
 7792TIP3   OH223339   5.118   5.276   3.722 -0.7852 -0.0623  0.4286
 7792TIP3    H123340   5.082   5.189   3.742  1.0959 -1.5705 -2.0925
 7792TIP3    H223341   5.213   5.264   3.728 -0.5055  2.3175  1.6315
 7793TIP3   OH223342   2.383   2.065   1.854  0.6024  0.1660 -0.7083
 7793TIP3    H123343   2.406   2.035   1.942  0.0595 -0.1378 -0.6642
 7793TIP3    H223344   2.454   2.123   1.829  0.1628  1.2317  0.4311
 7794TIP3   OH223345   7.031   4.325   3.439 -0.6343  0.2662 -0.6976
 7794TIP3    H123346   7.011   4.231   3.444  1.5231 -0.1437  2.2812
 7794TIP3    H223347   6.945   4.367   3.438 -1.6572 -1.6647 -2.0358
 7795TIP3   OH223348   6.086   5.940   4.617  0.4917  0.4986 -0.1054
 7795TIP3    H123349   6.108   5.921   4.708 -1.7799  1.2919  0.7085
 7795TIP3    H223350   6.137   6.018   4.596  1.9667 -0.4039  0.0488
 7796TIP3   OH223351   6.799   1.559   0.662  0.1268  0.2083 -0.6784
 7796TIP3    H123352   6.799   1.553   0.757  0.3224 -0.6592 -0.7236
 7796TIP3    H223353   6.877   1.511   0.634 -0.1824  0.0424 -1.2938
 7797TIP3   OH223354   7.142   2.432   0.881 -0.4049  0.1146  0.1323
 7797TIP3    H123355   7.197   2.365   0.922 -0.8288  0.1725  0.8016
 7797TIP3    H223356   7.067   2.384   0.846 -0.1443  0.0923 -0.4054
 7798TIP3   OH223357   0.774   0.370   0.788  0.0500  0.5494 -0.3643
 7798TIP3    H123358   0.687   0.330   0.788 -0.7305  2.0993 -2.2414
 7798TIP3    H223359   0.759   0.461   0.763  2.2374  0.7447 -1.2154
 7799TIP3   OH223360   4.706   1.299   5.006  0.5552 -0.1721 -0.2764
 7799TIP3    H123361   4.662   1.356   4.942  0.3840  2.0613  1.6986
 7799TIP3    H223362   4.636   1.242   5.038  0.4505 -0.7028 -1.3806
 7800TIP3   OH223363   5.165   2.201   0.148 -0.3485 -0.1595 -0.5635
 7800TIP3    H123364   5.172   2.192   0.053 -0.5732  0.7565 -0.6754
 7800TIP3    H223365   5.114   2.125   0.175  2.9597 -2.6516 -0.6619
 7801TIP3   OH223366   6.177   1.230   2.908 -0.4456 -0.0728 -0.0135
 7801TIP3    H123367   6.178   1.195   2.998  1.2309 -2.4800 -0.8762
 7801TIP3    H223368   6.263   1.270   2.898 -0.9043  0.8434 -0.3363
 7802TIP3   OH223369   2.220   3.446   0.875 -0.3695 -0.0553  0.1533
 7802TIP3    H123370   2.177   3.364   0.850  1.2381 -1.1867  0.8819
 7802TIP3    H223371   2.222   3.444   0.971 -0.0831  0.7144  0.1730
 7803TIP3   OH223372   1.542   3.731   4.929  0.5384 -0.3048  0.1047
 7803TIP3    H123373   1.511   3.682   5.006  0.3622 -0.5580 -0.1285
 7803TIP3    H223374   1.470   3.725   4.866  0.6538 -0.0330 -0.0548
 7804TIP3   OH223375   0.521   2.056   3.985 -0.1334 -0.0395  0.1152
 7804TIP3    H123376   0.525   2.133   4.043 -1.2255  0.3936 -0.3450
 7804TIP3    H223377   0.431   2.057   3.952 -0.7835 -2.6156  1.5804
 7805TIP3   OH223378   7.136   1.039   4.241 -0.1059 -0.3524 -0.1859
 7805TIP3    H123379   7.190   0.962   4.259 -0.3819 -0.5463 -0.1753
 7805TIP3    H223380   7.198   1.111   4.234 -0.0272  0.1778  3.6963
 7806TIP3   OH223381   5.443   5.380   4.337 -0.5923  0.2762  0.4290
 7806TIP3    H123382   5.456   5.333   4.420 -1.3677 -1.1001 -0.1874
 7806TIP3    H223383   5.520   5.436   4.329  0.9000 -1.5905  0.7911
 7807TIP3   OH223384   2.617   3.072   4.632  0.4277  0.1098 -0.2572
 7807TIP3    H123385   2.624   3.145   4.693  0.1045 -0.2196  0.1744
 7807TIP3    H223386   2.645   3.109   4.548 -0.0378  0.8088 -0.1087
 7808TIP3   OH223387   3.068   4.984   2.204 -0.1856 -0.2419 -0.6242
 7808TIP3    H123388   3.055   4.929   2.282  0.4492  0.3243 -0.1110
 7808TIP3    H223389   3.141   5.042   2.227 -0.0338 -0.0160 -1.6160
 7809TIP3   OH223390   1.875   6.563   3.067  0.0460  0.2301 -0.0297
 7809TIP3    H123391   1.795   6.513   3.049  0.2318 -0.0253 -0.1679
 7809TIP3    H223392   1.851   6.624   3.136 -0.2205  0.0283  0.0576
 7810TIP3   OH223393   4.535   2.975   2.089 -0.8414 -0.6996 -0.0615
 7810TIP3    H123394   4.467   2.993   2.153  0.2502  1.5102  0.5628
 7810TIP3    H223395   4.493   2.992   2.004 -1.1298  0.5053  0.3049
 7811TIP3   OH223396   0.508   4.474   3.260 -0.2304 -0.2401  0.3585
 7811TIP3    H123397   0.559   4.409   3.212  0.6052  0.4967  0.2287
 7811TIP3    H223398   0.519   4.555   3.211 -3.2260 -0.4596 -0.8646
 7812TIP3   OH223399   4.722   6.678   3.935  0.1393 -0.4800  0.2724
 7812TIP3    H123400   4.780   6.753   3.945  2.4121 -1.8332 -1.7797
 7812TIP3    H223401   4.657   6.706   3.870 -1.0006  0.6883  1.8311
 7813TIP3   OH223402   0.159   0.812   1.306 -0.2111  0.2917  0.1243
 7813TIP3    H123403   0.197   0.863   1.235  0.7122  1.0586  1.1308
 7813TIP3    H223404   0.147   0.875   1.377  2.8953 -1.1248  2.1513
 7814TIP3   OH223405   2.909   4.819   2.001  0.0318 -0.3030 -0.1503
 7814TIP3    H123406   2.939   4.854   1.917 -1.0965 -1.4119 -1.0495
 7814TIP3    H223407   2.987   4.822   2.057  0.3791  2.0981 -0.6401
 7815TIP3   OH223408   6.712   2.193   2.637 -0.4447 -0.0462  0.1224
 7815TIP3    H123409   6.754   2.174   2.721 -0.7088  0.3633  0.3494
 7815TIP3    H223410   6.656   2.268   2.654 -1.3395 -0.6334 -0.1559
 7816TIP3   OH223411   2.380   0.755   4.909 -0.1615  0.8648 -0.3097
 7816TIP3    H123412   2.407   0.796   4.827 -2.5634  1.5887 -0.8175
 7816TIP3    H223413   2.285   0.745   4.901 -0.4719  0.9003  2.3811
 7817TIP3   OH223414   3.537   5.303   5.260 -0.6073 -0.3058 -0.0658
 7817TIP3    H123415   3.600   5.250   5.211 -1.7613 -0.0560 -1.9171
 7817TIP3    H223416   3.577   5.314   5.346 -0.4365 -4.3582  0.5468
 7818TIP3   OH223417   5.965   6.748   5.604  1.0623  0.5307  0.3000
 7818TIP3    H123418   5.999   6.791   5.682 -0.7030 -0.7536  1.8706
 7818TIP3    H223419   6.008   6.662   5.604 -0.0294 -0.0315  0.7296
 7819TIP3   OH223420   5.332   3.154   2.114 -0.1021 -0.0042 -0.0363
 7819TIP3    H123421   5.417   3.166   2.073 -0.9373  2.1228 -1.3016
 7819TIP3    H223422   5.282   3.102   2.050 -1.2272  2.8481 -1.6488
 7820TIP3   OH223423   4.263   1.452   3.163  0.0010  0.1737 -0.5827
 7820TIP3    H123424   4.292   1.450   3.254 -0.5304 -0.5673 -0.4287
 7820TIP3    H223425   4.240   1.544   3.147 -0.3076  0.2250  0.1487
 7821TIP3   OH223426   2.591   4.497   2.140  0.2978  0.0223  0.5469
 7821TIP3    H123427   2.518   4.453   2.097  0.6086 -1.3124  1.3168
 7821TIP3    H223428   2.649   4.524   2.069 -1.8832  3.0800 -0.2889
 7822TIP3   OH223429   4.180   5.037   4.894 -0.3755  0.3502  0.4795
 7822TIP3    H123430   4.090   5.023   4.925 -0.6021  0.0079 -0.3332
 7822TIP3    H223431   4.228   4.959   4.922 -0.8551 -0.5282 -1.0434
 7823TIP3   OH223432   5.359   5.476   5.248  0.0397  0.8824  0.0818
 7823TIP3    H123433   5.311   5.534   5.307 -0.1460 -1.4627  2.4090
 7823TIP3    H223434   5.445   5.466   5.289 -0.1844 -1.0044  0.1885
 7824TIP3   OH223435   5.962   3.422   4.787  0.0558 -0.0724 -0.0051
 7824TIP3    H123436   5.878   3.466   4.802 -0.4284 -1.2717  0.9267
 7824TIP3    H223437   5.940   3.331   4.772  1.1572 -0.2932 -0.3883
 7825TIP3   OH223438   0.473   3.020   3.802 -0.2847  0.7333  0.1579
 7825TIP3    H123439   0.554   2.997   3.846 -0.1880  0.6809 -0.0473
 7825TIP3    H223440   0.413   2.948   3.822  0.3369 -0.2362 -1.3490
 7826TIP3   OH223441   3.489   1.366   5.000 -0.3818  0.7305 -0.1992
 7826TIP3    H123442   3.444   1.292   4.959  1.8429 -1.4750  1.0891
 7826TIP3    H223443   3.424   1.404   5.059 -1.1317 -1.1766  0.2701
 7827TIP3   OH223444   1.674   5.467   1.480  0.0489  0.3495  0.1071
 7827TIP3    H123445   1.611   5.539   1.478 -1.4294 -0.9146 -1.1879
 7827TIP3    H223446   1.727   5.479   1.401 -0.3748 -0.0972 -0.2556
 7828TIP3   OH223447   0.689   4.306   4.747  0.0523  0.2710 -0.0640
 7828TIP3    H123448   0.655   4.272   4.664  0.3838 -0.2546  0.0055
 7828TIP3    H223449   0.611   4.319   4.802  0.0167 -3.0180  0.8824
 7829TIP3   OH223450   2.093   3.187   3.975  0.2649 -0.1569 -0.3268
 7829TIP3    H123451   2.054   3.211   4.059 -1.3138  0.5621 -1.2211
 7829TIP3    H223452   2.160   3.254   3.960  0.6561 -0.3706  0.4042
 7830TIP3   OH223453   4.540   1.678   1.163  0.3210 -0.6221 -0.4779
 7830TIP3    H123454   4.545   1.773   1.168  1.0948 -0.6283 -0.9626
 7830TIP3    H223455   4.446   1.659   1.161  0.1587  0.1012  0.0735
 7831TIP3   OH223456   5.308   5.088   4.636  0.2148  0.2714  0.2272
 7831TIP3    H123457   5.287   5.066   4.726 -1.3372  0.6083 -0.0036
 7831TIP3    H223458   5.232   5.140   4.607  0.9116  0.5829 -1.1072
 7832TIP3   OH223459   5.034   0.084   5.860 -0.0428  0.8502 -0.7911
 7832TIP3    H123460   5.095   0.146   5.819 -1.2130  2.0561 -0.8027
 7832TIP3    H223461   4.960   0.139   5.888 -0.6529 -0.4096  0.1500
 7833TIP3   OH223462   1.336   4.556   4.682  0.1616  0.1464  0.0576
 7833TIP3    H123463   1.282   4.575   4.758 -0.2842 -0.4378 -0.0991
 7833TIP3    H223464   1.421   4.595   4.701 -0.4863  1.5958  0.0495
 7834TIP3   OH223465   6.702   6.170   4.096 -0.0399 -0.4375  0.3035
 7834TIP3    H123466   6.652   6.109   4.042 -1.2444 -1.0930  2.0655
 7834TIP3    H223467   6.792   6.137   4.092  0.1172  0.1055 -2.0018
 7835TIP3   OH223468   2.873   4.461   4.502 -0.2173 -0.3465  0.1374
 7835TIP3    H123469   2.890   4.441   4.410 -0.8798 -1.3374  0.2146
 7835TIP3    H223470   2.903   4.551   4.513 -0.0144 -0.2596 -1.0188
 7836TIP3   OH223471   2.733   3.773   3.624  0.4825  0.0299  0.2281
 7836TIP3    H123472   2.804   3.802   3.567  3.0260 -2.0842  2.0705
 7836TIP3    H223473   2.690   3.703   3.574  0.7810  0.1755 -0.2430
 7837TIP3   OH223474   1.414   3.410   1.434 -0.5017 -0.3983 -0.3929
 7837TIP3    H123475   1.342   3.419   1.372 -0.4930 -1.7086 -0.6274
 7837TIP3    H223476   1.493   3.410   1.380 -0.2470  1.6209 -0.0894
 7838TIP3   OH223477   5.868   6.408   0.103  0.2825  0.2185 -0.5582
 7838TIP3    H123478   5.886   6.440   0.191 -0.5553 -0.7088 -0.0334
 7838TIP3    H223479   5.815   6.477   0.063 -0.5644  0.0121  0.1790
 7839TIP3   OH223480   2.292   5.403   2.445  0.2640  0.0107  0.0105
 7839TIP3    H123481   2.304   5.328   2.503 -0.7403  1.0529  1.6474
 7839TIP3    H223482   2.280   5.365   2.358 -0.5339 -1.7440  0.8450
 7840TIP3   OH223483   3.013   1.232   5.403  0.1221 -0.2417  0.6745
 7840TIP3    H123484   2.950   1.160   5.411 -2.2232  1.5595 -0.1431
 7840TIP3    H223485   3.049   1.223   5.316 -2.2258  0.9678 -0.5380
 7841TIP3   OH223486   1.457   1.526   1.038 -0.0150 -0.3742  0.1092
 7841TIP3    H123487   1.372   1.518   1.082 -0.0799  0.2756  0.1128
 7841TIP3    H223488   1.510   1.455   1.075 -1.0658 -1.8610 -1.1261
 7842TIP3   OH223489   6.636   0.367   1.119 -0.1765 -0.1867  0.2571
 7842TIP3    H123490   6.550   0.410   1.126 -0.1939 -0.1514 -0.1587
 7842TIP3    H223491   6.647   0.351   1.026  0.7565  0.8036  0.1745
 7843TIP3   OH223492   3.664   1.302   4.375  0.0180 -0.0401  0.7565
 7843TIP3    H123493   3.753   1.324   4.350 -0.3509 -1.0031 -1.7527
 7843TIP3    H223494   3.664   1.206   4.382 -0.3439  0.0648  3.0327
 7844TIP3   OH223495   3.932   5.837   1.918 -0.1174 -0.0873  0.1568
 7844TIP3    H123496   3.939   5.751   1.877 -0.5679 -0.0784  0.0611
 7844TIP3    H223497   3.892   5.820   2.003 -1.1977  0.1391 -0.2817
 7845TIP3   OH223498   3.683   3.318   3.466  0.2104 -0.2028 -0.1906
 7845TIP3    H123499   3.624   3.365   3.406  1.6336  0.5243 -1.0591
 7845TIP3    H223500   3.745   3.385   3.496  1.2537 -1.1777 -0.1370
 7846TIP3   OH223501   2.513   1.775   4.443  0.0450 -0.1136 -0.1876
 7846TIP3    H123502   2.523   1.854   4.390  0.6310  0.8191  1.2766
 7846TIP3    H223503   2.420   1.773   4.466  0.2150  0.7250  0.6141
 7847TIP3   OH223504   0.953   4.792   1.442  0.0779  0.2666  0.4160
 7847TIP3    H123505   0.925   4.856   1.377 -3.3573 -0.8256  0.5767
 7847TIP3    H223506   1.004   4.842   1.506  1.1094  1.9044 -1.5840
 7848TIP3   OH223507   3.207   3.417   2.098  0.6612  0.1363 -0.0751
 7848TIP3    H123508   3.118   3.450   2.081  1.0751  1.7469  0.7440
 7848TIP3    H223509   3.242   3.398   2.011 -0.2970 -0.0327 -0.4406
 7849TIP3   OH223510   0.084   0.130   0.588  0.0417 -0.2002  0.4816
 7849TIP3    H123511   0.065   0.038   0.603  0.7533 -0.3071  0.7666
 7849TIP3    H223512   0.180   0.136   0.589 -0.0012  0.6820  1.4315
 7850TIP3   OH223513   1.317   5.634   2.363 -0.1780  0.1343 -0.3986
 7850TIP3    H123514   1.252   5.619   2.432  0.5915  0.1952  0.3580
 7850TIP3    H223515   1.351   5.547   2.342 -1.0360  0.0118 -1.3446
 7851TIP3   OH223516   5.735   3.413   2.519  0.2006  0.3345  0.1420
 7851TIP3    H123517   5.782   3.372   2.447  0.4419 -0.2818  0.6334
 7851TIP3    H223518   5.764   3.504   2.519 -0.2798  0.4942 -0.9175
 7852TIP3   OH223519   4.292   0.372   5.557 -0.1175  0.1822 -0.4594
 7852TIP3    H123520   4.243   0.384   5.475 -0.4199 -1.6545 -0.5729
 7852TIP3    H223521   4.378   0.408   5.539 -0.1290 -0.3462 -1.6524
 7853TIP3   OH223522   7.132   4.512   4.167 -0.3458 -0.2876 -0.2053
 7853TIP3    H123523   7.133   4.417   4.160  0.9473 -0.2670 -0.4857
 7853TIP3    H223524   7.210   4.541   4.120  1.1076  0.6834  2.5539
 7854TIP3   OH223525   6.500   1.047   5.091 -0.2457 -0.1526 -0.3538
 7854TIP3    H123526   6.554   1.107   5.143  0.7321 -0.8817 -0.5122
 7854TIP3    H223527   6.548   1.035   5.009 -1.6581  0.8057 -1.3830
 7855TIP3   OH223528   6.596   1.757   2.425 -0.3196 -0.6781 -0.0268
 7855TIP3    H123529   6.638   1.696   2.485  0.6403  0.9211  0.9768
 7855TIP3    H223530   6.616   1.723   2.338  1.2924 -1.1064  0.4860
 7856TIP3   OH223531   1.686   0.390   5.676  0.3485 -0.1296  0.0844
 7856TIP3    H123532   1.602   0.374   5.634 -0.0414 -1.8527  1.4047
 7856TIP3    H223533   1.749   0.391   5.605 -0.8575  2.4003 -1.0860
 7857TIP3   OH223534   2.094   1.390   5.397 -0.4245 -0.4761 -0.4779
 7857TIP3    H123535   2.028   1.349   5.339 -2.3737 -0.0453  1.3010
 7857TIP3    H223536   2.058   1.476   5.416  0.4392 -0.4058  0.9184
 7858TIP3   OH223537   5.438   1.957   0.052  0.2032 -0.1454 -0.2051
 7858TIP3    H123538   5.492   2.031   0.082  0.9600 -0.9722  0.5517
 7858TIP3    H223539   5.439   1.964  -0.044  2.4524 -0.6275 -0.2766
 7859TIP3   OH223540   0.993   4.027   0.087  0.5171  0.4824  0.3893
 7859TIP3    H123541   0.957   4.100   0.036  0.2176 -0.1585 -0.3326
 7859TIP3    H223542   0.917   3.983   0.125  0.5417 -0.5914 -0.7516
 7860TIP3   OH223543   4.760   0.372   2.631 -0.1180 -0.1206  0.5778
 7860TIP3    H123544   4.815   0.433   2.581 -1.3187  0.1379 -0.4642
 7860TIP3    H223545   4.794   0.377   2.720  3.0117 -1.5866 -0.3635
 7861TIP3   OH223546   1.153   2.959   5.122 -0.3194  0.0336  0.2779
 7861TIP3    H123547   1.079   3.007   5.159  0.5180 -0.4519  2.7240
 7861TIP3    H223548   1.115   2.908   5.050 -1.2988  4.1232 -2.4876
 7862TIP3   OH223549   7.081   0.783   1.370  0.4214  0.2170 -0.0913
 7862TIP3    H123550   7.110   0.848   1.434  2.1989  0.6826 -1.3199
 7862TIP3    H223551   7.160   0.735   1.347 -0.5801 -1.3289 -0.4247
 7863TIP3   OH223552   5.318   2.336   0.629  0.3724  0.8235 -0.8474
 7863TIP3    H123553   5.392   2.396   0.619  0.5716  0.3684 -2.4432
 7863TIP3    H223554   5.248   2.375   0.577 -0.6843  1.4210  0.9115
 7864TIP3   OH223555   2.703   5.631   4.910  0.4154  0.0953  0.8758
 7864TIP3    H123556   2.704   5.724   4.888  0.8001  0.1118  0.9538
 7864TIP3    H223557   2.786   5.616   4.955  0.9078 -0.5263 -0.1869
 7865TIP3   OH223558   0.977   2.865   4.652 -0.3448  0.3404 -0.4248
 7865TIP3    H123559   0.916   2.939   4.655  0.5928  1.1887 -1.3658
 7865TIP3    H223560   0.990   2.840   4.743 -1.6901  0.4710 -0.1785
 7866TIP3   OH223561   4.649   2.554   2.018  0.1240 -1.2064 -0.2594
 7866TIP3    H123562   4.642   2.628   1.956 -2.1658 -2.1122 -1.1987
 7866TIP3    H223563   4.615   2.588   2.100  0.2300 -0.8924 -0.3430
 7867TIP3   OH223564   6.394   3.982   1.610 -0.0891 -0.3491  1.0202
 7867TIP3    H123565   6.488   3.984   1.625  0.0905  0.1440 -0.0541
 7867TIP3    H223566   6.376   4.062   1.560 -0.6920 -1.5586 -0.7894
 7868TIP3   OH223567   3.808   3.271   1.756 -0.3755  0.4273  0.0956
 7868TIP3    H123568   3.827   3.221   1.835  1.8799  1.1283  0.0576
 7868TIP3    H223569   3.741   3.334   1.783 -2.0062 -1.4039  0.5693
 7869TIP3   OH223570   0.314   2.209   3.872 -0.0255 -0.1120  0.0518
 7869TIP3    H123571   0.247   2.141   3.866 -2.3464  2.0003  0.6448
 7869TIP3    H223572   0.351   2.214   3.784 -1.2607 -0.7046 -0.5244
 7870TIP3   OH223573   6.630   2.669   5.063 -0.4154  0.3380 -0.0158
 7870TIP3    H123574   6.551   2.661   5.117 -0.5309 -1.4619 -0.3824
 7870TIP3    H223575   6.631   2.590   5.010  1.4806  0.4631 -0.2415
 7871TIP3   OH223576   2.593   5.006   4.595 -0.0299 -0.7794  0.0416
 7871TIP3    H123577   2.644   5.048   4.664 -2.8015 -0.6491  2.1970
 7871TIP3    H223578   2.607   4.912   4.609  0.6220 -0.7352 -0.2549
 7872TIP3   OH223579   5.421   4.110   4.756  0.2808  0.2429  0.2713
 7872TIP3    H123580   5.491   4.112   4.822 -1.0696 -1.1097  1.8261
 7872TIP3    H223581   5.468   4.097   4.673  1.8650 -1.9940  1.3990
 7873TIP3   OH223582   3.124   5.001   1.416  0.3513  0.0336  0.2990
 7873TIP3    H123583   3.071   5.077   1.394  0.6418  0.4550  1.0157
 7873TIP3    H223584   3.199   5.006   1.357  0.0564 -0.0578 -0.0888
 7874TIP3   OH223585   2.272   6.087   0.262  0.1333 -0.6002 -0.6912
 7874TIP3    H123586   2.341   6.023   0.279  0.0232 -0.1063  2.2751
 7874TIP3    H223587   2.194   6.049   0.302 -1.1509 -0.6756 -3.0785
 7875TIP3   OH223588   1.907   2.042   3.349  0.0464 -0.1543  0.4868
 7875TIP3    H123589   1.869   1.983   3.415 -0.9999  0.6082  0.5926
 7875TIP3    H223590   1.956   2.107   3.400  1.4283 -1.0637  0.3562
 7876TIP3   OH223591   2.964   6.053   1.175 -0.1145  0.0576  0.3485
 7876TIP3    H123592   2.987   5.966   1.142  0.0640 -0.5200  1.8778
 7876TIP3    H223593   3.038   6.108   1.149 -0.3168 -0.1985 -0.7982
 7877TIP3   OH223594   0.812   1.250   3.926  0.0838  0.3805 -0.1702
 7877TIP3    H123595   0.759   1.323   3.895 -2.1963 -1.0621  0.1054
 7877TIP3    H223596   0.845   1.278   4.011 -3.5424  0.0010  1.5710
 7878TIP3   OH223597   5.308   6.408   1.139  0.2875  0.0087 -0.2889
 7878TIP3    H123598   5.391   6.446   1.111  1.0689 -1.5029 -0.0934
 7878TIP3    H223599   5.293   6.445   1.227  0.1608  1.1457 -0.7683
 7879TIP3   OH223600   5.469   2.880   4.894 -0.0629 -0.4862  0.2321
 7879TIP3    H123601   5.485   2.909   4.804 -0.3488  0.4233  0.4674
 7879TIP3    H223602   5.555   2.880   4.935  0.0652 -0.8806 -0.0318
 7880TIP3   OH223603   0.027   5.736   3.273  0.2826  0.2061 -0.3156
 7880TIP3    H123604  -0.017   5.661   3.234 -0.7558  0.0629  1.0594
 7880TIP3    H223605   0.007   5.809   3.215 -0.5627 -0.1533 -0.4884
 7881TIP3   OH223606   3.880   3.877   4.601  0.0583  0.9275  0.0751
 7881TIP3    H123607   3.794   3.859   4.563  0.0305  1.5805 -0.1793
 7881TIP3    H223608   3.865   3.949   4.662  0.7529  2.4330 -1.4395
 7882TIP3   OH223609   0.425   6.754   2.698  0.1478  0.4787 -0.3581
 7882TIP3    H123610   0.488   6.826   2.689  1.0876 -0.2586  0.0412
 7882TIP3    H223611   0.417   6.741   2.792 -2.2282  1.8934 -0.2883
 7883TIP3   OH223612   6.581   2.352   5.640  0.1228  0.0552  0.5240
 7883TIP3    H123613   6.590   2.385   5.729 -0.7449 -0.2135  0.7182
 7883TIP3    H223614   6.654   2.392   5.592  0.8084 -0.0842  1.4306
 7884TIP3   OH223615   4.947   2.696   5.137 -0.0795  0.0089  0.1951
 7884TIP3    H123616   4.941   2.602   5.154  0.4013 -0.0721 -0.0556
 7884TIP3    H223617   4.902   2.737   5.210  1.8018 -0.3225  1.6243
 7885TIP3   OH223618   0.844   3.226   3.738  0.0568 -0.2460  0.9165
 7885TIP3    H123619   0.807   3.181   3.662  1.1322 -1.1195  0.8951
 7885TIP3    H223620   0.776   3.289   3.763  0.6320  1.9193 -2.2838
 7886TIP3   OH223621   5.506   0.378   3.450  0.5247  0.2215  0.0330
 7886TIP3    H123622   5.425   0.422   3.424  0.2799 -0.8650 -1.1764
 7886TIP3    H223623   5.519   0.311   3.383  2.2343  0.1218  0.4222
 7887TIP3   OH223624   7.220   0.413   0.512  0.8544  0.2021  0.6536
 7887TIP3    H123625   7.252   0.325   0.531 -2.3163 -1.6740 -1.7891
 7887TIP3    H223626   7.125   0.408   0.524  0.2170  2.4391 -2.2934
 7888TIP3   OH223627   0.416   6.619   3.497 -0.3898  0.1113  0.4445
 7888TIP3    H123628   0.364   6.620   3.418  0.1375  1.0671  0.1022
 7888TIP3    H223629   0.501   6.583   3.470  0.4341  2.1604  0.1341
 7889TIP3   OH223630   2.971   2.589   2.948  0.1973  0.4350  0.0467
 7889TIP3    H123631   2.960   2.574   3.042  1.1031 -0.6637 -0.0124
 7889TIP3    H223632   3.063   2.609   2.937  0.4290 -0.9546 -0.7814
 7890TIP3   OH223633   0.114   5.445   3.808  0.3559  0.3923  0.5051
 7890TIP3    H123634   0.155   5.364   3.777  0.3074  0.1986  0.9317
 7890TIP3    H223635   0.021   5.435   3.786  0.1805 -0.0984  1.4101
 7891TIP3   OH223636   6.397   6.555   0.253  0.3885  0.1163 -0.8283
 7891TIP3    H123637   6.477   6.558   0.200  1.1757 -0.1732  0.3048
 7891TIP3    H223638   6.420   6.499   0.327 -0.4873  0.9809  0.1218
 7892TIP3   OH223639   5.637   2.505   0.847 -0.2886 -0.5042 -0.7672
 7892TIP3    H123640   5.667   2.421   0.811  0.4471 -0.9572  0.8336
 7892TIP3    H223641   5.643   2.494   0.942 -0.1557  1.3835 -0.5301
 7893TIP3   OH223642   6.027   5.172   2.990 -0.0360 -0.6148 -0.1841
 7893TIP3    H123643   5.949   5.227   2.989 -0.7432 -1.5653  0.5311
 7893TIP3    H223644   5.997   5.086   2.960  0.8884 -0.8215 -0.5741
 7894TIP3   OH223645   4.630   2.961   4.830 -0.4177 -0.1235  0.5725
 7894TIP3    H123646   4.645   3.037   4.887  1.0442  0.0531 -0.0173
 7894TIP3    H223647   4.663   2.887   4.880  1.0445  0.0557 -0.0788
 7895TIP3   OH223648   2.847   0.023   2.312  0.7095 -0.1626  0.1565
 7895TIP3    H123649   2.927   0.021   2.364  0.8136  0.1949  0.0143
 7895TIP3    H223650   2.779  -0.008   2.371  0.7597  0.5839  0.6203
 7896TIP3   OH223651   6.786   0.777   4.057  0.1456  0.5228  0.1152
 7896TIP3    H123652   6.738   0.827   3.992  1.5946  1.1316 -0.5384
 7896TIP3    H223653   6.850   0.839   4.092 -1.2748  0.5593  2.9438
 7897TIP3   OH223654   6.909   6.699   2.118  0.0815  0.1352  0.3015
 7897TIP3    H123655   6.938   6.789   2.111 -0.1805  0.1774 -0.2909
 7897TIP3    H223656   6.989   6.648   2.121  0.3370  0.1202 -2.9396
 7898TIP3   OH223657   5.722   2.968   1.244 -0.3400  0.1374  0.0136
 7898TIP3    H123658   5.635   3.004   1.259 -0.8966 -1.1743  0.0923
 7898TIP3    H223659   5.721   2.942   1.151  0.3288  1.0222 -0.2571
 7899TIP3   OH223660   2.665   3.164   2.576  0.0592 -0.2224 -0.0986
 7899TIP3    H123661   2.645   3.173   2.483 -1.4928 -0.1010  0.2143
 7899TIP3    H223662   2.737   3.226   2.591  0.0228  0.0861 -1.1126
 7900TIP3   OH223663   4.541   3.602   1.022  0.4743 -0.8309 -0.1879
 7900TIP3    H123664   4.575   3.598   1.112  0.0672 -2.5250 -0.0816
 7900TIP3    H223665   4.603   3.659   0.976  0.8127 -0.1016  1.1020
 7901TIP3   OH223666   4.144   2.045   4.037 -0.2184 -0.2873  0.1343
 7901TIP3    H123667   4.207   2.023   4.106  0.9547 -1.6002 -1.2805
 7901TIP3    H223668   4.105   2.127   4.066  2.4792  0.8355  0.9215
 7902TIP3   OH223669   5.195   4.581   1.391  0.2095  0.1889  0.2163
 7902TIP3    H123670   5.187   4.488   1.412  1.0993  0.4139  1.7849
 7902TIP3    H223671   5.111   4.619   1.417 -0.1711 -0.1781 -0.4654
 7903TIP3   OH223672   6.990   4.873   1.770  0.0630 -0.4131 -0.7981
 7903TIP3    H123673   7.073   4.898   1.729 -0.8696  2.7939 -0.9752
 7903TIP3    H223674   6.954   4.954   1.804 -3.0247 -1.6793 -0.6933
 7904TIP3   OH223675   6.182   1.619   4.117 -0.2969 -0.2317  0.3068
 7904TIP3    H123676   6.141   1.691   4.164  2.1669  0.3334  1.7518
 7904TIP3    H223677   6.232   1.572   4.184  0.5677 -1.4814 -1.1533
 7905TIP3   OH223678   1.920   3.535   0.856  0.1261  0.2023  0.1891
 7905TIP3    H123679   1.914   3.598   0.784 -0.3700  0.6850  0.6447
 7905TIP3    H223680   2.013   3.512   0.860  0.2292  0.5176 -0.3124
 7906TIP3   OH223681   1.318   1.024   2.646  0.5078 -0.4610 -0.2421
 7906TIP3    H123682   1.378   0.986   2.710 -0.5607  0.1346  1.1530
 7906TIP3    H223683   1.322   1.118   2.663 -1.2870 -0.4572  0.3254
 7907TIP3   OH223684   0.413   4.284   1.198 -0.3330 -0.0286  0.1526
 7907TIP3    H123685   0.370   4.311   1.279  0.7281  1.1461  0.3410
 7907TIP3    H223686   0.381   4.345   1.132  0.5802  0.4946  0.1791
 7908TIP3   OH223687   5.996   2.091   3.460 -0.2557 -0.7825  0.4593
 7908TIP3    H123688   6.054   2.144   3.405 -0.8124  0.1495  0.7489
 7908TIP3    H223689   6.049   2.071   3.538  0.1338 -1.0999  0.1152
 7909TIP3   OH223690   5.648   0.598   1.607 -0.0099  0.6607 -0.2135
 7909TIP3    H123691   5.691   0.673   1.648  0.6914  0.4118 -0.4645
 7909TIP3    H223692   5.561   0.595   1.646  0.4984  0.6818  0.9626
 7910TIP3   OH223693   5.538   5.606   4.767  0.0791 -0.4839 -0.1397
 7910TIP3    H123694   5.623   5.640   4.796 -0.3578 -1.0321  1.9799
 7910TIP3    H223695   5.546   5.511   4.777 -0.6007 -0.5852 -0.4889
 7911TIP3   OH223696   5.108   2.686   0.103  0.0193  0.2897  0.0317
 7911TIP3    H123697   5.159   2.737   0.041  0.4644  1.2850  1.1713
 7911TIP3    H223698   5.153   2.601   0.107  1.2859  0.9649  0.6058
 7912TIP3   OH223699   4.727   1.344   5.680  0.5102 -0.4544 -0.3348
 7912TIP3    H123700   4.747   1.325   5.772 -3.1046 -1.8754  0.3293
 7912TIP3    H223701   4.741   1.261   5.635 -0.7333 -0.6464 -0.4057
 7913TIP3   OH223702   5.334   2.331   1.627 -0.5355 -0.3089 -0.4606
 7913TIP3    H123703   5.346   2.273   1.552 -2.5180 -0.0496 -1.0318
 7913TIP3    H223704   5.274   2.399   1.596  0.3281  1.0720  0.7285
 7914TIP3   OH223705   4.650   0.493   4.640 -0.0711  0.5911 -0.1542
 7914TIP3    H123706   4.711   0.421   4.623  0.7076  1.6148 -2.0081
 7914TIP3    H223707   4.614   0.514   4.554 -1.8655  1.0673  0.6800
 7915TIP3   OH223708   1.780   3.862   1.643  0.1310  0.5418 -0.1641
 7915TIP3    H123709   1.860   3.840   1.691  0.5129  0.6099 -0.7599
 7915TIP3    H223710   1.749   3.778   1.610 -0.5437  0.3866  0.8048
 7916TIP3   OH223711   2.357   6.655   5.862  0.0396 -0.6196  0.1224
 7916TIP3    H123712   2.420   6.655   5.934 -0.2319  0.4704  0.3812
 7916TIP3    H223713   2.353   6.564   5.834 -0.1722 -1.1594  1.7752
 7917TIP3   OH223714   5.063   0.464   4.959  0.4877 -0.9612 -0.0879
 7917TIP3    H123715   5.061   0.543   5.013 -0.9152  0.9148 -2.6451
 7917TIP3    H223716   5.147   0.467   4.914 -0.3392  0.3036 -1.6866
 7918TIP3   OH223717   3.627   0.846   2.750 -0.1115  0.6393 -0.1857
 7918TIP3    H123718   3.722   0.860   2.744 -0.3391  2.5608  0.2037
 7918TIP3    H223719   3.609   0.777   2.686  2.1125 -2.9749  2.6446
 7919TIP3   OH223720   2.730   5.173   4.778  0.2050  0.7309  0.0402
 7919TIP3    H123721   2.719   5.195   4.871 -0.8372  2.7104 -0.5071
 7919TIP3    H223722   2.734   5.257   4.733  0.0169 -0.1915 -1.8121
 7920TIP3   OH223723   4.991   1.326   1.399 -0.3299 -0.0358  0.4019
 7920TIP3    H123724   5.031   1.391   1.341  2.0574 -1.1028  0.7622
 7920TIP3    H223725   5.006   1.242   1.355 -1.2381 -0.5795  1.0968
 7921TIP3   OH223726   0.862   3.582   2.448  0.1841  0.3399  0.2149
 7921TIP3    H123727   0.929   3.613   2.388  1.2845 -1.0935  0.6471
 7921TIP3    H223728   0.826   3.662   2.487 -0.2616  1.2662 -1.9928
 7922TIP3   OH223729   5.858   6.634   3.859  0.0007 -0.6492  0.4561
 7922TIP3    H123730   5.870   6.684   3.778 -1.9933  0.2918  0.6726
 7922TIP3    H223731   5.817   6.552   3.831 -3.2097  0.7487  0.6183
 7923TIP3   OH223732   5.182   1.510   4.045  0.1345 -0.6125 -0.2915
 7923TIP3    H123733   5.252   1.575   4.045 -0.3739 -0.0329 -1.8783
 7923TIP3    H223734   5.104   1.558   4.019 -0.6434 -1.4890  0.3464
 7924TIP3   OH223735   4.852   1.400   3.645  0.5488  0.0206  0.2074
 7924TIP3    H123736   4.870   1.486   3.605  1.5701 -0.7589 -1.0833
 7924TIP3    H223737   4.924   1.387   3.706 -0.1726  0.5244  1.1840
 7925TIP3   OH223738   0.983   3.427   2.624  0.2903 -0.2987 -0.1267
 7925TIP3    H123739   1.065   3.472   2.643 -0.3363  0.5753  0.5891
 7925TIP3    H223740   0.950   3.470   2.545  0.0504  0.0144  0.1409
 7926TIP3   OH223741   6.210   6.521   1.318 -0.0302  0.5906  0.1548
 7926TIP3    H123742   6.260   6.601   1.302  0.4347  0.3591  0.4150
 7926TIP3    H223743   6.274   6.450   1.307 -0.4742  0.2459 -0.2298
 7927TIP3   OH223744   0.166   6.219   5.647  0.4429  0.0220  0.0413
 7927TIP3    H123745   0.248   6.266   5.629  0.9319  0.3522  2.7527
 7927TIP3    H223746   0.193   6.138   5.690 -0.4963 -2.1921 -3.1221
 7928TIP3   OH223747   6.984   4.329   1.531  0.5007 -0.0530  0.2352
 7928TIP3    H123748   6.914   4.376   1.485  1.4562  1.6173  0.3865
 7928TIP3    H223749   7.064   4.353   1.483  1.2206 -0.2165  1.3065
 7929TIP3   OH223750   3.263   3.269   1.202 -0.3653 -0.1317  0.6152
 7929TIP3    H123751   3.185   3.301   1.157 -1.0864 -1.1503  1.0858
 7929TIP3    H223752   3.336   3.298   1.148 -1.1609 -0.6930 -0.8281
 7930TIP3   OH223753   4.786   2.483   1.793  0.0483  0.4393 -0.0586
 7930TIP3    H123754   4.714   2.522   1.743 -0.9340 -0.7768  0.3564
 7930TIP3    H223755   4.769   2.507   1.884  0.5295  0.6815 -0.0292
 7931TIP3   OH223756   1.877   6.671   0.204 -0.0988 -1.1818 -0.2816
 7931TIP3    H123757   1.875   6.741   0.139  1.3409  0.2111  1.0909
 7931TIP3    H223758   1.851   6.592   0.155  0.5402 -0.1360 -2.4353
 7932TIP3   OH223759   6.484   1.663   2.834 -1.2941  0.1622  0.0677
 7932TIP3    H123760   6.543   1.664   2.758 -2.7233  1.2136 -1.0661
 7932TIP3    H223761   6.488   1.752   2.868 -1.8734  0.1137  0.2601
 7933TIP3   OH223762   3.659   2.002   3.676 -0.2401  0.1974  0.6075
 7933TIP3    H123763   3.747   2.022   3.647 -0.3104 -0.4834 -0.0955
 7933TIP3    H223764   3.668   1.984   3.770  0.3054  0.4739  0.6100
 7934TIP3   OH223765   4.667   4.047   1.441  0.0836 -0.1787  0.6734
 7934TIP3    H123766   4.760   4.066   1.451  0.4277 -1.8694  0.9189
 7934TIP3    H223767   4.652   3.967   1.492 -1.2548 -0.5855 -0.2750
 7935TIP3   OH223768   2.737   2.191   5.375  0.7050  0.0503  0.4237
 7935TIP3    H123769   2.666   2.180   5.438 -1.1521 -1.9070 -1.8294
 7935TIP3    H223770   2.779   2.105   5.371 -0.9497 -0.7382 -2.8239
 7936TIP3   OH223771   6.949   0.234   5.357 -0.2928  0.4029  0.1016
 7936TIP3    H123772   6.947   0.141   5.335  0.8059 -0.2447  2.3484
 7936TIP3    H223773   6.858   0.262   5.354 -1.0056 -1.4425  1.8121
 7937TIP3   OH223774   5.081   0.153   1.501  0.2752 -0.9636  0.1051
 7937TIP3    H123775   5.146   0.208   1.545  0.4672 -1.5067  0.5120
 7937TIP3    H223776   5.132   0.081   1.465  0.0788 -0.6683 -0.7726
 7938TIP3   OH223777   1.636   6.726   3.474 -0.6161 -0.4002  0.7017
 7938TIP3    H123778   1.689   6.647   3.483 -2.0499 -1.4153  0.5168
 7938TIP3    H223779   1.605   6.744   3.563  1.9170  1.6176  1.2937
 7939TIP3   OH223780   2.508   4.260   3.398  0.3990  0.3344 -0.2256
 7939TIP3    H123781   2.469   4.255   3.485 -0.2487  0.9383 -0.4595
 7939TIP3    H223782   2.477   4.181   3.353 -0.0926  0.5197 -0.2212
 7940TIP3   OH223783   4.410   1.697   0.357  0.0590 -0.1825  0.0481
 7940TIP3    H123784   4.402   1.680   0.450 -0.2040 -0.8219 -0.0859
 7940TIP3    H223785   4.455   1.781   0.351 -1.9145  0.9843  0.7733
 7941TIP3   OH223786   5.080   4.117   4.972 -0.3067  0.1165 -0.2040
 7941TIP3    H123787   5.094   4.066   5.052 -0.0732 -1.5491 -1.2620
 7941TIP3    H223788   5.144   4.082   4.910  0.1359  2.0013 -0.8754
 7942TIP3   OH223789   5.053   2.625   2.380  0.1513 -0.1589  0.2719
 7942TIP3    H123790   4.999   2.550   2.356 -1.4672  0.2290  2.4539
 7942TIP3    H223791   5.011   2.661   2.458  2.6488  1.1878  1.0809
 7943TIP3   OH223792   4.387   0.408   1.016 -0.4422 -0.1719 -0.0754
 7943TIP3    H123793   4.341   0.324   1.016 -1.6728  0.3952 -2.5080
 7943TIP3    H223794   4.472   0.389   0.975  0.7705 -0.7995  2.4929
 7944TIP3   OH223795   0.311   0.593   1.328  0.3103 -0.1055 -0.0652
 7944TIP3    H123796   0.386   0.651   1.340 -0.0109  0.3983 -0.4299
 7944TIP3    H223797   0.242   0.650   1.295  0.2523 -0.8476 -1.2924
 7945TIP3   OH223798   4.279   1.326   0.014 -0.2225 -0.0657  0.0605
 7945TIP3    H123799   4.308   1.409  -0.025 -0.9369  0.1421 -0.0402
 7945TIP3    H223800   4.248   1.350   0.101 -0.6803 -0.1839 -0.0694
 7946TIP3   OH223801   1.604   0.421   3.083  0.5296 -0.3573 -0.1747
 7946TIP3    H123802   1.679   0.481   3.085  0.6940 -0.5556 -0.3926
 7946TIP3    H223803   1.634   0.347   3.031  0.9995 -1.5093  1.6181
 7947TIP3   OH223804   1.129   6.059   3.564  0.2380 -0.6178  0.5060
 7947TIP3    H123805   1.148   6.145   3.601 -0.8095 -0.9950  2.0277
 7947TIP3    H223806   1.054   6.073   3.506  0.0700 -0.4910  0.7507
 7948TIP3   OH223807   3.529   1.368   2.655 -0.4378  0.0022  0.0883
 7948TIP3    H123808   3.523   1.442   2.595  0.4639  0.0647  0.0692
 7948TIP3    H223809   3.507   1.404   2.741 -1.9337 -0.1281 -0.2059
 7949TIP3   OH223810   6.846   0.118   4.323 -0.0954 -0.5272 -0.3539
 7949TIP3    H123811   6.866   0.167   4.244  2.4959  1.9225  1.6057
 7949TIP3    H223812   6.787   0.176   4.372  0.6682 -0.6301  0.7246
 7950TIP3   OH223813   1.582   1.855   2.292  0.0617 -0.2079  0.8995
 7950TIP3    H123814   1.615   1.828   2.378 -0.0298  0.6651  1.2243
 7950TIP3    H223815   1.637   1.809   2.229  1.5407  0.7589  1.4300
 7951TIP3   OH223816   2.065   2.233   3.779 -0.4369  0.0386  0.7091
 7951TIP3    H123817   1.971   2.219   3.791 -0.2657 -1.4455  0.4242
 7951TIP3    H223818   2.077   2.327   3.794 -2.1170  0.4386 -0.2295
 7952TIP3   OH223819   2.175   3.109   1.236  0.2701 -0.3346 -0.7179
 7952TIP3    H123820   2.139   3.044   1.296  0.1905  0.2443 -0.1278
 7952TIP3    H223821   2.100   3.145   1.190  0.0107  1.0872  0.7265
 7953TIP3   OH223822   6.424   4.482   5.190  0.2669 -0.1628  0.1001
 7953TIP3    H123823   6.332   4.510   5.192  0.1803 -0.3374 -0.9816
 7953TIP3    H223824   6.425   4.399   5.237 -0.7405 -1.8028 -2.5792
 7954TIP3   OH223825   6.844   4.203   4.523 -0.2235  0.4776  0.5501
 7954TIP3    H123826   6.889   4.277   4.482  0.2422 -0.5998 -1.0092
 7954TIP3    H223827   6.795   4.241   4.595  1.6810  1.9838  1.1301
 7955TIP3   OH223828   0.373   3.016   4.426  0.2481  0.0476  0.1118
 7955TIP3    H123829   0.304   3.040   4.364  0.8565  1.5786 -0.0032
 7955TIP3    H223830   0.448   3.069   4.401  0.3088  1.2737  2.5981
 7956TIP3   OH223831   1.571   1.764   2.620 -0.2821  0.4805 -0.0126
 7956TIP3    H123832   1.595   1.854   2.597  0.2531  0.0413 -1.3097
 7956TIP3    H223833   1.653   1.715   2.613 -0.5425 -0.0903  0.8127
 7957TIP3   OH223834   1.353   0.025   4.469  0.6109 -0.0337 -0.1984
 7957TIP3    H123835   1.364   0.103   4.413 -2.6688  0.4172 -0.4063
 7957TIP3    H223836   1.359   0.059   4.558  0.0320  0.3195 -0.2898
 7958TIP3   OH223837   4.488   6.537   4.252  0.0645  0.3232 -0.2308
 7958TIP3    H123838   4.581   6.546   4.231  0.1786 -0.5821 -0.1427
 7958TIP3    H223839   4.478   6.578   4.338  0.9328 -1.9090  1.0187
 7959TIP3   OH223840   3.643   1.053   5.343 -0.2768  0.0915 -0.6717
 7959TIP3    H123841   3.596   0.993   5.401 -0.7701 -0.2688 -1.4282
 7959TIP3    H223842   3.671   1.125   5.400 -0.4638 -0.4167  0.0693
 7960TIP3   OH223843   4.054   2.983   5.737  0.3591  0.5513  0.6660
 7960TIP3    H123844   4.075   3.049   5.670 -0.4794 -1.1494 -1.3750
 7960TIP3    H223845   3.960   2.993   5.753 -0.0210 -0.8319 -0.5103
 7961TIP3   OH223846   3.038   1.667   4.622  0.0979  0.0151  0.2090
 7961TIP3    H123847   2.963   1.652   4.564  0.7636 -1.2893 -0.3625
 7961TIP3    H223848   3.046   1.762   4.626 -0.4318  0.1541 -1.2658
 7962TIP3   OH223849   0.786   0.078   4.442 -0.1147  0.1301  0.3666
 7962TIP3    H123850   0.870   0.031   4.440  1.1666  2.3090  0.0413
 7962TIP3    H223851   0.743   0.053   4.360 -0.0046 -1.3225  0.7208
 7963TIP3   OH223852   1.785   0.989   4.818 -0.1043 -0.1825 -0.4481
 7963TIP3    H123853   1.714   0.996   4.754 -0.4179  0.8099 -0.0155
 7963TIP3    H223854   1.754   0.927   4.884 -0.6320  0.3572 -0.1858
 7964TIP3   OH223855   3.800   1.505   1.619  0.4507 -0.0697 -0.2021
 7964TIP3    H123856   3.725   1.527   1.564 -0.5327 -1.6462  0.4537
 7964TIP3    H223857   3.812   1.411   1.607  0.8510 -0.2628  1.4794
 7965TIP3   OH223858   7.177   5.513   0.831 -0.4802 -0.0899  0.4274
 7965TIP3    H123859   7.198   5.586   0.773  1.1323 -1.9389 -1.5045
 7965TIP3    H223860   7.197   5.435   0.779 -0.2966 -1.8998  3.0131
 7966TIP3   OH223861   5.530   4.128   0.746 -0.0218 -0.1804  0.2046
 7966TIP3    H123862   5.493   4.215   0.761 -1.0067 -0.3882 -0.8384
 7966TIP3    H223863   5.531   4.119   0.650 -0.4455 -1.5222  0.3050
 7967TIP3   OH223864   6.577   2.434   2.684  0.2845 -0.5206  0.2939
 7967TIP3    H123865   6.637   2.507   2.678  0.1216 -0.3922  0.2172
 7967TIP3    H223866   6.534   2.430   2.599 -0.7975  0.2493  0.7796
 7968TIP3   OH223867   4.696   4.589   4.089  0.2202 -0.0965 -0.4958
 7968TIP3    H123868   4.772   4.540   4.056  0.6051 -1.0161  1.6123
 7968TIP3    H223869   4.709   4.678   4.056  3.4771  0.3619  1.5653
 7969TIP3   OH223870   3.113   5.305   2.218 -0.2301 -0.3060  0.6927
 7969TIP3    H123871   3.191   5.251   2.229 -0.1395 -0.3089  0.0969
 7969TIP3    H223872   3.116   5.366   2.292  0.0409 -0.6585  0.9806
 7970TIP3   OH223873   3.371   4.500   2.603 -0.3213  0.1931  0.5451
 7970TIP3    H123874   3.424   4.502   2.683 -1.3930 -1.0121  1.3388
 7970TIP3    H223875   3.285   4.534   2.631 -0.2444  1.3103 -0.5044
 7971TIP3   OH223876   5.190   2.155   2.934 -0.4862  0.2430  0.1718
 7971TIP3    H123877   5.240   2.221   2.886 -0.3664 -0.1466 -0.2560
 7971TIP3    H223878   5.105   2.152   2.890 -0.5513  0.2339  0.2972
 7972TIP3   OH223879   5.090   0.103   0.408  0.4007 -0.5160 -0.1337
 7972TIP3    H123880   5.147   0.156   0.463  0.6996 -0.0182 -0.8971
 7972TIP3    H223881   5.140   0.091   0.327 -1.1934  1.3168 -1.4744
 7973TIP3   OH223882   2.651   5.509   5.837 -0.0499 -0.2134  0.0132
 7973TIP3    H123883   2.727   5.491   5.892 -0.0598 -1.0086 -0.2293
 7973TIP3    H223884   2.617   5.423   5.814  0.0872  0.0944 -1.4412
 7974TIP3   OH223885   1.933   4.030   2.782  0.1606  0.1474 -0.1150
 7974TIP3    H123886   1.945   4.097   2.714 -1.0664 -2.1627 -2.7929
 7974TIP3    H223887   1.999   3.964   2.762 -2.0086 -1.8995 -0.8876
 7975TIP3   OH223888   7.067   4.499   5.682  0.2551  0.0496 -0.1783
 7975TIP3    H123889   6.977   4.530   5.690  0.0494 -0.5051 -0.2545
 7975TIP3    H223890   7.090   4.512   5.591 -0.1429 -0.8209 -0.4180
 7976TIP3   OH223891   2.802   3.665   3.863  0.2635  0.0568  0.4138
 7976TIP3    H123892   2.895   3.653   3.842  0.5119 -0.4464  1.7127
 7976TIP3    H223893   2.764   3.699   3.782  1.1588 -1.7255 -0.8339
 7977TIP3   OH223894   6.175   3.205   0.832  0.4993  0.7156 -0.9980
 7977TIP3    H123895   6.197   3.252   0.752  3.6445 -0.8287 -1.1931
 7977TIP3    H223896   6.136   3.123   0.803  0.4087  0.7157 -0.8786
 7978TIP3   OH223897   1.866   1.661   0.152  0.2794 -0.4869 -0.5283
 7978TIP3    H123898   1.798   1.716   0.190  0.6950 -0.6292  0.4581
 7978TIP3    H223899   1.948   1.704   0.177  0.6166 -1.6015  0.3822
 7979TIP3   OH223900   0.821   4.602   3.312 -0.0746 -0.2575  0.5957
 7979TIP3    H123901   0.860   4.670   3.258 -0.7759 -0.3266 -0.0123
 7979TIP3    H223902   0.859   4.615   3.399  0.5309  0.2946  0.2533
 7980TIP3   OH223903   0.496   4.639   0.716 -0.3345 -0.9074  0.0064
 7980TIP3    H123904   0.492   4.584   0.794 -0.3297 -0.8558  0.0434
 7980TIP3    H223905   0.496   4.577   0.643 -1.4468 -0.9324  0.0078
 7981TIP3   OH223906   0.491   5.331   2.853 -0.2365 -0.7377  0.2055
 7981TIP3    H123907   0.585   5.311   2.854 -0.0918 -0.0626  1.4066
 7981TIP3    H223908   0.486   5.426   2.853 -0.9338 -0.7617 -0.5592
 7982TIP3   OH223909   0.072   0.421   1.972 -0.2232  0.1912 -0.3346
 7982TIP3    H123910   0.070   0.329   1.948 -0.9532 -0.3595  1.6671
 7982TIP3    H223911   0.164   0.441   1.987 -0.1288 -0.3697 -0.1678
 7983TIP3   OH223912   0.161   5.653   5.328  0.3701  0.6986 -0.3932
 7983TIP3    H123913   0.234   5.593   5.343 -0.8513 -0.3096  2.1857
 7983TIP3    H223914   0.116   5.618   5.251  0.4369 -0.9494  0.2805
 7984TIP3   OH223915   3.439   1.782   2.351  0.5548  0.1815 -0.1287
 7984TIP3    H123916   3.444   1.869   2.390 -1.6279 -0.0980  0.8933
 7984TIP3    H223917   3.481   1.792   2.265  0.2029  2.2680 -0.1064
 7985TIP3   OH223918   6.966   2.591   2.498 -1.3308 -0.3216 -0.5149
 7985TIP3    H123919   6.873   2.601   2.477 -1.0347  0.2212 -1.6798
 7985TIP3    H223920   7.010   2.651   2.437 -0.2889  0.2659  0.7755
 7986TIP3   OH223921   6.776   3.817   5.292  0.4967  0.1688  0.4560
 7986TIP3    H123922   6.694   3.853   5.325 -0.8283 -1.5401 -0.7625
 7986TIP3    H223923   6.792   3.864   5.211  0.6887  0.4522  0.6574
 7987TIP3   OH223924   0.359   1.699   0.490 -0.5243  0.6749  0.2185
 7987TIP3    H123925   0.383   1.770   0.550 -2.1481 -0.0385  1.8212
 7987TIP3    H223926   0.282   1.658   0.531  0.1526 -1.8091 -0.7900
 7988TIP3   OH223927   1.579   1.664   4.022  0.1930 -0.1864 -0.3725
 7988TIP3    H123928   1.493   1.673   4.064 -1.1769 -1.9637 -2.5668
 7988TIP3    H223929   1.598   1.751   3.988 -0.5472  0.3328  0.5002
 7989TIP3   OH223930   0.132   5.255   1.049  0.1068  0.2250 -0.1228
 7989TIP3    H123931   0.169   5.242   1.137 -0.4815  0.3704  0.1505
 7989TIP3    H223932   0.203   5.229   0.990 -0.1840 -1.9311  0.3818
 7990TIP3   OH223933   1.841   6.270   2.924  0.3100 -0.3250 -0.2942
 7990TIP3    H123934   1.846   6.311   2.837  0.0385 -0.3041 -0.3008
 7990TIP3    H223935   1.760   6.220   2.922 -0.1053  0.3143  0.2282
 7991TIP3   OH223936   7.054   0.868   5.759 -0.5155  0.0109  0.2571
 7991TIP3    H123937   6.982   0.829   5.709  0.7557 -0.8991 -0.9080
 7991TIP3    H223938   7.064   0.810   5.835  1.1318 -1.8663 -1.2864
 7992TIP3   OH223939   4.691   1.437   0.766  0.5587 -0.0259 -0.3496
 7992TIP3    H123940   4.691   1.521   0.811 -0.9328  0.0626 -0.4633
 7992TIP3    H223941   4.698   1.372   0.835  1.6101  0.1795 -0.2534
 7993TIP3   OH223942   1.268   4.847   4.331 -0.2071  0.2894 -0.2070
 7993TIP3    H123943   1.246   4.755   4.313 -0.3100 -0.0652  1.5591
 7993TIP3    H223944   1.223   4.896   4.262 -0.6764 -0.9377 -0.8126
 7994TIP3   OH223945   4.625   1.314   4.554  0.2859 -0.3498  0.0291
 7994TIP3    H123946   4.564   1.344   4.487 -0.8633 -1.5121  0.5173
 7994TIP3    H223947   4.569   1.284   4.626  1.4798  0.3724  1.2951
 7995TIP3   OH223948   1.080   4.398   1.696  0.1532  1.1799  0.4872
 7995TIP3    H123949   1.112   4.448   1.621  1.0403 -0.6379 -0.4003
 7995TIP3    H223950   0.995   4.365   1.669  0.3955  0.6690  0.3395
 7996TIP3   OH223951   1.500   3.985   3.493  0.3357 -0.4621  0.1212
 7996TIP3    H123952   1.444   4.052   3.532  2.4070  0.7289  1.2439
 7996TIP3    H223953   1.441   3.932   3.440 -1.7978  0.7727  1.1317
 7997TIP3   OH223954   3.410   6.574   1.931 -0.3476 -0.5482  0.0293
 7997TIP3    H123955   3.326   6.614   1.955 -0.1341  0.6785 -1.1693
 7997TIP3    H223956   3.445   6.631   1.863  2.4112  0.0763  1.8487
 7998TIP3   OH223957   0.297   3.324   2.320 -0.2020 -0.2541  0.2229
 7998TIP3    H123958   0.312   3.310   2.227  0.5956  0.5682  0.2148
 7998TIP3    H223959   0.214   3.373   2.324  0.0972  0.2890 -0.1026
 7999TIP3   OH223960   2.633   3.254   5.851  0.2339  0.1767 -0.2099
 7999TIP3    H123961   2.540   3.276   5.848 -0.1782 -1.1234  1.4806
 7999TIP3    H223962   2.676   3.334   5.881 -0.4122  0.5715 -0.3276
 8000TIP3   OH223963   0.608   0.215   4.875  0.1788 -0.9054  0.0434
 8000TIP3    H123964   0.619   0.280   4.806 -1.6814  0.3299  0.8338
 8000TIP3    H223965   0.516   0.190   4.870  0.2244 -1.4408  1.5239
 8001TIP3   OH223966   1.466   4.998   1.504 -0.2464 -0.4390 -0.0141
 8001TIP3    H123967   1.428   4.925   1.455  0.7100 -0.1424 -1.2420
 8001TIP3    H223968   1.452   5.075   1.449  0.0319  0.0619  0.6024
 8002TIP3   OH223969   2.175   4.186   3.494 -0.0564 -0.0402 -0.1622
 8002TIP3    H123970   2.257   4.138   3.497 -0.5148 -0.8263  0.2262
 8002TIP3    H223971   2.118   4.140   3.556 -0.6472  0.7559 -0.0973
 8003TIP3   OH223972   2.974   0.911   3.636 -0.3276 -0.0340  0.2838
 8003TIP3    H123973   3.046   0.850   3.623  0.7436  1.6677 -2.8051
 8003TIP3    H223974   2.901   0.856   3.665  1.3027 -2.3138  0.3490
 8004TIP3   OH223975   5.396   2.070   3.053  0.1294  0.1354  0.0853
 8004TIP3    H123976   5.427   2.003   2.992  1.6210  0.6576  0.2298
 8004TIP3    H223977   5.302   2.076   3.036  0.3336 -0.4795 -1.4126
 8005TIP3   OH223978   2.487   3.667   4.348 -0.2417 -0.1821  0.0796
 8005TIP3    H123979   2.437   3.721   4.409 -0.2924  0.1141 -0.2226
 8005TIP3    H223980   2.504   3.724   4.273  0.5632 -0.2761  0.1790
 8006TIP3   OH223981   6.898   5.878   3.347 -0.3708  0.3149 -0.8181
 8006TIP3    H123982   6.883   5.795   3.301  0.3668 -0.3424  0.0951
 8006TIP3    H223983   6.920   5.940   3.278  0.7533 -0.6555 -1.3597
 8007TIP3   OH223984   1.460   4.602   0.410  0.4399 -0.1782 -0.2476
 8007TIP3    H123985   1.405   4.671   0.448  0.2921  0.7248 -2.0205
 8007TIP3    H223986   1.538   4.600   0.466 -0.3216  0.1861  0.8697
 8008TIP3   OH223987   6.720   5.498   1.348  0.0773  0.2102  0.3838
 8008TIP3    H123988   6.694   5.590   1.345  1.6823  0.7331  1.3428
 8008TIP3    H223989   6.697   5.463   1.262  0.1535  1.7157 -0.2653
 8009TIP3   OH223990   3.600   6.202   5.578  0.5435  0.5124  0.3250
 8009TIP3    H123991   3.594   6.136   5.646 -2.8159 -1.3381 -1.5112
 8009TIP3    H223992   3.581   6.284   5.622 -4.8748 -0.9444  1.4364
 8010TIP3   OH223993   2.706   5.291   5.322 -0.0398 -0.5534 -0.0449
 8010TIP3    H123994   2.661   5.372   5.302 -0.4659 -0.4402  1.2628
 8010TIP3    H223995   2.798   5.316   5.331  0.1217 -0.5713 -1.5201
 8011TIP3   OH223996   3.284   4.675   4.281  0.1987  0.4960  0.1311
 8011TIP3    H123997   3.376   4.699   4.295  0.6692 -0.5337 -0.9463
 8011TIP3    H223998   3.283   4.580   4.290 -1.1174  0.6277  1.8469
 8012TIP3   OH223999   5.486   5.852   1.060 -0.0442 -0.2271 -0.3065
 8012TIP3    H124000   5.418   5.792   1.093  0.3870 -0.5234  0.0561
 8012TIP3    H224001   5.444   5.938   1.063 -1.1092 -0.6360 -2.0344
 8013TIP3   OH224002   5.218   1.860   3.312 -0.4295 -0.9550  0.0942
 8013TIP3    H124003   5.169   1.942   3.308  0.5714 -0.3021  0.8240
 8013TIP3    H224004   5.214   1.826   3.222  0.5304  0.7444 -0.6370
 8014TIP3   OH224005   3.989   3.750   3.435  0.0602 -0.7170  0.3248
 8014TIP3    H124006   4.053   3.796   3.489 -0.0080 -1.5732  1.1725
 8014TIP3    H224007   4.039   3.680   3.393  0.0424 -0.2635 -0.4690
 8015TIP3   OH224008   0.239   1.380   5.563 -0.0691 -0.0250 -0.3952
 8015TIP3    H124009   0.311   1.418   5.513  0.4814  0.4677  0.7328
 8015TIP3    H224010   0.184   1.455   5.586 -0.3582 -0.2592 -0.3155
 8016TIP3   OH224011   6.745   3.986   4.035  0.0885  0.1072  0.1677
 8016TIP3    H124012   6.659   4.017   4.064  0.2655  0.7003  0.0686
 8016TIP3    H224013   6.747   3.894   4.060  0.1227  0.5216  1.8119
 8017TIP3   OH224014   5.803   6.069   0.892 -0.3317  1.0401  0.4000
 8017TIP3    H124015   5.886   6.087   0.936  0.6502  2.6619 -1.9141
 8017TIP3    H224016   5.799   5.974   0.887  1.9655  0.9263 -0.4026
 8018TIP3   OH224017   3.813   3.583   0.303 -0.1064 -0.1112  0.5997
 8018TIP3    H124018   3.832   3.489   0.311 -0.0949 -0.1429  0.2161
 8018TIP3    H224019   3.757   3.602   0.378 -0.1302 -0.4299  0.6680
 8019TIP3   OH224020   6.577   3.773   5.002 -0.4096 -0.0347  0.0793
 8019TIP3    H124021   6.658   3.822   5.017 -0.6544  0.5618 -0.4943
 8019TIP3    H224022   6.575   3.708   5.072 -0.1900  0.9242  1.0008
 8020TIP3   OH224023   0.884   1.930   0.208  0.4243  0.3265  0.4826
 8020TIP3    H124024   0.827   1.908   0.282 -0.0520 -0.6819 -0.1650
 8020TIP3    H224025   0.935   2.005   0.239 -1.4176  1.4338  0.9972
 8021TIP3   OH224026   1.201   5.496   0.156 -0.2117 -0.2009 -0.0107
 8021TIP3    H124027   1.128   5.557   0.168  1.0490  1.1773  1.2632
 8021TIP3    H224028   1.277   5.545   0.188  1.0945 -1.9733 -0.2718
 8022TIP3   OH224029   4.390   2.398   2.344 -0.1426  0.1627 -0.2656
 8022TIP3    H124030   4.305   2.374   2.306 -0.0529 -0.5589 -0.0186
 8022TIP3    H224031   4.376   2.393   2.439  0.2152 -0.0876 -0.2267
 8023TIP3   OH224032   1.189   6.154   3.042  0.3174  0.4216 -0.4769
 8023TIP3    H124033   1.160   6.064   3.059 -2.7967  1.1973 -0.9843
 8023TIP3    H224034   1.261   6.168   3.103  1.4801 -2.6470 -0.9519
 8024TIP3   OH224035   2.013   2.515   5.056  0.2219  0.3967  0.2750
 8024TIP3    H124036   2.039   2.518   5.148 -0.1448 -2.3510  0.5515
 8024TIP3    H224037   2.074   2.574   5.012 -0.1224  2.4103  2.3397
 8025TIP3   OH224038   5.181   2.306   4.833  0.1362 -0.3373 -0.4258
 8025TIP3    H124039   5.198   2.356   4.754  1.2373 -2.8627 -1.9177
 8025TIP3    H224040   5.166   2.372   4.901 -1.4741  1.9293 -2.8101
 8026TIP3   OH224041   1.495   0.516   5.464 -0.2589 -0.1265 -0.5582
 8026TIP3    H124042   1.454   0.458   5.529  1.3960  0.1896  0.8404
 8026TIP3    H224043   1.431   0.587   5.453 -0.9195 -0.5832  0.1382
 8027TIP3   OH224044   5.450   1.154   4.838 -0.0014 -0.7229 -0.0812
 8027TIP3    H124045   5.406   1.167   4.921  1.1647  1.2949  0.2667
 8027TIP3    H224046   5.542   1.144   4.860  0.2128 -1.1376 -1.0741
 8028TIP3   OH224047   5.361   3.051   5.650 -0.5562 -0.6097  0.6120
 8028TIP3    H124048   5.386   2.959   5.639 -0.2129 -0.4077 -0.4288
 8028TIP3    H224049   5.372   3.089   5.563 -0.4039  0.4950  1.0959
 8029TIP3   OH224050   2.433   4.357   0.174  0.0892 -0.1190  0.6072
 8029TIP3    H124051   2.382   4.292   0.127  2.3373 -2.8242  1.5561
 8029TIP3    H224052   2.522   4.346   0.141  1.0987  0.3049  2.9296
 8030TIP3   OH224053   4.341   5.813   5.609  0.4205 -0.4047  0.0479
 8030TIP3    H124054   4.391   5.825   5.690  1.9461 -0.1073 -0.8997
 8030TIP3    H224055   4.391   5.748   5.560 -0.5333 -0.6370 -0.6483
 8031TIP3   OH224056   4.157   5.192   5.375 -0.4563  0.0387 -0.5179
 8031TIP3    H124057   4.135   5.119   5.433 -0.9717  0.8312  0.2964
 8031TIP3    H224058   4.199   5.150   5.300  1.7892 -0.8743  1.1503
 8032TIP3   OH224059   5.968   0.728   2.430  0.1499  0.3148  0.5185
 8032TIP3    H124060   5.953   0.666   2.502  0.6834  0.4121  0.7188
 8032TIP3    H224061   6.058   0.758   2.443  0.5653 -0.3296 -0.6927
 8033TIP3   OH224062   3.075   2.079   3.467  0.2696 -0.2209  0.8069
 8033TIP3    H124063   2.993   2.033   3.452  0.3007  0.1358 -0.6010
 8033TIP3    H224064   3.053   2.145   3.533 -0.8289  0.4763 -0.2134
 8034TIP3   OH224065   5.522   5.240   4.577  0.0115  0.1863 -0.2754
 8034TIP3    H124066   5.448   5.183   4.597  0.7822 -0.3999  0.9911
 8034TIP3    H224067   5.546   5.280   4.660  0.6661  0.9406 -0.8026
 8035TIP3   OH224068   1.891   6.261   1.685 -0.8065  0.5022  0.4078
 8035TIP3    H124069   1.914   6.308   1.766 -1.2144  0.2162  0.6904
 8035TIP3    H224070   1.898   6.169   1.708  2.0563  0.3481 -0.7174
 8036TIP3   OH224071   6.433   0.751   3.050 -0.5563  0.2005  0.1469
 8036TIP3    H124072   6.359   0.692   3.063  1.2069 -1.8176  1.7206
 8036TIP3    H224073   6.476   0.718   2.971 -1.0191  1.0318 -0.4594
 8037TIP3   OH224074   2.759   3.112   2.076 -0.2736  0.0727  0.0495
 8037TIP3    H124075   2.834   3.053   2.082 -0.5972 -0.5403 -1.4806
 8037TIP3    H224076   2.792   3.189   2.030 -0.6462 -0.3939 -1.0544
 8038TIP3   OH224077   6.656   3.979   1.647  0.2630 -0.0760 -0.5645
 8038TIP3    H124078   6.699   4.014   1.725 -1.2334  1.3322 -0.3204
 8038TIP3    H224079   6.705   4.017   1.574  0.2422  0.4626 -0.3009
 8039TIP3   OH224080   6.298   2.003   2.216 -0.3048  0.3221 -0.5767
 8039TIP3    H124081   6.370   2.065   2.225 -1.2387  1.6677 -1.9069
 8039TIP3    H224082   6.224   2.046   2.260 -0.9824  0.2361 -1.5847
 8040TIP3   OH224083   5.644   5.623   1.405  0.4885 -0.4403  0.6946
 8040TIP3    H124084   5.706   5.606   1.476  0.1542 -0.3821  1.0088
 8040TIP3    H224085   5.559   5.628   1.449  0.1393 -1.4691  0.1496
 8041TIP3   OH224086   3.682   6.255   1.919 -0.2297  0.1325  0.0177
 8041TIP3    H124087   3.660   6.339   1.880 -1.5763  0.8980  2.2366
 8041TIP3    H224088   3.777   6.256   1.927  0.1224 -0.0894 -3.1079
 8042TIP3   OH224089   6.515   2.917   4.321 -0.1428 -0.0990  0.1808
 8042TIP3    H124090   6.526   3.006   4.353  0.9251 -0.8314  1.9926
 8042TIP3    H224091   6.420   2.905   4.315 -0.3126  1.7104 -1.8940
 8043TIP3   OH224092   1.466   4.389   1.950 -0.7265  0.2321  0.0097
 8043TIP3    H124093   1.462   4.348   1.863 -0.2560  1.4236 -0.6110
 8043TIP3    H224094   1.375   4.399   1.976 -0.9149  0.6851 -0.7730
 8044TIP3   OH224095   2.441   6.318   0.416 -0.0349  0.4252  0.8472
 8044TIP3    H124096   2.448   6.222   0.415  0.8411  0.4465 -1.4877
 8044TIP3    H224097   2.352   6.335   0.447 -0.6839 -1.2192  0.0074
 8045TIP3   OH224098   3.595   0.196   5.092  0.2027  0.0834 -0.0262
 8045TIP3    H124099   3.613   0.138   5.018  0.2578  1.2363 -0.9476
 8045TIP3    H224100   3.512   0.164   5.128  0.2567 -0.5877 -0.4733
 8046TIP3   OH224101   5.141   0.813   2.650 -0.6617  0.0038  0.0809
 8046TIP3    H124102   5.236   0.810   2.645 -0.7105 -1.7612 -0.3037
 8046TIP3    H224103   5.119   0.760   2.727 -1.3655 -0.6581 -0.5571
 8047TIP3   OH224104   2.284   2.073   2.384  0.8422  0.0605 -0.0222
 8047TIP3    H124105   2.230   2.005   2.343 -1.1747  0.8936  1.1481
 8047TIP3    H224106   2.352   2.024   2.430 -0.4017 -1.1823  0.5658
 8048TIP3   OH224107   5.263   0.427   3.925  0.0069  0.3056  0.0358
 8048TIP3    H124108   5.278   0.422   4.020  0.1719 -1.9648 -0.0572
 8048TIP3    H224109   5.349   0.447   3.888  0.6764 -1.9778  0.2074
 8049TIP3   OH224110   3.819   4.305   0.520 -0.7346 -0.4252 -0.4528
 8049TIP3    H124111   3.905   4.337   0.494  0.2167 -2.2737  0.2136
 8049TIP3    H224112   3.760   4.333   0.449  0.4989  0.4052 -1.1862
 8050TIP3   OH224113   4.788   5.623   1.730 -0.3838  0.1970  0.3097
 8050TIP3    H124114   4.878   5.639   1.705 -0.3356 -0.3099  0.1374
 8050TIP3    H224115   4.740   5.699   1.698  0.2289  1.2838  1.8823
 8051TIP3   OH224116   0.182   2.837   2.329  0.0978 -0.3836  0.3934
 8051TIP3    H124117   0.160   2.892   2.405 -1.8835  1.4653 -1.3531
 8051TIP3    H224118   0.117   2.767   2.331 -0.5136  0.1566 -0.0241
 8052TIP3   OH224119   6.891   4.099   0.158  0.0959  0.1779  0.4987
 8052TIP3    H124120   6.842   4.176   0.129  0.7681  0.8796  1.1821
 8052TIP3    H224121   6.844   4.069   0.236  1.0734  1.2541  1.5590
 8053TIP3   OH224122   4.147   2.335   1.545  0.2632 -0.1670  0.0095
 8053TIP3    H124123   4.223   2.314   1.599  0.2586  0.6619  0.3564
 8053TIP3    H224124   4.110   2.250   1.521 -0.1890 -0.5846  1.9806
 8054TIP3   OH224125   6.477   2.411   4.223  0.5715 -0.2608  0.0823
 8054TIP3    H124126   6.408   2.456   4.174  0.1749 -1.1516 -0.1845
 8054TIP3    H224127   6.436   2.390   4.307  1.8773  3.2177  1.8025
 8055TIP3   OH224128   5.606   2.178   5.071  0.3241 -0.2186  0.0887
 8055TIP3    H124129   5.612   2.230   5.151  0.5276 -0.7636  0.4338
 8055TIP3    H224130   5.513   2.175   5.051  0.3494  0.6754 -0.2023
 8056TIP3   OH224131   5.524   2.020   1.889 -0.4139 -0.0060 -0.5180
 8056TIP3    H124132   5.603   2.029   1.942  0.5884  0.2515 -1.9720
 8056TIP3    H224133   5.468   1.960   1.938  0.4784  0.1902  0.7822
 8057TIP3   OH224134   6.968   0.429   2.775  0.3519 -0.1987  0.2988
 8057TIP3    H124135   6.953   0.479   2.856  1.3963  0.1513  0.2993
 8057TIP3    H224136   6.894   0.452   2.719 -0.2649 -0.2635  1.0641
 8058TIP3   OH224137   1.507   5.749   3.049  0.6270 -0.2634 -0.5039
 8058TIP3    H124138   1.586   5.719   3.093  0.4098 -0.2254 -0.0843
 8058TIP3    H224139   1.460   5.800   3.116  0.4269  0.0198 -0.8570
 8059TIP3   OH224140   3.854   5.162   1.947  0.3345  0.2081  0.2939
 8059TIP3    H124141   3.883   5.156   1.856  0.8686 -0.7478  0.5040
 8059TIP3    H224142   3.766   5.199   1.942  0.5506  0.6296 -0.5705
 8060TIP3   OH224143   6.306   4.339   2.603  0.0233 -0.3647 -0.7243
 8060TIP3    H124144   6.293   4.434   2.612 -0.0830 -0.3809 -0.7168
 8060TIP3    H224145   6.235   4.310   2.546 -1.1867 -0.7771  0.9149
 8061TIP3   OH224146   3.603   5.524   4.804 -0.4680  0.4945 -0.5328
 8061TIP3    H124147   3.587   5.501   4.896  0.7576  1.7542  0.0363
 8061TIP3    H224148   3.516   5.546   4.770 -0.7407  1.8836  0.9058
 8062TIP3   OH224149   6.385   3.252   1.889 -0.4207  0.1955 -0.3031
 8062TIP3    H124150   6.440   3.249   1.968  0.0683  1.3692 -0.5645
 8062TIP3    H224151   6.402   3.339   1.853  0.1351 -0.6616 -2.2474
 8063TIP3   OH224152   3.613   2.843   4.997  0.1789 -0.7030 -0.0961
 8063TIP3    H124153   3.707   2.860   4.993  0.1344 -0.4359 -0.0218
 8063TIP3    H224154   3.585   2.842   4.905  0.2477 -0.7441 -0.1167
 8064TIP3   OH224155   5.279   6.158   0.606 -0.0370  0.0540 -0.3209
 8064TIP3    H124156   5.186   6.148   0.626 -0.0494 -1.0987 -0.8674
 8064TIP3    H224157   5.303   6.077   0.561  2.0650 -1.2739  2.8720
 8065TIP3   OH224158   3.120   0.560   2.444  0.1362  0.0481 -0.0581
 8065TIP3    H124159   3.132   0.466   2.436 -0.4431  0.0445 -0.9918
 8065TIP3    H224160   3.209   0.596   2.449  0.3819 -0.4695 -0.6379
 8066TIP3   OH224161   3.581   4.891   1.865 -0.1618 -0.3079  0.1586
 8066TIP3    H124162   3.650   4.921   1.807 -1.1235  1.4735 -0.1346
 8066TIP3    H224163   3.534   4.824   1.815  0.3029 -0.3036 -0.2896
 8067TIP3   OH224164   5.898   3.497   3.061  0.1008  0.3520 -0.3078
 8067TIP3    H124165   5.994   3.497   3.071  0.0785  0.4603 -0.0925
 8067TIP3    H224166   5.884   3.472   2.969  0.3113 -0.5075 -0.1157
 8068TIP3   OH224167   4.048   3.237   2.348  0.6994  0.2082 -0.4085
 8068TIP3    H124168   4.063   3.195   2.433  1.9188  0.7557 -0.3202
 8068TIP3    H224169   4.125   3.294   2.336  0.9085 -0.3826 -2.2007
 8069TIP3   OH224170   2.400   6.321   0.106 -0.1053 -0.1543  0.0126
 8069TIP3    H124171   2.373   6.254   0.169  1.2748  0.7956  1.7323
 8069TIP3    H224172   2.406   6.401   0.158  1.5192  0.5820 -1.2201
 8070TIP3   OH224173   3.343   1.468   5.219  0.1955 -0.1403 -0.1915
 8070TIP3    H124174   3.248   1.457   5.213  0.3169 -0.8784 -0.9894
 8070TIP3    H224175   3.358   1.503   5.307 -0.6889 -1.4149  0.5021
 8071TIP3   OH224176   0.604   2.056   5.118 -0.5271 -0.0805 -0.0263
 8071TIP3    H124177   0.685   2.091   5.081  1.0707  0.1941  3.3072
 8071TIP3    H224178   0.536   2.116   5.089  0.8900  1.2285 -0.8035
 8072TIP3   OH224179   4.745   6.049   4.741  0.3967 -0.1956  0.3800
 8072TIP3    H124180   4.725   6.003   4.659 -1.6292  1.8320 -0.3639
 8072TIP3    H224181   4.815   5.998   4.780 -0.4548 -2.8388 -1.2612
 8073TIP3   OH224182   5.936   2.991   3.701 -0.1455 -0.0945  0.1667
 8073TIP3    H124183   6.014   3.015   3.751 -0.2780  2.0869 -0.5625
 8073TIP3    H224184   5.890   2.929   3.757  1.8687 -1.1008  0.8029
 8074TIP3   OH224185   0.966   1.526   1.131  1.3022 -0.3085  0.5205
 8074TIP3    H124186   0.914   1.494   1.205  1.4251  0.6076  1.0193
 8074TIP3    H224187   0.936   1.616   1.118 -0.5326 -1.1712 -2.1939
 8075TIP3   OH224188   2.659   6.067   1.617  0.2931  0.2908  0.7034
 8075TIP3    H124189   2.608   5.986   1.629 -0.4837  0.4341 -1.1461
 8075TIP3    H224190   2.713   6.049   1.539 -0.9769  2.0083 -0.6518
 8076TIP3   OH224191   3.105   3.368   5.290  0.4514  0.2867  0.7785
 8076TIP3    H124192   3.032   3.427   5.273 -0.3041  0.1279  3.1748
 8076TIP3    H224193   3.067   3.295   5.339  1.8550 -0.8401  0.2655
 8077TIP3   OH224194   1.465   5.891   5.388  0.4445  0.5632 -0.5022
 8077TIP3    H124195   1.486   5.834   5.315 -0.0597 -0.1857 -0.0790
 8077TIP3    H224196   1.400   5.842   5.439 -0.6320  1.8478 -0.5740
 8078TIP3   OH224197   1.226   5.820   0.001 -0.0530 -0.0057 -0.7624
 8078TIP3    H124198   1.258   5.788   0.085 -0.2561  0.5677 -0.4576
 8078TIP3    H224199   1.222   5.743  -0.055 -1.2006 -0.6470  0.1530
 8079TIP3   OH224200   3.396   2.012   2.940  0.2080 -0.7484 -0.0782
 8079TIP3    H124201   3.442   2.060   2.871  0.8423 -1.8938 -0.4681
 8079TIP3    H224202   3.304   2.021   2.918  0.2909  0.5433  0.0297
 8080TIP3   OH224203   0.210   0.489   5.110 -0.3221  0.1592  0.1077
 8080TIP3    H124204   0.220   0.400   5.077 -1.0192  0.4329 -0.8781
 8080TIP3    H224205   0.154   0.480   5.187  0.5126 -0.3707  0.6707
 8081TIP3   OH224206   2.972   5.964   3.160  0.8141 -0.1661 -0.0181
 8081TIP3    H124207   2.943   6.025   3.092  0.8910 -0.3185 -0.1896
 8081TIP3    H224208   2.982   6.018   3.238  0.9495  0.0532 -0.1855
 8082TIP3   OH224209   6.903   6.441   2.913  0.5391 -0.0595  0.1976
 8082TIP3    H124210   6.891   6.458   3.007 -0.1368  0.6607 -0.0059
 8082TIP3    H224211   6.925   6.527   2.876 -0.4520 -0.0763 -0.4832
 8083TIP3   OH224212   5.541   3.456   0.231  0.2522  0.1837  0.0669
 8083TIP3    H124213   5.590   3.378   0.255  0.1649  0.0766 -0.0960
 8083TIP3    H224214   5.551   3.515   0.305  1.1940  0.4354 -0.2376
 8084TIP3   OH224215   2.187   0.242   1.373 -0.0290 -0.5505 -0.1221
 8084TIP3    H124216   2.134   0.316   1.404  1.1370  0.9602 -1.5586
 8084TIP3    H224217   2.125   0.188   1.325 -0.6325  0.2901 -0.3215
 8085TIP3   OH224218   3.600   6.350   3.390  0.7731  0.0792  0.2969
 8085TIP3    H124219   3.549   6.292   3.334  0.7099  0.4861 -0.0722
 8085TIP3    H224220   3.581   6.438   3.357  0.7493  0.3246  0.9445
 8086TIP3   OH224221   6.199   1.073   3.771  0.1132 -0.3316  0.0548
 8086TIP3    H124222   6.258   1.148   3.778 -0.4745  0.0345  1.4140
 8086TIP3    H224223   6.118   1.109   3.733  0.3561 -0.6024 -0.7367
 8087TIP3   OH224224   0.304   5.275   4.891  0.2492  0.0527  0.1154
 8087TIP3    H124225   0.240   5.263   4.821 -0.3793  0.7737  0.5479
 8087TIP3    H224226   0.388   5.254   4.851 -0.2079 -0.4853 -0.5840
 8088TIP3   OH224227   5.318   3.624   4.948 -0.6038  0.3511 -0.5846
 8088TIP3    H124228   5.330   3.665   5.034 -2.1873  1.6755 -0.9278
 8088TIP3    H224229   5.365   3.682   4.888 -0.1732 -0.1285 -0.7135
 8089TIP3   OH224230   1.210   2.860   2.030  0.3003 -0.0662  0.1472
 8089TIP3    H124231   1.182   2.952   2.034  2.4697  0.6796 -0.1783
 8089TIP3    H224232   1.256   2.853   1.946  0.4784 -1.3505  0.3289
 8090TIP3   OH224233   5.682   6.284   1.188  0.2383  0.0157 -0.0274
 8090TIP3    H124234   5.657   6.346   1.256 -0.1280 -0.6171  0.4185
 8090TIP3    H224235   5.759   6.323   1.147 -1.1127  1.7361 -1.0689
 8091TIP3   OH224236   7.009   6.409   3.601  0.5601  0.3496  0.0177
 8091TIP3    H124237   6.944   6.377   3.538  0.6755 -0.9350  0.5202
 8091TIP3    H224238   7.088   6.359   3.581  0.5582 -0.1992  1.2465
 8092TIP3   OH224239   6.666   4.846   4.444 -0.2987 -0.1156  0.0906
 8092TIP3    H124240   6.637   4.931   4.477  1.5610  0.5672  0.1147
 8092TIP3    H224241   6.585   4.798   4.428 -1.5831  2.4539 -2.1210
 8093TIP3   OH224242   3.531   4.423   3.674  0.5997  0.0595  0.3170
 8093TIP3    H124243   3.578   4.398   3.595  1.2700  0.6843  0.5088
 8093TIP3    H224244   3.558   4.359   3.739  1.2500  0.4587  0.4449
 8094TIP3   OH224245   2.260   2.047   1.327 -0.7915  0.2189  0.1543
 8094TIP3    H124246   2.280   2.042   1.420  0.5339 -2.4322 -0.1815
 8094TIP3    H224247   2.166   2.031   1.321 -1.3746  2.8360  1.1199
 8095TIP3   OH224248   1.096   4.257   3.111 -0.0393 -0.0984  0.2433
 8095TIP3    H124249   1.052   4.182   3.150 -0.8431  0.8105  1.1417
 8095TIP3    H224250   1.121   4.312   3.185  1.4023  0.0612 -0.3438
 8096TIP3   OH224251   0.177   3.746   1.328 -0.1842  0.1925  0.5069
 8096TIP3    H124252   0.094   3.700   1.337 -0.6354  0.8332 -0.2264
 8096TIP3    H224253   0.228   3.692   1.268  1.5392 -2.3196  3.8818
 8097TIP3   OH224254   0.109   1.653   3.371  0.2399 -0.5392 -0.2003
 8097TIP3    H124255   0.154   1.629   3.452  1.2616  0.7513 -0.3606
 8097TIP3    H224256   0.090   1.569   3.329  1.1402 -1.1750  0.6077
 8098TIP3   OH224257   5.824   5.025   0.485  0.4921 -0.1677 -0.3922
 8098TIP3    H124258   5.811   5.056   0.574 -1.4910  0.1545 -0.7410
 8098TIP3    H224259   5.809   4.931   0.490  2.4868 -0.5117 -0.0546
 8099TIP3   OH224260   7.102   5.626   4.660 -0.4267 -0.2162 -0.4478
 8099TIP3    H124261   7.128   5.694   4.722 -2.5778 -0.7431  1.1644
 8099TIP3    H224262   7.074   5.674   4.582  2.1973  0.4644 -1.0862
 8100TIP3   OH224263   3.678   5.775   5.881  0.3199 -0.2977  0.2641
 8100TIP3    H124264   3.746   5.715   5.913 -1.2008 -2.3337 -0.1260
 8100TIP3    H224265   3.649   5.737   5.798 -1.1600  0.6085  0.3304
 8101TIP3   OH224266   6.850   6.286   2.471 -0.1245  0.2022  0.2265
 8101TIP3    H124267   6.792   6.290   2.547  0.9583  0.6827  1.0523
 8101TIP3    H224268   6.793   6.260   2.398 -1.1794 -0.2563  1.1927
 8102TIP3   OH224269   6.227   5.122   3.711 -0.4189 -0.1178  0.4028
 8102TIP3    H124270   6.279   5.071   3.648 -0.3539  0.5980 -0.1398
 8102TIP3    H224271   6.143   5.076   3.716 -1.0221  0.6617 -1.4472
 8103TIP3   OH224272   4.377   5.515   5.819  0.6990  0.3210  0.0659
 8103TIP3    H124273   4.339   5.453   5.757  1.2699 -2.3503  2.1959
 8103TIP3    H224274   4.469   5.524   5.792  1.2210 -1.6566  1.0381
 8104TIP3   OH224275   3.353   5.509   0.985  0.3447  0.4544  0.3200
 8104TIP3    H124276   3.407   5.486   1.060  0.3787  0.6924  0.3702
 8104TIP3    H224277   3.321   5.425   0.952  0.2614  0.3528  0.6516
 8105TIP3   OH224278   3.194   4.060   0.220  0.3640  0.1200 -0.3239
 8105TIP3    H124279   3.110   4.057   0.174 -0.1904  2.6177  0.3456
 8105TIP3    H224280   3.189   3.989   0.284 -0.3757 -1.0392 -1.6194
 8106TIP3   OH224281   2.019   5.571   4.740  0.6718 -0.5870  0.6691
 8106TIP3    H124282   1.931   5.587   4.776  0.7583 -1.0137  1.0740
 8106TIP3    H224283   2.012   5.600   4.649 -0.0089 -0.9906  0.5790
 8107TIP3   OH224284   6.457   4.320   0.954  0.2182 -0.0798 -0.7116
 8107TIP3    H124285   6.504   4.326   0.871 -1.1705  0.0520 -1.5297
 8107TIP3    H224286   6.472   4.231   0.984  0.1512 -0.3589 -1.4849
 8108TIP3   OH224287   2.876   6.557   4.083 -0.5499  0.2567 -0.7341
 8108TIP3    H124288   2.827   6.527   4.160 -1.0488 -1.0266 -1.5152
 8108TIP3    H224289   2.927   6.631   4.115 -1.8404  0.6687  0.4777
 8109TIP3   OH224290   0.235   3.165   3.815 -0.2099 -0.5576  0.2723
 8109TIP3    H124291   0.319   3.119   3.818 -0.3162 -0.7281  0.7818
 8109TIP3    H224292   0.187   3.131   3.890  0.7844  2.4421  2.4948
 8110TIP3   OH224293   1.170   6.560   0.255  0.4899 -0.2720 -0.4831
 8110TIP3    H124294   1.132   6.506   0.185 -1.0409 -1.2599  1.0083
 8110TIP3    H224295   1.240   6.506   0.291  1.0361  0.0844 -0.9908
 8111TIP3   OH224296   6.601   4.597   5.009  0.2960  0.0095  0.1084
 8111TIP3    H124297   6.538   4.633   4.947  0.5595  1.1586  0.4801
 8111TIP3    H224298   6.549   4.540   5.066 -0.3415  0.6639  0.1932
 8112TIP3   OH224299   7.137   4.756   5.473 -0.0061 -0.0140 -0.2487
 8112TIP3    H124300   7.116   4.777   5.563 -0.3571 -1.3939  0.0239
 8112TIP3    H224301   7.056   4.720   5.437  1.0738 -3.0483  0.0638
 8113TIP3   OH224302   0.581   3.983   1.802  0.0957 -0.3130  0.4779
 8113TIP3    H124303   0.547   3.941   1.881 -0.0664  2.6149  2.0858
 8113TIP3    H224304   0.671   3.952   1.795  0.4390  0.1419  2.4382
 8114TIP3   OH224305   4.857   4.042   3.756  0.2832  0.9579 -0.3937
 8114TIP3    H124306   4.918   4.048   3.683  0.6836  1.1751 -0.0482
 8114TIP3    H224307   4.905   3.993   3.823  0.7180  2.5616  0.5098
 8115TIP3   OH224308   5.386   5.275   1.087 -0.0806 -0.5430 -0.3799
 8115TIP3    H124309   5.341   5.260   1.170 -1.5701 -1.5460 -1.3128
 8115TIP3    H224310   5.406   5.368   1.087 -1.1823 -0.2795  0.5657
 8116TIP3   OH224311   0.502   5.970   4.477 -0.6353  0.0794 -0.4370
 8116TIP3    H124312   0.587   6.007   4.503 -0.4129  0.3061 -1.4461
 8116TIP3    H224313   0.524   5.887   4.434 -1.0362 -0.5460  0.5226
 8117TIP3   OH224314   1.772   0.864   1.297 -0.5261  0.0789 -0.1911
 8117TIP3    H124315   1.844   0.802   1.286 -0.0502  0.6475 -0.3694
 8117TIP3    H224316   1.739   0.879   1.209 -0.1153  0.6759 -0.2524
 8118TIP3   OH224317   7.223   5.879   5.378  0.1952  0.3313 -0.5406
 8118TIP3    H124318   7.128   5.865   5.379 -0.1902  2.4898 -1.5447
 8118TIP3    H224319   7.260   5.791   5.369 -1.6155 -0.7184  1.2464
 8119TIP3   OH224320   4.263   1.108   3.585 -0.5891 -0.0649 -0.1709
 8119TIP3    H124321   4.202   1.039   3.559 -1.0527  0.5715 -0.8308
 8119TIP3    H224322   4.279   1.092   3.678 -0.4608 -1.2218 -0.3829
 8120TIP3   OH224323   1.325   1.295   3.372 -0.1165  0.7161 -0.2242
 8120TIP3    H124324   1.312   1.223   3.433 -3.4494 -1.0261 -2.6398
 8120TIP3    H224325   1.250   1.352   3.387 -0.0790  1.1337 -1.5166
 8121TIP3   OH224326   1.120   4.633   4.834  0.3839  0.1951 -0.5264
 8121TIP3    H124327   1.041   4.599   4.877  0.6093 -0.7548 -0.8365
 8121TIP3    H224328   1.088   4.669   4.751  0.2391  0.0942 -0.5146
 8122TIP3   OH224329   6.358   6.515   2.116  0.1670 -0.3328  0.1673
 8122TIP3    H124330   6.409   6.435   2.107 -0.0210 -0.3302 -1.0494
 8122TIP3    H224331   6.408   6.580   2.066  0.6140  0.4658  1.5992
 8123TIP3   OH224332   3.156   6.080   5.228 -0.1182  0.3723 -0.7432
 8123TIP3    H124333   3.226   6.118   5.282  0.4255 -1.6709  0.0925
 8123TIP3    H224334   3.197   6.006   5.184 -1.7241 -0.8843 -0.2425
 8124TIP3   OH224335   0.087   4.629   3.761 -0.8098 -0.2320  0.6264
 8124TIP3    H124336   0.165   4.655   3.712 -1.6958  0.2060 -0.6228
 8124TIP3    H224337   0.075   4.698   3.826 -0.8512  0.3654 -0.0050
 8125TIP3   OH224338   0.144   1.020   3.066 -0.2462  0.2900 -0.0225
 8125TIP3    H124339   0.057   0.984   3.048 -0.1847  0.0082  0.2336
 8125TIP3    H224340   0.150   1.022   3.162  0.3715 -0.5401 -0.0280
 8126TIP3   OH224341   5.786   4.015   0.894  0.1142 -0.0479 -0.1265
 8126TIP3    H124342   5.779   3.939   0.951 -1.5475 -1.9038 -2.5899
 8126TIP3    H224343   5.711   4.008   0.834 -0.2310  3.6501 -0.4020
 8127TIP3   OH224344   2.057   0.465   0.469  0.2326 -0.8424  0.2338
 8127TIP3    H124345   2.099   0.400   0.413  0.9176 -0.9571  0.8640
 8127TIP3    H224346   2.130   0.517   0.505 -0.2708 -0.0264  0.1094
 8128TIP3   OH224347   0.327   3.677   3.524 -0.2315 -0.1061 -0.1290
 8128TIP3    H124348   0.334   3.599   3.579  0.8758  0.4242  0.5071
 8128TIP3    H224349   0.380   3.658   3.447 -0.0684 -0.0388 -0.0343
 8129TIP3   OH224350   3.286   0.201   1.017  0.4259  0.2031 -0.2992
 8129TIP3    H124351   3.236   0.244   0.948 -0.2135  0.5843  0.3913
 8129TIP3    H224352   3.341   0.270   1.053 -0.3878  0.3961  0.6112
 8130TIP3   OH224353   0.846   1.969   1.617 -0.1918  0.6061  0.2059
 8130TIP3    H124354   0.904   1.941   1.546 -1.1622 -0.2303 -0.2852
 8130TIP3    H224355   0.901   1.969   1.695  0.7568  1.0074 -0.4525
 8131TIP3   OH224356   6.216   0.231   1.581  0.2454  0.0529 -0.1600
 8131TIP3    H124357   6.285   0.228   1.514 -0.1662 -0.5040 -0.5728
 8131TIP3    H224358   6.142   0.186   1.540  0.0822 -0.5542  0.7796
 8132TIP3   OH224359   5.847   2.681   2.636  0.1613  0.6392 -0.0598
 8132TIP3    H124360   5.875   2.714   2.721  0.6854  1.2265 -0.4469
 8132TIP3    H224361   5.766   2.728   2.617 -0.1437  0.2514  0.2645
 8133TIP3   OH224362   1.691   0.405   1.759 -0.1294 -0.3969  0.4886
 8133TIP3    H124363   1.640   0.327   1.781 -1.0564  0.0574  0.0298
 8133TIP3    H224364   1.647   0.440   1.682 -0.9796  1.7157  1.8675
 8134TIP3   OH224365   1.643   4.266   4.609 -0.4291 -0.0414  0.2800
 8134TIP3    H124366   1.716   4.325   4.590  0.0995 -1.2205 -1.5809
 8134TIP3    H224367   1.624   4.281   4.702  0.2721  2.3608  0.1094
 8135TIP3   OH224368   6.693   6.500   1.983  0.4080  0.0379  0.2462
 8135TIP3    H124369   6.704   6.434   2.052  0.4614  0.5975  0.7848
 8135TIP3    H224370   6.771   6.554   1.990  0.6953 -0.2402 -0.6481
 8136TIP3   OH224371   6.610   2.444   1.057  0.0358 -0.3796 -0.0320
 8136TIP3    H124372   6.669   2.376   1.090 -2.5039 -2.0591  1.3881
 8136TIP3    H224373   6.541   2.397   1.011 -0.6959  1.4124 -0.8816
 8137TIP3   OH224374   4.505   1.520   5.166  0.0933  0.1776  0.1560
 8137TIP3    H124375   4.477   1.581   5.098 -1.0361  0.3478  0.7569
 8137TIP3    H224376   4.428   1.467   5.185  0.6503 -0.4669  0.6766
 8138TIP3   OH224377   1.261   6.220   5.672 -0.2206 -0.0959  0.1325
 8138TIP3    H124378   1.277   6.192   5.582  0.6692 -2.3094  0.9215
 8138TIP3    H224379   1.227   6.142   5.716  1.7421  0.1648  2.3024
 8139TIP3   OH224380   3.279   2.214   1.256 -0.6728  1.0792  0.5037
 8139TIP3    H124381   3.356   2.162   1.232 -1.6630  0.0479 -0.5427
 8139TIP3    H224382   3.261   2.189   1.347  0.1697  1.2694  0.7314
 8140TIP3   OH224383   5.792   6.155   2.963  0.2624 -0.2378 -0.3115
 8140TIP3    H124384   5.839   6.209   2.899 -0.5292  0.5262 -0.2695
 8140TIP3    H224385   5.795   6.206   3.044  0.1169 -0.5892 -0.0816
 8141TIP3   OH224386   7.067   1.376   5.322  0.5416 -0.3589  0.3010
 8141TIP3    H124387   6.984   1.329   5.322  0.2711  0.1127  0.4932
 8141TIP3    H224388   7.129   1.314   5.362  0.5621 -1.1771 -0.9560
 8142TIP3   OH224389   5.741   2.321   5.641 -0.1990  0.3240 -0.0436
 8142TIP3    H124390   5.775   2.354   5.558  0.1420  1.4583  0.5196
 8142TIP3    H224391   5.818   2.285   5.686 -0.4073 -0.4123 -0.2764
 8143TIP3   OH224392   6.763   1.718   4.951 -0.3778  0.4486  0.4590
 8143TIP3    H124393   6.678   1.722   4.995 -1.4276 -2.4589 -1.0314
 8143TIP3    H224394   6.792   1.627   4.963  1.1462  0.6178 -1.4488
 8144TIP3   OH224395   6.398   3.213   2.761  0.1144  0.1100  0.3676
 8144TIP3    H124396   6.464   3.153   2.797 -0.2463 -1.4326 -1.3751
 8144TIP3    H224397   6.314   3.171   2.780 -0.0587 -1.4320 -3.1277
 8145TIP3   OH224398   5.988   3.835   2.748 -0.0353  0.1670  0.3209
 8145TIP3    H124399   6.065   3.862   2.698  0.3457  1.0061  1.3106
 8145TIP3    H224400   6.024   3.807   2.833 -0.8012  0.4391  0.7445
 8146TIP3   OH224401   1.672   1.084   2.676  0.2302  0.3267 -0.0023
 8146TIP3    H124402   1.757   1.042   2.662 -0.0489 -1.0564  2.0450
 8146TIP3    H224403   1.626   1.074   2.593  2.0234  1.1033 -1.1585
 8147TIP3   OH224404   5.925   5.321   3.376  0.0817  0.1236  0.7207
 8147TIP3    H124405   5.906   5.230   3.352 -0.2844  0.2627  0.4828
 8147TIP3    H224406   5.939   5.318   3.471 -1.0166  0.0054  0.8834
 8148TIP3   OH224407   4.304   5.795   3.747  0.0391  0.2586 -0.7659
 8148TIP3    H124408   4.250   5.726   3.709 -0.1149  0.7515 -1.4789
 8148TIP3    H224409   4.281   5.796   3.840 -1.3267  0.5609 -1.0821
 8149TIP3   OH224410   5.485   0.468   0.159 -0.2789 -0.5498 -0.0647
 8149TIP3    H124411   5.431   0.513   0.224 -0.0427 -0.1931 -0.1145
 8149TIP3    H224412   5.475   0.375   0.180  1.3922 -0.3790  1.7806
 8150TIP3   OH224413   1.068   5.901   1.890 -0.0475 -0.3948 -0.0971
 8150TIP3    H124414   1.123   5.944   1.955  0.2172  0.2540 -0.7481
 8150TIP3    H224415   1.100   5.811   1.888 -0.1929 -0.4787  0.8081
 8151TIP3   OH224416   0.832   4.186   0.631 -0.3705  0.0365  0.1936
 8151TIP3    H124417   0.785   4.147   0.557 -0.5949  0.1805  0.2578
 8151TIP3    H224418   0.826   4.120   0.700 -3.4513  1.3503  1.3637
 8152TIP3   OH224419   0.060   2.835   4.344  0.2925 -0.4193 -0.1834
 8152TIP3    H124420  -0.017   2.868   4.297  0.6470  1.2231  0.3432
 8152TIP3    H224421   0.031   2.751   4.380 -0.3659 -1.1776 -2.2863
 8153TIP3   OH224422   4.308   5.824   1.624 -0.3607  0.1486 -0.1030
 8153TIP3    H124423   4.372   5.882   1.666  2.1211 -1.1371 -1.8733
 8153TIP3    H224424   4.253   5.884   1.572  0.5797  1.1443  0.0031
 8154TIP3   OH224425   4.872   4.211   5.674  0.1689  0.1676 -0.5387
 8154TIP3    H124426   4.884   4.264   5.752  0.5680  0.6860 -0.9524
 8154TIP3    H224427   4.789   4.166   5.688 -0.1285  0.8312 -0.1460
 8155TIP3   OH224428   3.900   5.478   5.726  0.2826  0.0349 -0.4151
 8155TIP3    H124429   3.833   5.507   5.788  0.8094  0.4826 -0.0350
 8155TIP3    H224430   3.934   5.559   5.688  1.8592 -0.0414  0.7399
 8156TIP3   OH224431   6.996   0.774   1.722  0.4066  0.1965  0.6184
 8156TIP3    H124432   6.928   0.743   1.782  0.0907 -0.1432  0.1001
 8156TIP3    H224433   7.067   0.711   1.731 -0.2025 -0.6637 -0.3732
 8157TIP3   OH224434   1.015   0.689   5.496 -0.1136  0.6558  0.0600
 8157TIP3    H124435   0.965   0.647   5.426 -1.3885  1.2520  0.5723
 8157TIP3    H224436   1.030   0.619   5.559 -1.7408  0.7867  0.6487
 8158TIP3   OH224437   1.106   3.041   0.840 -0.2509 -0.0823  0.5503
 8158TIP3    H124438   1.116   2.975   0.772 -0.8158  2.4206 -2.1901
 8158TIP3    H224439   1.013   3.042   0.860 -0.1149 -0.6813  1.2245
 8159TIP3   OH224440   0.330   5.313   5.175 -0.2873  0.0623  0.4957
 8159TIP3    H124441   0.364   5.308   5.086 -1.2319  0.0870  0.1251
 8159TIP3    H224442   0.258   5.375   5.170 -0.7657 -0.4234  1.1377
 8160TIP3   OH224443   5.179   5.649   1.246 -0.0191  0.5588 -0.1494
 8160TIP3    H124444   5.105   5.611   1.295  1.4760  0.6100  2.3076
 8160TIP3    H224445   5.192   5.735   1.286  3.0281 -0.4913  1.4745
 8161TIP3   OH224446   4.912   2.670   4.361 -0.1372 -0.2813  0.0802
 8161TIP3    H124447   4.849   2.682   4.432  0.5681  0.0947  0.6537
 8161TIP3    H224448   4.988   2.628   4.402  0.2424 -0.1388 -0.4606
 8162TIP3   OH224449   0.680   6.242   0.478 -0.5846 -0.1505  0.0186
 8162TIP3    H124450   0.680   6.160   0.428 -0.3453  0.7161 -1.4771
 8162TIP3    H224451   0.646   6.307   0.417  1.6058  1.3600  0.2927
 8163TIP3   OH224452   5.172   2.404   0.408  0.1179 -0.0404 -0.0999
 8163TIP3    H124453   5.078   2.422   0.403  0.2422  0.3605 -1.6947
 8163TIP3    H224454   5.183   2.323   0.358  0.5218 -0.5756  0.8267
 8164TIP3   OH224455   5.940   0.599   1.879  1.0228  0.4825  0.1822
 8164TIP3    H124456   5.892   0.544   1.940 -2.5404  0.3953 -2.4243
 8164TIP3    H224457   5.994   0.538   1.828  1.7698  0.2295  1.2443
 8165TIP3   OH224458   4.882   3.637   4.059  0.1372  0.8982  0.3127
 8165TIP3    H124459   4.941   3.595   4.122  2.6979  0.2383 -2.3075
 8165TIP3    H224460   4.796   3.598   4.078  1.5128 -2.1939  0.9478
 8166TIP3   OH224461   4.069   0.432   1.527  0.0058 -0.5144  0.2246
 8166TIP3    H124462   3.980   0.467   1.527 -0.2001 -1.0384  1.1357
 8166TIP3    H224463   4.067   0.362   1.463 -0.3470 -0.8015  0.5474
 8167TIP3   OH224464   2.735   3.177   5.535  1.0692 -0.9107 -0.3026
 8167TIP3    H124465   2.670   3.107   5.540 -2.9398  2.5233  2.4885
 8167TIP3    H224466   2.755   3.184   5.442 -1.8909 -2.8451 -1.2363
 8168TIP3   OH224467   1.191   5.404   2.119  0.1657 -0.6775  0.3301
 8168TIP3    H124468   1.268   5.347   2.126 -0.3093 -1.5283 -1.0233
 8168TIP3    H224469   1.137   5.381   2.195  1.2956  0.0345  1.3728
 8169TIP3   OH224470   1.971   0.307   5.235 -0.1076  0.0442 -0.3916
 8169TIP3    H124471   1.994   0.372   5.168  0.3531  1.2409  0.8705
 8169TIP3    H224472   2.043   0.244   5.233 -0.3310 -0.1943 -1.3268
 8170TIP3   OH224473   4.662   1.294   1.209  0.7838  0.3253  0.3303
 8170TIP3    H124474   4.625   1.310   1.123 -0.2053  2.0306  1.0253
 8170TIP3    H224475   4.600   1.233   1.251  0.2657  0.9403  0.4739
 8171TIP3   OH224476   6.589   2.377   5.018  0.6604  0.3227 -0.4109
 8171TIP3    H124477   6.556   2.340   5.100  0.0344 -3.0626 -2.0062
 8171TIP3    H224478   6.675   2.338   5.006  1.1888  1.5885 -0.8919
 8172TIP3   OH224479   1.464   2.809   3.895 -0.4115 -0.1653  0.4014
 8172TIP3    H124480   1.389   2.855   3.856  0.9931  1.3560 -0.6455
 8172TIP3    H224481   1.492   2.747   3.827 -1.2103 -1.3649  1.1292
 8173TIP3   OH224482   6.922   5.117   0.576 -0.3622 -0.2041 -0.6225
 8173TIP3    H124483   6.853   5.051   0.584 -1.0121  0.5684  0.3140
 8173TIP3    H224484   6.974   5.088   0.501  0.9535 -3.1972  1.2840
 8174TIP3   OH224485   0.667   3.646   0.227  0.2601  0.5768 -0.1730
 8174TIP3    H124486   0.664   3.584   0.154  0.2016 -1.7663  1.7072
 8174TIP3    H224487   0.664   3.591   0.305  2.0187  2.8787  1.6355
 8175TIP3   OH224488   1.403   6.012   1.378 -0.1241 -0.2579  0.2911
 8175TIP3    H124489   1.401   5.933   1.324 -0.2139  0.3452 -0.6139
 8175TIP3    H224490   1.316   6.051   1.368  0.0486  0.1697  0.3972
 8176TIP3   OH224491   6.260   1.628   0.726  0.1565 -0.7055  0.0408
 8176TIP3    H124492   6.353   1.617   0.745  0.7082  1.0857 -1.3057
 8176TIP3    H224493   6.233   1.545   0.687  1.2126 -1.2210  0.3792
 8177TIP3   OH224494   6.114   6.023   4.103 -0.4466 -0.1225  0.1174
 8177TIP3    H124495   6.101   6.098   4.162 -0.4586  0.1502 -0.2327
 8177TIP3    H224496   6.151   6.061   4.024 -2.6865 -0.1148 -1.0060
 8178TIP3   OH224497   6.301   5.832   2.444  0.3845  0.0615  0.3162
 8178TIP3    H124498   6.245   5.792   2.510  0.7319 -0.1736  0.4709
 8178TIP3    H224499   6.363   5.763   2.420 -1.0585 -0.5846 -1.8386
 8179TIP3   OH224500   0.204   0.953   3.739 -0.3288  0.4100  0.4477
 8179TIP3    H124501   0.209   0.984   3.649  0.8415 -0.3081  0.2353
 8179TIP3    H224502   0.275   0.888   3.746 -0.5653  0.2585  1.8026
 8180TIP3   OH224503   3.801   2.212   3.010 -0.1208  0.6299  0.0022
 8180TIP3    H124504   3.715   2.249   2.990 -0.1769  0.6585  0.2942
 8180TIP3    H224505   3.783   2.131   3.057  0.0090  0.4067 -0.3255
 8181TIP3   OH224506   0.662   5.342   5.658  0.0961 -0.5754 -0.1406
 8181TIP3    H124507   0.657   5.420   5.604 -2.2872  0.0159  0.8136
 8181TIP3    H224508   0.632   5.271   5.601 -0.9481 -0.2045 -0.0734
 8182TIP3   OH224509   7.180   0.033   5.596  0.5154  0.1742  0.5340
 8182TIP3    H124510   7.261   0.019   5.646 -0.2297  2.6880  2.6861
 8182TIP3    H224511   7.167   0.128   5.599 -3.0112 -0.2105  1.1406
 8183TIP3   OH224512   2.065   3.033   4.453  0.4743 -0.1506 -0.3046
 8183TIP3    H124513   2.140   3.055   4.508  0.8075 -2.6021  0.3546
 8183TIP3    H224514   1.989   3.044   4.510  0.0157  3.8230 -1.3984
 8184TIP3   OH224515   1.625   2.711   5.265 -0.6676 -0.4561 -0.0317
 8184TIP3    H124516   1.665   2.796   5.244 -0.6457 -0.3900  0.2652
 8184TIP3    H224517   1.534   2.732   5.286 -0.0337 -0.0993  2.7434
 8185TIP3   OH224518   2.421   5.861   4.605 -0.2609 -0.3248 -0.1546
 8185TIP3    H124519   2.516   5.850   4.603 -0.1820 -0.3757  1.9601
 8185TIP3    H224520   2.407   5.953   4.627 -0.7265 -0.2392 -0.7551
 8186TIP3   OH224521   1.603   3.779   5.710 -0.2021 -0.2439 -0.4530
 8186TIP3    H124522   1.654   3.837   5.653  0.3296 -1.3846 -1.1800
 8186TIP3    H224523   1.649   3.695   5.707 -0.0639 -0.3005  1.8229
 8187TIP3   OH224524   0.591   5.967   5.051  0.1716 -0.4919  0.4851
 8187TIP3    H124525   0.641   6.049   5.046 -2.3534  1.2955  2.0636
 8187TIP3    H224526   0.542   5.964   4.968  0.4368 -0.5273  0.3289
 8188TIP3   OH224527   6.242   6.056   2.059  0.1979  0.7983 -0.4004
 8188TIP3    H124528   6.197   6.055   2.143  0.7912  1.8838 -0.0422
 8188TIP3    H224529   6.179   6.098   1.999  0.6400  2.2052  0.0708
 8189TIP3   OH224530   1.626   5.475   2.552  0.3364  0.3344  0.1588
 8189TIP3    H124531   1.627   5.554   2.606 -0.2511 -2.0274  4.0419
 8189TIP3    H224532   1.716   5.442   2.554  0.3395  0.2989 -0.4346
 8190TIP3   OH224533   2.343   3.457   0.322  0.4927  0.4537  0.4342
 8190TIP3    H124534   2.403   3.396   0.365  0.4725  0.6598  0.7611
 8190TIP3    H224535   2.260   3.447   0.369 -0.4873 -1.5920 -1.5188
 8191TIP3   OH224536   2.655   0.905   3.105 -0.2402  0.2288 -0.0400
 8191TIP3    H124537   2.696   0.927   3.188  0.6826  0.3347 -0.5119
 8191TIP3    H224538   2.723   0.859   3.056  0.4817  3.1951 -2.1175
 8192TIP3   OH224539   1.247   0.335   0.513 -0.7561 -0.1206 -0.2135
 8192TIP3    H124540   1.245   0.359   0.421 -1.6626 -0.9938 -0.4385
 8192TIP3    H224541   1.155   0.324   0.537 -0.4880 -0.8394  0.5289
 8193TIP3   OH224542   0.430   6.257   5.451 -0.0404 -0.0466 -0.0677
 8193TIP3    H124543   0.401   6.343   5.419 -1.5993 -0.8721 -0.9797
 8193TIP3    H224544   0.370   6.195   5.411  1.2077 -1.6130  0.3883
 8194TIP3   OH224545   1.015   0.391   1.592 -0.2184 -0.5237  0.1581
 8194TIP3    H124546   0.972   0.437   1.664  0.1596 -0.8141  0.5783
 8194TIP3    H224547   1.086   0.342   1.634  1.9448  1.6291 -0.7536
 8195TIP3   OH224548   2.311   3.568   0.624 -0.4178  0.1456  0.1410
 8195TIP3    H124549   2.270   3.563   0.710 -1.0873 -0.9233 -0.2180
 8195TIP3    H224550   2.238   3.575   0.563  0.0561  0.9413 -0.3417
 8196TIP3   OH224551   5.540   4.290   4.297 -0.3666  0.1239 -0.2216
 8196TIP3    H124552   5.470   4.247   4.248 -0.4739 -1.5398  1.3270
 8196TIP3    H224553   5.602   4.318   4.229 -0.9447 -1.2901 -1.3944
 8197TIP3   OH224554   0.797   6.352   3.237 -0.4397 -0.2345  0.3918
 8197TIP3    H124555   0.837   6.438   3.220 -0.5238 -0.3907 -0.6203
 8197TIP3    H224556   0.709   6.359   3.199  0.2532 -1.4353 -1.5593
 8198TIP3   OH224557   3.055   3.516   1.308  1.4133 -0.0180 -0.0428
 8198TIP3    H124558   2.971   3.477   1.331  0.2365  2.1940 -0.3303
 8198TIP3    H224559   3.049   3.530   1.213  1.4098  1.5999  0.1684
 8199TIP3   OH224560   5.963   4.253   4.413 -0.0671  0.0393  0.7783
 8199TIP3    H124561   6.042   4.283   4.368 -0.0174 -0.3919  0.5670
 8199TIP3    H224562   5.969   4.290   4.500  0.1944  0.2992  0.6506
 8200TIP3   OH224563   3.205   4.185   3.804 -0.0800 -0.1210  0.5629
 8200TIP3    H124564   3.283   4.178   3.749  0.4479  0.4844  1.2226
 8200TIP3    H224565   3.220   4.262   3.858 -1.1398  0.0079  0.7065
 8201TIP3   OH224566   5.494   3.012   1.601 -0.0783  0.1918 -0.5922
 8201TIP3    H124567   5.437   3.067   1.654  1.4184  0.6977  0.5643
 8201TIP3    H224568   5.497   3.056   1.516 -1.4361  0.1065 -0.7167
 8202TIP3   OH224569   0.513   1.900   4.805 -0.2027  0.4558  0.4079
 8202TIP3    H124570   0.445   1.936   4.748 -0.9606 -1.3942  0.0588
 8202TIP3    H224571   0.593   1.945   4.778 -0.9050  1.0810 -0.7153
 8203TIP3   OH224572   2.363   1.297   2.890 -0.0539 -0.6506 -0.4758
 8203TIP3    H124573   2.284   1.347   2.911  0.8976  0.8637 -0.3334
 8203TIP3    H224574   2.404   1.281   2.975  0.9816  0.6662 -0.6938
 8204TIP3   OH224575   0.569   6.603   4.694 -0.2663  0.4010  0.1554
 8204TIP3    H124576   0.594   6.598   4.601 -0.3692  0.3993  0.1274
 8204TIP3    H224577   0.494   6.663   4.695 -0.5532  0.0479  0.1754
 8205TIP3   OH224578  -0.020   0.974   0.380 -0.0365 -0.3555  0.5096
 8205TIP3    H124579   0.047   1.041   0.363  1.2878 -1.7230  0.0152
 8205TIP3    H224580  -0.011   0.913   0.306 -4.7271  1.4881 -1.9884
 8206TIP3   OH224581   0.294   5.257   4.144  0.8927  0.4599  0.3775
 8206TIP3    H124582   0.201   5.279   4.148  0.5022 -1.2541  1.5207
 8206TIP3    H224583   0.312   5.247   4.051 -0.0574  0.8292  0.1404
 8207TIP3   OH224584   6.107   3.744   2.969  0.8309 -0.3036  0.5704
 8207TIP3    H124585   6.168   3.671   2.982 -1.3622 -2.1564  1.1167
 8207TIP3    H224586   6.089   3.776   3.057  0.2962 -0.4113  0.5018
 8208TIP3   OH224587   5.357   0.800   3.592  0.3361 -0.1916 -0.0973
 8208TIP3    H124588   5.438   0.821   3.545  0.8988  0.0009  0.9216
 8208TIP3    H224589   5.291   0.859   3.554  0.7935  0.0055 -0.5943
 8209TIP3   OH224590   5.241   4.906   3.895  0.2845 -0.3421  0.3521
 8209TIP3    H124591   5.202   4.822   3.918 -0.9263  0.5880  1.9772
 8209TIP3    H224592   5.166   4.965   3.884  1.1255  0.7339  0.2270
 8210TIP3   OH224593   1.820   0.520   1.955  0.7004 -0.8437  0.1982
 8210TIP3    H124594   1.795   0.465   1.880 -0.5142 -1.1111  0.7796
 8210TIP3    H224595   1.737   0.552   1.991  1.2879 -0.3336  1.1508
 8211TIP3   OH224596   6.486   2.040   3.876 -0.7054 -0.0808  0.3309
 8211TIP3    H124597   6.424   1.967   3.876  1.1225 -1.7496  1.4031
 8211TIP3    H224598   6.470   2.085   3.959 -2.5706  1.4890 -0.8098
 8212TIP3   OH224599   2.020   4.730   4.804  0.0212 -0.2112  0.3749
 8212TIP3    H124600   2.077   4.749   4.729 -0.9824 -2.0068 -0.9301
 8212TIP3    H224601   2.064   4.659   4.850 -0.6960 -1.0179 -0.1490
 8213TIP3   OH224602   1.954   1.934   5.371  0.2166  0.3836 -0.3735
 8213TIP3    H124603   1.861   1.913   5.362  0.2675 -0.7086  1.2002
 8213TIP3    H224604   1.992   1.911   5.286 -0.4929 -1.8579 -0.1565
 8214TIP3   OH224605   3.062   5.431   4.526 -0.4402  0.4293  0.1603
 8214TIP3    H124606   3.082   5.510   4.476  1.6280  0.1890  0.5401
 8214TIP3    H224607   3.076   5.456   4.617  1.9416 -0.7961  0.1824
 8215TIP3   OH224608   1.503   6.617   3.260 -0.3625 -0.4186  0.1293
 8215TIP3    H124609   1.544   6.654   3.338 -0.4085  1.5264 -0.7296
 8215TIP3    H224610   1.435   6.679   3.235 -2.0094 -2.2025 -0.1106
 8216TIP3   OH224611   3.119   4.165   1.040  0.7786  0.5451 -0.2366
 8216TIP3    H124612   3.030   4.184   1.009 -0.3207  0.0686  2.3298
 8216TIP3    H224613   3.173   4.233   1.000 -0.7618  0.9767 -1.7278
 8217TIP3   OH224614   5.251   4.022   0.024 -0.3225 -0.1602 -0.2663
 8217TIP3    H124615   5.283   4.065   0.104  1.3635  0.3316 -1.1628
 8217TIP3    H224616   5.232   3.932   0.051  0.0892  0.0375  0.7267
 8218TIP3   OH224617   3.660   5.113   3.863  0.3202 -0.3246  0.2482
 8218TIP3    H124618   3.655   5.201   3.826 -2.7722 -0.4041  0.1966
 8218TIP3    H224619   3.738   5.114   3.918  2.1465  1.4060 -2.1767
 8219TIP3   OH224620   1.032   3.160   1.729 -0.4382  0.1855  0.0505
 8219TIP3    H124621   1.117   3.196   1.704  0.5481 -2.2450 -0.3629
 8219TIP3    H224622   1.013   3.199   1.815  1.2411  0.5339  0.2862
 8220TIP3   OH224623   3.475   3.481   1.360 -0.6671  0.0097 -0.0304
 8220TIP3    H124624   3.513   3.497   1.274 -1.3273  1.4314 -0.0781
 8220TIP3    H224625   3.381   3.478   1.345 -0.8659  1.3264  0.7571
 8221TIP3   OH224626   5.261   2.930   4.455 -0.1865 -0.1708  0.4072
 8221TIP3    H124627   5.215   2.867   4.510 -1.1054  0.6306  0.5735
 8221TIP3    H224628   5.194   2.993   4.428  0.6167  0.4790 -0.1310
 8222TIP3   OH224629   5.737   0.891   2.450  0.4405 -0.1946  0.2757
 8222TIP3    H124630   5.663   0.867   2.394 -0.0661  0.6096  0.5775
 8222TIP3    H224631   5.813   0.848   2.410 -0.0217 -0.1903 -0.6310
 8223TIP3   OH224632   3.330   6.476   4.613 -0.0541 -0.0843 -0.2742
 8223TIP3    H124633   3.384   6.482   4.534 -0.1888 -2.2820 -0.6063
 8223TIP3    H224634   3.352   6.554   4.664  1.7391  0.2090 -1.4308
 8224TIP3   OH224635   2.715   6.654   3.146  0.2542 -0.1063  0.0785
 8224TIP3    H124636   2.765   6.573   3.159 -0.1094 -1.1662 -3.8057
 8224TIP3    H224637   2.638   6.627   3.096 -0.1476  2.5716 -0.9101
 8225TIP3   OH224638   2.982   5.574   4.035  0.2517 -0.1504 -0.6042
 8225TIP3    H124639   2.951   5.550   3.947 -1.2155  1.2610 -0.5156
 8225TIP3    H224640   3.005   5.666   4.027  3.1290 -0.7244 -0.2455
 8226TIP3   OH224641   5.298   1.677   2.497  0.0050 -0.1064  0.3900
 8226TIP3    H124642   5.326   1.587   2.516 -0.7355 -1.0692 -2.6878
 8226TIP3    H224643   5.203   1.673   2.494 -0.1318  1.1821  1.7144
 8227TIP3   OH224644   7.032   6.224   2.124 -0.0559 -0.2733  0.0791
 8227TIP3    H124645   6.962   6.162   2.106  0.0972 -0.2613 -0.6133
 8227TIP3    H224646   7.109   6.170   2.140 -0.2305 -0.2876  0.8959
 8228TIP3   OH224647   3.368   5.584   4.708  0.4635  0.5351 -0.6176
 8228TIP3    H124648   3.298   5.536   4.753  1.3560  0.2087  0.4730
 8228TIP3    H224649   3.323   5.653   4.660 -0.8911 -1.4050 -2.3092
 8229TIP3   OH224650   0.731   0.301   1.649  0.8698 -0.3945 -0.5191
 8229TIP3    H124651   0.751   0.239   1.719  1.6423  1.6659  1.1972
 8229TIP3    H224652   0.811   0.308   1.598  0.9013 -0.5356 -0.4879
 8230TIP3   OH224653   1.861   6.145   2.097 -0.2709  0.2728  0.5809
 8230TIP3    H124654   1.858   6.058   2.138  0.3493 -1.1253 -2.1012
 8230TIP3    H224655   1.922   6.195   2.151  0.1771 -1.3162  1.5983
 8231TIP3   OH224656   5.627   6.602   0.663 -0.0857  0.0397  0.0929
 8231TIP3    H124657   5.723   6.608   0.664  0.0595 -1.7210  1.4569
 8231TIP3    H224658   5.609   6.522   0.614 -0.7288 -0.8120  1.6702
 8232TIP3   OH224659   3.016   2.104   2.951 -0.0937 -0.1411  0.5247
 8232TIP3    H124660   2.964   2.052   3.012 -0.8306  1.7574  1.5944
 8232TIP3    H224661   2.953   2.162   2.908  0.8127  0.5327  0.0700
 8233TIP3   OH224662   3.325   6.705   2.325 -0.7414  0.1082 -0.5217
 8233TIP3    H124663   3.408   6.667   2.300 -0.8449 -2.9511  2.9993
 8233TIP3    H224664   3.264   6.677   2.257  0.3826 -0.9404 -1.1336
 8234TIP3   OH224665   5.249   3.812   2.096 -0.5830 -0.2042  0.0999
 8234TIP3    H124666   5.315   3.788   2.161  1.2646 -0.6362 -1.8017
 8234TIP3    H224667   5.201   3.884   2.136  0.0744 -0.8394  2.1538
 8235TIP3   OH224668   6.210   2.135   3.922  0.1880  0.1819 -0.0443
 8235TIP3    H124669   6.164   2.219   3.917 -0.0154  0.1312  0.8215
 8235TIP3    H224670   6.248   2.133   4.010 -1.9431 -1.6783  0.9515
 8236TIP3   OH224671   4.181   1.171   3.139 -0.6427 -0.3864 -0.0985
 8236TIP3    H124672   4.261   1.177   3.087 -2.2641  1.4350 -2.6297
 8236TIP3    H224673   4.179   1.251   3.191  0.0204 -1.3077  1.4217
 8237TIP3   OH224674   5.820   6.022   2.323  0.1942 -0.1300  0.1516
 8237TIP3    H124675   5.833   6.034   2.417  0.6511  0.2248  0.0487
 8237TIP3    H224676   5.821   6.111   2.287  1.1437 -0.3180 -0.3201
 8238TIP3   OH224677   4.666   4.596   0.885 -0.0071  0.4952 -0.2224
 8238TIP3    H124678   4.625   4.542   0.952  0.1954  0.7436  0.1045
 8238TIP3    H224679   4.751   4.554   0.869 -0.2502  0.1621 -0.6713
 8239TIP3   OH224680   1.586   0.526   4.976  0.9046  0.2912 -0.1677
 8239TIP3    H124681   1.509   0.573   4.944 -0.0249 -0.8533  0.3260
 8239TIP3    H224682   1.555   0.476   5.051  2.2709  0.2446  0.3994
 8240TIP3   OH224683   0.316   3.420   3.716 -0.3069  0.2809 -0.1277
 8240TIP3    H124684   0.328   3.396   3.624 -0.1482 -0.1545  0.0036
 8240TIP3    H224685   0.275   3.343   3.756 -0.2161  0.4029  0.2010
 8241TIP3   OH224686   4.449   0.904   5.108 -0.0616 -0.1511 -0.0694
 8241TIP3    H124687   4.375   0.869   5.158  1.2888  0.3458  2.4054
 8241TIP3    H224688   4.415   0.985   5.068 -0.8724  0.0582  1.0080
 8242TIP3   OH224689   5.598   2.223   2.676 -0.0141 -0.3344  0.2911
 8242TIP3    H124690   5.560   2.178   2.601  0.3527  0.3209 -0.2994
 8242TIP3    H224691   5.607   2.314   2.648  2.4612 -0.5410  0.2108
 8243TIP3   OH224692   5.787   0.440   3.539  0.0659  0.2748  0.3106
 8243TIP3    H124693   5.800   0.428   3.633  0.1674  0.8183  0.3697
 8243TIP3    H224694   5.692   0.444   3.528 -0.0685  4.5641  1.0184
 8244TIP3   OH224695   0.421   1.820   4.109 -0.1698  0.1592 -0.3825
 8244TIP3    H124696   0.485   1.882   4.075  0.2862 -1.1444 -2.0946
 8244TIP3    H224697   0.460   1.785   4.189  0.2684  0.9436 -0.2527
 8245TIP3   OH224698   2.321   5.082   5.565 -0.1576 -0.2631 -0.5456
 8245TIP3    H124699   2.311   5.006   5.622  0.7704 -0.0339 -0.0513
 8245TIP3    H224700   2.342   5.154   5.625  2.0331 -0.2505 -1.2237
 8246TIP3   OH224701   5.878   1.970   3.746  0.5502  0.6941  0.8570
 8246TIP3    H124702   5.928   1.928   3.816 -0.9374 -0.6743  1.1716
 8246TIP3    H224703   5.791   1.983   3.783 -0.3100 -0.1633 -0.7410
 8247TIP3   OH224704   6.953   1.855   4.503 -0.2875 -0.5215  0.1486
 8247TIP3    H124705   6.950   1.870   4.597 -1.0166 -0.2992  0.0930
 8247TIP3    H224706   6.983   1.938   4.467 -0.3890 -0.4830  0.1532
 8248TIP3   OH224707   0.886   6.589   2.294  0.1323 -0.0210 -0.1853
 8248TIP3    H124708   0.924   6.676   2.303  3.2955 -1.2184 -0.7613
 8248TIP3    H224709   0.915   6.559   2.207  1.4252 -2.6166  1.0347
 8249TIP3   OH224710   1.064   2.201   5.011  0.6578 -0.0991  0.2783
 8249TIP3    H124711   1.114   2.125   5.041  0.2365 -0.6006 -0.2635
 8249TIP3    H224712   1.103   2.225   4.927  1.1673  0.6580  0.7182
 8250TIP3   OH224713   2.704   1.218   3.298 -0.1304 -0.1053 -0.6495
 8250TIP3    H124714   2.792   1.207   3.335  0.4290  1.3897 -1.4550
 8250TIP3    H224715   2.654   1.261   3.368 -0.3033 -1.1700 -0.1033
 8251TIP3   OH224716   4.108   1.206   0.302  0.7533 -0.1516 -0.3041
 8251TIP3    H124717   4.134   1.142   0.236  0.6283  0.5715 -1.0724
 8251TIP3    H224718   4.101   1.155   0.383 -1.2394 -1.4968 -1.2492
 8252TIP3   OH224719   4.124   4.790   0.963  0.2572 -0.1366 -0.0176
 8252TIP3    H124720   4.178   4.775   0.886 -0.4662 -0.0459 -0.5468
 8252TIP3    H224721   4.183   4.775   1.037  1.4280  1.4344 -0.5767
 8253TIP3   OH224722   3.071   3.197   3.814  0.2225 -0.0819  0.2975
 8253TIP3    H124723   3.143   3.140   3.842  1.2635  0.7720 -0.5539
 8253TIP3    H224724   3.002   3.137   3.787  1.0097 -0.9321  0.1220
 8254TIP3   OH224725   1.546   4.409   0.196 -0.1367  0.0783 -0.3964
 8254TIP3    H124726   1.529   4.479   0.259 -1.3510  0.5510 -1.2260
 8254TIP3    H224727   1.532   4.449   0.111 -1.8859 -1.4129 -0.8663
 8255TIP3   OH224728   6.692   3.694   0.355  0.0631 -0.1055 -0.0064
 8255TIP3    H124729   6.605   3.693   0.396 -0.4658  1.0797 -1.0593
 8255TIP3    H224730   6.735   3.771   0.391  0.5291 -0.4306  0.1547
 8256TIP3   OH224731   0.855   5.445   4.658 -0.1885 -0.0554 -0.2436
 8256TIP3    H124732   0.798   5.377   4.622 -1.4578  0.8936 -0.0865
 8256TIP3    H224733   0.914   5.398   4.717  0.1086 -1.2411 -1.4474
 8257TIP3   OH224734   3.239   5.029   0.562 -0.6008  0.0771  0.3934
 8257TIP3    H124735   3.183   4.952   0.553  0.9636 -1.3458  1.8739
 8257TIP3    H224736   3.209   5.072   0.642 -0.3929  0.0068  0.5121
 8258TIP3   OH224737   6.050   4.458   0.379 -0.2761 -0.0023  0.2351
 8258TIP3    H124738   6.065   4.551   0.395  0.7902 -0.1635  0.2747
 8258TIP3    H224739   5.961   4.453   0.345 -0.5832  0.9575  0.8542
 8259TIP3   OH224740   2.479   4.852   1.014 -0.1383  0.5605  0.1286
 8259TIP3    H124741   2.480   4.821   1.104 -0.7450  2.2553  0.7385
 8259TIP3    H224742   2.556   4.908   1.006  0.6499 -0.5763 -0.8196
 8260TIP3   OH224743   2.633   0.125   3.053 -0.3777 -0.2695 -0.4900
 8260TIP3    H124744   2.543   0.109   3.080  0.4006 -1.1759  1.8177
 8260TIP3    H224745   2.664   0.194   3.112  0.1776  0.7322 -1.9022
 8261TIP3   OH224746   1.549   0.513   4.178 -0.3714 -0.1911 -0.4872
 8261TIP3    H124747   1.463   0.531   4.216 -0.5251 -1.7140 -0.0732
 8261TIP3    H224748   1.609   0.570   4.226 -1.2044  1.3541 -1.2037
 8262TIP3   OH224749   6.813   1.257   5.425  0.1816 -0.4004  0.1161
 8262TIP3    H124750   6.721   1.228   5.426  0.5158 -1.5354  1.3428
 8262TIP3    H224751   6.846   1.234   5.512  0.7841  2.9303  0.9125
 8263TIP3   OH224752   3.449   3.021   1.252 -0.4750  0.3382 -0.3495
 8263TIP3    H124753   3.379   3.085   1.266 -0.2157  0.3113  1.2629
 8263TIP3    H224754   3.524   3.058   1.298 -0.2714 -1.0364  0.4585
 8264TIP3   OH224755   5.059   0.272   1.190  0.1416 -0.1931 -0.1001
 8264TIP3    H124756   5.046   0.181   1.217  1.4877 -0.0165  1.2733
 8264TIP3    H224757   5.147   0.274   1.153  1.2527  1.0179  2.3565
 8265TIP3   OH224758   5.378   6.620   3.092  0.0637  0.3189 -0.3575
 8265TIP3    H124759   5.433   6.688   3.130 -1.6664 -0.3585  3.9173
 8265TIP3    H224760   5.372   6.553   3.160 -1.6076 -2.2124 -2.7843
 8266TIP3   OH224761   5.672   1.739   2.241  0.0956  0.1295 -0.5370
 8266TIP3    H124762   5.669   1.643   2.249 -0.7177  0.1222 -0.8580
 8266TIP3    H224763   5.681   1.770   2.331 -1.0823 -0.2072 -0.2879
 8267TIP3   OH224764   0.740   6.029   2.495  0.0484 -0.5825 -0.0466
 8267TIP3    H124765   0.749   6.082   2.574 -0.8662  1.4692 -1.2489
 8267TIP3    H224766   0.648   6.040   2.469  0.5849 -0.2811 -1.9937
 8268TIP3   OH224767   4.132   4.487   1.547 -0.0197 -0.1928 -0.2402
 8268TIP3    H124768   4.177   4.552   1.494 -2.2821  2.0502  0.3562
 8268TIP3    H224769   4.163   4.504   1.636 -1.6831  1.2280  0.1424
 8269TIP3   OH224770   6.433   5.560   5.014 -0.2495  0.6130  0.6122
 8269TIP3    H124771   6.489   5.590   5.086  0.5767 -1.0639  0.7099
 8269TIP3    H224772   6.344   5.580   5.043  0.1029  0.3641  1.9075
 8270TIP3   OH224773   2.044   1.324   2.212  0.1722  0.4900  0.0897
 8270TIP3    H124774   2.126   1.306   2.166 -0.5815 -1.9864 -0.4264
 8270TIP3    H224775   2.034   1.419   2.205  2.5103  0.7667 -0.6160
 8271TIP3   OH224776   2.136   0.557   0.117 -0.1886 -0.6088 -0.4118
 8271TIP3    H124777   2.117   0.606   0.196  1.4404 -0.5652 -0.0235
 8271TIP3    H224778   2.059   0.500   0.105 -2.2650  2.1390 -1.0494
 8272TIP3   OH224779   0.028   5.934   3.085  0.4492 -0.6128  0.0935
 8272TIP3    H124780   0.012   6.023   3.118  0.9406 -0.7564  0.7368
 8272TIP3    H224781  -0.033   5.925   3.012 -0.4475 -0.1653  0.7507
 8273TIP3   OH224782   6.318   0.099   3.584  0.4624  0.2404 -0.4361
 8273TIP3    H124783   6.237   0.095   3.634  0.3379  0.9521 -0.5648
 8273TIP3    H224784   6.331   0.010   3.552  0.6407 -0.2742  0.9991
 8274TIP3   OH224785   4.120   5.021   5.820 -0.0918 -0.2352 -0.7354
 8274TIP3    H124786   4.181   5.029   5.893 -0.6556 -0.1844 -0.2688
 8274TIP3    H224787   4.066   5.100   5.825  0.2925  0.1021 -1.6081
 8275TIP3   OH224788   6.772   3.872   3.680  0.7742 -0.0650  0.6337
 8275TIP3    H124789   6.845   3.903   3.733 -0.1207  0.0815  1.8082
 8275TIP3    H224790   6.735   3.952   3.641 -0.2215  0.1388  1.9591
 8276TIP3   OH224791   2.762   5.620   5.316  0.0786 -0.0199  0.0167
 8276TIP3    H124792   2.741   5.700   5.267 -0.2539 -0.6031 -0.8187
 8276TIP3    H224793   2.819   5.570   5.257  1.0253 -0.0081  0.8886
 8277TIP3   OH224794   0.860   5.158   5.601 -0.2362  0.5074 -0.1071
 8277TIP3    H124795   0.945   5.190   5.631  0.3793  1.3192 -2.4919
 8277TIP3    H224796   0.796   5.211   5.650  0.5453 -0.3031  1.9257
 8278TIP3   OH224797   6.854   2.568   0.638  0.0709 -0.2521 -0.2371
 8278TIP3    H124798   6.855   2.648   0.585  2.0993 -0.3388 -0.4189
 8278TIP3    H224799   6.790   2.585   0.706  0.1282  1.3537 -0.5411
 8279TIP3   OH224800   2.626   5.302   2.591  0.1999 -0.6301  0.3221
 8279TIP3    H124801   2.532   5.320   2.596  0.5634  1.1192  3.5037
 8279TIP3    H224802   2.640   5.229   2.650  0.8379 -1.1486 -0.4483
 8280TIP3   OH224803   3.641   6.517   0.308 -0.8389  0.7664 -0.3742
 8280TIP3    H124804   3.623   6.592   0.251 -0.9868  1.2349  0.2698
 8280TIP3    H224805   3.724   6.538   0.350 -0.1557 -0.1033 -1.2509
 8281TIP3   OH224806   1.766   1.706   2.154  0.1632  0.4408 -0.9853
 8281TIP3    H124807   1.744   1.701   2.061  1.3409 -1.2089 -1.2185
 8281TIP3    H224808   1.854   1.669   2.160  0.1250  0.5385  0.7914
 8282TIP3   OH224809   2.426   5.487   4.344  0.4855  0.1495 -0.3800
 8282TIP3    H124810   2.370   5.444   4.409  1.6847  1.0529  1.3339
 8282TIP3    H224811   2.393   5.456   4.259 -2.8630  0.9428  0.4770
 8283TIP3   OH224812   0.405   4.191   4.224 -0.0415 -0.1914 -0.2973
 8283TIP3    H124813   0.334   4.168   4.165 -0.6420  0.9591 -0.0348
 8283TIP3    H224814   0.377   4.160   4.310 -0.4109  0.5893 -0.1253
 8284TIP3   OH224815   3.051   3.847   5.384 -0.1061 -0.3646  0.4079
 8284TIP3    H124816   2.975   3.893   5.421 -0.0127 -1.3642  1.9064
 8284TIP3    H224817   3.043   3.757   5.416  1.0628 -0.7796 -0.4146
 8285TIP3   OH224818   0.436   2.119   1.751  0.0449 -0.8245 -0.1780
 8285TIP3    H124819   0.475   2.106   1.664 -2.1349 -0.6116 -1.2539
 8285TIP3    H224820   0.510   2.143   1.807  1.2953  0.6717 -2.3267
 8286TIP3   OH224821   1.297   0.569   4.327  0.1355 -0.8934 -0.3870
 8286TIP3    H124822   1.260   0.569   4.415  1.3002 -1.0549  0.1255
 8286TIP3    H224823   1.241   0.628   4.277  0.4378  0.5422  0.8981
 8287TIP3   OH224824   2.868   4.142   1.945  0.2097 -0.1126  0.4693
 8287TIP3    H124825   2.877   4.190   1.863 -0.7710 -0.3878  0.1951
 8287TIP3    H224826   2.788   4.177   1.984  1.2113  0.7824  1.8322
 8288TIP3   OH224827   6.230   2.145   3.319 -0.0762 -0.8504  0.0011
 8288TIP3    H124828   6.294   2.110   3.381 -0.7554 -1.4064  0.4041
 8288TIP3    H224829   6.240   2.240   3.325  1.5269 -0.9384 -0.8235
 8289TIP3   OH224830   1.455   1.703   1.626 -0.3515  0.3708  0.1879
 8289TIP3    H124831   1.426   1.749   1.547 -2.4387  0.4843  0.9555
 8289TIP3    H224832   1.514   1.765   1.669  0.0424  0.6909 -0.7903
 8290TIP3   OH224833   7.115   2.404   4.007  0.2261  0.0238 -0.0777
 8290TIP3    H124834   7.141   2.312   4.008 -1.8602 -0.6530  1.8265
 8290TIP3    H224835   7.040   2.407   3.947  0.0273  0.3724  0.1813
 8291TIP3   OH224836   4.486   3.067   5.843 -0.1699 -0.3269  0.4582
 8291TIP3    H124837   4.566   3.025   5.874  0.5915  0.7804  0.0644
 8291TIP3    H224838   4.487   3.053   5.749 -0.8137 -0.9160  0.5345
 8292TIP3   OH224839   3.386   2.343   1.717 -0.1888 -0.0461  0.2028
 8292TIP3    H124840   3.324   2.403   1.676 -0.1770 -0.1041  0.0972
 8292TIP3    H224841   3.353   2.256   1.694 -0.4119 -0.0832  0.6632
 8293TIP3   OH224842   4.668   4.226   0.137 -0.2123  0.5340  0.2385
 8293TIP3    H124843   4.647   4.179   0.217 -0.9725 -1.5990 -1.1308
 8293TIP3    H224844   4.583   4.247   0.098  0.1428  1.4773 -0.0725
 8294TIP3   OH224845   0.479   3.476   1.863  0.1184 -0.3620 -0.0158
 8294TIP3    H124846   0.504   3.568   1.869 -0.0135 -0.3094 -0.2614
 8294TIP3    H224847   0.476   3.458   1.769  3.1129 -1.4216 -0.0206
 8295TIP3   OH224848   2.947   1.179   2.054  0.3982 -0.3685 -0.2532
 8295TIP3    H124849   2.996   1.113   2.102  1.3067  0.6303  0.2404
 8295TIP3    H224850   2.890   1.220   2.120 -1.4963 -1.8017 -0.8963
 8296TIP3   OH224851   4.947   1.804   2.491 -0.0211  0.1455  0.1375
 8296TIP3    H124852   4.882   1.869   2.463  0.6488  0.8156  0.0758
 8296TIP3    H224853   4.902   1.720   2.485 -0.3239  0.3850 -1.7141
 8297TIP3   OH224854   7.126   3.066   0.818  0.3515 -0.2709  0.0074
 8297TIP3    H124855   7.156   2.998   0.879  0.9107  0.0873  0.1363
 8297TIP3    H224856   7.031   3.055   0.815  0.4548 -1.2255 -0.1677
 8298TIP3   OH224857   6.464   6.611   1.871 -0.2338 -0.1399  0.2341
 8298TIP3    H124858   6.448   6.567   1.787 -0.1906  0.6520 -0.2043
 8298TIP3    H224859   6.555   6.589   1.892  0.2654  0.8814 -0.7133
 8299TIP3   OH224860   1.897   3.593   2.299 -0.4077  0.2793  0.6566
 8299TIP3    H124861   1.956   3.531   2.341  0.1367 -0.0908 -0.5991
 8299TIP3    H224862   1.812   3.579   2.342  0.3273  0.5853  2.2505
 8300TIP3   OH224863   0.051   5.006   0.086 -0.0259  0.2804 -0.4702
 8300TIP3    H124864   0.130   4.981   0.040  0.8030  3.0535 -0.6841
 8300TIP3    H224865  -0.011   5.029   0.018 -0.7715 -0.9948 -0.2713
 8301TIP3   OH224866   1.210   1.068   1.886 -0.5287  0.2866  0.0621
 8301TIP3    H124867   1.179   1.056   1.796 -0.7130 -1.0128  0.2814
 8301TIP3    H224868   1.154   1.011   1.939  0.4809 -0.0339  0.8116
 8302TIP3   OH224869   1.479   3.262   2.053  0.3724  0.0263 -0.3961
 8302TIP3    H124870   1.453   3.211   2.130  1.7782  0.3712  0.3338
 8302TIP3    H224871   1.575   3.258   2.053  0.4287  0.9928 -1.4819
 8303TIP3   OH224872   4.832   4.811   0.775  0.2822 -0.3205 -0.4745
 8303TIP3    H124873   4.915   4.835   0.817  0.5427 -1.0645 -0.5388
 8303TIP3    H224874   4.789   4.755   0.839 -1.5381  2.3185  0.8047
 8304TIP3   OH224875   4.904   3.890   1.289 -0.3523 -0.6401  0.1068
 8304TIP3    H124876   4.875   3.875   1.199 -0.9192 -0.4692  0.2557
 8304TIP3    H224877   4.975   3.954   1.281 -1.6051  0.7686 -0.0854
 8305TIP3   OH224878   1.152   6.584   2.831 -0.0101 -0.3172  0.1473
 8305TIP3    H124879   1.133   6.508   2.886 -0.4506 -0.8428 -0.7022
 8305TIP3    H224880   1.090   6.577   2.758  1.9783 -0.9116 -1.6132
 8306TIP3   OH224881   1.847   2.584   4.148 -0.1837 -0.1795  0.6607
 8306TIP3    H124882   1.871   2.662   4.197  0.2002 -0.5185  1.0237
 8306TIP3    H224883   1.924   2.564   4.095 -0.1647 -0.4926  0.8064
 8307TIP3   OH224884   1.763   4.409   2.793 -0.2828 -0.1194  0.1102
 8307TIP3    H124885   1.689   4.449   2.747 -0.1029 -0.4452 -0.4727
 8307TIP3    H224886   1.742   4.315   2.796  0.1344 -0.2242 -0.1176
 8308TIP3   OH224887   5.709   5.648   3.027 -0.3953  0.3652  0.6490
 8308TIP3    H124888   5.634   5.629   3.083 -0.1423 -1.7264  0.3674
 8308TIP3    H224889   5.746   5.729   3.062 -0.7355 -0.4245  2.9806
 8309TIP3   OH224890   4.365   5.620   0.889 -0.2344 -0.0310 -0.0185
 8309TIP3    H124891   4.402   5.588   0.807  0.1439 -0.0975  0.1774
 8309TIP3    H224892   4.428   5.594   0.956 -0.8534 -0.5574  0.3775
 8310TIP3   OH224893   3.719   4.479   5.144  0.3329  0.2514 -0.3111
 8310TIP3    H124894   3.676   4.394   5.158  1.2695 -0.0188  1.2303
 8310TIP3    H224895   3.701   4.501   5.053  1.3794 -2.3509 -1.2300
 8311TIP3   OH224896   3.745   6.631   4.068  0.4645  0.0687 -0.2120
 8311TIP3    H124897   3.801   6.630   4.146  1.3883 -2.0143 -0.8218
 8311TIP3    H224898   3.773   6.555   4.018  0.3494  1.7033 -2.9312
 8312TIP3   OH224899   6.447   3.065   3.296 -0.1243  0.0875 -0.1965
 8312TIP3    H124900   6.438   3.028   3.208  2.4875 -2.0512  0.2947
 8312TIP3    H224901   6.459   2.989   3.353  0.3599  1.4979  1.6868
 8313TIP3   OH224902   3.212   4.934   3.894  0.3314 -0.0815 -0.3665
 8313TIP3    H124903   3.249   4.916   3.808  2.0576 -0.0911  0.3285
 8313TIP3    H224904   3.200   4.848   3.934 -1.0757 -0.1138 -0.8005
 8314TIP3   OH224905   1.613   1.178   3.604 -0.1465 -0.0452  0.5038
 8314TIP3    H124906   1.537   1.170   3.662 -0.3202  2.5538  0.7637
 8314TIP3    H224907   1.674   1.234   3.653  1.2913 -0.8113 -0.3449
 8315TIP3   OH224908   0.939   2.539   2.708  0.2723 -0.6695 -0.5543
 8315TIP3    H124909   0.983   2.624   2.704  0.4887 -0.5462  2.5180
 8315TIP3    H224910   0.846   2.561   2.720  0.2818 -0.8830 -0.0927
 8316TIP3   OH224911   3.149   5.483   4.828  0.1267  0.2498  0.4236
 8316TIP3    H124912   3.139   5.565   4.876  1.5132 -0.9097  2.9397
 8316TIP3    H224913   3.096   5.420   4.877  0.8632 -0.8142 -0.1020
 8317TIP3   OH224914   6.205   5.445   5.759  0.1788  0.3635 -0.1860
 8317TIP3    H124915   6.277   5.386   5.736  0.5999 -0.3111  2.5551
 8317TIP3    H224916   6.162   5.403   5.833 -1.6817  1.8499 -0.3582
 8318TIP3   OH224917   4.262   3.757   4.758  0.1061 -0.3472  0.2064
 8318TIP3    H124918   4.273   3.818   4.685  1.1311 -0.7190  0.0342
 8318TIP3    H224919   4.178   3.715   4.742  0.0886 -0.0573 -0.4755
 8319TIP3   OH224920   5.878   4.703   4.551 -0.1235  0.1309  0.0289
 8319TIP3    H124921   5.800   4.751   4.523  1.7873  2.5958 -1.4595
 8319TIP3    H224922   5.887   4.631   4.488 -0.2824  0.8447 -0.8236
 8320TIP3   OH224923   5.914   3.566   0.744  0.0306 -0.3356  0.2769
 8320TIP3    H124924   5.970   3.572   0.666 -0.8248  0.8697 -0.2687
 8320TIP3    H224925   5.958   3.622   0.809 -2.0192  3.3156 -1.1535
 8321TIP3   OH224926   4.030   1.349   3.506  0.2768  0.0454 -0.4276
 8321TIP3    H124927   4.108   1.358   3.451  0.8484 -2.0842 -0.0447
 8321TIP3    H224928   4.052   1.397   3.586  1.8001 -1.6345  0.2313
 8322TIP3   OH224929   3.473   1.032   5.660  0.0707 -0.0368  0.1449
 8322TIP3    H124930   3.445   1.098   5.596  2.4362  0.1484 -0.8024
 8322TIP3    H224931   3.514   0.964   5.607 -0.2730 -1.1895  1.3034
 8323TIP3   OH224932   4.326   5.150   2.907 -0.7280  0.6155 -0.3003
 8323TIP3    H124933   4.375   5.142   2.989 -1.6389  0.5057  0.2428
 8323TIP3    H224934   4.381   5.104   2.843 -0.8551 -0.9288  0.6278
 8324TIP3   OH224935   4.191   4.736   5.444  0.3095 -0.0141 -0.0009
 8324TIP3    H124936   4.244   4.723   5.366  2.0742  2.0138  0.7456
 8324TIP3    H224937   4.205   4.657   5.496  2.5597  0.3907  0.1016
 8325TIP3   OH224938   3.333   0.275   2.641 -0.5917 -0.0011  0.3020
 8325TIP3    H124939   3.324   0.179   2.646  3.6760 -0.7550 -2.0548
 8325TIP3    H224940   3.320   0.295   2.548  1.7412  1.1811  0.1801
 8326TIP3   OH224941   2.607   2.424   1.109 -0.0764 -0.0926 -0.2499
 8326TIP3    H124942   2.590   2.352   1.169 -0.7801  0.7622  0.6109
 8326TIP3    H224943   2.607   2.384   1.022 -0.5891 -1.1012  0.2034
 8327TIP3   OH224944   0.033   5.203   3.384 -0.3861  0.9081  0.0436
 8327TIP3    H124945  -0.013   5.209   3.468  2.7158 -0.3018  2.0302
 8327TIP3    H224946   0.052   5.110   3.374  1.7161  1.3547 -0.5342
 8328TIP3   OH224947   3.459   0.912   2.428 -0.4729 -0.2707  0.2253
 8328TIP3    H124948   3.395   0.907   2.498 -0.9055  1.2654 -0.0120
 8328TIP3    H224949   3.506   0.994   2.444  0.8849 -0.9640 -0.0746
 8329TIP3   OH224950   1.143   1.627   3.960  0.5112 -0.2025 -0.0292
 8329TIP3    H124951   1.206   1.633   4.032 -0.5796 -0.7958  1.0163
 8329TIP3    H224952   1.151   1.711   3.915  0.8432  0.4213  1.1290
 8330TIP3   OH224953   0.847   0.343   3.045 -0.2639 -0.3474 -0.6665
 8330TIP3    H124954   0.915   0.371   2.984 -1.4482  1.4876 -1.2246
 8330TIP3    H224955   0.796   0.278   2.997 -0.5689  0.3329 -1.2847
 8331TIP3   OH224956   1.687   2.713   1.939  0.2922  0.0318 -0.1939
 8331TIP3    H124957   1.602   2.723   1.894  1.0951  1.2879 -1.5169
 8331TIP3    H224958   1.752   2.732   1.871  1.6931 -1.6416  0.5952
 8332TIP3   OH224959   4.288   3.868   0.190  0.0946 -0.1279 -0.2038
 8332TIP3    H124960   4.247   3.794   0.148 -0.8234 -0.2686  0.8860
 8332TIP3    H224961   4.234   3.885   0.267  1.4035  0.4277  0.6357
 8333TIP3   OH224962   3.728   6.119   2.766 -0.2006 -0.4086 -0.1676
 8333TIP3    H124963   3.677   6.048   2.805  2.4327 -1.7696  1.0232
 8333TIP3    H224964   3.688   6.199   2.801 -1.8435 -1.3590  0.2246
 8334TIP3   OH224965   5.991   2.220   4.258 -1.0542  0.4131  0.5088
 8334TIP3    H124966   5.927   2.150   4.275  0.4337 -2.0782 -2.8687
 8334TIP3    H224967   6.070   2.190   4.303 -0.7257  0.5169  0.0003
 8335TIP3   OH224968   5.757   5.692   4.899 -0.3994 -0.0713  0.3675
 8335TIP3    H124969   5.740   5.772   4.949 -2.0425 -0.4907  0.5592
 8335TIP3    H224970   5.829   5.650   4.945 -0.0486  0.8989  0.7437
 8336TIP3   OH224971   1.855   4.590   0.291  0.3212 -0.3295  0.1115
 8336TIP3    H124972   1.762   4.605   0.303  0.5087 -0.0449  1.4467
 8336TIP3    H224973   1.860   4.518   0.228 -0.7434  0.5875 -1.0672
 8337TIP3   OH224974   3.313   3.546   2.332  0.5231  0.2653  0.1888
 8337TIP3    H124975   3.278   3.481   2.393  2.6994 -1.1599  0.0651
 8337TIP3    H224976   3.293   3.511   2.245  0.9060  0.1978  0.1220
 8338TIP3   OH224977   4.413   0.488   3.605 -0.2363 -0.4864 -0.1623
 8338TIP3    H124978   4.420   0.584   3.606 -0.2952 -0.4522  1.8262
 8338TIP3    H224979   4.320   0.471   3.620 -0.2712 -0.8703 -0.7817
 8339TIP3   OH224980   5.233   1.834   5.109 -0.2485  0.5313 -0.3835
 8339TIP3    H124981   5.285   1.835   5.029  2.3132 -0.5345  1.1373
 8339TIP3    H224982   5.243   1.923   5.145 -1.2212  0.9442 -1.1010
 8340TIP3   OH224983   1.306   4.778   0.223 -0.3244 -0.6201  0.3279
 8340TIP3    H124984   1.321   4.855   0.278 -2.0618 -0.8423  1.2109
 8340TIP3    H224985   1.357   4.708   0.264  0.9100 -0.0713 -0.2235
 8341TIP3   OH224986   0.742   0.790   1.476 -0.1404  0.4773  0.0729
 8341TIP3    H124987   0.662   0.778   1.424 -0.7820  0.2355  1.0947
 8341TIP3    H224988   0.812   0.757   1.420 -0.4866  2.2861 -1.5651
 8342TIP3   OH224989   4.437   4.064   0.477  0.4133 -0.3735 -0.0692
 8342TIP3    H124990   4.522   4.048   0.438  1.1637  1.0757  0.8723
 8342TIP3    H224991   4.400   4.136   0.425 -0.9685 -1.9927 -1.4627
 8343TIP3   OH224992   6.635   2.523   0.044 -0.5713  0.0024 -0.2131
 8343TIP3    H124993   6.590   2.563   0.119  1.1876  0.8537  0.4579
 8343TIP3    H224994   6.565   2.498  -0.016 -1.9835  0.1375  1.3149
 8344TIP3   OH224995   3.780   3.165   5.364  0.0345  0.3374  0.2641
 8344TIP3    H124996   3.850   3.134   5.306 -0.8966  0.4295 -0.9491
 8344TIP3    H224997   3.708   3.187   5.305 -0.0180  3.1105  1.2127
 8345TIP3   OH224998   1.086   0.403   5.408 -0.1229  0.2081 -0.6270
 8345TIP3    H124999   1.076   0.428   5.500  1.1635 -1.6159  0.0558
 8345TIP3    H225000   1.069   0.309   5.407 -1.2133  0.3813 -2.4753
 8346TIP3   OH225001   1.529   6.147   5.644 -0.4498 -0.0761 -0.1476
 8346TIP3    H125002   1.523   6.156   5.549 -0.0817 -0.1245 -0.1766
 8346TIP3    H225003   1.457   6.200   5.678 -1.5322 -1.2556 -0.5066
 8347TIP3   OH225004   4.289   0.820   1.818  0.3670 -0.1066 -0.4797
 8347TIP3    H125005   4.204   0.835   1.861 -0.0205  0.3599 -1.3861
 8347TIP3    H225006   4.287   0.728   1.792 -0.4328  0.2256 -1.6780
 8348TIP3   OH225007   1.422   1.875   0.156  0.1057  0.1985  0.4223
 8348TIP3    H125008   1.410   1.789   0.196  2.3368 -0.1985  0.3706
 8348TIP3    H225009   1.461   1.856   0.070 -0.4854  1.2230 -0.0847
 8349TIP3   OH225010   0.350   4.313   1.463  0.1839 -0.1458  0.4014
 8349TIP3    H125011   0.348   4.218   1.460  1.6492 -0.1762 -1.0750
 8349TIP3    H225012   0.332   4.335   1.554 -0.9922 -1.7895  0.5861
 8350TIP3   OH225013   4.512   3.104   5.569 -0.0350 -0.3178 -0.0837
 8350TIP3    H125014   4.442   3.047   5.536  0.4065 -1.4224  0.8325
 8350TIP3    H225015   4.592   3.053   5.559  0.4082  0.2381  0.5230
 8351TIP3   OH225016   3.895   4.451   2.645 -0.5285  0.2706 -0.0497
 8351TIP3    H125017   3.822   4.417   2.594 -0.3330 -0.8031  0.3521
 8351TIP3    H225018   3.955   4.488   2.580 -0.5157 -0.6308 -0.5639
 8352TIP3   OH225019   1.189   5.133   4.844  0.3877 -0.3370  0.3565
 8352TIP3    H125020   1.245   5.064   4.809  1.0377 -0.0572  0.8242
 8352TIP3    H225021   1.181   5.111   4.937  1.0322  0.4994  0.6196
 8353TIP3   OH225022   3.187   1.073   0.185  0.0052  0.4474  0.7500
 8353TIP3    H125023   3.094   1.097   0.186 -0.2789 -0.6142  1.9055
 8353TIP3    H225024   3.220   1.103   0.269  0.7447  0.8967  0.3044
 8354TIP3   OH225025   2.179   1.815   3.214  0.1409 -0.1133 -0.0912
 8354TIP3    H125026   2.163   1.904   3.183 -2.1673  0.5339  2.5475
 8354TIP3    H225027   2.260   1.821   3.264 -0.5213  0.7902  0.9086
 8355TIP3   OH225028   6.929   6.219   5.561  0.5267  0.5949  0.4403
 8355TIP3    H125029   6.919   6.124   5.555 -0.0003  0.6532  0.4273
 8355TIP3    H225030   6.989   6.231   5.635 -0.9249  0.3324  1.7050
 8356TIP3   OH225031   6.036   1.065   2.660 -0.0967  0.3760 -0.4652
 8356TIP3    H125032   6.094   0.991   2.643 -0.5331 -0.4628  1.4351
 8356TIP3    H225033   5.948   1.027   2.660 -0.3730  1.0059  0.0213
 8357TIP3   OH225034   0.641   6.605   4.420 -0.4231  0.3517  0.0817
 8357TIP3    H125035   0.715   6.662   4.442 -0.4862  0.2807  0.4899
 8357TIP3    H225036   0.572   6.665   4.391 -0.7817  0.5626  1.3317
 8358TIP3   OH225037   3.310   4.490   3.147  0.5100  0.3537 -0.1660
 8358TIP3    H125038   3.280   4.535   3.225 -0.2251 -1.4671  0.6506
 8358TIP3    H225039   3.398   4.526   3.131  1.4211 -0.4288  2.5184
 8359TIP3   OH225040   6.980   1.438   5.745  0.4175 -0.1194 -0.0778
 8359TIP3    H125041   6.988   1.361   5.689 -1.6613  1.1908 -2.3587
 8359TIP3    H225042   6.899   1.425   5.793  0.8110  0.0152  0.6468
 8360TIP3   OH225043   2.550   0.508   4.023  0.2543  0.0725 -0.4047
 8360TIP3    H125044   2.549   0.522   4.118  1.8545 -2.3049  0.0626
 8360TIP3    H225045   2.569   0.594   3.987 -0.4081  1.0506  1.4011
 8361TIP3   OH225046   2.449   1.600   2.980 -0.3222 -0.5428 -0.1508
 8361TIP3    H125047   2.447   1.553   3.064 -0.5210 -0.8344 -0.3161
 8361TIP3    H225048   2.543   1.611   2.962 -0.2766 -0.5918  0.0466
 8362TIP3   OH225049   4.545   5.494   3.044 -0.1608 -0.0178 -0.2545
 8362TIP3    H125050   4.506   5.539   2.969  1.1011  1.5026 -0.0451
 8362TIP3    H225051   4.583   5.415   3.007 -1.7280 -0.5778 -0.7720
 8363TIP3   OH225052   4.779   1.769   3.160  0.0676 -0.3414 -0.7219
 8363TIP3    H125053   4.841   1.837   3.134  0.2022  0.7602  2.1683
 8363TIP3    H225054   4.753   1.792   3.249 -1.3298 -3.0847 -0.3037
 8364TIP3   OH225055   1.524   5.779   0.521  0.1141  0.5000 -0.1610
 8364TIP3    H125056   1.579   5.801   0.597 -0.0944 -0.2470  0.2167
 8364TIP3    H225057   1.512   5.684   0.527 -1.0407  0.6192 -0.3655
 8365TIP3   OH225058   1.301   0.129   0.194 -0.2494  0.0229 -0.2486
 8365TIP3    H125059   1.390   0.097   0.212 -0.6565 -0.3108  1.2971
 8365TIP3    H225060   1.310   0.224   0.189  0.0617  0.0626  0.8412
 8366TIP3   OH225061   0.215   1.789   0.082  0.4634  0.2521  0.2317
 8366TIP3    H125062   0.206   1.702   0.121 -0.8642 -0.4791 -1.5761
 8366TIP3    H225063   0.217   1.848   0.157  1.5653 -1.3133  1.5181
 8367TIP3   OH225064   3.566   5.459   2.537  0.2008  0.1713 -0.0571
 8367TIP3    H125065   3.549   5.486   2.628 -0.5607 -1.5575  0.3524
 8367TIP3    H225066   3.661   5.453   2.532  0.2965  1.2200  0.3358
 8368TIP3   OH225067   2.141   0.219   0.651  0.3581  0.0365 -0.3468
 8368TIP3    H125068   2.060   0.269   0.658  0.2395 -0.2058  0.0838
 8368TIP3    H225069   2.115   0.129   0.670  0.7540 -0.0149 -0.0154
 8369TIP3   OH225070   4.750   0.102   3.018 -0.1233 -0.1771  0.1028
 8369TIP3    H125071   4.734   0.184   2.971  0.0269  0.0895  0.5085
 8369TIP3    H225072   4.728   0.033   2.955  3.1016  0.0851 -1.5537
 8370TIP3   OH225073   6.743   4.180   5.480 -0.0521 -0.8449 -0.3844
 8370TIP3    H125074   6.687   4.216   5.548 -0.7725 -1.8139 -0.4442
 8370TIP3    H225075   6.820   4.147   5.527  0.2285  0.0034 -0.2409
 8371TIP3   OH225076   1.772   5.636   4.811 -0.1085  0.4519 -0.1122
 8371TIP3    H125077   1.702   5.570   4.802 -1.3715  1.8004 -0.5499
 8371TIP3    H225078   1.764   5.667   4.901  0.4201  0.0890  0.0625
 8372TIP3   OH225079   3.450   4.983   0.137  0.0857  0.1114 -0.6527
 8372TIP3    H125080   3.403   5.032   0.204  2.3507  0.2642  0.9474
 8372TIP3    H225081   3.457   5.043   0.063  2.9668  2.5195  1.3330
 8373TIP3   OH225082   6.282   0.244   4.626  0.1068 -0.3153 -0.3750
 8373TIP3    H125083   6.250   0.286   4.547 -3.7211 -0.5383  0.8586
 8373TIP3    H225084   6.265   0.307   4.696  4.2824  0.2926  0.3870
 8374TIP3   OH225085   3.440   5.897   1.892 -0.1029 -0.4972 -0.2788
 8374TIP3    H125086   3.472   5.914   1.980  0.2237  0.8162 -0.6280
 8374TIP3    H225087   3.346   5.913   1.897 -0.1989 -1.1129 -0.0164
 8375TIP3   OH225088   5.276   0.829   0.619 -0.1106  0.0327  0.0342
 8375TIP3    H125089   5.261   0.909   0.670 -1.3344 -0.6306  0.7622
 8375TIP3    H225090   5.283   0.860   0.529  0.7623  1.0953  0.4397
 8376TIP3   OH225091   5.927   1.814   2.816  0.3183  0.5853  0.3722
 8376TIP3    H125092   5.904   1.906   2.833  0.5000  0.7475 -0.2289
 8376TIP3    H225093   5.920   1.772   2.901 -1.9405  0.6814  0.3122
 8377TIP3   OH225094   1.618   5.407   4.857  0.0916  0.0306 -0.1128
 8377TIP3    H125095   1.552   5.387   4.791  0.6004  1.4012 -1.0969
 8377TIP3    H225096   1.660   5.324   4.876 -0.4908 -0.4927 -1.0467
 8378TIP3   OH225097   6.589   5.224   3.182 -0.4626  0.1014  0.7761
 8378TIP3    H125098   6.525   5.155   3.200  0.3032 -0.3333  1.9018
 8378TIP3    H225099   6.643   5.229   3.260  0.0966  1.3496  0.3503
 8379TIP3   OH225100   0.310   1.192   2.939  0.1433 -1.2387  0.2656
 8379TIP3    H125101   0.268   1.131   2.998 -1.7136 -1.3951 -1.1480
 8379TIP3    H225102   0.245   1.261   2.925  1.9941  0.8725  1.4414
 8380TIP3   OH225103   6.240   0.399   3.664  0.3774 -0.1234  0.1824
 8380TIP3    H125104   6.208   0.423   3.577  0.0883  1.0285  0.5918
 8380TIP3    H225105   6.205   0.311   3.679  0.0904 -0.1670 -0.6944
 8381TIP3   OH225106   6.291   0.477   2.827  0.5936  0.3995  0.6017
 8381TIP3    H125107   6.282   0.438   2.914 -1.3229  0.5355  0.4970
 8381TIP3    H225108   6.273   0.406   2.766 -0.9510  0.9519  0.3813
 8382TIP3   OH225109   3.727   0.835   2.420  0.5382  0.5812  0.5993
 8382TIP3    H125110   3.643   0.861   2.382  0.6846  0.0483 -0.1046
 8382TIP3    H225111   3.792   0.879   2.366  0.7354  0.1965  0.5216
 8383TIP3   OH225112   2.105   4.445   0.807 -0.7276  0.1146  0.3587
 8383TIP3    H125113   2.181   4.467   0.753 -1.4457 -0.1850 -0.8069
 8383TIP3    H225114   2.105   4.349   0.809 -2.9514 -0.0726 -2.5273
 8384TIP3   OH225115   6.117   5.801   0.010 -0.2068 -0.3377 -0.1426
 8384TIP3    H125116   6.162   5.848   0.080 -3.5761  1.7183  0.9104
 8384TIP3    H225117   6.081   5.723   0.052 -0.9981  0.1451  0.1045
 8385TIP3   OH225118   0.845   6.126   1.606  0.2964 -0.0092 -0.3436
 8385TIP3    H125119   0.910   6.151   1.540  0.2307  0.8603 -0.0965
 8385TIP3    H225120   0.773   6.087   1.556  0.8370 -0.6349 -0.6527
 8386TIP3   OH225121   0.163   1.917   4.469 -0.4941  0.1020  0.6576
 8386TIP3    H125122   0.145   1.918   4.375  2.7054  1.6873 -0.0669
 8386TIP3    H225123   0.195   1.829   4.486  0.2050  0.2107 -0.0541
 8387TIP3   OH225124   5.148   5.820   2.681 -0.2681 -0.1858 -0.3395
 8387TIP3    H125125   5.056   5.804   2.657 -0.4308 -0.1153  0.2260
 8387TIP3    H225126   5.143   5.880   2.755  0.1557 -1.6422  0.9318
 8388TIP3   OH225127   2.383   0.097   5.583 -0.3861  0.0677  0.5153
 8388TIP3    H125128   2.396   0.081   5.676  1.4561 -0.3946  0.2213
 8388TIP3    H225129   2.331   0.177   5.579 -1.3911 -0.4857  1.9302
 8389TIP3   OH225130   0.231   5.736   4.004 -0.2607 -0.1898  0.2247
 8389TIP3    H125131   0.210   5.830   4.004 -0.3194 -0.2026  0.2759
 8389TIP3    H225132   0.206   5.706   3.916  0.2263 -0.0539  0.0355
 8390TIP3   OH225133   4.308   4.189   4.910  0.7709 -0.6161  0.6921
 8390TIP3    H125134   4.356   4.108   4.891 -0.8179 -1.3403 -0.3942
 8390TIP3    H225135   4.231   4.161   4.960  1.0398  0.4490  1.7693
 8391TIP3   OH225136   0.025   4.933   4.498  0.4274  0.0143 -0.5101
 8391TIP3    H125137  -0.039   4.862   4.486  0.9707 -0.6341  0.3709
 8391TIP3    H225138   0.057   4.950   4.410  0.6757 -1.2045 -0.6770
 8392TIP3   OH225139   4.866   3.849   1.929 -0.6903  0.9032 -0.4074
 8392TIP3    H125140   4.856   3.900   2.010 -1.4547  2.0921 -1.2142
 8392TIP3    H225141   4.949   3.878   1.892  2.4552 -3.3642  2.4108
 8393TIP3   OH225142   1.028   6.182   4.179  0.3201  0.4387 -0.4877
 8393TIP3    H125143   1.038   6.276   4.188 -2.4538  0.7512  0.5018
 8393TIP3    H225144   0.942   6.171   4.137  1.2790 -1.6546 -2.0939
 8394TIP3   OH225145   6.773   4.240   0.828  0.1314 -0.6327  0.2533
 8394TIP3    H125146   6.828   4.188   0.769 -0.4124 -0.5176 -0.3705
 8394TIP3    H225147   6.708   4.281   0.770 -1.9860 -2.4500  1.1670
 8395TIP3   OH225148   5.406   2.767   1.539  0.3209 -1.3394  0.0820
 8395TIP3    H125149   5.471   2.726   1.596  0.8127 -1.8573 -0.8336
 8395TIP3    H225150   5.427   2.860   1.543  1.4623 -1.5379 -0.5795
 8396TIP3   OH225151   6.469   5.114   3.889 -0.2246 -0.1921 -0.5254
 8396TIP3    H125152   6.553   5.103   3.844 -0.3329  1.8138 -1.3205
 8396TIP3    H225153   6.407   5.134   3.820 -1.5578 -2.2821 -0.0192
 8397TIP3   OH225154   5.530   1.348   0.252 -0.4611  0.3364 -0.1934
 8397TIP3    H125155   5.528   1.318   0.161 -1.0416 -1.3134  0.3191
 8397TIP3    H225156   5.514   1.269   0.303  1.7837  0.8327  1.4436
 8398TIP3   OH225157   3.604   4.253   5.225 -0.0218 -0.1023 -0.4601
 8398TIP3    H125158   3.533   4.209   5.178 -0.1159 -0.5954  0.1285
 8398TIP3    H225159   3.605   4.211   5.311 -0.2344  1.1945  0.1832
 8399TIP3   OH225160   5.913   6.564   5.364  0.2095  0.3550 -0.1464
 8399TIP3    H125161   5.995   6.589   5.321  1.4103 -0.5682  1.5192
 8399TIP3    H225162   5.859   6.643   5.359  1.4431  1.2062 -0.6872
 8400TIP3   OH225163   1.006   2.397   4.633 -0.0183 -0.3223 -0.6405
 8400TIP3    H125164   0.955   2.475   4.654  0.1646 -0.0750 -1.0999
 8400TIP3    H225165   1.021   2.403   4.538  1.0646 -0.2657 -0.4763
 8401TIP3   OH225166   2.142   3.546   1.480  0.1984 -0.1383  0.4114
 8401TIP3    H125167   2.211   3.596   1.437 -0.8910  0.6494 -0.4814
 8401TIP3    H225168   2.104   3.607   1.544 -0.8660  0.0773 -0.3957
 8402TIP3   OH225169   5.360   4.054   5.389  0.0919 -0.7842 -0.7488
 8402TIP3    H125170   5.287   4.065   5.449 -0.1816  0.7066 -1.3274
 8402TIP3    H225171   5.415   3.988   5.431  1.1249  1.7830  2.3513
 8403TIP3   OH225172   1.872   0.403   5.482 -0.1808 -0.3628 -0.2689
 8403TIP3    H125173   1.891   0.494   5.508 -0.3518 -0.4393  0.1325
 8403TIP3    H225174   1.899   0.398   5.391  0.1775 -0.0064 -0.1856
 8404TIP3   OH225175   1.694   2.191   4.448 -0.2691 -0.3046 -0.0535
 8404TIP3    H125176   1.761   2.248   4.409  1.3562 -1.8030  0.4462
 8404TIP3    H225177   1.650   2.247   4.513 -0.3840  1.0594 -1.2559
 8405TIP3   OH225178   3.915   1.914   0.379  0.1252 -0.2642 -0.0624
 8405TIP3    H125179   3.899   1.952   0.293 -1.3342  1.3160  0.8345
 8405TIP3    H225180   3.900   1.987   0.440  1.3979 -1.2528  1.5197
 8406TIP3   OH225181   6.902   0.466   5.181 -0.3552  0.3869  0.0122
 8406TIP3    H125182   6.936   0.402   5.244 -0.8847  0.8426  0.7769
 8406TIP3    H225183   6.812   0.439   5.166 -0.3811  0.5770 -0.1769
 8407TIP3   OH225184   1.993   6.216   2.633 -0.3228 -0.0199 -0.0698
 8407TIP3    H125185   1.933   6.285   2.605 -0.1441  0.4923  0.7767
 8407TIP3    H225186   1.936   6.142   2.655 -0.5269 -0.0837 -0.7938
 8408TIP3   OH225187   5.578   0.423   0.492 -0.0406 -0.2871  0.1802
 8408TIP3    H125188   5.556   0.342   0.446 -0.1743  1.2835 -2.7738
 8408TIP3    H225189   5.494   0.463   0.513 -0.0498  0.4835 -1.1742
 8409TIP3   OH225190   5.939   1.744   5.083 -0.2032  0.5347 -0.2173
 8409TIP3    H125191   5.992   1.732   5.005  0.7108  0.9933  0.3092
 8409TIP3    H225192   5.855   1.777   5.051 -0.9012 -2.0217 -1.2228
 8410TIP3   OH225193   6.799   6.066   3.646  0.1093 -0.2125  0.4734
 8410TIP3    H125194   6.742   6.018   3.587  2.6891 -1.7387 -0.9365
 8410TIP3    H225195   6.828   6.001   3.710 -0.4124  0.7561  1.7368
 8411TIP3   OH225196   2.041   0.191   4.749 -0.3933 -0.3605 -0.5498
 8411TIP3    H125197   1.955   0.196   4.792 -0.1787 -1.3575  0.0277
 8411TIP3    H225198   2.034   0.252   4.676 -0.8675  1.1702  0.7071
 8412TIP3   OH225199   2.351   0.093   0.103 -0.0380 -0.4727 -0.0569
 8412TIP3    H125200   2.378   0.075   0.013  0.6050 -1.9959  0.4050
 8412TIP3    H225201   2.408   0.164   0.132  1.8140 -1.9365  0.0648
 8413TIP3   OH225202   3.112   3.684   4.031  0.1870 -0.2750 -0.2009
 8413TIP3    H125203   3.025   3.642   4.031 -0.0244  0.1438  0.9533
 8413TIP3    H225204   3.161   3.636   3.964 -1.2318  0.1181 -1.5827
 8414TIP3   OH225205   6.879   0.949   2.454  0.2260 -0.2047 -0.1314
 8414TIP3    H125206   6.974   0.939   2.459  0.1843 -0.3691  0.3722
 8414TIP3    H225207   6.849   0.873   2.405  0.3000 -0.4538  0.2080
 8415TIP3   OH225208   0.921   4.127   4.743  0.5789 -0.2192 -0.4114
 8415TIP3    H125209   1.011   4.158   4.754  1.1101 -1.5612 -0.6844
 8415TIP3    H225210   0.872   4.204   4.715  1.8070  0.3676 -1.0306
 8416TIP3   OH225211   4.390   6.298   5.586 -0.1353 -0.3133 -0.1571
 8416TIP3    H125212   4.434   6.382   5.567 -0.4080  0.0311  0.6855
 8416TIP3    H225213   4.311   6.300   5.533 -0.2708  0.0843  0.0544
 8417TIP3   OH225214   5.843   0.938   1.323  0.2005 -0.7244 -0.1469
 8417TIP3    H125215   5.900   0.881   1.374  0.0550 -0.3102  0.5001
 8417TIP3    H225216   5.877   1.026   1.338 -0.6697 -0.4570  0.3610
 8418TIP3   OH225217   6.370   0.114   2.464 -0.4361 -0.0535  0.3967
 8418TIP3    H125218   6.429   0.041   2.445  1.7535  1.7416 -0.2190
 8418TIP3    H225219   6.383   0.132   2.557 -2.9323 -1.9502  1.2356
 8419TIP3   OH225220   0.129   5.495   0.429  0.1970  0.0838  0.0147
 8419TIP3    H125221   0.113   5.588   0.416  0.5930 -0.0536 -1.6673
 8419TIP3    H225222   0.052   5.464   0.477 -0.0086  1.2356  0.4467
 8420TIP3   OH225223   3.787   1.247   5.488 -0.2473 -0.1125 -0.2269
 8420TIP3    H125224   3.778   1.263   5.582 -0.3491 -0.2775 -0.2088
 8420TIP3    H225225   3.882   1.239   5.474 -0.0946  1.5616 -0.4086
 8421TIP3   OH225226   2.180   5.885   2.062  0.3263 -0.0294 -0.7905
 8421TIP3    H125227   2.188   5.918   1.972 -1.8642  1.5576 -0.4882
 8421TIP3    H225228   2.136   5.801   2.053 -0.0451  0.2034 -1.2069
 8422TIP3   OH225229   4.690   1.651   0.941 -0.3026 -0.1331  0.1157
 8422TIP3    H125230   4.675   1.666   1.034  1.9350  1.2511  0.3301
 8422TIP3    H225231   4.679   1.737   0.900  2.3869  0.1248 -0.2663
 8423TIP3   OH225232   2.682   5.441   0.124 -0.0401 -0.2920 -0.3131
 8423TIP3    H125233   2.591   5.433   0.097 -0.4707 -1.4443  1.3487
 8423TIP3    H225234   2.713   5.521   0.080 -2.5046  1.4238  0.8543
 8424TIP3   OH225235   0.665   6.767   0.940 -0.4850 -0.1590 -0.4131
 8424TIP3    H125236   0.717   6.693   0.908  0.5710 -0.2969  1.4637
 8424TIP3    H225237   0.730   6.834   0.961 -0.9610 -0.3831  2.1299
 8425TIP3   OH225238   1.089   3.862   2.568 -0.2478 -0.7883  0.2650
 8425TIP3    H125239   1.014   3.919   2.551  0.8306  0.4212 -0.6629
 8425TIP3    H225240   1.094   3.857   2.664 -2.2408 -1.9423  0.3564
 8426TIP3   OH225241   2.899   3.792   4.862  0.3597  0.1662 -0.0019
 8426TIP3    H125242   2.822   3.742   4.835  1.1320  0.1208 -2.3385
 8426TIP3    H225243   2.921   3.756   4.948 -1.2674 -0.9320  0.0092
 8427TIP3   OH225244   3.301   4.457   2.012  0.0263  0.1651  0.0856
 8427TIP3    H125245   3.220   4.414   1.985  0.5395  0.9697 -3.2000
 8427TIP3    H225246   3.276   4.549   2.022  0.7735  0.8642 -3.1693
 8428TIP3   OH225247   4.589   5.645   0.649  0.4066  0.3467  0.7227
 8428TIP3    H125248   4.638   5.576   0.603 -0.1619 -0.9101  1.9093
 8428TIP3    H225249   4.498   5.616   0.645  0.2659  0.5645  1.9822
 8429TIP3   OH225250   2.715   3.946   2.037  0.7158  0.3237 -0.2391
 8429TIP3    H125251   2.772   4.009   1.994  0.3934  0.2410 -0.8040
 8429TIP3    H225252   2.637   3.997   2.062  1.2190  0.5366  0.9398
 8430TIP3   OH225253   4.769   5.804   4.534  0.1820 -0.7035 -0.0098
 8430TIP3    H125254   4.690   5.749   4.536  1.0636 -2.3771 -3.4698
 8430TIP3    H225255   4.767   5.846   4.448  2.9610 -0.6746 -0.1608
 8431TIP3   OH225256   0.506   2.364   0.131  0.4490 -0.0199 -0.6141
 8431TIP3    H125257   0.516   2.364   0.035  1.5490  1.1184 -0.5347
 8431TIP3    H225258   0.483   2.454   0.152  3.3616  0.6082  0.4052
 8432TIP3   OH225259   2.047   5.819   4.203 -0.0534  0.3253 -0.0397
 8432TIP3    H125260   2.135   5.802   4.170 -0.2928 -0.5658 -0.2519
 8432TIP3    H225261   2.012   5.887   4.146 -0.0016 -0.2984 -0.8250
 8433TIP3   OH225262   2.884   0.548   1.536 -0.0144 -0.4260  0.2722
 8433TIP3    H125263   2.956   0.503   1.491 -0.9084 -0.3335 -1.3212
 8433TIP3    H225264   2.885   0.512   1.625  1.5354 -0.9410  0.0805
 8434TIP3   OH225265   6.944   6.299   1.671  0.2247 -0.5649  0.1178
 8434TIP3    H125266   6.997   6.300   1.592  0.2164 -0.3917  0.1141
 8434TIP3    H225267   6.918   6.390   1.684 -0.5813 -0.7346 -0.2272
 8435TIP3   OH225268   4.589   4.098   5.362  0.2991 -0.1617  0.2451
 8435TIP3    H125269   4.607   4.188   5.337 -0.3736 -0.4926 -1.5412
 8435TIP3    H225270   4.675   4.059   5.377  0.7667  0.1047 -1.5325
 8436TIP3   OH225271   2.429   1.733   3.320  0.0841  0.0782 -0.1969
 8436TIP3    H125272   2.399   1.643   3.306  0.5509  0.0236 -0.8958
 8436TIP3    H225273   2.429   1.743   3.415 -2.3254  0.1471 -0.1263
 8437TIP3   OH225274   5.482   1.106   5.623  0.5878 -0.1314 -0.1405
 8437TIP3    H125275   5.478   1.196   5.592 -0.4083 -0.6436 -1.5905
 8437TIP3    H225276   5.558   1.104   5.681  0.3059  1.7563  0.3561
 8438TIP3   OH225277   1.697   4.395   3.210 -0.2285  0.7894 -0.1297
 8438TIP3    H125278   1.701   4.489   3.196  0.8278  0.5315 -1.8464
 8438TIP3    H225279   1.713   4.357   3.124  0.5841 -0.9771  0.7493
 8439TIP3   OH225280   4.800   1.593   2.425 -0.1223 -0.0840 -0.0766
 8439TIP3    H125281   4.737   1.598   2.498  0.7947 -3.9774  1.1971
 8439TIP3    H225282   4.760   1.532   2.364  0.2131  1.3450 -1.7963
 8440TIP3   OH225283   2.492   4.012   4.459  0.1750 -0.1884  0.2294
 8440TIP3    H125284   2.489   4.054   4.545 -0.8182  1.7402 -0.6836
 8440TIP3    H225285   2.403   4.021   4.425  0.7174 -0.2728 -1.2820
 8441TIP3   OH225286   2.448   0.326   0.389  0.1713 -0.2754 -0.2664
 8441TIP3    H125287   2.434   0.299   0.480 -0.5061  0.6150 -0.0924
 8441TIP3    H225288   2.505   0.258   0.353  0.7200 -0.4780  0.9100
 8442TIP3   OH225289   4.330   4.277   4.335 -0.2411 -0.2453  0.0126
 8442TIP3    H125290   4.242   4.260   4.370 -0.0317 -1.4662 -0.0245
 8442TIP3    H225291   4.389   4.258   4.407  0.0704 -0.7745 -0.3758
 8443TIP3   OH225292   5.377   3.183   0.225 -0.3743 -0.4183  0.5727
 8443TIP3    H125293   5.324   3.257   0.196  0.7751  0.3858  0.4821
 8443TIP3    H225294   5.313   3.112   0.238 -1.4414  0.4603  0.2932
 8444TIP3   OH225295   2.569   2.440   0.408 -0.4002 -0.0078  0.4009
 8444TIP3    H125296   2.484   2.427   0.365 -0.5016 -2.2961  1.1440
 8444TIP3    H225297   2.633   2.415   0.341 -0.4477 -0.6922  0.5948
 8445TIP3   OH225298   5.369   5.274   4.113  0.6229  0.2275  0.2040
 8445TIP3    H125299   5.400   5.312   4.195 -0.7207 -0.9499  1.3133
 8445TIP3    H225300   5.409   5.187   4.110 -1.3460 -0.7688  0.9771
 8446TIP3   OH225301   3.459   5.553   2.790 -0.3129  0.0122  0.3105
 8446TIP3    H125302   3.405   5.605   2.731 -0.8480 -1.3768 -0.4913
 8446TIP3    H225303   3.487   5.614   2.858  0.4032  1.6888 -1.4225
 8447TIP3   OH225304   0.027   5.529   1.801  0.1542  0.0457  0.0978
 8447TIP3    H125305   0.053   5.534   1.709 -1.4583 -2.1527 -0.5376
 8447TIP3    H225306  -0.067   5.512   1.799  0.4582 -2.4856  2.0499
 8448TIP3   OH225307   4.666   4.671   2.289 -0.2577  0.3489  0.3286
 8448TIP3    H125308   4.642   4.733   2.220 -1.4497  0.3809  0.7452
 8448TIP3    H225309   4.661   4.721   2.370 -0.4089 -0.0762  0.5876
 8449TIP3   OH225310   3.031   2.204   1.390  0.4179 -0.1445  1.0733
 8449TIP3    H125311   2.990   2.283   1.426 -0.0069 -0.5890  1.5679
 8449TIP3    H225312   3.001   2.202   1.298  1.2743  0.8318  0.7561
 8450TIP3   OH225313   5.252   0.614   4.437  0.1507 -0.4497  0.1190
 8450TIP3    H125314   5.246   0.617   4.532 -0.3939 -0.6816  0.0968
 8450TIP3    H225315   5.321   0.550   4.420  1.6190  0.9978  0.3681
 8451TIP3   OH225316   0.669   3.018   0.134 -0.0044  0.3915 -0.0843
 8451TIP3    H125317   0.729   2.968   0.078 -0.9668  0.0318 -0.8201
 8451TIP3    H225318   0.582   2.984   0.112 -0.5072  1.0933  0.7653
 8452TIP3   OH225319   4.656   5.610   2.803 -0.2323  0.5693  0.7668
 8452TIP3    H125320   4.564   5.592   2.783  0.4515 -0.0548 -2.4011
 8452TIP3    H225321   4.654   5.656   2.887 -3.2934 -0.6038  1.4571
 8453TIP3   OH225322   4.841   3.314   5.077  0.2457  0.5985 -0.2849
 8453TIP3    H125323   4.881   3.231   5.102 -1.9930 -0.9582 -1.5443
 8453TIP3    H225324   4.780   3.334   5.148  1.0555  1.4286  0.2060
 8454TIP3   OH225325   6.228   2.767   0.997  0.4858 -0.3834  0.2387
 8454TIP3    H125326   6.222   2.672   0.987  0.2756 -0.5708  1.8926
 8454TIP3    H225327   6.288   2.780   1.070  0.4562  0.7664  0.0764
 8455TIP3   OH225328   1.661   1.344   3.151  0.3301 -0.2516 -0.0794
 8455TIP3    H125329   1.661   1.302   3.065  0.3881 -0.2824 -0.0639
 8455TIP3    H225330   1.576   1.387   3.155  1.4109  2.1970 -1.3416
 8456TIP3   OH225331   3.650   6.175   0.806 -0.8358  0.4192  0.0298
 8456TIP3    H125332   3.709   6.163   0.880  1.5768  0.3065 -1.7975
 8456TIP3    H225333   3.652   6.269   0.789 -0.6574  0.3264 -0.4641
 8457TIP3   OH225334   2.562   4.065   5.840  0.0692 -0.4521  0.1529
 8457TIP3    H125335   2.537   4.117   5.764  0.1250  1.1676  1.1995
 8457TIP3    H225336   2.627   4.002   5.806  0.1741  0.3022 -1.1045
 8458TIP3   OH225337   2.656   2.672   2.768  0.2811 -0.0331 -0.2090
 8458TIP3    H125338   2.567   2.644   2.747  0.0300 -0.1356  0.9326
 8458TIP3    H225339   2.678   2.735   2.699 -0.4002 -0.5215 -0.8983
 8459TIP3   OH225340   3.220   1.971   3.745 -0.3088 -0.0985  0.3137
 8459TIP3    H125341   3.275   2.016   3.681 -0.0344  0.4062  0.8852
 8459TIP3    H225342   3.132   1.976   3.708  0.0780 -1.3339 -0.8355
 8460TIP3   OH225343   1.747   3.344   1.850 -0.1807 -0.0654 -0.4175
 8460TIP3    H125344   1.725   3.309   1.764  2.9020  0.2530 -1.4639
 8460TIP3    H225345   1.752   3.439   1.837 -1.6091  0.1939  0.6577
 8461TIP3   OH225346   4.916   4.618   1.485 -0.5787  0.4491  0.3328
 8461TIP3    H125347   4.858   4.647   1.556 -0.5002 -0.5073  0.8016
 8461TIP3    H225348   4.868   4.549   1.441 -0.6109  1.0162 -0.5423
 8462TIP3   OH225349   0.371   3.134   4.852 -0.2690 -0.3641  0.3487
 8462TIP3    H125350   0.387   3.039   4.849 -0.2479 -0.3942  1.2533
 8462TIP3    H225351   0.329   3.153   4.768 -1.8944 -1.4798  0.8571
 8463TIP3   OH225352   0.904   5.884   3.009 -0.2738  0.0637 -0.3630
 8463TIP3    H125353   0.908   5.946   3.081 -2.1004  1.5771 -1.4951
 8463TIP3    H225354   0.987   5.896   2.962 -0.2652  1.0363 -0.1029
 8464TIP3   OH225355   2.247   4.054   5.714  0.3293 -0.0557  0.3280
 8464TIP3    H125356   2.175   4.118   5.718  2.3474  2.4149 -0.4334
 8464TIP3    H225357   2.252   4.019   5.803 -1.1584  0.4704  0.6570
 8465TIP3   OH225358   7.037   5.332   3.035  0.3256  0.0192  0.3621
 8465TIP3    H125359   6.951   5.321   2.993  0.1920 -1.1412  0.9041
 8465TIP3    H225360   7.018   5.383   3.113  0.1472 -0.1259  0.4157
 8466TIP3   OH225361   6.952   2.608   5.334 -0.2025 -0.0368 -0.1761
 8466TIP3    H125362   6.890   2.539   5.357  0.1684 -0.2132  0.3204
 8466TIP3    H225363   6.938   2.675   5.401 -0.9047  0.6062 -0.9352
 8467TIP3   OH225364   3.384   2.175   4.303 -0.4012 -0.3273 -0.2538
 8467TIP3    H125365   3.365   2.181   4.209 -1.9177 -2.4107 -0.1557
 8467TIP3    H225366   3.416   2.086   4.316  1.8887  0.5949  0.9330
 8468TIP3   OH225367   4.251   6.250   0.396 -0.2512  0.1313 -0.0143
 8468TIP3    H125368   4.313   6.239   0.468 -3.0865 -2.1276  2.3291
 8468TIP3    H225369   4.271   6.178   0.336 -0.0414 -0.0393  0.2598
 8469TIP3   OH225370   4.549   1.510   3.117 -0.1006  0.9084 -0.1316
 8469TIP3    H125371   4.585   1.519   3.206  0.3483  2.4895 -0.4327
 8469TIP3    H225372   4.455   1.525   3.127 -0.6940 -2.5313  0.5565
 8470TIP3   OH225373   7.036   2.877   3.211  0.4789  0.1353 -0.4019
 8470TIP3    H125374   6.962   2.852   3.156  0.4438 -0.2362 -0.1889
 8470TIP3    H225375   7.068   2.795   3.248  0.6102  0.3618 -0.0011
 8471TIP3   OH225376   0.640   0.455   1.309 -0.3294 -0.2474 -0.2071
 8471TIP3    H125377   0.658   0.534   1.361 -2.2917  0.2341 -0.1526
 8471TIP3    H225378   0.576   0.484   1.244 -2.2475 -2.0749  0.7364
 8472TIP3   OH225379   1.251   4.915   2.039  0.0793 -0.4394  0.5308
 8472TIP3    H125380   1.196   4.934   2.115 -1.6526  0.2710 -0.8294
 8472TIP3    H225381   1.190   4.883   1.973  1.3292  0.1505 -0.9679
 8473TIP3   OH225382   3.600   3.515   4.632 -0.6543 -0.3866  0.1680
 8473TIP3    H125383   3.557   3.431   4.620 -2.1644  0.1540  1.4436
 8473TIP3    H225384   3.536   3.580   4.601  0.3046  0.3341 -0.3800
 8474TIP3   OH225385   1.263   5.470   4.247 -0.3491  0.5031  0.3191
 8474TIP3    H125386   1.186   5.428   4.285  0.0812 -1.4985 -0.8381
 8474TIP3    H225387   1.310   5.507   4.321 -1.4674  0.1100  1.2542
 8475TIP3   OH225388   6.287   3.084   1.163  0.9524 -0.3748 -0.5698
 8475TIP3    H125389   6.267   3.067   1.255  2.0671  1.3407  0.0370
 8475TIP3    H225390   6.203   3.073   1.118 -0.6453  2.6488  1.2762
 8476TIP3   OH225391   1.838   6.688   0.908 -0.2526  0.6868 -0.0955
 8476TIP3    H125392   1.780   6.744   0.856  0.2634  1.2111 -0.1246
 8476TIP3    H225393   1.895   6.646   0.843 -1.0487 -0.3760 -0.1269
 8477TIP3   OH225394   2.438   5.737   5.604  0.2430 -0.0309 -0.1697
 8477TIP3    H125395   2.372   5.754   5.672  0.8721  1.5028  0.1068
 8477TIP3    H225396   2.408   5.657   5.561 -1.5081  0.3382  0.2851
 8478TIP3   OH225397   0.669   0.953   0.529  0.2038 -0.5089 -0.3269
 8478TIP3    H125398   0.729   0.903   0.473  0.1926 -1.8256  0.7884
 8478TIP3    H225399   0.594   0.895   0.541 -0.2082  0.1383  0.2919
 8479TIP3   OH225400   2.650   6.403   5.731 -0.2713 -0.2995 -0.0325
 8479TIP3    H125401   2.641   6.496   5.714  0.9119 -0.0831  0.4296
 8479TIP3    H225402   2.741   6.383   5.708 -0.4132 -1.2751  0.1806
 8480TIP3   OH225403   6.521   5.797   4.093  0.3250 -0.4268 -0.0541
 8480TIP3    H125404   6.570   5.780   4.174  1.5098  1.9959 -0.1751
 8480TIP3    H225405   6.431   5.813   4.122  0.8184  0.8015  0.8477
 8481TIP3   OH225406   3.458   5.591   4.334  1.0057  0.3327  1.0626
 8481TIP3    H125407   3.482   5.682   4.318  0.7288  0.7407  2.8060
 8481TIP3    H225408   3.377   5.595   4.385  0.8188 -0.9021  0.9083
 8482TIP3   OH225409   6.151   2.147   1.237  0.2525 -0.2700 -0.0712
 8482TIP3    H125410   6.059   2.160   1.213  0.8759  2.2289 -1.4815
 8482TIP3    H225411   6.188   2.101   1.162  0.6691  1.1213 -0.7567
 8483TIP3   OH225412   3.259   6.469   2.529 -0.4411  0.0151  0.5452
 8483TIP3    H125413   3.215   6.484   2.445  0.3892  0.3114  0.1503
 8483TIP3    H225414   3.350   6.495   2.513 -0.2395 -0.0854  1.4944
 8484TIP3   OH225415   4.458   6.642   2.649  0.0105 -0.2229 -0.2769
 8484TIP3    H125416   4.471   6.731   2.617  0.1424  0.1684  0.8248
 8484TIP3    H225417   4.515   6.588   2.593  1.8917  0.7072  0.6575
 8485TIP3   OH225418   1.898   1.093   5.822  0.1596  0.1547  0.6383
 8485TIP3    H125419   1.955   1.042   5.880 -0.8857 -1.6830  0.1124
 8485TIP3    H225420   1.816   1.103   5.872 -0.1695 -0.0208  0.1449
 8486TIP3   OH225421   2.678   2.179   4.673 -0.0504 -0.0939  0.0190
 8486TIP3    H125422   2.744   2.193   4.740 -0.6573  1.1283  0.3922
 8486TIP3    H225423   2.682   2.085   4.654  1.6180 -0.0749  0.1829
 8487TIP3   OH225424   0.029   3.882   0.207  0.4255  0.2082 -0.0767
 8487TIP3    H125425   0.015   3.943   0.135  0.2604 -0.3693 -0.5402
 8487TIP3    H225426   0.088   3.928   0.267 -0.5147  1.2237  0.0939
 8488TIP3   OH225427   4.374   1.769   3.114 -0.0632 -0.0202  0.2596
 8488TIP3    H125428   4.460   1.793   3.078  0.9071 -1.9185  1.1857
 8488TIP3    H225429   4.317   1.763   3.038  1.1670 -0.8295 -0.6351
 8489TIP3   OH225430   5.802   0.658   3.935 -0.3767  0.5556  0.5613
 8489TIP3    H125431   5.864   0.728   3.956  0.9337 -0.0227 -1.2272
 8489TIP3    H225432   5.725   0.705   3.902 -0.6845  1.2446  2.1570
 8490TIP3   OH225433   4.206   1.806   4.941 -0.1134  0.3453  0.1756
 8490TIP3    H125434   4.297   1.829   4.925 -0.4398  1.8580  0.3176
 8490TIP3    H225435   4.202   1.711   4.929  1.4246  0.2883 -0.0312
 8491TIP3   OH225436   7.151   1.662   4.530 -0.6973 -0.0070 -0.4169
 8491TIP3    H125437   7.076   1.722   4.528 -0.5081  0.2371 -2.3301
 8491TIP3    H225438   7.199   1.686   4.609 -1.7145  0.9932 -0.0769
 8492TIP3   OH225439   2.301   6.528   3.873  0.3963 -0.3124  0.1122
 8492TIP3    H125440   2.348   6.601   3.831 -0.0980 -0.5434 -0.8676
 8492TIP3    H225441   2.214   6.529   3.833  0.2302 -1.1537  0.4310
 8493TIP3   OH225442   0.682   6.533   0.316  0.3850  0.1157  0.1011
 8493TIP3    H125443   0.655   6.477   0.242 -0.0230 -0.1212  0.4235
 8493TIP3    H225444   0.723   6.609   0.275 -1.9185  1.1310 -0.4981
 8494TIP3   OH225445   6.241   0.254   5.033  0.7619  0.5920  0.4989
 8494TIP3    H125446   6.251   0.296   5.118  1.2491  1.2115  0.1449
 8494TIP3    H225447   6.329   0.254   4.996  0.9460 -1.4306  0.7908
 8495TIP3   OH225448   5.337   1.237   5.089  0.4534  0.1666  0.1631
 8495TIP3    H125449   5.323   1.330   5.068  1.7013  0.2527 -0.4217
 8495TIP3    H225450   5.383   1.238   5.173 -2.5615 -0.0999  1.9605
 8496TIP3   OH225451   1.796  -0.005   1.058  0.5654  0.1324  0.1010
 8496TIP3    H125452   1.771   0.079   1.020  0.8143  0.1307 -0.0645
 8496TIP3    H225453   1.785  -0.068   0.988  0.7310  0.0831  0.1187
 8497TIP3   OH225454   5.812   6.659   0.386 -0.2089  0.3116  0.4443
 8497TIP3    H125455   5.813   6.656   0.482 -0.2446  0.0136  0.4386
 8497TIP3    H225456   5.846   6.573   0.360  1.1870  0.9124  0.1845
 8498TIP3   OH225457   3.780   0.097   3.480  0.0044  0.5059  0.0631
 8498TIP3    H125458   3.739   0.065   3.399  0.6026 -0.6133  0.1818
 8498TIP3    H225459   3.809   0.018   3.525  5.2287  1.0962 -1.5138
 8499TIP3   OH225460   5.168   0.388   0.312  0.2642 -0.4957 -0.1874
 8499TIP3    H125461   5.242   0.341   0.273 -0.5519 -1.9556 -0.0715
 8499TIP3    H225462   5.092   0.355   0.264 -0.4396 -0.0029  0.5723
 8500TIP3   OH225463   3.218   2.776   5.059  0.3557  0.2692  0.6592
 8500TIP3    H125464   3.273   2.824   5.120 -0.3519  1.1201  0.6495
 8500TIP3    H225465   3.206   2.689   5.099  2.1768 -0.1585  0.3686
 8501TIP3   OH225466   1.653   5.011   2.158  0.3353  0.2309  0.1267
 8501TIP3    H125467   1.597   4.983   2.086 -0.2806 -0.5634  0.8791
 8501TIP3    H225468   1.652   5.106   2.154 -2.8192  0.3908  1.3311
 8502TIP3   OH225469   5.827   5.463   0.860  0.2773  0.2415 -0.1694
 8502TIP3    H125470   5.740   5.459   0.897  0.8371 -2.7524  1.0714
 8502TIP3    H225471   5.850   5.556   0.861 -1.5776  0.7585  2.6057
 8503TIP3   OH225472   6.204   5.624   5.173 -0.5779  0.8807 -0.3317
 8503TIP3    H125473   6.207   5.719   5.168  1.7275  0.8239 -1.0614
 8503TIP3    H225474   6.226   5.604   5.264  0.1664  1.0479 -0.4660
 8504TIP3   OH225475   2.983   0.965   1.585  0.3003  0.5115 -0.6358
 8504TIP3    H125476   3.068   0.923   1.581  0.3865  0.7396 -1.3705
 8504TIP3    H225477   2.994   1.036   1.648  0.3033 -0.2210  0.1955
 8505TIP3   OH225478   4.012   4.536   3.442  0.3979  0.3333 -0.3415
 8505TIP3    H125479   4.015   4.627   3.473  0.1466  0.8186 -1.6955
 8505TIP3    H225480   4.057   4.537   3.358  0.7894 -0.9009 -0.1714
 8506TIP3   OH225481   6.218   2.978   1.440 -0.0673 -0.2034  0.3297
 8506TIP3    H125482   6.174   2.895   1.422 -0.3935 -0.5920  2.5822
 8506TIP3    H225483   6.168   3.016   1.512 -0.0977  2.1289 -0.8337
 8507TIP3   OH225484   3.386   0.067   4.085 -0.5106 -0.2111 -0.3228
 8507TIP3    H125485   3.434   0.039   4.163  0.1567  0.2863 -0.5513
 8507TIP3    H225486   3.448   0.056   4.013  0.2138  2.9188 -0.2890
 8508TIP3   OH225487   4.481   1.887   5.218  0.0132 -0.5580  0.1146
 8508TIP3    H125488   4.480   1.841   5.134  0.0266 -0.1510 -0.1095
 8508TIP3    H225489   4.396   1.867   5.257  0.0198 -0.7745  0.0203
 8509TIP3   OH225490   1.068   1.382   5.728 -0.1285  0.1835 -0.2998
 8509TIP3    H125491   1.058   1.456   5.669  0.0593  0.0688 -0.4775
 8509TIP3    H225492   1.154   1.396   5.769  0.7020 -0.8141 -1.5925
 8510TIP3   OH225493   3.479   0.659   0.426  0.0234  0.5432 -0.2470
 8510TIP3    H125494   3.522   0.741   0.399 -0.9628  1.2791  0.3425
 8510TIP3    H225495   3.468   0.611   0.344 -0.7601  1.6802 -0.8415
 8511TIP3   OH225496   5.060   1.375   0.465 -0.2922 -0.1852 -0.0571
 8511TIP3    H125497   4.986   1.315   0.456 -1.1524  1.1050 -2.7060
 8511TIP3    H225498   5.112   1.360   0.386  1.2623  0.3104  0.8272
 8512TIP3   OH225499   5.840   4.232   0.630 -0.2231  0.5204 -0.4288
 8512TIP3    H125500   5.842   4.221   0.725  0.0902 -0.4960 -0.5460
 8512TIP3    H225501   5.792   4.314   0.617  0.3272  1.0385  0.6322
 8513TIP3   OH225502   2.311   0.369   5.664  0.2127 -0.5864 -0.3721
 8513TIP3    H125503   2.390   0.401   5.707 -0.1667  0.1491 -0.2182
 8513TIP3    H225504   2.245   0.435   5.683  0.3728  0.5270 -3.2379
 8514TIP3   OH225505   1.774   3.773   2.516  0.0014 -0.3297  0.0340
 8514TIP3    H125506   1.682   3.782   2.491  0.0291 -0.8823 -0.2781
 8514TIP3    H225507   1.820   3.760   2.433  0.3128 -0.4479  0.2245
 8515TIP3   OH225508   0.540   6.638   3.192 -0.2339  0.5281  0.2935
 8515TIP3    H125509   0.452   6.629   3.227 -0.5338  1.0192 -0.3283
 8515TIP3    H225510   0.593   6.576   3.243 -0.5680  1.5489  1.9189
 8516TIP3   OH225511   0.645   6.346   0.105 -0.0766 -0.3774  0.0812
 8516TIP3    H125512   0.585   6.281   0.067 -0.9221  0.2464  0.3229
 8516TIP3    H225513   0.730   6.323   0.069 -0.1639 -2.2617  0.9458
 8517TIP3   OH225514   4.748   2.714   4.934 -0.1653 -0.1022  0.2150
 8517TIP3    H125515   4.728   2.620   4.929 -2.5013  0.3267  0.3184
 8517TIP3    H225516   4.825   2.719   4.991  0.7936 -2.0079 -0.8156
 8518TIP3   OH225517   4.122   4.298   0.924 -0.2905 -0.7716  0.7381
 8518TIP3    H125518   4.027   4.301   0.927 -0.3449 -2.3001  1.1065
 8518TIP3    H225519   4.148   4.385   0.893 -1.8579 -0.7327 -0.5666
 8519TIP3   OH225520   5.441   2.102   0.757  0.5907  0.6419 -0.4219
 8519TIP3    H125521   5.421   2.178   0.703 -1.8634  0.2536 -0.1536
 8519TIP3    H225522   5.473   2.138   0.840 -2.5976  1.5541  0.5222
 8520TIP3   OH225523   4.313   3.186   3.799  0.2566 -0.8395 -0.2124
 8520TIP3    H125524   4.369   3.181   3.721  0.6563  0.3344 -0.0220
 8520TIP3    H225525   4.374   3.188   3.872  0.0672  1.5390 -0.0448
 8521TIP3   OH225526   3.842   6.663   0.425  0.3170 -0.1891 -0.2242
 8521TIP3    H125527   3.904   6.672   0.352 -0.5265  3.5510 -0.7119
 8521TIP3    H225528   3.888   6.701   0.500 -0.1712 -0.5290  0.2498
 8522TIP3   OH225529   4.993   3.229   3.192  0.2873  0.6242 -0.0811
 8522TIP3    H125530   4.991   3.174   3.270 -1.8542 -1.5046 -1.5122
 8522TIP3    H225531   4.944   3.308   3.217 -0.4348 -0.0593  0.7044
 8523TIP3   OH225532   1.003   4.896   2.641  0.0141  0.3144 -0.1669
 8523TIP3    H125533   0.997   4.962   2.572  0.3556  0.9798  0.4279
 8523TIP3    H225534   0.915   4.892   2.678 -0.6581 -1.3517 -1.7963
 8524TIP3   OH225535   2.156   4.346   5.741  0.4829 -0.3970 -0.3042
 8524TIP3    H125536   2.243   4.377   5.766  1.3389 -0.8217 -2.4814
 8524TIP3    H225537   2.115   4.422   5.699 -1.2115  0.5372  2.7546
 8525TIP3   OH225538   7.134   5.242   5.854  0.1867  0.1268 -0.4774
 8525TIP3    H125539   7.226   5.233   5.879  0.1976 -1.1291 -0.8591
 8525TIP3    H225540   7.117   5.165   5.799 -1.2167  0.0734 -0.0116
 8526TIP3   OH225541   4.927   3.872   5.000 -0.3989  0.0551 -0.1100
 8526TIP3    H125542   4.940   3.932   4.927 -0.9916 -0.2106 -0.4386
 8526TIP3    H225543   4.876   3.922   5.063  0.5481  0.4585  0.3582
 8527TIP3   OH225544   3.269   0.929   2.630  0.6815  0.3185 -0.1837
 8527TIP3    H125545   3.323   0.876   2.689  0.3392 -0.1063 -0.2451
 8527TIP3    H225546   3.225   0.992   2.688 -1.5626 -1.6339  0.4420
 8528TIP3   OH225547   1.970   2.845   4.066 -0.2878  0.1417  0.6473
 8528TIP3    H125548   1.925   2.833   3.982  0.5162 -0.9396  0.3441
 8528TIP3    H225549   2.063   2.842   4.044 -0.0582 -0.8471  1.6478
 8529TIP3   OH225550   6.174   6.189   4.551  0.3854  0.6055 -0.0409
 8529TIP3    H125551   6.263   6.227   4.549 -0.7332  3.5071 -2.1418
 8529TIP3    H225552   6.127   6.243   4.615 -0.6007  1.1551 -1.1865
 8530TIP3   OH225553   2.074   3.115   2.786 -0.1678  0.0287 -0.3335
 8530TIP3    H125554   2.165   3.127   2.813 -0.8701  2.0768  1.3834
 8530TIP3    H225555   2.050   3.199   2.747 -1.6462 -0.0436  0.3542
 8531TIP3   OH225556   3.645   4.656   1.228  0.1518  0.3583 -0.1209
 8531TIP3    H125557   3.726   4.610   1.251 -0.0071  0.1936  0.1073
 8531TIP3    H225558   3.609   4.685   1.311  0.0818  0.6115 -0.2407
 8532TIP3   OH225559   2.793   2.975   0.056  0.0767  0.2536  0.2402
 8532TIP3    H125560   2.748   3.058   0.038 -1.1313 -0.0630  1.6372
 8532TIP3    H225561   2.778   2.959   0.149  1.2547 -0.9791  0.2479
 8533TIP3   OH225562   3.124   2.324   1.795  0.1202 -0.0734 -0.2531
 8533TIP3    H125563   3.182   2.351   1.866 -1.0293 -0.1164  0.7350
 8533TIP3    H225564   3.064   2.397   1.784 -0.7644 -0.7456 -0.0111
 8534TIP3   OH225565   3.025   0.313   2.127  0.2940  0.2148 -0.6667
 8534TIP3    H125566   3.079   0.374   2.077  0.7142  0.0115 -0.4672
 8534TIP3    H225567   3.015   0.354   2.213 -0.4689  0.5874 -0.9286
 8535TIP3   OH225568   4.304   5.529   2.573 -0.2400  0.2052 -0.1788
 8535TIP3    H125569   4.265   5.511   2.487 -0.5577  2.4267 -0.5844
 8535TIP3    H225570   4.234   5.571   2.623  0.0948 -0.6082  1.0175
 8536TIP3   OH225571   1.681   3.432   4.444 -0.1003  0.9252  0.0336
 8536TIP3    H125572   1.647   3.393   4.363  1.3983  1.1205 -0.7106
 8536TIP3    H225573   1.647   3.375   4.513 -0.4971  0.1087 -0.8036
 8537TIP3   OH225574   7.071   6.141   4.838 -0.0089 -0.2790  0.5586
 8537TIP3    H125575   7.061   6.067   4.778 -0.4462 -0.0754  0.3771
 8537TIP3    H225576   7.156   6.127   4.879  0.4335 -0.2734 -0.3259
 8538TIP3   OH225577   4.230   0.921   4.831  0.2409 -0.2192  0.1024
 8538TIP3    H125578   4.164   0.932   4.900  1.2177  2.5276  0.7091
 8538TIP3    H225579   4.198   0.974   4.759  0.0783 -1.7405 -1.0086
 8539TIP3   OH225580   2.178   3.854   1.318 -0.4879 -0.4304 -0.6448
 8539TIP3    H125581   2.190   3.851   1.413  2.3317  0.8823 -0.8731
 8539TIP3    H225582   2.115   3.924   1.305  0.1393  0.3164  0.2050
 8540TIP3   OH225583   0.205   1.630   5.671  0.2167 -0.0773 -0.2564
 8540TIP3    H125584   0.258   1.694   5.625  0.1852 -0.4507 -0.8311
 8540TIP3    H225585   0.123   1.675   5.691 -0.1816 -0.1981 -1.4945
 8541TIP3   OH225586   4.577   2.113   3.000  0.2676  0.2154  0.8205
 8541TIP3    H125587   4.671   2.119   3.019  1.0578 -1.0677 -2.0658
 8541TIP3    H225588   4.553   2.203   2.976  1.4344  0.1765 -0.7401
 8542TIP3   OH225589   5.571   0.114   0.360 -0.4105  0.1710 -0.1001
 8542TIP3    H125590   5.538   0.031   0.396 -1.6101  0.6184 -0.1346
 8542TIP3    H225591   5.654   0.090   0.319  0.1940 -0.6691  1.5009
 8543TIP3   OH225592   4.687   4.358   5.231  0.4308  0.0624 -0.2706
 8543TIP3    H125593   4.639   4.346   5.150  0.1589 -0.2318 -0.0669
 8543TIP3    H225594   4.773   4.321   5.214  0.1059 -0.7642 -0.1556
 8544TIP3   OH225595   2.393   5.286   3.580  0.1431  0.5063 -0.1092
 8544TIP3    H125596   2.449   5.328   3.515  1.4055  1.8549  1.7213
 8544TIP3    H225597   2.448   5.218   3.619 -1.0315 -1.1772 -1.2535
 8545TIP3   OH225598   3.411   1.790   3.842 -0.3851 -0.2329  0.3262
 8545TIP3    H125599   3.348   1.851   3.804  0.5200  0.8835  0.5269
 8545TIP3    H225600   3.436   1.733   3.770 -0.9586 -0.1071  0.0223
 8546TIP3   OH225601   3.790   1.240   1.513 -0.5655  0.2943  0.3703
 8546TIP3    H125602   3.774   1.201   1.426 -2.7810  0.7839  0.4858
 8546TIP3    H225603   3.730   1.193   1.571  0.6011  0.2575  1.5986
 8547TIP3   OH225604   6.501   5.996   2.561 -0.4074  0.5693 -0.0051
 8547TIP3    H125605   6.460   6.077   2.590  0.1417  0.2672  1.7490
 8547TIP3    H225606   6.434   5.952   2.508 -0.8845  1.9176 -0.5523
 8548TIP3   OH225607   1.711   4.487   3.996 -0.7034  0.2280  0.5480
 8548TIP3    H125608   1.677   4.482   3.906  2.1291 -0.5222 -0.5876
 8548TIP3    H225609   1.685   4.404   4.036  0.0447 -0.4863 -0.4001
 8549TIP3   OH225610   3.911   4.718   3.082 -0.5481 -0.4879  0.4704
 8549TIP3    H125611   3.915   4.800   3.132 -1.0861 -0.2228  0.0822
 8549TIP3    H225612   3.924   4.650   3.148 -0.5635 -0.1102  0.8683
 8550TIP3   OH225613   2.941   3.239   1.418  0.0014 -0.1739 -0.1730
 8550TIP3    H125614   3.014   3.205   1.470  0.4940  0.1191 -0.6609
 8550TIP3    H225615   2.888   3.161   1.398 -0.2242 -0.2844  0.7904
 8551TIP3   OH225616   3.225   6.750   2.600 -0.3729  0.7102  0.2366
 8551TIP3    H125617   3.271   6.742   2.517  0.1991  0.7767  0.5447
 8551TIP3    H225618   3.224   6.661   2.635  0.6458  0.9218  0.8234
 8552TIP3   OH225619   5.064   4.693   4.770  0.5537 -0.6389 -0.0365
 8552TIP3    H125620   5.157   4.674   4.778  0.1615 -3.2104 -0.5579
 8552TIP3    H225621   5.030   4.623   4.714 -1.8063 -0.1632  0.6780
 8553TIP3   OH225622   1.837   2.732   0.890 -0.1410 -0.0334  0.3426
 8553TIP3    H125623   1.880   2.700   0.811  0.3056 -1.3235  1.0780
 8553TIP3    H225624   1.746   2.746   0.864 -0.0450 -0.6367 -0.3601
 8554TIP3   OH225625   3.281   0.353   3.090  1.2158 -0.3703  0.1720
 8554TIP3    H125626   3.217   0.292   3.053  0.4318  0.1047  0.7391
 8554TIP3    H225627   3.302   0.412   3.017 -1.8847  1.8716  0.9112
 8555TIP3   OH225628   1.962   4.335   4.961 -0.3873 -0.5055 -0.0480
 8555TIP3    H125629   1.893   4.279   4.996 -0.1124 -0.3617  0.7449
 8555TIP3    H225630   1.915   4.402   4.911 -0.7919 -0.6837  0.0905
 8556TIP3   OH225631   6.808   3.456   3.727  0.5071  0.4352  0.0547
 8556TIP3    H125632   6.750   3.479   3.655  0.9006  2.4415  0.3201
 8556TIP3    H225633   6.890   3.430   3.685 -0.6508 -3.0327 -0.3533
 8557TIP3   OH225634   5.474   2.261   5.582 -0.6094 -0.3165  0.5854
 8557TIP3    H125635   5.566   2.236   5.569 -0.5786 -0.3919  0.9519
 8557TIP3    H225636   5.471   2.295   5.671 -0.9739 -0.4791  0.6345
 8558TIP3   OH225637   1.989   3.840   5.400 -0.0550  0.2571 -0.1153
 8558TIP3    H125638   2.004   3.760   5.449 -0.7411 -0.1106 -0.4962
 8558TIP3    H225639   2.060   3.843   5.336 -1.8189 -1.7846 -2.3205
 8559TIP3   OH225640   1.889   2.761   1.764  0.5884  0.6065 -0.5576
 8559TIP3    H125641   1.938   2.843   1.773  2.5435 -0.7061  2.3147
 8559TIP3    H225642   1.950   2.693   1.793 -2.3158 -1.3624  1.5785
 8560TIP3   OH225643   4.155   1.770   0.431 -0.1143  0.0854  0.2235
 8560TIP3    H125644   4.213   1.780   0.356  0.7291 -1.2547  0.6600
 8560TIP3    H225645   4.073   1.811   0.404  0.3800  0.2055 -1.1728
 8561TIP3   OH225646   5.814   6.493   0.958  0.0766 -0.1137  0.1542
 8561TIP3    H125647   5.818   6.462   0.868  1.1869  1.7012 -0.4627
 8561TIP3    H225648   5.866   6.574   0.959 -0.4525  0.2724  2.2715
 8562TIP3   OH225649   3.564   6.011   3.524 -0.8394 -0.2637 -0.6723
 8562TIP3    H125650   3.642   6.062   3.541 -0.5153 -1.0454  0.2448
 8562TIP3    H225651   3.528   5.991   3.610 -2.8130  1.2050 -1.0804
 8563TIP3   OH225652   7.011   3.106   0.474 -0.4636  0.0639  0.8848
 8563TIP3    H125653   7.010   3.051   0.397  2.4256 -0.5168  1.1173
 8563TIP3    H225654   6.934   3.080   0.525 -0.9087 -1.4676 -0.5136
 8564TIP3   OH225655   3.591   5.790   4.103 -0.8513 -0.1832  0.3448
 8564TIP3    H125656   3.666   5.740   4.133  0.5016  1.5940  0.0891
 8564TIP3    H225657   3.535   5.727   4.058  0.2414 -1.6223  0.9477
 8565TIP3   OH225658   4.077   4.449   3.113  0.3520  0.5902  0.1201
 8565TIP3    H125659   4.159   4.409   3.083  0.1133  0.1401  0.0639
 8565TIP3    H225660   4.016   4.434   3.041  0.0860  0.4957  0.3639
 8566TIP3   OH225661   5.628   0.233   3.731  0.1930  0.0220 -0.3546
 8566TIP3    H125662   5.578   0.280   3.664 -0.6034  0.0281  0.2354
 8566TIP3    H225663   5.660   0.302   3.790 -2.6322 -0.2192  1.6514
 8567TIP3   OH225664   6.073   4.194   0.508  0.4176  0.6237 -0.7868
 8567TIP3    H125665   6.099   4.280   0.475 -0.5578  0.8458 -1.0098
 8567TIP3    H225666   5.990   4.209   0.553 -0.5836 -0.4449 -2.1806
 8568TIP3   OH225667   6.501   1.625   3.890  0.2872  0.2050 -0.0305
 8568TIP3    H125668   6.575   1.588   3.842  0.5422  0.3694  0.2313
 8568TIP3    H225669   6.510   1.590   3.979 -0.6600 -0.7714 -0.3054
 8569TIP3   OH225670   1.483   0.478   0.507 -0.1779  0.2673  0.3677
 8569TIP3    H125671   1.525   0.440   0.430  1.2206  0.3423  1.0651
 8569TIP3    H225672   1.440   0.404   0.550  0.6918 -0.1426  0.5518
 8570TIP3   OH225673   5.089   0.491   1.431  0.0306  0.2474  1.0707
 8570TIP3    H125674   5.184   0.481   1.431 -0.0275 -0.8268 -1.0892
 8570TIP3    H225675   5.060   0.450   1.350 -2.4503 -0.9384  2.4329
 8571TIP3   OH225676   5.579   0.818   4.262 -0.0358 -0.1141 -0.0179
 8571TIP3    H125677   5.658   0.775   4.228  0.8834  0.8229  0.8532
 8571TIP3    H225678   5.512   0.802   4.195  2.3230  4.0111 -3.9284
 8572TIP3   OH225679   5.937   3.746   1.901 -0.2769 -0.0439  0.0112
 8572TIP3    H125680   5.980   3.832   1.904  0.2643 -0.3313  2.3403
 8572TIP3    H225681   5.845   3.766   1.887 -0.2373  0.9809  1.0099
 8573TIP3   OH225682   5.893   6.040   2.609 -0.0152  0.1227 -0.5219
 8573TIP3    H125683   5.895   5.972   2.677 -0.9604 -0.8408 -1.4085
 8573TIP3    H225684   5.801   6.062   2.600  0.2582  1.3474 -0.4505
 8574TIP3   OH225685   4.055   5.264   3.984 -0.1275 -0.1011  0.0773
 8574TIP3    H125686   4.022   5.223   3.904 -0.1296  0.3029 -0.1276
 8574TIP3    H225687   3.989   5.243   4.051 -0.0120 -0.6305  0.0283
 8575TIP3   OH225688   1.958   0.767   0.484  0.0672  0.1401  0.4626
 8575TIP3    H125689   2.038   0.737   0.441  0.4263  1.2581  0.3205
 8575TIP3    H225690   1.891   0.703   0.457  0.7949 -0.5221  0.1826
 8576TIP3   OH225691   7.162   4.688   4.363  0.2865 -0.4764 -0.1905
 8576TIP3    H125692   7.134   4.656   4.277  0.3283 -2.2067  0.4014
 8576TIP3    H225693   7.233   4.628   4.388 -0.2550 -0.4991  1.3885
 8577TIP3   OH225694   5.336   5.960   5.193  0.0214 -0.1711 -0.6423
 8577TIP3    H125695   5.419   5.966   5.147  0.6993  2.0585  0.6788
 8577TIP3    H225696   5.356   5.911   5.273 -0.0318 -0.0111 -0.5299
 8578TIP3   OH225697   5.388   4.624   3.178 -0.6988  0.3947  0.1321
 8578TIP3    H125698   5.432   4.554   3.226 -3.1405 -0.9931  0.4819
 8578TIP3    H225699   5.427   4.705   3.213 -0.4131 -0.6472  2.4170
 8579TIP3   OH225700   0.996   0.218   4.706 -0.3437 -0.1960  0.1510
 8579TIP3    H125701   1.042   0.271   4.641  1.2764 -0.4133  1.0762
 8579TIP3    H225702   1.034   0.131   4.697 -1.3176 -0.6460  0.2498
 8580TIP3   OH225703   1.988   4.480   4.025 -0.3263  0.4414 -0.0060
 8580TIP3    H125704   1.997   4.565   4.069 -0.3956  1.1424 -1.3006
 8580TIP3    H225705   1.895   4.474   4.003 -1.0172 -1.4636  2.9009
 8581TIP3   OH225706   6.549   1.715   5.111  0.2632 -0.2875  0.4639
 8581TIP3    H125707   6.573   1.796   5.156 -0.4776 -0.2933  0.8836
 8581TIP3    H225708   6.510   1.660   5.179  0.0780 -0.7084  0.0266
 8582TIP3   OH225709   4.207   3.361   4.399  0.1968 -0.1535  0.4636
 8582TIP3    H125710   4.148   3.397   4.465  0.8972 -0.0196  1.0317
 8582TIP3    H225711   4.290   3.347   4.446  0.1412 -1.9142  0.1041
 8583TIP3   OH225712   1.597   4.266   5.529 -0.2255  0.3817 -0.2856
 8583TIP3    H125713   1.619   4.354   5.498  1.0812  0.2425  0.1771
 8583TIP3    H225714   1.679   4.232   5.565 -0.9832 -0.5977  0.5786
 8584TIP3   OH225715   2.082   6.354   5.526  0.3564 -0.4039  0.1778
 8584TIP3    H125716   2.176   6.358   5.544  0.2086 -0.7950  1.0720
 8584TIP3    H225717   2.058   6.444   5.505  0.7931 -0.1732  0.6383
 8585TIP3   OH225718   2.121   1.441   3.023  0.1666  0.3284 -0.4748
 8585TIP3    H125719   2.025   1.433   3.016  0.2834 -0.2365 -1.8762
 8585TIP3    H225720   2.142   1.516   2.968  0.7084 -0.9336 -2.0582
 8586TIP3   OH225721   1.972   0.090   1.268 -0.5454 -0.3462  0.0718
 8586TIP3    H125722   1.926   0.126   1.192  1.2289  0.3487 -0.7550
 8586TIP3    H225723   2.026   0.020   1.231  3.0380  2.1909 -0.1592
 8587TIP3   OH225724   2.653   4.697   3.080 -0.3629  0.0773 -0.0649
 8587TIP3    H125725   2.646   4.605   3.055  0.6240 -0.2268  0.6911
 8587TIP3    H225726   2.574   4.738   3.045 -1.3052 -1.2534  0.4322
 8588TIP3   OH225727   4.628   5.716   2.514  0.3871  0.1215  0.8441
 8588TIP3    H125728   4.546   5.759   2.537  1.0013  1.0951  1.2492
 8588TIP3    H225729   4.642   5.738   2.422  1.0792  1.4672  1.2429
 8589TIP3   OH225730   3.485   2.586   0.252 -0.2843  0.1502  0.0971
 8589TIP3    H125731   3.493   2.673   0.292 -2.1613  1.0709 -1.3506
 8589TIP3    H225732   3.502   2.602   0.159  0.8739 -1.3493  0.0233
 8590TIP3   OH225733   6.368   2.988   3.028  0.0743  0.2381  0.1488
 8590TIP3    H125734   6.272   2.985   3.025  0.0612  0.2038  0.5620
 8590TIP3    H225735   6.396   2.909   2.981 -0.0686  1.0061 -1.2956
 8591TIP3   OH225736   6.051   3.539   1.733  0.2229 -0.4457 -0.4403
 8591TIP3    H125737   5.979   3.552   1.671  1.7367  0.2605 -2.1593
 8591TIP3    H225738   6.034   3.601   1.803  0.3779  1.5203 -2.0469
 8592TIP3   OH225739   5.338   0.647   0.339  0.3118  0.3716  0.0232
 8592TIP3    H125740   5.253   0.605   0.349 -0.0384  1.2432  0.7742
 8592TIP3    H225741   5.320   0.726   0.288  0.9052 -0.1460 -1.0280
 8593TIP3   OH225742   4.750   6.481   4.912  0.2426 -0.4275 -0.4128
 8593TIP3    H125743   4.706   6.564   4.895  0.2627 -0.5983 -1.3217
 8593TIP3    H225744   4.843   6.502   4.910  0.2400 -0.3644 -0.0326
 8594TIP3   OH225745   0.468   0.465   1.082  0.0143  0.3131  0.0977
 8594TIP3    H125746   0.374   0.484   1.075  0.1553  1.5666  1.2738
 8594TIP3    H225747   0.498   0.461   0.991 -1.1236  0.1605 -0.2877
 8595TIP3   OH225748   6.567   0.922   0.356  0.1824 -0.2386  0.0008
 8595TIP3    H125749   6.617   0.921   0.438  2.3181  1.3624 -1.1946
 8595TIP3    H225750   6.480   0.953   0.381  0.7983  0.2346  1.6584
 8596TIP3   OH225751   0.661   2.653   3.109  0.6140  0.1805  0.1701
 8596TIP3    H125752   0.644   2.645   3.202  0.3311 -0.3366  0.0777
 8596TIP3    H225753   0.579   2.625   3.067 -0.0637  2.5297 -0.2120
 8597TIP3   OH225754   1.935   6.477   4.058  0.7433 -0.2816  0.2296
 8597TIP3    H125755   2.024   6.511   4.070 -0.2296  1.9902  1.5836
 8597TIP3    H225756   1.923   6.416   4.131  0.4098  1.2049  1.4414
 8598TIP3   OH225757   5.373   4.920   3.642 -0.1491  0.3606 -0.5207
 8598TIP3    H125758   5.344   4.965   3.562  0.8154 -0.1439 -1.1795
 8598TIP3    H225759   5.365   4.987   3.710 -1.6619  0.5853 -0.8900
 8599TIP3   OH225760   0.019   4.533   3.513 -0.5210  0.0973  0.2215
 8599TIP3    H125761  -0.040   4.458   3.508 -2.2806  1.3606  0.9135
 8599TIP3    H225762   0.043   4.538   3.606  0.3643 -0.1462  0.0170
 8600TIP3   OH225763   3.918   6.589   4.271 -0.0895 -0.1811  0.0441
 8600TIP3    H125764   3.936   6.502   4.306 -0.6783  0.1358  1.1864
 8600TIP3    H225765   4.001   6.636   4.280 -0.3212 -0.0052  1.3476
 8601TIP3   OH225766   6.118   6.362   3.691 -0.3775  0.0295 -0.0811
 8601TIP3    H125767   6.196   6.367   3.746  0.4878 -0.7328 -1.2006
 8601TIP3    H225768   6.083   6.451   3.692  0.0407  0.2057  1.0686
 8602TIP3   OH225769   0.059   2.563   1.544  0.0111 -0.6413  0.2525
 8602TIP3    H125770   0.137   2.618   1.532 -1.3136  1.5027  0.8321
 8602TIP3    H225771   0.093   2.481   1.579  2.0955 -0.1904 -0.5685
 8603TIP3   OH225772   1.932   3.361   5.551 -1.0430 -0.5005  0.5567
 8603TIP3    H125773   1.847   3.325   5.576 -1.5628 -0.1493 -0.6182
 8603TIP3    H225774   1.974   3.291   5.501 -0.9478 -0.4191  0.5230
 8604TIP3   OH225775   2.801   1.302   5.135 -0.4769 -0.3126  0.1263
 8604TIP3    H125776   2.835   1.347   5.057  1.9728  0.4091  1.4916
 8604TIP3    H225777   2.789   1.372   5.199  1.2921 -1.2792  1.5874
 8605TIP3   OH225778   0.998   4.597   4.509  0.0656  0.0769 -0.4354
 8605TIP3    H125779   0.936   4.669   4.512 -0.2124 -0.1271 -1.1183
 8605TIP3    H225780   1.009   4.571   4.601 -2.1024 -0.9478 -0.4013
 8606TIP3   OH225781   1.836   2.463   1.897 -0.2324 -0.0301  0.3268
 8606TIP3    H125782   1.763   2.523   1.914 -1.6835 -1.4832 -0.5337
 8606TIP3    H225783   1.913   2.520   1.891 -1.5835  1.7910 -0.7467
 8607TIP3   OH225784   2.057   3.219   0.763  0.0877  0.2591 -0.2213
 8607TIP3    H125785   1.980   3.210   0.706 -0.5592  1.5734  0.3939
 8607TIP3    H225786   2.028   3.188   0.848  0.4559  0.1334 -0.1398
 8608TIP3   OH225787   0.579   5.608   2.042 -0.1143 -0.1064  0.4281
 8608TIP3    H125788   0.600   5.576   1.954 -0.1117  0.5858  0.1766
 8608TIP3    H225789   0.553   5.529   2.090 -2.5788 -0.2059 -0.9010
 8609TIP3   OH225790   2.711   6.571   1.998 -0.4144 -0.0020 -0.1844
 8609TIP3    H125791   2.660   6.649   1.974 -0.7757 -0.5420 -1.2059
 8609TIP3    H225792   2.692   6.558   2.091 -3.1004 -0.8502 -0.7733
 8610TIP3   OH225793   3.332   1.938   1.349  0.6939  0.0036 -0.3603
 8610TIP3    H125794   3.366   1.964   1.263  1.0302 -0.5861 -0.4135
 8610TIP3    H225795   3.243   1.908   1.332  0.6710  0.1306 -0.4631
 8611TIP3   OH225796   5.406   1.931   3.655 -0.0701 -0.3375  0.1961
 8611TIP3    H125797   5.446   1.878   3.586 -0.5515 -0.3570 -0.0759
 8611TIP3    H225798   5.476   1.990   3.684 -0.5519  1.5996 -2.2141
 8612TIP3   OH225799   7.202   3.076   3.158 -0.0504 -0.1697  0.2080
 8612TIP3    H125800   7.152   2.995   3.156  1.2773 -1.0707  0.9786
 8612TIP3    H225801   7.253   3.075   3.077  1.8774 -1.4716  1.3366
 8613TIP3   OH225802   5.827   5.455   4.240  0.3838  0.8865 -0.3438
 8613TIP3    H125803   5.796   5.507   4.315  0.1426 -0.1511  0.2934
 8613TIP3    H225804   5.866   5.377   4.280 -1.0431 -0.3898 -1.3203
 8614TIP3   OH225805   4.342   1.034   0.369  0.6656  0.5769 -0.1628
 8614TIP3    H125806   4.431   1.010   0.396 -0.1790 -1.6627  0.8529
 8614TIP3    H225807   4.313   1.096   0.435  0.1804 -1.5851  1.8081
 8615TIP3   OH225808   6.311   2.218   5.810 -0.2137 -0.6423 -0.0330
 8615TIP3    H125809   6.275   2.134   5.783 -0.9108 -0.8942  1.5854
 8615TIP3    H225810   6.343   2.203   5.899 -1.0731  0.9756  0.5993
 8616TIP3   OH225811   2.296   4.313   1.550  0.0936 -0.5181 -0.0824
 8616TIP3    H125812   2.317   4.301   1.458  0.0229  1.4529 -0.4108
 8616TIP3    H225813   2.201   4.302   1.554 -0.3209  2.1365 -0.8329
 8617TIP3   OH225814   6.102   5.067   0.457 -0.0214 -0.5336 -0.2329
 8617TIP3    H125815   6.126   5.011   0.531 -1.3141 -0.3758  0.3477
 8617TIP3    H225816   6.014   5.037   0.433 -0.1777  0.3567 -0.7994
 8618TIP3   OH225817   4.731   6.272   0.290  0.0751 -0.0331 -0.1412
 8618TIP3    H125818   4.684   6.197   0.327  0.0902 -0.5768 -1.1971
 8618TIP3    H225819   4.675   6.304   0.220 -0.0969  1.1903  0.5181
 8619TIP3   OH225820   0.515   1.652   3.457 -0.1198 -0.0817  0.5431
 8619TIP3    H125821   0.574   1.720   3.488 -0.0253 -0.6504  1.6602
 8619TIP3    H225822   0.569   1.597   3.399  0.0188  0.3102  0.3000
 8620TIP3   OH225823   0.159   4.880   3.910 -0.4804  0.5846 -0.8348
 8620TIP3    H125824   0.231   4.893   3.972 -0.1470 -0.7069 -0.9331
 8620TIP3    H225825   0.080   4.885   3.963 -0.2777  1.0135 -0.5649
 8621TIP3   OH225826   5.386   0.253   1.622  0.3105  0.3177  0.4268
 8621TIP3    H125827   5.462   0.299   1.658 -0.9556  2.3631  0.6198
 8621TIP3    H225828   5.423   0.191   1.559  2.1697  0.7141  1.0703
 8622TIP3   OH225829   5.614   2.003   4.006  0.0057  0.0205  0.1125
 8622TIP3    H125830   5.597   2.055   3.927 -2.2608 -0.4628  0.2078
 8622TIP3    H225831   5.666   1.929   3.975  0.8421  0.8593 -0.5459
 8623TIP3   OH225832   0.197   6.288   2.255 -0.0417 -0.6996 -0.4159
 8623TIP3    H125833   0.137   6.362   2.263  0.8489  0.0461 -0.4421
 8623TIP3    H225834   0.284   6.326   2.264  0.5815 -1.3639 -2.7775
 8624TIP3   OH225835   5.742   2.852   4.948  0.0110  0.3197  0.6957
 8624TIP3    H125836   5.808   2.882   4.885 -0.6926 -0.4692 -0.4718
 8624TIP3    H225837   5.789   2.790   5.004  0.3891  0.1137  0.1635
 8625TIP3   OH225838   7.201   6.331   3.924  0.0068 -0.1522  0.1493
 8625TIP3    H125839   7.147   6.287   3.858 -0.8587 -0.0029  0.7409
 8625TIP3    H225840   7.164   6.419   3.930 -1.1351 -0.6963  2.1211
 8626TIP3   OH225841   3.003   1.142   1.103  0.4690 -0.5297  0.0304
 8626TIP3    H125842   3.070   1.154   1.035  0.3588  1.1951  0.1760
 8626TIP3    H225843   2.924   1.117   1.054  0.0882  1.7994 -0.6907
 8627TIP3   OH225844   5.107   5.298   4.161 -0.9726 -0.3163 -0.3758
 8627TIP3    H125845   5.086   5.383   4.201 -0.6229 -0.2622 -0.3048
 8627TIP3    H225846   5.201   5.302   4.146 -1.0627 -0.4365 -0.9743
 8628TIP3   OH225847   5.953   4.848   4.814  0.3678 -0.3355  0.2200
 8628TIP3    H125848   5.948   4.796   4.733  2.2365  0.4684 -0.4589
 8628TIP3    H225849   6.015   4.801   4.869  2.9777  1.6221 -0.8512
 8629TIP3   OH225850   1.644   2.107   1.838 -0.3921  0.1956  0.3301
 8629TIP3    H125851   1.668   2.136   1.926  0.0256 -1.6559  0.8651
 8629TIP3    H225852   1.688   2.169   1.779 -0.9579  1.6618  1.4049
 8630TIP3   OH225853   1.504   0.754   0.313  0.3516  0.2271  0.1783
 8630TIP3    H125854   1.452   0.832   0.291  0.4603 -0.3772 -2.5878
 8630TIP3    H225855   1.458   0.715   0.387 -2.0135  0.7936 -0.8816
 8631TIP3   OH225856   4.956   5.894   0.534  0.4518 -0.5533  0.3885
 8631TIP3    H125857   5.016   5.833   0.491 -0.1328 -1.6428  1.0688
 8631TIP3    H225858   4.869   5.859   0.518  0.0839  0.2513  0.5721
 8632TIP3   OH225859   4.942   3.380   0.659  0.2228 -0.1775  0.3359
 8632TIP3    H125860   5.030   3.385   0.697  0.7028 -1.6560 -0.4987
 8632TIP3    H225861   4.917   3.471   0.644  0.9011  0.3472  2.1275
 8633TIP3   OH225862   0.099   3.197   0.663  0.7230  0.0407  0.3983
 8633TIP3    H125863   0.147   3.139   0.603 -2.9680 -0.0805 -2.8409
 8633TIP3    H225864   0.037   3.140   0.707  0.2814  0.8453  0.8430
 8634TIP3   OH225865   6.576   1.435   5.247  0.2045 -0.5205  0.2988
 8634TIP3    H125866   6.578   1.388   5.163  2.2354 -0.3040  0.1783
 8634TIP3    H225867   6.562   1.367   5.312 -0.3790 -0.8186 -0.1256
 8635TIP3   OH225868   4.368   2.461   0.123  0.4366  0.0255 -0.3782
 8635TIP3    H125869   4.437   2.524   0.099  0.7180 -0.5472 -1.0937
 8635TIP3    H225870   4.368   2.397   0.052 -1.9197  0.8778 -1.2457
 8636TIP3   OH225871   4.502   0.232   5.085 -0.0236 -0.3335  0.0156
 8636TIP3    H125872   4.432   0.188   5.038 -1.1913  1.2758  0.1802
 8636TIP3    H225873   4.561   0.161   5.112 -1.7103 -1.7579  0.1115
 8637TIP3   OH225874   5.396   3.312   2.324  0.1493 -0.1324  0.4184
 8637TIP3    H125875   5.420   3.392   2.278  0.3520  0.9397  2.2880
 8637TIP3    H225876   5.380   3.248   2.254  1.0471  1.2104 -1.0879
 8638TIP3   OH225877   3.860   3.495   4.865  0.0321 -0.1774  0.0412
 8638TIP3    H125878   3.897   3.451   4.941 -1.1430  2.4877  2.3401
 8638TIP3    H225879   3.766   3.482   4.872 -0.0923  0.0520 -1.0206
 8639TIP3   OH225880   3.032   1.526   3.790 -0.4619 -0.4467 -0.3945
 8639TIP3    H125881   3.008   1.442   3.750 -0.6324 -0.7624  0.3535
 8639TIP3    H225882   2.951   1.577   3.791 -0.8989 -1.1070  1.1416
 8640TIP3   OH225883   6.036   2.497   0.781  0.3046  0.6089  0.0872
 8640TIP3    H125884   6.119   2.542   0.770  0.2169  0.9994  0.9023
 8640TIP3    H225885   5.981   2.530   0.710  0.8624  0.2761 -0.5135
 8641TIP3   OH225886   4.108   6.329   4.075  0.7843  0.2305  0.5159
 8641TIP3    H125887   4.071   6.240   4.082 -0.9036  0.8907  0.5427
 8641TIP3    H225888   4.137   6.349   4.164  0.7113 -0.1108  0.6214
 8642TIP3   OH225889   6.916   6.736   0.567  0.2843  0.6412 -0.8419
 8642TIP3    H125890   6.928   6.780   0.482 -0.0305  0.5727 -0.9252
 8642TIP3    H225891   6.823   6.711   0.567  0.2368  0.8052 -0.4002
 8643TIP3   OH225892   4.721   6.288   4.096  0.8776  0.3469 -0.0002
 8643TIP3    H125893   4.719   6.195   4.074 -0.6794  0.4358 -0.3811
 8643TIP3    H225894   4.699   6.290   4.190  1.4457  0.3014  0.1340
 8644TIP3   OH225895   2.498   3.699   2.680 -0.2175 -0.1193  0.2825
 8644TIP3    H125896   2.550   3.620   2.693 -0.4894 -0.6449 -1.4569
 8644TIP3    H225897   2.417   3.683   2.729 -1.1187 -1.8658 -1.5895
 8645TIP3   OH225898   1.420   0.374   5.146 -0.0434 -0.2954 -0.3940
 8645TIP3    H125899   1.444   0.374   5.238 -0.7351 -0.0951 -0.2099
 8645TIP3    H225900   1.327   0.399   5.145  0.5755  2.2271 -1.3190
 8646TIP3   OH225901   6.054   1.861   3.963  0.0239 -0.0626 -0.0547
 8646TIP3    H125902   6.082   1.897   4.048  0.2391  0.3929 -0.3162
 8646TIP3    H225903   6.126   1.881   3.904 -0.2324 -0.1704 -0.4048
 8647TIP3   OH225904   6.853   1.184   2.789 -0.1605  0.0736  0.0571
 8647TIP3    H125905   6.838   1.256   2.727  0.9610  2.4732  2.4070
 8647TIP3    H225906   6.767   1.144   2.801 -1.0541  1.7763 -0.4461
 8648TIP3   OH225907   3.442   5.601   3.260  0.3782  0.3920  0.0620
 8648TIP3    H125908   3.462   5.513   3.292 -1.2316 -0.0017  0.0661
 8648TIP3    H225909   3.474   5.659   3.329 -0.1313 -0.2851  0.8864
 8649TIP3   OH225910   5.360   4.129   2.235  0.1880  0.0026 -0.0455
 8649TIP3    H125911   5.269   4.125   2.208 -0.5921 -0.1622  2.3378
 8649TIP3    H225912   5.367   4.209   2.288  0.9400 -0.8620  1.2444
 8650TIP3   OH225913   3.073   1.119   4.846 -0.1224 -0.1958  0.2570
 8650TIP3    H125914   3.121   1.154   4.771 -0.5359 -0.0029  0.0794
 8650TIP3    H225915   3.124   1.148   4.922  0.9335 -1.3463  0.0296
 8651TIP3   OH225916   6.719   6.236   5.294  0.5760  0.1037  0.6337
 8651TIP3    H125917   6.698   6.151   5.332 -1.3782 -0.4888 -1.5382
 8651TIP3    H225918   6.759   6.215   5.209 -0.3249  1.3203 -0.1268
 8652TIP3   OH225919   3.797   5.089   0.773 -0.1526 -0.5969 -0.5006
 8652TIP3    H125920   3.791   5.056   0.862  0.8057  0.8299  0.1363
 8652TIP3    H225921   3.889   5.077   0.749 -0.1039  0.2593 -0.7798
 8653TIP3   OH225922   6.499   5.304   0.440 -0.1347 -0.4108  0.5625
 8653TIP3    H125923   6.444   5.382   0.449  0.8601  0.1704  1.8531
 8653TIP3    H225924   6.500   5.286   0.345 -1.9384 -0.0319  0.4399
 8654TIP3   OH225925   1.811   3.769   4.380  0.0045  0.6675  0.6583
 8654TIP3    H125926   1.777   3.856   4.398  0.4894  0.9690  0.1267
 8654TIP3    H225927   1.820   3.765   4.284  1.4881  0.6122  0.7755
 8655TIP3   OH225928   6.515   5.105   4.509  0.0015 -0.7894 -0.3628
 8655TIP3    H125929   6.471   5.048   4.447 -1.8363 -0.3137  0.4456
 8655TIP3    H225930   6.481   5.192   4.492  0.0963 -0.5120  0.7487
 8656TIP3   OH225931   2.678   0.410   1.343  0.0308 -0.0722  0.8159
 8656TIP3    H125932   2.589   0.415   1.376 -0.4984  3.3559 -0.7503
 8656TIP3    H225933   2.728   0.468   1.401  0.3789  1.0247 -0.5249
 8657TIP3   OH225934   1.935   1.213   2.817 -0.2656 -0.2104 -0.1107
 8657TIP3    H125935   1.956   1.145   2.752  0.7745  0.1467 -0.1549
 8657TIP3    H225936   1.980   1.291   2.786 -1.0512  0.3843  0.2116
 8658TIP3   OH225937   1.759   2.939   1.284  0.2005 -0.1106 -0.5752
 8658TIP3    H125938   1.826   2.902   1.227  1.3836  1.8236 -0.5293
 8658TIP3    H225939   1.694   2.976   1.223  0.2690 -0.1090 -0.6476
 8659TIP3   OH225940   5.285   1.362   2.067  0.4057  0.1474  0.3816
 8659TIP3    H125941   5.372   1.370   2.106  0.6908 -1.9383  0.2954
 8659TIP3    H225942   5.294   1.398   1.979  1.0525  0.4248  0.5592
 8660TIP3   OH225943   4.190   0.112   5.618  0.2057  0.5115  0.4471
 8660TIP3    H125944   4.240   0.193   5.605  0.8768 -0.0621 -0.6922
 8660TIP3    H225945   4.109   0.126   5.568 -0.4145  1.0762  1.5486
 8661TIP3   OH225946   0.142   3.050   5.516  0.6667 -0.0298  0.5039
 8661TIP3    H125947   0.055   3.049   5.556  0.1594 -2.5665 -0.4301
 8661TIP3    H225948   0.131   3.101   5.436  0.0665 -0.2350  0.4501
 8662TIP3   OH225949   2.673   3.487   3.563  0.3964  0.4491 -0.2497
 8662TIP3    H125950   2.665   3.444   3.478 -1.9971 -1.1387  0.6649
 8662TIP3    H225951   2.727   3.427   3.615  2.0847  1.5469 -0.6604
 8663TIP3   OH225952   1.172   2.252   0.415  0.2501  0.0360 -0.6429
 8663TIP3    H125953   1.119   2.199   0.355  0.6960 -1.2989  0.1049
 8663TIP3    H225954   1.172   2.339   0.376 -1.5046 -0.2143 -1.2845
 8664TIP3   OH225955   6.317   3.728   3.729 -0.3787  0.4333  0.0074
 8664TIP3    H125956   6.401   3.717   3.772  0.6197 -0.3045 -2.0043
 8664TIP3    H225957   6.255   3.745   3.800  1.6887  2.5333  1.4131
 8665TIP3   OH225958   3.443   3.650   4.378  0.4849  0.0101 -0.0263
 8665TIP3    H125959   3.366   3.682   4.424  0.3674 -1.2620  0.7130
 8665TIP3    H225960   3.412   3.629   4.290 -0.4546 -2.0470  0.7353
 8666TIP3   OH225961   1.246   1.471   1.206  0.4131  0.0199 -0.2374
 8666TIP3    H125962   1.164   1.520   1.200  0.8833  1.2315  1.9045
 8666TIP3    H225963   1.223   1.390   1.252  0.4609  0.6088  0.8670
 8667TIP3   OH225964   0.665   5.801   2.383 -0.2582  0.2849 -0.3703
 8667TIP3    H125965   0.700   5.723   2.425 -2.0945  1.1641  3.1885
 8667TIP3    H225966   0.704   5.874   2.432 -0.7725  1.5156 -1.7276
 8668TIP3   OH225967   1.434   3.898   1.657  0.2952 -0.0668 -0.1344
 8668TIP3    H125968   1.480   3.814   1.652  0.0884 -0.3002  1.2801
 8668TIP3    H225969   1.407   3.905   1.749  0.1517  1.4712 -0.2640
 8669TIP3   OH225970   2.180   4.968   2.207 -0.1432  0.7601  0.1317
 8669TIP3    H125971   2.191   4.902   2.275  0.4993  0.1469 -0.5430
 8669TIP3    H225972   2.087   4.990   2.209 -0.1045  0.8561  1.2932
 8670TIP3   OH225973   3.768   6.046   1.318  0.2332 -0.6751 -0.2446
 8670TIP3    H125974   3.761   6.128   1.269 -1.2725 -1.3576 -1.2641
 8670TIP3    H225975   3.807   5.984   1.257 -1.3975 -1.4594 -0.5578
 8671TIP3   OH225976   0.654   5.846   1.406  0.1863  0.3134 -0.0393
 8671TIP3    H125977   0.641   5.935   1.440  0.4733 -0.3677  1.9282
 8671TIP3    H225978   0.591   5.793   1.455 -0.7632 -0.4485 -1.9663
 8672TIP3   OH225979   5.736   3.228   0.264  0.3868  0.1544  0.2563
 8672TIP3    H125980   5.817   3.274   0.241 -0.3996  1.8621  0.7300
 8672TIP3    H225981   5.755   3.187   0.348  1.7885 -2.3121 -1.1197
 8673TIP3   OH225982   6.927   2.313   0.753  0.0491 -0.3348 -0.5199
 8673TIP3    H125983   6.849   2.368   0.749 -0.2568 -0.6879  0.3156
 8673TIP3    H225984   6.926   2.264   0.671  0.4699  1.0805 -1.3913
 8674TIP3   OH225985   4.355   6.554   0.432 -0.0448 -0.0425  0.1844
 8674TIP3    H125986   4.398   6.478   0.471  0.2877  0.0055 -0.0901
 8674TIP3    H225987   4.362   6.540   0.338  0.2740  0.4708  0.1297
 8675TIP3   OH225988   1.568   2.335   2.937  0.1504 -0.3164  0.3079
 8675TIP3    H125989   1.591   2.250   2.976 -1.1229 -0.8459 -0.0376
 8675TIP3    H225990   1.490   2.316   2.885 -0.6269  1.2428  0.8681
 8676TIP3   OH225991   1.392   2.454   4.200 -0.1070  0.3079 -0.0408
 8676TIP3    H125992   1.336   2.530   4.220  0.0328  0.1473  0.9908
 8676TIP3    H225993   1.453   2.487   4.134  0.6897  1.4408  1.2059
 8677TIP3   OH225994   4.227   4.232   1.848  0.6900  0.1903  0.2219
 8677TIP3    H125995   4.318   4.263   1.843  0.6549  0.1849 -0.4801
 8677TIP3    H225996   4.212   4.186   1.765 -0.0812  0.5412  0.1578
 8678TIP3   OH225997   4.902   4.518   3.342 -0.1929  0.1884 -0.1257
 8678TIP3    H125998   4.884   4.509   3.248  0.1138 -0.3453 -0.1370
 8678TIP3    H225999   4.975   4.579   3.346 -3.4110  4.5169  0.0328
 8679TIP3   OH226000   6.367   1.805   3.760  0.6274 -0.3256 -0.5893
 8679TIP3    H126001   6.412   1.729   3.797  1.0067 -0.0826 -0.5461
 8679TIP3    H226002   6.322   1.771   3.682  0.1477 -0.7548 -0.1345
 8680TIP3   OH226003   2.737   6.321   1.316 -0.4605  0.1371  0.5562
 8680TIP3    H126004   2.802   6.389   1.300 -2.1253  2.3520  2.5756
 8680TIP3    H226005   2.698   6.305   1.231 -2.3408  4.3059  0.4113
 8681TIP3   OH226006   6.853   1.052   4.109 -0.0033  0.1082 -0.2937
 8681TIP3    H126007   6.934   1.019   4.148  0.7921 -0.3246 -2.1959
 8681TIP3    H226008   6.883   1.117   4.045 -1.3370  1.8161  0.7491
 8682TIP3   OH226009   6.006   0.687   1.323  0.0798  0.0155  0.2169
 8682TIP3    H126010   6.014   0.739   1.403  0.6039  0.2934 -0.0123
 8682TIP3    H226011   5.920   0.646   1.330  0.8250 -1.4346  1.8130
 8683TIP3   OH226012   3.979   1.602   0.887  0.5010  0.0122 -0.1934
 8683TIP3    H126013   3.949   1.522   0.844  0.7954  0.6043 -1.5786
 8683TIP3    H226014   3.931   1.604   0.970 -0.2741 -1.0748 -0.5820
 8684TIP3   OH226015   4.167   2.600   1.224  0.1526  0.2705 -0.1234
 8684TIP3    H126016   4.112   2.666   1.266  1.6245  1.0291  0.7249
 8684TIP3    H226017   4.130   2.516   1.252  1.2126  0.7193  3.0480
 8685TIP3   OH226018   4.395   3.225   1.260  0.1797 -0.6265 -0.0611
 8685TIP3    H126019   4.393   3.190   1.171  0.2966 -1.1995  0.1562
 8685TIP3    H226020   4.397   3.320   1.248 -1.4493 -0.6337 -0.6394
 8686TIP3   OH226021   1.534   1.460   3.525  0.3853 -0.2094 -0.2764
 8686TIP3    H126022   1.493   1.481   3.609  0.8415 -0.7696  0.0959
 8686TIP3    H226023   1.545   1.365   3.527 -2.2069 -0.6322 -2.1777
 8687TIP3   OH226024   1.977   4.184   4.519 -0.1022 -0.2303  0.4623
 8687TIP3    H126025   2.032   4.226   4.586  0.5876  0.0254 -0.2457
 8687TIP3    H226026   2.003   4.226   4.437 -1.4645 -0.0054  0.1214
 8688TIP3   OH226027   2.587   4.320   5.175 -0.0077  0.1198 -0.0889
 8688TIP3    H126028   2.554   4.341   5.087  1.0848  0.8443 -0.3310
 8688TIP3    H226029   2.682   4.318   5.165  0.1578 -4.9315 -0.1301
 8689TIP3   OH226030   6.283   5.045   0.224  0.5043  0.6868  0.3472
 8689TIP3    H126031   6.299   5.140   0.222 -2.2396  1.2623  0.9715
 8689TIP3    H226032   6.217   5.034   0.292  0.4753 -1.6520  0.0046
 8690TIP3   OH226033   3.960   2.419   0.536  0.4154 -0.4775 -0.2301
 8690TIP3    H126034   3.954   2.348   0.472  0.6378 -0.1829 -0.5776
 8690TIP3    H226035   3.883   2.473   0.520  0.1341 -0.7532  0.1742
 8691TIP3   OH226036   4.672   5.014   5.687  0.2812  0.1259  0.3397
 8691TIP3    H126037   4.637   4.960   5.616  1.1247  1.0723 -0.8415
 8691TIP3    H226038   4.653   5.104   5.661 -0.0114  0.4773  1.6771
 8692TIP3   OH226039   5.814   3.881   3.306 -0.5905  0.5898 -0.2119
 8692TIP3    H126040   5.775   3.939   3.240 -1.4892 -0.1511 -0.3498
 8692TIP3    H226041   5.748   3.814   3.321  1.4222 -2.0810 -2.1195
 8693TIP3   OH226042   3.193   5.264   1.795 -0.6391 -0.0543  0.3059
 8693TIP3    H126043   3.272   5.283   1.744 -0.1083  0.9756  1.4729
 8693TIP3    H226044   3.208   5.306   1.879 -1.9029 -0.9371  0.9985
 8694TIP3   OH226045   4.343   0.036   4.214  0.5050 -0.1840 -0.5615
 8694TIP3    H126046   4.397   0.099   4.166  0.6579 -0.2218 -0.4388
 8694TIP3    H226047   4.255   0.048   4.178  0.1343  1.4260  0.7693
 8695TIP3   OH226048   4.555   6.384   1.411  0.1780  0.9351  0.2116
 8695TIP3    H126049   4.611   6.418   1.481 -0.7562 -0.1652  1.5428
 8695TIP3    H226050   4.616   6.342   1.350  1.2119  3.5749 -0.7136
 8696TIP3   OH226051   5.444   5.603   2.208 -0.0354  0.2180  0.2665
 8696TIP3    H126052   5.420   5.693   2.229  1.9003  1.0993 -1.0076
 8696TIP3    H226053   5.539   5.602   2.214 -0.0479 -1.9922  1.0621
 8697TIP3   OH226054   3.375   0.114   3.546  0.3579 -0.2146 -0.4275
 8697TIP3    H126055   3.333   0.063   3.616  1.7967 -1.7367 -0.6126
 8697TIP3    H226056   3.436   0.172   3.592 -0.5799  0.6839 -0.2813
 8698TIP3   OH226057   6.091   6.444   4.100 -0.2015  0.9181  0.2781
 8698TIP3    H126058   6.091   6.386   4.176  0.9113  0.8701  0.2669
 8698TIP3    H226059   6.026   6.407   4.041 -1.8019  1.5215  1.6113
 8699TIP3   OH226060   2.667   4.041   5.339  0.1985 -0.3881  0.0442
 8699TIP3    H126061   2.634   4.119   5.384 -1.8143 -1.2933  0.2083
 8699TIP3    H226062   2.604   4.025   5.269  1.7335 -0.6795 -1.3349
 8700TIP3   OH226063   1.045   1.965   1.793 -0.2037  0.2795  0.3152
 8700TIP3    H126064   1.036   2.007   1.879 -1.9172 -1.3238  1.0224
 8700TIP3    H226065   1.128   1.996   1.759  0.6174  0.8627  2.6454
 8701TIP3   OH226066   6.347   0.655   5.753 -0.6071 -0.8061 -0.2300
 8701TIP3    H126067   6.376   0.638   5.663 -1.5360 -0.4114 -0.6101
 8701TIP3    H226068   6.354   0.570   5.797  1.2389 -0.7048 -0.2584
 8702TIP3   OH226069   6.674   4.290   2.494 -0.4507 -0.1885  0.8524
 8702TIP3    H126070   6.620   4.302   2.416  0.3808  0.3629  0.3517
 8702TIP3    H226071   6.691   4.196   2.497 -2.0259 -0.4953  1.4330
 8703TIP3   OH226072   3.511   4.731   1.476  0.1738  0.0264  0.3827
 8703TIP3    H126073   3.586   4.788   1.493 -0.6846  1.0240  1.0302
 8703TIP3    H226074   3.500   4.682   1.558  1.1044 -1.3549 -0.2807
 8704TIP3   OH226075   0.922   2.918   3.469 -0.1120 -0.0302 -0.3592
 8704TIP3    H126076   0.863   2.993   3.466 -1.3938 -0.9571  0.5075
 8704TIP3    H226077   0.956   2.918   3.558  1.5869  0.7491 -0.9762
 8705TIP3   OH226078   4.802   3.755   4.669  0.3746  0.2834 -0.5966
 8705TIP3    H126079   4.841   3.842   4.678  0.3170  0.4147 -1.5433
 8705TIP3    H226080   4.711   3.772   4.644  0.2852 -0.0491 -0.5090
 8706TIP3   OH226081   2.397   4.228   3.963  0.5323  1.0823 -0.3137
 8706TIP3    H126082   2.363   4.153   4.012 -0.8054  1.8945  0.0251
 8706TIP3    H226083   2.446   4.279   4.027  0.5486  1.0605 -0.3083
 8707TIP3   OH226084   2.913   0.659   2.275 -0.2135 -0.1290  1.2492
 8707TIP3    H126085   2.981   0.615   2.327  0.9524  1.3917  1.1140
 8707TIP3    H226086   2.834   0.608   2.289  0.4026 -0.5874  3.3915
 8708TIP3   OH226087   3.126   5.608   5.380 -0.9176 -0.2504 -0.2486
 8708TIP3    H126088   3.101   5.700   5.380 -2.8544 -0.7340 -0.1277
 8708TIP3    H226089   3.049   5.562   5.414 -0.1581 -1.9577 -0.7241
 8709TIP3   OH226090   6.630   1.833   0.770 -0.2104  0.3348 -0.7072
 8709TIP3    H126091   6.701   1.835   0.705  1.5485  0.3245  1.0879
 8709TIP3    H226092   6.605   1.741   0.776 -0.8961  0.4337 -1.8599
 8710TIP3   OH226093   3.294   1.321   5.862  0.1172 -0.4207  0.1677
 8710TIP3    H126094   3.228   1.302   5.796 -0.7678  1.7281  0.3751
 8710TIP3    H226095   3.282   1.251   5.928 -2.8849  0.5937  0.8554
 8711TIP3   OH226096   1.522   0.783   2.607 -0.2999  0.2126 -0.4069
 8711TIP3    H126097   1.428   0.768   2.610 -0.1642 -0.4891  0.7135
 8711TIP3    H226098   1.545   0.813   2.695  0.5738  0.0546 -0.5668
 8712TIP3   OH226099   1.607   4.556   5.615  0.0696 -0.1503  0.3566
 8712TIP3    H126100   1.545   4.573   5.687 -0.4850 -0.6880  0.0134
 8712TIP3    H226101   1.692   4.549   5.658 -0.3490 -1.1552  1.0575
 8713TIP3   OH226102   5.751   3.099   1.732 -0.0907  0.8466 -0.0728
 8713TIP3    H126103   5.669   3.071   1.690  0.9701 -1.0840 -1.0334
 8713TIP3    H226104   5.769   3.031   1.797  1.8807 -0.1293 -1.5004
 8714TIP3   OH226105   4.979   2.620   0.364 -0.1786 -0.0709 -0.5780
 8714TIP3    H126106   4.905   2.660   0.319  0.9342 -0.0820 -2.5306
 8714TIP3    H226107   5.055   2.643   0.310  1.1973 -0.4334  1.1069
 8715TIP3   OH226108   2.347   6.696   2.070 -0.3784  0.0575  0.1851
 8715TIP3    H126109   2.325   6.621   2.015  0.8846  0.6384 -1.1779
 8715TIP3    H226110   2.437   6.717   2.047 -0.1327  0.9339  1.8070
 8716TIP3   OH226111   5.905   0.405   1.486 -1.2041 -0.4323  0.2381
 8716TIP3    H126112   5.952   0.461   1.547 -0.2194 -1.4044  0.4198
 8716TIP3    H226113   5.840   0.462   1.445  1.0282  1.3430 -1.0361
 8717TIP3   OH226114   3.760   5.184   5.134 -0.2490 -0.1869  0.1660
 8717TIP3    H126115   3.778   5.238   5.057 -2.1531 -0.0768 -0.2388
 8717TIP3    H226116   3.847   5.165   5.171  1.0213 -2.2301 -3.3377
 8718TIP3   OH226117   1.170   4.050   3.834  0.0872 -0.3844  0.6559
 8718TIP3    H126118   1.099   4.104   3.801  0.6928 -0.6592 -1.1806
 8718TIP3    H226119   1.244   4.068   3.776  0.1444 -3.6193 -0.4550
 8719TIP3   OH226120   6.079   2.941   5.472 -0.3621  0.3547  0.6841
 8719TIP3    H126121   6.137   2.870   5.497 -1.2937 -0.4937  0.5168
 8719TIP3    H226122   6.044   2.974   5.555 -1.4016 -0.6881  0.6983
 8720TIP3   OH226123   6.359   5.863   3.783 -0.3016  0.8270 -0.0175
 8720TIP3    H126124   6.323   5.776   3.801  0.1628  0.2338 -1.7244
 8720TIP3    H226125   6.307   5.922   3.837 -0.9447 -0.4547  0.8207
 8721TIP3   OH226126   2.610   3.226   2.886 -0.5144 -0.2082  0.1565
 8721TIP3    H126127   2.637   3.303   2.936 -2.5975 -0.1316  1.2886
 8721TIP3    H226128   2.687   3.169   2.886  1.0025  1.7275 -0.5131
 8722TIP3   OH226129   5.309   5.525   3.477 -0.2823  0.7774  0.4413
 8722TIP3    H126130   5.273   5.588   3.414 -0.0489 -0.5774 -1.1101
 8722TIP3    H226131   5.371   5.576   3.529  0.2745  1.7517 -1.0982
 8723TIP3   OH226132   6.828   2.544   4.783 -0.2697  0.5535 -0.4033
 8723TIP3    H126133   6.894   2.577   4.722  0.9401 -1.7321 -0.4328
 8723TIP3    H226134   6.847   2.589   4.866  0.1260  1.2695 -0.8706
 8724TIP3   OH226135   2.228   0.957   5.287 -0.2353  0.4465  0.0873
 8724TIP3    H126136   2.305   0.908   5.258 -0.9485 -0.2806 -0.6307
 8724TIP3    H226137   2.255   0.995   5.371  0.1621 -1.6779  1.0005
 8725TIP3   OH226138   1.986   3.892   4.740  0.1451  0.2303  0.1464
 8725TIP3    H126139   1.898   3.922   4.717 -0.0678 -0.7533 -0.3978
 8725TIP3    H226140   1.992   3.903   4.835 -1.1100 -1.0666  0.4019
 8726TIP3   OH226141   0.484   1.489   2.491  0.6465 -0.1111  0.0644
 8726TIP3    H126142   0.493   1.402   2.531 -2.0400  0.5143  2.3104
 8726TIP3    H226143   0.412   1.480   2.429  0.1854  0.5640  0.4916
 8727TIP3   OH226144   0.933   6.537   2.045 -0.6636 -0.3409  0.6005
 8727TIP3    H126145   1.018   6.571   2.019 -0.4388 -0.1109  1.6001
 8727TIP3    H226146   0.870   6.599   2.007 -0.3645 -0.1682  0.3775
 8728TIP3   OH226147   4.485   5.873   1.052 -0.0567 -0.3142 -0.1006
 8728TIP3    H126148   4.580   5.861   1.047  0.0452  0.3762  0.1185
 8728TIP3    H226149   4.468   5.950   0.998 -0.6994 -1.3614 -1.4785
 8729TIP3   OH226150   4.322   2.326   2.605 -0.6931  0.0300 -0.0137
 8729TIP3    H126151   4.312   2.308   2.699 -1.0243  0.4476  0.0352
 8729TIP3    H226152   4.252   2.387   2.585  2.0293  3.5906  0.4349
 8730TIP3   OH226153   3.574   4.359   0.376  0.1370 -0.3260  0.1329
 8730TIP3    H126154   3.598   4.442   0.335  1.4318  0.0053  1.4952
 8730TIP3    H226155   3.484   4.343   0.346  0.1844  1.1035 -0.8638
 8731TIP3   OH226156   0.424   2.483   1.506  0.0857 -0.0549 -0.1241
 8731TIP3    H126157   0.396   2.540   1.577 -0.3281 -1.5309  0.9519
 8731TIP3    H226158   0.500   2.437   1.541 -1.2331 -2.1713  0.1187
 8732TIP3   OH226159   5.813   5.534   4.631 -0.1395  0.7039 -0.1588
 8732TIP3    H126160   5.813   5.443   4.660 -0.7569  0.3909 -1.0953
 8732TIP3    H226161   5.809   5.584   4.712  0.7814 -0.0814  0.3913
 8733TIP3   OH226162   3.113   5.425   5.873  0.1383 -0.7240  0.5230
 8733TIP3    H126163   3.140   5.507   5.830  0.5123 -0.9450  0.3374
 8733TIP3    H226164   3.181   5.408   5.938 -0.4992 -0.3176  1.3097
 8734TIP3   OH226165   1.132   1.025   4.876 -0.0743  0.2870 -0.8067
 8734TIP3    H126166   1.177   0.978   4.946  1.3168  1.6942 -0.6718
 8734TIP3    H226167   1.069   0.963   4.840 -0.3978 -0.6550  1.2870
 8735TIP3   OH226168   2.703   1.525   4.136  0.5889  0.1531  0.1410
 8735TIP3    H126169   2.614   1.491   4.139  0.3790  0.4094 -1.8650
 8735TIP3    H226170   2.759   1.448   4.130  0.1630 -0.0146 -3.5235
 8736TIP3   OH226171   0.554   4.661   0.353 -0.4230 -0.2698 -0.1029
 8736TIP3    H126172   0.498   4.702   0.419 -0.1243  0.0976 -0.0796
 8736TIP3    H226173   0.612   4.604   0.403  2.5876  2.9953  0.4692
 8737TIP3   OH226174   5.483   3.877   0.273 -0.2136 -0.5598 -0.2012
 8737TIP3    H126175   5.475   3.788   0.239 -0.1124 -0.7294  0.2188
 8737TIP3    H226176   5.454   3.871   0.364 -0.3035 -0.1427 -0.1993
 8738TIP3   OH226177   5.084   2.402   3.035  0.4996 -0.2741 -0.0907
 8738TIP3    H126178   5.062   2.479   2.984 -0.3991  2.2249  3.6220
 8738TIP3    H226179   5.172   2.420   3.070 -0.3868  0.0063  2.1806
 8739TIP3   OH226180   5.578   2.658   4.275 -0.0588  0.0818 -0.0586
 8739TIP3    H126181   5.661   2.692   4.242 -0.2663  1.4525  0.7227
 8739TIP3    H226182   5.527   2.638   4.197  0.6016  0.2871 -0.5503
 8740TIP3   OH226183   5.907   0.599   5.427  0.4395  0.0471  0.5510
 8740TIP3    H126184   5.947   0.652   5.358  0.3915  0.7513  1.0525
 8740TIP3    H226185   5.911   0.654   5.505 -0.0254 -0.5163  0.9828
 8741TIP3   OH226186   3.144   0.154   4.968 -0.2203 -0.8168  0.1130
 8741TIP3    H126187   3.140   0.134   5.061 -0.6056  1.2940  0.6067
 8741TIP3    H226188   3.207   0.225   4.961 -2.5940  1.3497 -0.7279
 8742TIP3   OH226189   4.661   0.452   1.471  0.2884  0.3701  0.2132
 8742TIP3    H126190   4.628   0.428   1.558 -1.3486 -0.1163 -0.5066
 8742TIP3    H226191   4.583   0.472   1.420  1.3371  3.8889 -0.2643
 8743TIP3   OH226192   3.055   1.982   2.630 -0.9655  0.5404  0.3873
 8743TIP3    H126193   3.043   1.888   2.613  0.1241  0.6845 -1.5073
 8743TIP3    H226194   3.070   1.987   2.724 -1.1839 -1.1775  0.5545
 8744TIP3   OH226195   1.263   3.624   3.732 -0.1381 -0.0986 -0.9044
 8744TIP3    H126196   1.205   3.548   3.724  1.1847 -1.3797  0.7805
 8744TIP3    H226197   1.230   3.672   3.808 -0.4317  0.5425 -1.4262
 8745TIP3   OH226198   2.426   6.087   1.288 -0.2904  0.1521  0.4645
 8745TIP3    H126199   2.459   6.142   1.359  0.2036  0.6710 -0.1511
 8745TIP3    H226200   2.494   6.094   1.220 -0.0061 -1.5557  0.5374
 8746TIP3   OH226201   2.514   2.654   0.089 -0.6018 -0.7718 -0.0675
 8746TIP3    H126202   2.528   2.576   0.143 -0.1638 -1.0318 -0.5501
 8746TIP3    H226203   2.602   2.678   0.058 -0.2610  1.6247  2.3731
 8747TIP3   OH226204   0.596   3.431   0.029  0.0045 -0.2507  0.5013
 8747TIP3    H126205   0.687   3.402   0.026  0.2560  0.5808 -1.3137
 8747TIP3    H226206   0.546   3.352   0.048  1.0602 -0.7883  1.1316
 8748TIP3   OH226207   3.041   6.072   2.763 -0.7590  0.1433  0.3485
 8748TIP3    H126208   3.132   6.075   2.793 -0.8747  0.5815  0.6805
 8748TIP3    H226209   3.039   6.125   2.684 -0.4508 -1.0217 -0.4515
 8749TIP3   OH226210   6.912   5.684   0.235 -0.4394  0.3309 -0.4099
 8749TIP3    H126211   6.853   5.673   0.160  0.3398 -0.3845 -0.9393
 8749TIP3    H226212   6.983   5.622   0.219  0.1448  0.7296  0.5328
 8750TIP3   OH226213   6.636   2.363   3.268  0.2751  0.1655 -0.5054
 8750TIP3    H126214   6.573   2.435   3.254  0.2074 -0.0560 -1.4317
 8750TIP3    H226215   6.627   2.308   3.190  0.6972 -0.5764 -0.0436
 8751TIP3   OH226216   6.008   0.561   2.204  0.4399  0.4453  0.3551
 8751TIP3    H126217   5.919   0.572   2.237  0.4284 -1.2349  0.9864
 8751TIP3    H226218   6.035   0.649   2.180 -1.8409  0.8373 -1.0743
 8752TIP3   OH226219   6.964   4.019   3.870  0.0128 -0.1527 -0.1405
 8752TIP3    H126220   6.889   3.997   3.925 -1.1406 -0.9731 -1.9425
 8752TIP3    H226221   7.034   3.960   3.901 -1.0375 -1.6230 -0.4539
 8753TIP3   OH226222   6.868   4.201   0.522 -0.2761  0.0386  0.0919
 8753TIP3    H126223   6.931   4.200   0.450  0.2104  0.0873  0.5086
 8753TIP3    H226224   6.886   4.121   0.571  0.4192  0.7332  1.0140
 8754TIP3   OH226225   2.221   4.022   4.688 -0.0163 -0.3945  0.1672
 8754TIP3    H126226   2.138   3.978   4.704  0.5775 -1.3986  0.6697
 8754TIP3    H226227   2.199   4.115   4.681 -1.2452 -0.7071 -0.3579
 8755TIP3   OH226228   6.751   4.986   2.492  0.0813 -0.5136  0.1354
 8755TIP3    H126229   6.676   4.946   2.448  0.7195 -1.0309 -0.5105
 8755TIP3    H226230   6.779   4.921   2.556  0.0318 -0.3568  0.3165
 8756TIP3   OH226231   2.072   0.583   3.158  0.3399  0.1716  0.4490
 8756TIP3    H126232   2.128   0.542   3.092  2.2183  0.4351  1.7874
 8756TIP3    H226233   2.131   0.641   3.206 -1.5255  1.8973  0.7496
 8757TIP3   OH226234   2.311   0.496   4.628 -0.4469 -0.4815  0.4986
 8757TIP3    H126235   2.262   0.568   4.668 -0.0584  0.9395 -1.4279
 8757TIP3    H226236   2.394   0.494   4.676 -0.9738 -0.5607  1.4397
 8758TIP3   OH226237   2.757   0.157   2.073 -0.3072 -0.0530 -0.1206
 8758TIP3    H126238   2.830   0.212   2.046  1.9000 -3.1675 -1.0696
 8758TIP3    H226239   2.786   0.116   2.155 -1.4750 -0.5239  0.0925
 8759TIP3   OH226240   1.019   1.896   1.399  0.2669 -0.4694 -0.5208
 8759TIP3    H126241   1.095   1.929   1.352 -0.1792  0.4596 -0.6014
 8759TIP3    H226242   1.051   1.818   1.444  0.6504 -1.5227 -2.5029
 8760TIP3   OH226243   3.403   4.891   5.132  0.4754  0.1390 -0.3010
 8760TIP3    H126244   3.410   4.874   5.226 -0.1752  4.0998  0.6207
 8760TIP3    H226245   3.492   4.912   5.104  0.6305 -0.8282 -0.6039
 8761TIP3   OH226246   2.406   4.879   0.034 -0.9777 -0.3996 -0.2469
 8761TIP3    H126247   2.396   4.943  -0.037  1.5867 -0.4253 -0.7247
 8761TIP3    H226248   2.318   4.844   0.047 -2.1109  1.9055 -1.2149
 8762TIP3   OH226249   2.376   6.783   2.674 -0.3259  0.3866 -0.0839
 8762TIP3    H126250   2.299   6.826   2.712 -1.7139 -1.9446 -0.1027
 8762TIP3    H226251   2.354   6.690   2.672  1.6312 -0.1300 -2.1758
 8763TIP3   OH226252   2.797   3.478   1.430  0.4587 -0.1472 -0.5563
 8763TIP3    H126253   2.744   3.474   1.350 -0.8085 -0.5373  0.2789
 8763TIP3    H226254   2.834   3.390   1.438 -1.5129 -0.9278  0.6365
 8764TIP3   OH226255   0.847   5.498   0.408 -0.6520  0.2147  0.2207
 8764TIP3    H126256   0.909   5.425   0.402 -1.2266 -0.1847 -1.6951
 8764TIP3    H226257   0.762   5.455   0.420 -1.3010  0.3152 -3.0110
 8765TIP3   OH226258   1.309   3.115   0.322  0.0293  1.2776 -0.0376
 8765TIP3    H126259   1.298   3.098   0.416  1.8886 -0.7486 -0.0891
 8765TIP3    H226260   1.226   3.153   0.294 -1.9924 -1.4538  1.7144
 8766TIP3   OH226261   4.268   1.216   3.917  0.0575 -0.0967  0.0932
 8766TIP3    H126262   4.233   1.306   3.916  1.7699  0.6104 -0.6385
 8766TIP3    H226263   4.192   1.161   3.896 -0.3635  1.4760 -3.0846
 8767TIP3   OH226264   5.289   3.415   3.865  0.5571 -0.3590 -0.0016
 8767TIP3    H126265   5.244   3.495   3.838  1.0376  0.0432  0.3624
 8767TIP3    H226266   5.382   3.437   3.862  0.7847 -1.4039 -1.4435
 8768TIP3   OH226267   2.422   3.223   1.274  0.5688  0.3383  0.4452
 8768TIP3    H126268   2.344   3.169   1.284 -0.1783  0.7316 -2.4320
 8768TIP3    H226269   2.425   3.276   1.354 -2.4094  0.6612  0.4535
 8769TIP3   OH226270   4.498   1.138   3.801  0.2685  0.4810  0.4164
 8769TIP3    H126271   4.413   1.167   3.834 -0.3701 -0.2216 -0.5680
 8769TIP3    H226272   4.504   1.046   3.826  0.4720  0.3703 -0.0216
 8770TIP3   OH226273   1.954   0.550   4.791  0.0804  0.0486 -0.7098
 8770TIP3    H126274   1.909   0.631   4.767 -3.0338 -0.9109  1.2629
 8770TIP3    H226275   1.924   0.485   4.727  0.5837 -0.1073 -0.7968
 8771TIP3   OH226276   6.176   3.489   3.665  0.0655 -0.1132 -0.0840
 8771TIP3    H126277   6.199   3.576   3.697  1.3658 -0.5989  0.3370
 8771TIP3    H226278   6.193   3.431   3.739 -1.3395 -0.6757 -0.1672
 8772TIP3   OH226279   2.502   4.018   1.345  0.6393  0.3888 -0.2221
 8772TIP3    H126280   2.449   3.970   1.281  0.2810  2.1547 -1.3089
 8772TIP3    H226281   2.581   3.964   1.355 -1.0885 -2.0908  1.1217
 8773TIP3   OH226282   2.072   2.770   1.039 -0.2873  0.2203 -0.0629
 8773TIP3    H126283   2.109   2.858   1.031  0.1779 -0.0998 -1.7638
 8773TIP3    H226284   1.999   2.769   0.977  1.5123 -1.4435 -2.3546
 8774TIP3   OH226285   3.280   3.448   3.569 -1.0088  0.4405 -0.9260
 8774TIP3    H126286   3.278   3.456   3.474 -1.0210 -0.3005 -0.9979
 8774TIP3    H226287   3.320   3.529   3.600  0.1098  0.1878 -1.6417
 8775TIP3   OH226288   0.764   5.922   3.420 -0.3697 -0.1964  0.0397
 8775TIP3    H126289   0.823   5.870   3.474  0.1238 -0.6726 -0.9324
 8775TIP3    H226290   0.707   5.967   3.483 -0.1436 -1.1242  0.9310
 8776TIP3   OH226291   5.226   2.583   2.654  0.0411  0.3050  0.3622
 8776TIP3    H126292   5.278   2.664   2.654  1.0186 -0.2930 -0.7713
 8776TIP3    H226293   5.136   2.613   2.663  0.4834  1.4387  1.2824
 8777TIP3   OH226294   6.481   0.083   2.768 -0.3615  0.3182 -0.4319
 8777TIP3    H126295   6.464   0.133   2.848  0.1041  0.2523 -0.2910
 8777TIP3    H226296   6.477  -0.008   2.795  2.8647  0.2348  0.2378
 8778TIP3   OH226297   2.080   6.604   3.442  0.3314 -0.1472 -0.4625
 8778TIP3    H126298   2.161   6.607   3.391  0.6149  1.6421  0.0207
 8778TIP3    H226299   2.031   6.531   3.404  1.8872 -0.8891 -1.1677
 8779TIP3   OH226300   0.978   2.526   3.891 -0.2207 -0.3357 -0.7437
 8779TIP3    H126301   1.011   2.480   3.968  0.2090  0.9553 -0.1218
 8779TIP3    H226302   0.906   2.471   3.859 -1.0701 -0.4282  1.1633
 8780TIP3   OH226303   6.109   4.237   1.682 -0.6760 -0.3130  0.3188
 8780TIP3    H126304   6.195   4.270   1.709 -0.1046 -1.2189 -0.3704
 8780TIP3    H226305   6.061   4.316   1.657  1.1062 -0.0137 -2.5764
 8781TIP3   OH226306   6.089   6.080   5.046 -0.6721 -0.5647 -0.3498
 8781TIP3    H126307   6.013   6.129   5.077  0.0889 -0.4952  1.5146
 8781TIP3    H226308   6.157   6.146   5.036 -0.1975 -0.9588  0.2647
 8782TIP3   OH226309   5.340   1.512   5.050 -0.7209  0.1556  0.1535
 8782TIP3    H126310   5.312   1.554   4.969  0.7856  0.5837 -0.1566
 8782TIP3    H226311   5.428   1.480   5.032 -0.6707 -0.4524  1.3697
 8783TIP3   OH226312   4.588   0.989   0.445  0.4360  0.0793 -0.1530
 8783TIP3    H126313   4.648   0.940   0.502  1.2000  3.1643  1.9349
 8783TIP3    H226314   4.644   1.054   0.402 -0.6392 -0.3088 -2.3037
 8784TIP3   OH226315   0.427   0.532   1.572  0.4906 -0.8158 -0.7701
 8784TIP3    H126316   0.488   0.458   1.569 -0.7333 -1.8564 -1.0667
 8784TIP3    H226317   0.385   0.532   1.486  1.3194  1.0027 -1.2122
 8785TIP3   OH226318   0.527   2.852   1.588  0.6171 -0.6954 -0.0621
 8785TIP3    H126319   0.598   2.816   1.642  0.0561  0.6683  1.6858
 8785TIP3    H226320   0.505   2.935   1.630 -1.7387 -0.8735 -0.7841
 8786TIP3   OH226321   6.212   5.172   0.769 -0.1524 -0.4349  0.1088
 8786TIP3    H126322   6.145   5.192   0.834  0.2022  0.3175  0.2608
 8786TIP3    H226323   6.167   5.120   0.702 -0.9166  0.1916  0.1265
 8787TIP3   OH226324   6.940   6.764   5.719  0.6859 -0.2786  1.0351
 8787TIP3    H126325   6.967   6.713   5.643 -0.1982  0.2718  0.3387
 8787TIP3    H226326   6.883   6.832   5.684  0.7508  0.3541  2.1186
 8788TIP3   OH226327   1.301   5.833   4.979 -0.0118  0.0140  0.6915
 8788TIP3    H126328   1.348   5.750   4.967 -1.8605 -0.8829 -0.9901
 8788TIP3    H226329   1.253   5.822   5.061 -2.4678 -1.8645 -0.8380
 8789TIP3   OH226330   4.610   1.002   2.664 -0.2869  0.3447  0.1388
 8789TIP3    H126331   4.609   0.909   2.688 -1.0416  0.9516  2.7636
 8789TIP3    H226332   4.534   1.040   2.709  0.5809  2.4211 -0.0210
 8790TIP3   OH226333   3.660   4.845   0.200 -0.6762 -0.3255 -0.0697
 8790TIP3    H126334   3.625   4.817   0.285 -0.7057  0.6101  0.2390
 8790TIP3    H226335   3.595   4.905   0.165  0.3695  1.0892  0.3102
 8791TIP3   OH226336   5.882   2.787   3.165  0.8957 -0.4934 -0.5166
 8791TIP3    H126337   5.889   2.848   3.238 -2.4156  2.5924 -2.4595
 8791TIP3    H226338   5.893   2.700   3.205  0.3241  1.0429  3.3876
 8792TIP3   OH226339   0.090   6.586   0.701  0.2723  0.2190  0.3916
 8792TIP3    H126340   0.175   6.542   0.692 -0.2809 -0.6901 -0.7151
 8792TIP3    H226341   0.030   6.532   0.649 -1.4336 -0.3460  2.7619
 8793TIP3   OH226342   6.863   1.415   4.418  0.1857 -0.0741  0.6220
 8793TIP3    H126343   6.779   1.376   4.393  0.0265  0.5311  0.2014
 8793TIP3    H226344   6.927   1.344   4.408 -0.1622 -0.3358  0.2594
 8794TIP3   OH226345   5.175   1.055   2.527  0.2684  0.0187  0.6007
 8794TIP3    H126346   5.190   0.975   2.577 -0.0260  0.3855  1.2901
 8794TIP3    H226347   5.126   1.111   2.587 -0.1447  0.4443 -0.1225
 8795TIP3   OH226348   6.602   2.840   1.361 -0.0401 -0.6478 -0.2441
 8795TIP3    H126349   6.551   2.795   1.294  1.0985 -0.0769 -1.5499
 8795TIP3    H226350   6.564   2.812   1.444 -2.2166 -0.5068 -1.1432
 8796TIP3   OH226351   5.084   0.089   4.589 -0.4496 -0.2210 -0.2430
 8796TIP3    H126352   5.059   0.170   4.546  1.8317 -0.3703 -2.0536
 8796TIP3    H226353   5.137   0.117   4.664  1.4571  0.0436 -1.6141
 8797TIP3   OH226354   2.279   1.109   4.169  0.1440 -0.1439 -0.6463
 8797TIP3    H126355   2.281   1.116   4.073  0.9701 -3.0451 -0.9410
 8797TIP3    H226356   2.186   1.109   4.191 -0.1001 -0.7211 -1.6122
 8798TIP3   OH226357   2.107   3.347   2.230  0.2943 -0.3542  0.4027
 8798TIP3    H126358   2.183   3.307   2.273  0.2330  0.5635  1.3900
 8798TIP3    H226359   2.035   3.332   2.292  0.3820  1.7506  1.0735
 8799TIP3   OH226360   6.067   5.803   3.027  0.3105  0.0314 -0.1891
 8799TIP3    H126361   6.117   5.859   2.969  0.8549  0.9875  1.1515
 8799TIP3    H226362   6.097   5.826   3.115 -0.4325 -1.4103  0.4805
 8800TIP3   OH226363   5.325   6.419   3.285 -0.4313 -0.4332  0.6001
 8800TIP3    H126364   5.274   6.364   3.225 -0.4591  1.1880 -0.9662
 8800TIP3    H226365   5.410   6.376   3.291 -0.3609 -0.5507 -0.8089
 8801TIP3   OH226366   4.978   0.096   2.539 -0.0022  0.4904  0.0618
 8801TIP3    H126367   4.938   0.066   2.620  1.0588 -0.2515  0.3265
 8801TIP3    H226368   4.962   0.191   2.538 -0.1767  0.4773  1.0438
 8802TIP3   OH226369   0.381   0.907   4.068 -0.1355 -0.2508  0.5273
 8802TIP3    H126370   0.309   0.921   4.007 -0.0885 -1.2793  0.2162
 8802TIP3    H226371   0.455   0.953   4.028 -0.1877 -0.6428 -0.0281
 8803TIP3   OH226372   6.265   2.035   5.206  0.4741  0.1711  0.4132
 8803TIP3    H126373   6.280   1.987   5.124  0.1105  0.2527  0.2940
 8803TIP3    H226374   6.333   2.101   5.208  2.1480 -1.5064  1.4896
 8804TIP3   OH226375   3.439   2.527   5.256  0.0966  0.1894 -0.7957
 8804TIP3    H126376   3.506   2.540   5.323  0.7975 -1.0825 -1.2330
 8804TIP3    H226377   3.475   2.568   5.177  0.1170 -0.0217 -0.8955
 8805TIP3   OH226378   7.180   3.900   0.526 -0.4836 -1.0318 -1.0532
 8805TIP3    H126379   7.091   3.935   0.524 -0.2556 -0.4449 -1.3365
 8805TIP3    H226380   7.172   3.811   0.491 -1.1503 -1.4560  0.1405
 8806TIP3   OH226381   2.267   0.842   0.807 -0.2160 -0.6648  0.0567
 8806TIP3    H126382   2.182   0.884   0.819  1.0291  2.2341 -0.4782
 8806TIP3    H226383   2.321   0.874   0.879  1.2940  0.1893 -1.3544
 8807TIP3   OH226384   1.825   4.534   4.838  0.5206  0.3611  0.1466
 8807TIP3    H126385   1.894   4.600   4.834 -0.1463  1.1310  1.0202
 8807TIP3    H226386   1.800   4.521   4.746  2.6978 -0.9192 -0.3273
 8808TIP3   OH226387   5.730   5.056   2.092  0.0584  0.5068  0.1923
 8808TIP3    H126388   5.741   4.969   2.130  0.2686  1.2066  1.7961
 8808TIP3    H226389   5.819   5.083   2.066 -0.2948 -0.7207 -2.6585
 8809TIP3   OH226390   5.560   2.175   0.993  0.0201  0.0703  0.7732
 8809TIP3    H126391   5.576   2.268   1.008 -0.9367  0.4313 -0.2956
 8809TIP3    H226392   5.557   2.137   1.081 -1.0774  1.3245  1.3114
 8810TIP3   OH226393   4.092   0.575   5.163 -0.2245  0.2726  0.5048
 8810TIP3    H126394   4.104   0.531   5.079  0.1141  2.7728 -0.8898
 8810TIP3    H226395   4.025   0.524   5.208  0.7410 -2.0748 -0.5510
 8811TIP3   OH226396   5.789   5.587   2.565  0.4273  0.1768 -0.0204
 8811TIP3    H126397   5.759   5.643   2.637  1.4788  0.4306  0.2510
 8811TIP3    H226398   5.857   5.640   2.522  0.3558 -0.2894 -0.7105
 8812TIP3   OH226399   3.217   4.197   2.831  0.0233 -0.3737 -0.3165
 8812TIP3    H126400   3.168   4.213   2.911  0.7931 -0.5735  0.2083
 8812TIP3    H226401   3.263   4.279   2.814  0.6233 -0.6350 -0.0005
 8813TIP3   OH226402   1.075   4.919   0.490  0.1113 -0.0184 -0.0186
 8813TIP3    H126403   1.115   4.972   0.422  2.8756 -0.3723  1.2062
 8813TIP3    H226404   1.111   4.831   0.477  0.0470 -0.2791  1.3727
 8814TIP3   OH226405   0.071   2.553   5.371  0.4276 -0.2290 -0.3810
 8814TIP3    H126406   0.104   2.508   5.293  1.9215  2.9456 -1.7820
 8814TIP3    H226407   0.001   2.610   5.338 -0.7336 -0.7190  1.1233
 8815TIP3   OH226408   3.689   3.244   0.616  1.0958 -0.4799 -0.0945
 8815TIP3    H126409   3.756   3.200   0.669  1.7422  0.0800 -0.4447
 8815TIP3    H226410   3.713   3.225   0.526  0.6149 -0.5124 -0.2208
 8816TIP3   OH226411   1.826   0.641   3.072 -0.2319  1.3834 -0.3374
 8816TIP3    H126412   1.909   0.639   3.119  0.3150  1.3262 -1.2779
 8816TIP3    H226413   1.849   0.618   2.982 -1.4668  0.0627 -0.3469
 8817TIP3   OH226414   2.505   1.050   1.932  0.3655  0.2040  0.2078
 8817TIP3    H126415   2.597   1.052   1.906  0.5334 -0.2591  0.7301
 8817TIP3    H226416   2.461   1.110   1.871  1.1762  1.2379  0.5981
 8818TIP3   OH226417   2.388   1.536   1.856 -0.8750  0.3236 -0.2392
 8818TIP3    H126418   2.365   1.461   1.802 -1.2395  0.9981 -1.0297
 8818TIP3    H226419   2.474   1.564   1.824  0.7426 -1.5551  2.0295
 8819TIP3   OH226420   0.330   4.022   1.636 -0.3103 -0.4238 -0.2794
 8819TIP3    H126421   0.259   4.035   1.698 -0.4521 -0.8224 -0.3565
 8819TIP3    H226422   0.409   4.014   1.690 -0.2215  0.6789 -0.2228
 8820TIP3   OH226423   1.193   2.262   4.753 -0.2671 -0.0937 -0.0766
 8820TIP3    H126424   1.138   2.334   4.725  1.4095  1.4684  0.4211
 8820TIP3    H226425   1.241   2.236   4.674  1.6669  1.7490  0.4017
 8821TIP3   OH226426   1.753   2.974   2.579  0.5948  0.0798  0.6172
 8821TIP3    H126427   1.677   2.931   2.618  0.0132  0.9927  0.5345
 8821TIP3    H226428   1.828   2.936   2.623  0.1395 -1.3543  0.2133
 8822TIP3   OH226429   0.985   0.821   4.482 -0.4826 -0.6686  0.0360
 8822TIP3    H126430   1.013   0.738   4.521  0.5101  0.6971  2.4700
 8822TIP3    H226431   1.063   0.875   4.484 -0.8618  0.0622 -2.4258
 8823TIP3   OH226432   6.292   3.632   0.950 -0.0179  0.0763 -0.0746
 8823TIP3    H126433   6.209   3.631   0.997 -0.8056 -0.7676 -1.4159
 8823TIP3    H226434   6.324   3.542   0.957  1.2251  0.5755  1.1231
 8824TIP3   OH226435   2.034   4.992   1.332 -0.0082 -0.5604  0.3223
 8824TIP3    H126436   2.019   5.036   1.415 -0.6690 -1.9881  0.9908
 8824TIP3    H226437   1.946   4.971   1.299  0.1908  0.7982 -1.2187
 8825TIP3   OH226438   1.756   2.996   3.179 -0.5439 -0.2007  0.5934
 8825TIP3    H126439   1.844   3.030   3.196  0.5964 -2.5566 -0.2168
 8825TIP3    H226440   1.738   3.019   3.088 -1.4179  1.4978  1.1473
 8826TIP3   OH226441   6.569   6.234   3.424  0.0067  0.5047 -0.0608
 8826TIP3    H126442   6.506   6.299   3.394 -0.9037 -1.0093 -1.6273
 8826TIP3    H226443   6.575   6.247   3.518 -0.3217  2.6560 -0.2923
 8827TIP3   OH226444   5.487   0.885   2.331 -0.4723 -0.7137 -0.2819
 8827TIP3    H126445   5.526   0.812   2.282  0.1694 -0.9665  0.5829
 8827TIP3    H226446   5.512   0.963   2.282  1.1083 -0.8732  0.2248
 8828TIP3   OH226447   0.814   0.776   0.386 -0.0243 -0.1481 -0.1597
 8828TIP3    H126448   0.844   0.696   0.342  1.1630  0.5977 -0.7717
 8828TIP3    H226449   0.855   0.847   0.336  0.7993  0.7598  1.7213
 8829TIP3   OH226450   5.662   4.324   2.764  0.0463  0.6900  0.0612
 8829TIP3    H126451   5.696   4.330   2.675  3.7060  1.7184  1.3527
 8829TIP3    H226452   5.649   4.230   2.779  0.2434  0.4425 -1.2251
 8830TIP3   OH226453   5.431   6.327   1.824  0.1485 -0.1707  0.4818
 8830TIP3    H126454   5.513   6.375   1.812 -0.8933  1.9548  1.3985
 8830TIP3    H226455   5.450   6.239   1.791  2.3494  0.6607 -0.6766
 8831TIP3   OH226456   6.970   0.522   0.245  0.3288  0.1974  0.2718
 8831TIP3    H126457   7.064   0.521   0.224 -0.0414 -2.1690 -1.8336
 8831TIP3    H226458   6.930   0.567   0.172 -0.3331 -0.8109 -0.0093
 8832TIP3   OH226459   5.064   4.011   1.871  0.3575 -0.2476  0.2431
 8832TIP3    H126460   5.158   3.994   1.863  0.6987  1.1997  0.8130
 8832TIP3    H226461   5.053   4.101   1.838 -1.1586 -1.0660 -1.7594
 8833TIP3   OH226462   6.713   4.959   0.600  0.1068  0.1836  0.4533
 8833TIP3    H126463   6.630   4.999   0.627  0.8189  1.7165  0.4832
 8833TIP3    H226464   6.708   4.869   0.633 -2.0601 -0.1688 -0.6351
 8834TIP3   OH226465   4.491   3.109   0.599  0.1866  0.0857  0.0485
 8834TIP3    H126466   4.470   3.025   0.639  0.9289  0.2244  0.7687
 8834TIP3    H226467   4.577   3.132   0.635  0.7163  0.3994 -1.3647
 8835TIP3   OH226468   6.260   2.587   1.447 -0.4680  0.0523 -0.3418
 8835TIP3    H126469   6.194   2.650   1.417  0.5479  0.5882 -1.5500
 8835TIP3    H226470   6.228   2.503   1.414 -1.3673  0.0488  0.4935
 8836TIP3   OH226471   2.840   5.101   3.864  0.1828 -0.0131 -0.1879
 8836TIP3    H126472   2.925   5.140   3.886  0.0092 -0.5895  1.6378
 8836TIP3    H226473   2.783   5.124   3.937 -0.8463 -0.8612 -0.6965
 8837TIP3   OH226474   1.168   6.127   5.207 -0.5110 -0.5172 -0.2429
 8837TIP3    H126475   1.078   6.142   5.180 -0.7177 -1.7776 -0.2874
 8837TIP3    H226476   1.177   6.032   5.213  0.4765 -0.3890  0.8851
 8838TIP3   OH226477   3.421   2.120   3.631  0.6644  0.5775  0.2455
 8838TIP3    H126478   3.393   2.074   3.551  0.8550  0.4520  0.2513
 8838TIP3    H226479   3.516   2.110   3.632  0.5359 -0.6823  1.2615
 8839TIP3   OH226480   3.254   4.413   4.338  0.3474  0.0253  0.1464
 8839TIP3    H126481   3.328   4.352   4.341  0.2646 -0.1189 -0.6656
 8839TIP3    H226482   3.234   4.430   4.430 -0.1130 -1.7495  0.4116
 8840TIP3   OH226483   5.548   5.769   0.807  0.1337 -0.6040 -0.1246
 8840TIP3    H126484   5.475   5.770   0.745 -1.1290 -2.6420  1.2440
 8840TIP3    H226485   5.523   5.831   0.875  0.9841  0.7290 -0.9579
 8841TIP3   OH226486   4.661   5.952   0.182  0.0162 -0.0462 -0.0810
 8841TIP3    H126487   4.721   5.915   0.247  0.2154  0.6307  0.1283
 8841TIP3    H226488   4.583   5.975   0.233  0.2528  0.6798 -0.0403
 8842TIP3   OH226489   3.515   3.930   1.302  0.0678  0.3276 -0.1174
 8842TIP3    H126490   3.530   3.857   1.242 -2.8658  0.7498 -1.5518
 8842TIP3    H226491   3.574   3.999   1.270  1.2391 -0.6442 -0.1309
 8843TIP3   OH226492   6.309   5.366   4.026  0.0462  0.0990  0.3398
 8843TIP3    H126493   6.360   5.325   3.955 -2.1723  0.4886 -1.6101
 8843TIP3    H226494   6.375   5.403   4.085  2.0781 -3.0384  0.2617
 8844TIP3   OH226495   2.625   5.266   5.607 -0.0149 -0.4444 -0.0394
 8844TIP3    H126496   2.667   5.244   5.524  0.5437  1.9593 -0.4807
 8844TIP3    H226497   2.687   5.236   5.674  0.7500 -0.1203 -0.5863
 8845TIP3   OH226498   3.367   2.386   0.080  0.7143  0.1174 -0.1275
 8845TIP3    H126499   3.405   2.410   0.165  0.7561  0.0743 -0.1340
 8845TIP3    H226500   3.321   2.304   0.096  2.8171 -1.2354 -0.6932
 8846TIP3   OH226501   7.123   3.896   1.547  0.0674 -0.7871  0.0190
 8846TIP3    H126502   7.121   3.977   1.597 -0.7367 -0.2315 -0.8823
 8846TIP3    H226503   7.152   3.922   1.460 -1.1150 -1.2950 -0.5489
 8847TIP3   OH226504   7.015   0.629   4.840  0.1036  0.7465  0.4752
 8847TIP3    H126505   6.957   0.681   4.896  1.2868  2.8903 -0.1645
 8847TIP3    H226506   7.103   0.656   4.865  0.7061  0.3847 -1.1497
 8848TIP3   OH226507   5.897   2.165   4.600 -0.2371 -0.0794 -0.4198
 8848TIP3    H126508   5.926   2.199   4.684 -0.6501 -0.9990  0.1137
 8848TIP3    H226509   5.804   2.146   4.613 -0.2174 -0.5817 -0.9547
 8849TIP3   OH226510   2.657   0.807   0.649  0.3188  0.2658  0.5089
 8849TIP3    H126511   2.751   0.810   0.633  0.0152  1.6229 -1.3422
 8849TIP3    H226512   2.634   0.714   0.644  1.5653 -0.0995  1.2141
 8850TIP3   OH226513   2.604   3.606   2.100 -0.4804 -0.1500  0.1287
 8850TIP3    H126514   2.680   3.655   2.067 -0.8316  0.0506 -0.3997
 8850TIP3    H226515   2.534   3.671   2.103 -0.6312 -0.3325  0.6243
 8851TIP3   OH226516   6.637   4.518   4.479  0.3529  0.0072  0.3604
 8851TIP3    H126517   6.655   4.578   4.551  0.8738  0.4422 -0.1205
 8851TIP3    H226518   6.580   4.567   4.420  1.2913  0.2795 -0.3460
 8852TIP3   OH226519   4.183   4.066   1.638  0.2480 -0.0532 -0.7154
 8852TIP3    H126520   4.096   4.047   1.674  0.6307 -0.0189  0.2388
 8852TIP3    H226521   4.231   3.984   1.648  0.6405  0.2259 -0.3104
 8853TIP3   OH226522   7.080   3.180   1.862 -0.0082  0.2181 -0.1210
 8853TIP3    H126523   6.989   3.156   1.876  0.1271 -0.1589  0.1485
 8853TIP3    H226524   7.096   3.166   1.769 -0.3327  0.6598 -0.2409
 8854TIP3   OH226525   1.829   0.256   2.749 -0.1082 -0.5292 -0.1737
 8854TIP3    H126526   1.739   0.245   2.778  0.1007 -1.2029  0.2569
 8854TIP3    H226527   1.824   0.251   2.653 -0.4334 -1.3822 -0.1214
 8855TIP3   OH226528   4.026   5.398   2.039  0.0880  0.2482 -0.0031
 8855TIP3    H126529   4.109   5.353   2.055  0.8236  1.7271  0.5454
 8855TIP3    H226530   3.959   5.332   2.056  1.1506 -1.3137 -1.5402
 8856TIP3   OH226531   4.434   6.205   0.622  0.2749 -0.0503 -0.6634
 8856TIP3    H126532   4.413   6.280   0.678 -1.1055  0.4715 -1.8205
 8856TIP3    H226533   4.400   6.129   0.670 -1.1395  0.4188 -0.8822
 8857TIP3   OH226534   7.059   5.536   2.241 -0.1541 -0.0575 -0.2921
 8857TIP3    H126535   6.975   5.503   2.207 -0.3598 -0.3186  0.4702
 8857TIP3    H226536   7.039   5.567   2.329  0.6557 -0.5765  0.0839
 8858TIP3   OH226537   4.745   2.753   3.332 -0.2782 -0.0926 -0.2507
 8858TIP3    H126538   4.713   2.835   3.369 -1.6003  0.0319 -1.5317
 8858TIP3    H226539   4.771   2.776   3.242  0.7165 -0.7946 -0.1579
 8859TIP3   OH226540   5.650   1.450   1.381  0.0428  0.3596 -0.3051
 8859TIP3    H126541   5.626   1.487   1.466  2.2681  0.1137  0.4927
 8859TIP3    H226542   5.658   1.356   1.397 -0.6736  0.1546 -1.0903
 8860TIP3   OH226543   3.569   4.376   4.662  0.0056  0.2056  0.4042
 8860TIP3    H126544   3.570   4.392   4.568 -0.0213  1.3638  0.5887
 8860TIP3    H226545   3.483   4.338   4.679  0.0888 -0.1940 -0.0697
 8861TIP3   OH226546   2.844   2.747   5.244 -0.1604  0.0650  0.2760
 8861TIP3    H126547   2.888   2.712   5.167 -0.5680 -0.1644  0.1468
 8861TIP3    H226548   2.768   2.690   5.257 -1.4725  1.5577 -0.5954
 8862TIP3   OH226549   0.325   2.083   4.732 -0.7140 -0.0923 -0.2523
 8862TIP3    H126550   0.354   2.113   4.818  1.0376  0.2462 -0.9293
 8862TIP3    H226551   0.246   2.135   4.715 -0.2817  0.8615  0.5417
 8863TIP3   OH226552   1.393   1.563   2.727  0.2366 -0.1455 -0.3609
 8863TIP3    H126553   1.464   1.625   2.709 -0.8685  1.2327 -0.1486
 8863TIP3    H226554   1.328   1.580   2.658 -0.3481 -0.6411  0.0525
 8864TIP3   OH226555   2.808   3.551   0.467  0.0620  0.4994  0.0250
 8864TIP3    H126556   2.748   3.509   0.529  0.1844  0.0290 -0.1700
 8864TIP3    H226557   2.791   3.506   0.384 -0.8256  1.7978 -0.5399
 8865TIP3   OH226558   7.121   3.088   1.564  0.2404  0.4404 -0.3476
 8865TIP3    H126559   7.090   2.999   1.581 -1.6173  0.7077 -1.9603
 8865TIP3    H226560   7.214   3.078   1.543  0.5312 -0.8380  1.3298
 8866TIP3   OH226561   3.285   3.841   0.403  0.0789  0.1555  0.3330
 8866TIP3    H126562   3.228   3.806   0.471 -1.6388 -1.7179 -1.9270
 8866TIP3    H226563   3.348   3.771   0.387 -0.2139  0.1254 -0.7218
 8867TIP3   OH226564   1.567   4.007   4.205  0.2362  0.1248 -0.1833
 8867TIP3    H126565   1.563   4.096   4.169 -0.6788  0.2138  0.1211
 8867TIP3    H226566   1.520   4.013   4.288 -1.1147 -0.9661 -0.8391
 8868TIP3   OH226567   4.445   2.431   3.043  0.0469 -0.1970 -0.4207
 8868TIP3    H126568   4.399   2.511   3.068 -0.3398  0.3325 -2.5860
 8868TIP3    H226569   4.538   2.451   3.055 -0.0333  0.6968 -1.2299
 8869TIP3   OH226570   5.070   3.623   1.977 -0.4197 -0.1485  0.5682
 8869TIP3    H126571   5.136   3.687   2.005  0.9933 -0.6824 -1.3190
 8869TIP3    H226572   5.053   3.571   2.056  1.4988 -0.0323  1.1224
 8870TIP3   OH226573   4.584   2.749   1.843 -0.4180  0.0761  0.0878
 8870TIP3    H126574   4.532   2.829   1.842 -0.1379  0.2594 -0.0943
 8870TIP3    H226575   4.629   2.749   1.758  0.2763  0.1874  0.4463
 8871TIP3   OH226576   3.650   0.268   5.741  0.6966 -0.2788 -0.2674
 8871TIP3    H126577   3.690   0.189   5.705  0.3434  0.0418 -1.3949
 8871TIP3    H226578   3.563   0.240   5.769  0.0459 -0.0304 -1.9157
 8872TIP3   OH226579   1.426   5.867   3.277  0.3974  0.4940 -0.6875
 8872TIP3    H126580   1.397   5.845   3.365  0.5643  0.8804 -0.5329
 8872TIP3    H226581   1.424   5.963   3.275  0.9133  0.4983 -0.9282
 8873TIP3   OH226582   1.625   0.591   0.987 -0.5980 -0.0818 -0.1753
 8873TIP3    H126583   1.558   0.659   0.975 -1.6781 -0.5939  2.4210
 8873TIP3    H226584   1.588   0.514   0.944 -2.0264 -0.5121  1.6912
 8874TIP3   OH226585   3.620   1.625   1.169  0.1092  0.0863 -0.2522
 8874TIP3    H126586   3.629   1.661   1.257 -0.1139  1.8053 -0.9067
 8874TIP3    H226587   3.526   1.605   1.161 -0.0911  1.0539 -0.4936
 8875TIP3   OH226588   1.279   2.622   3.435 -0.1225  0.2861 -0.7629
 8875TIP3    H126589   1.318   2.637   3.349  0.8456  2.0577 -0.0782
 8875TIP3    H226590   1.243   2.708   3.460 -0.4592 -0.2141  0.5546
 8876TIP3   OH226591   1.384   3.324   3.188 -0.2122 -0.7923 -0.5241
 8876TIP3    H126592   1.449   3.273   3.236 -0.7022 -0.0258  1.0567
 8876TIP3    H226593   1.346   3.382   3.255 -0.7035  0.5778 -1.9404
 8877TIP3   OH226594   1.320   4.554   4.097 -0.1704  0.0085  0.6061
 8877TIP3    H126595   1.295   4.577   4.186  2.4097 -0.3662  1.4963
 8877TIP3    H226596   1.339   4.638   4.055 -0.3336  0.1079  0.7283
 8878TIP3   OH226597   6.534   5.208   5.310 -0.0391  0.0591 -0.0776
 8878TIP3    H126598   6.617   5.238   5.345  1.3671 -0.5026 -2.6809
 8878TIP3    H226599   6.540   5.112   5.312 -0.8141  0.0031  0.0965
 8879TIP3   OH226600   3.659   1.850   3.910 -0.1599 -0.1501  0.0955
 8879TIP3    H126601   3.716   1.780   3.878  0.0875  0.8073 -1.6497
 8879TIP3    H226602   3.572   1.825   3.880 -0.1651 -0.0118 -0.0034
 8880TIP3   OH226603   2.752   2.746   0.982  0.5331 -0.0274  0.6894
 8880TIP3    H126604   2.758   2.748   0.886  1.0418 -0.6228  0.7089
 8880TIP3    H226605   2.661   2.721   1.000 -0.0815  1.8034  0.3798
 8881TIP3   OH226606   3.940   6.521   2.483 -0.1830 -0.0808  0.1750
 8881TIP3    H126607   3.891   6.603   2.494  0.5784  0.0584  3.2401
 8881TIP3    H226608   3.875   6.452   2.499 -0.9538 -0.2595 -2.9094
 8882TIP3   OH226609   7.158   1.723   4.040 -0.2644  0.0430 -0.7274
 8882TIP3    H126610   7.153   1.706   3.946 -0.2869 -0.4312 -0.6425
 8882TIP3    H226611   7.069   1.707   4.072 -0.4384  0.9249 -0.7370
 8883TIP3   OH226612   0.218   6.008   0.570  0.1938 -0.0328 -0.1042
 8883TIP3    H126613   0.173   6.088   0.543  1.4576  0.8180  0.2330
 8883TIP3    H226614   0.198   6.001   0.664  0.3702  0.0757 -0.0591
 8884TIP3   OH226615   4.168   3.882   2.146 -0.0403 -0.4330 -0.1894
 8884TIP3    H126616   4.129   3.962   2.182 -1.4614 -1.0373 -0.2868
 8884TIP3    H226617   4.158   3.817   2.217 -1.1888 -1.1471 -0.9562
 8885TIP3   OH226618   0.409   1.322   1.546 -0.3053 -0.9610  0.5596
 8885TIP3    H126619   0.342   1.347   1.609 -0.6661 -1.2491  0.3006
 8885TIP3    H226620   0.374   1.242   1.505 -0.8909  0.1233 -1.1890
 8886TIP3   OH226621   1.416   4.940   5.315 -0.4250  0.0235 -0.0602
 8886TIP3    H126622   1.508   4.961   5.299 -0.9456  1.4625 -1.3043
 8886TIP3    H226623   1.413   4.844   5.313  0.8033 -0.0127 -1.4288
 8887TIP3   OH226624   5.979   5.282   3.665 -0.5070  0.1269 -0.5496
 8887TIP3    H126625   6.074   5.286   3.656 -0.4616  0.1012 -0.0978
 8887TIP3    H226626   5.962   5.195   3.701 -0.3459  1.6004  3.5496
 8888TIP3   OH226627   6.074   1.438   4.852 -0.3284 -0.1857 -0.0039
 8888TIP3    H126628   6.017   1.371   4.816  0.0326  0.6404 -2.3314
 8888TIP3    H226629   6.155   1.429   4.801 -0.5581  2.4673 -0.9895
 8889TIP3   OH226630   1.036   0.562   0.533 -0.1191  0.0155 -0.4896
 8889TIP3    H126631   0.956   0.535   0.578 -0.1905  0.1622 -0.5314
 8889TIP3    H226632   1.027   0.527   0.444 -0.9226  1.5275 -1.0198
 8890TIP3   OH226633   2.383   0.440   3.215 -0.1675  0.7653 -0.0588
 8890TIP3    H126634   2.325   0.412   3.144 -0.2246 -0.2787  0.3817
 8890TIP3    H226635   2.395   0.362   3.269  0.2988  1.4022  0.7951
 8891TIP3   OH226636   0.144   2.306   4.696 -0.0178 -0.3274  0.0054
 8891TIP3    H126637   0.139   2.400   4.714  1.2925 -0.3276  0.5025
 8891TIP3    H226638   0.056   2.273   4.713  0.2308  0.2937  3.0232
 8892TIP3   OH226639   2.728   6.643   4.821  0.4412 -0.1153  0.3471
 8892TIP3    H126640   2.679   6.706   4.874  0.0405  0.2640 -0.4569
 8892TIP3    H226641   2.772   6.587   4.885  0.5403  0.7702  1.0891
 8893TIP3   OH226642   5.640   3.907   0.029  0.1046 -0.5638  0.4235
 8893TIP3    H126643   5.635   3.991  -0.018 -0.0982 -0.6816  0.2297
 8893TIP3    H226644   5.580   3.917   0.103  0.6652 -0.2648  0.8420
 8894TIP3   OH226645   0.385   0.486   5.506  0.0209  0.7289  0.0904
 8894TIP3    H126646   0.454   0.504   5.570 -1.6701  1.7316  1.7681
 8894TIP3    H226647   0.328   0.563   5.512 -2.0502 -0.7259 -0.0605
 8895TIP3   OH226648   4.578   0.327   0.255  0.1176  0.1620 -0.6259
 8895TIP3    H126649   4.487   0.342   0.228  0.1690  1.0517 -0.3585
 8895TIP3    H226650   4.607   0.413   0.285  1.0049 -0.1541 -0.5776
 8896TIP3   OH226651   1.733   0.086   2.130 -0.2505  0.4845  0.3691
 8896TIP3    H126652   1.653   0.140   2.127 -2.1362 -2.1259 -1.8799
 8896TIP3    H226653   1.738   0.056   2.221 -1.3525  1.3498  0.7478
 8897TIP3   OH226654   0.639   3.887   4.984  0.5804 -0.2456 -0.2709
 8897TIP3    H126655   0.688   3.944   5.044 -0.4990  0.8452 -0.3775
 8897TIP3    H226656   0.602   3.819   5.040  1.0074 -0.2324  0.0319
 8898TIP3   OH226657   2.671   4.107   0.599 -0.2109  0.4409 -0.6206
 8898TIP3    H126658   2.737   4.158   0.552  0.8082  1.4572  1.7453
 8898TIP3    H226659   2.627   4.171   0.655  0.0701 -0.9808  1.3374
 8899TIP3   OH226660   7.118   6.591   3.957 -0.1486 -0.4970 -0.2207
 8899TIP3    H126661   7.035   6.634   3.977  0.0230 -0.4531  0.4299
 8899TIP3    H226662   7.136   6.614   3.866 -0.2008  0.5712  0.0274
 8900TIP3   OH226663   4.472   6.176   1.028  0.7302 -0.4206  0.4136
 8900TIP3    H126664   4.422   6.229   0.965  1.0650 -0.1018  0.4102
 8900TIP3    H226665   4.558   6.165   0.987  1.0986  0.1628  0.9990
 8901TIP3   OH226666   4.972   0.388   3.109  0.3272 -0.1189  0.2575
 8901TIP3    H126667   4.981   0.301   3.146 -0.1251 -0.5459 -0.6102
 8901TIP3    H226668   5.062   0.415   3.089  0.5553  0.0193  1.3932
 8902TIP3   OH226669   1.603   5.434   5.293  0.0309  0.4568  0.5755
 8902TIP3    H126670   1.624   5.366   5.228 -1.8126 -0.3374  0.7410
 8902TIP3    H226671   1.639   5.401   5.375  1.2466  0.8494  0.2140
 8903TIP3   OH226672   5.804   3.823   1.096  0.1538  0.2149  0.3691
 8903TIP3    H126673   5.866   3.836   1.167  0.1671 -0.5779  0.5073
 8903TIP3    H226674   5.772   3.733   1.107 -0.4993  0.3765 -0.1061
 8904TIP3   OH226675   2.807   5.393   1.226 -0.3974 -0.5862  0.2015
 8904TIP3    H126676   2.866   5.410   1.153  1.0700  1.4608  1.7652
 8904TIP3    H226677   2.747   5.468   1.226  1.4172  1.0520  2.6754
 8905TIP3   OH226678   4.107   0.787   0.133  0.7933 -0.4404 -0.0141
 8905TIP3    H126679   4.157   0.770   0.213 -0.8857 -0.2358  1.1345
 8905TIP3    H226680   4.129   0.878   0.111  1.5376 -0.6089 -0.0051
 8906TIP3   OH226681   6.357   1.858   0.577 -0.2685  0.2517  1.2295
 8906TIP3    H126682   6.281   1.914   0.560 -1.2209 -1.3567 -0.2222
 8906TIP3    H226683   6.325   1.792   0.638  0.0386 -0.2648  0.8430
 8907TIP3   OH226684   4.416   3.671   2.108  0.0438 -0.0317  0.2405
 8907TIP3    H126685   4.496   3.688   2.158  0.6338 -0.0111 -0.6836
 8907TIP3    H226686   4.375   3.757   2.100  2.0608  0.8384 -2.7864
 8908TIP3   OH226687   1.982   1.412   5.792  0.0579  0.6653 -0.1341
 8908TIP3    H126688   2.045   1.483   5.783  2.2654 -0.6745  2.9087
 8908TIP3    H226689   1.989   1.363   5.710  2.5562  0.9510 -0.1832
 8909TIP3   OH226690   1.580   2.231   3.534 -0.2113 -0.0088  0.3000
 8909TIP3    H126691   1.558   2.187   3.452  2.6732 -1.9731  0.4118
 8909TIP3    H226692   1.534   2.182   3.602 -1.3629  0.6560  0.0269
 8910TIP3   OH226693   0.943   5.227   2.665  0.1179  0.0057  0.7035
 8910TIP3    H126694   0.997   5.230   2.744 -2.5265  0.0759  2.6190
 8910TIP3    H226695   0.943   5.317   2.633  0.6976  0.1091  0.9792
 8911TIP3   OH226696   2.605   2.722   0.473  0.0580 -0.2258 -0.0893
 8911TIP3    H126697   2.642   2.770   0.399 -0.7263 -1.2585 -1.1743
 8911TIP3    H226698   2.606   2.631   0.446  1.8352 -0.9344  2.0851
 8912TIP3   OH226699   2.396   2.420   0.847 -0.0792 -0.4186 -0.5116
 8912TIP3    H126700   2.400   2.495   0.905  0.1767 -0.8498  0.0379
 8912TIP3    H226701   2.355   2.351   0.899  0.2261 -0.8353 -0.8106
 8913TIP3   OH226702   3.380   0.141   2.119 -0.2298 -0.2097  0.2666
 8913TIP3    H126703   3.285   0.147   2.129 -0.0924  1.6855  0.7309
 8913TIP3    H226704   3.393   0.121   2.026 -1.0697 -1.2262  0.3438
 8914TIP3   OH226705   2.520   6.346   4.066 -0.4148  0.0913  0.2076
 8914TIP3    H126706   2.461   6.339   4.141 -0.3306 -4.3866  0.1002
 8914TIP3    H226707   2.607   6.351   4.105 -0.5098  1.3327  0.3233
 8915TIP3   OH226708   0.020   5.259   0.734  0.0418 -0.9152  0.5917
 8915TIP3    H126709   0.020   5.208   0.653 -0.4631 -3.0820  1.8724
 8915TIP3    H226710   0.065   5.203   0.797  0.4791  0.7535  1.8012
 8916TIP3   OH226711   6.816   1.688   1.237  1.0842 -0.0555  0.3757
 8916TIP3    H126712   6.735   1.642   1.255  0.3009  0.1165 -2.2822
 8916TIP3    H226713   6.875   1.662   1.308 -0.2099 -2.8734  0.5452
 8917TIP3   OH226714   0.672   6.064   5.635 -0.2230 -0.7316 -0.2511
 8917TIP3    H126715   0.734   6.037   5.566 -0.2778 -0.3040 -0.4700
 8917TIP3    H226716   0.665   6.159   5.625  0.0734 -0.6136  0.6005
 8918TIP3   OH226717   1.792   0.744   4.604  0.4764 -0.6496  0.4932
 8918TIP3    H126718   1.864   0.778   4.551  1.3630  0.9301  2.5488
 8918TIP3    H226719   1.744   0.822   4.632 -0.0421 -1.4183  1.8350
 8919TIP3   OH226720   5.073   6.060   1.063 -0.0616  0.5869  0.3115
 8919TIP3    H126721   5.120   6.061   0.979 -0.0470 -0.0690  0.3051
 8919TIP3    H226722   5.026   6.143   1.065 -0.7093  0.2674 -0.7185
 8920TIP3   OH226723   0.423   5.885   0.445  0.4349 -0.5403 -0.1107
 8920TIP3    H126724   0.438   5.820   0.513 -2.0221 -1.2910 -0.2026
 8920TIP3    H226725   0.340   5.926   0.468 -0.0051 -0.1620 -2.1339
 8921TIP3   OH226726   2.625   3.369   5.006  0.8443 -0.1089  0.8880
 8921TIP3    H126727   2.650   3.283   4.972  1.5309  0.5597 -0.3606
 8921TIP3    H226728   2.686   3.430   4.964 -1.1779  1.2947 -0.1606
 8922TIP3   OH226729   6.261   4.016   3.415  0.2074 -0.3854  0.0382
 8922TIP3    H126730   6.353   4.042   3.426  0.8062 -2.2282 -0.2167
 8922TIP3    H226731   6.263   3.921   3.419 -1.5914 -0.5024 -0.9062
 8923TIP3   OH226732   3.748   4.177   4.444  0.3844 -0.1944 -0.2474
 8923TIP3    H126733   3.728   4.136   4.528  0.9335 -0.9183 -0.4602
 8923TIP3    H226734   3.811   4.246   4.465 -0.9322  0.9061  0.1807
 8924TIP3   OH226735   6.900   0.035   0.069  0.6298  0.9582 -0.1746
 8924TIP3    H126736   6.915   0.128   0.084 -0.5295  1.3216 -1.1364
 8924TIP3    H226737   6.828   0.012   0.129  0.3691  0.8779 -0.5155
 8925TIP3   OH226738   2.810   5.943   5.344 -0.0536 -0.1849  0.1176
 8925TIP3    H126739   2.756   5.920   5.269 -0.1441  1.7337 -0.4572
 8925TIP3    H226740   2.761   6.012   5.388  2.0767  2.0098 -0.7223
 8926TIP3   OH226741   5.911   6.570   3.064  0.3837 -0.0774  0.2521
 8926TIP3    H126742   5.995   6.547   3.023  0.1586  1.0981 -0.9601
 8926TIP3    H226743   5.905   6.665   3.054 -0.9925 -0.1154  0.5315
 8927TIP3   OH226744   2.078   2.798   5.224 -0.3121 -0.1279 -0.0888
 8927TIP3    H126745   2.086   2.720   5.278  0.3477 -1.3827 -1.9173
 8927TIP3    H226746   2.168   2.825   5.207 -0.5095  2.1348  1.9513
 8928TIP3   OH226747   2.322   3.286   4.464 -0.0311  0.1238 -0.2898
 8928TIP3    H126748   2.313   3.223   4.536 -0.6489  0.6163  0.0879
 8928TIP3    H226749   2.361   3.237   4.393  0.4874 -0.4094  0.3511
 8929TIP3   OH226750   5.782   4.164   3.833 -0.8480 -0.2320 -0.2281
 8929TIP3    H126751   5.775   4.093   3.898  1.0139 -1.2648 -1.0507
 8929TIP3    H226752   5.851   4.221   3.868 -1.1648  0.2436 -0.3792
 8930TIP3   OH226753   2.945   5.169   1.341 -0.6931 -0.0232 -0.0032
 8930TIP3    H126754   2.910   5.243   1.292  0.3060  0.5065  0.0634
 8930TIP3    H226755   2.877   5.148   1.405 -1.9320 -0.5838 -1.4446
 8931TIP3   OH226756   6.943   0.062   2.501  0.4830  0.1780  0.2032
 8931TIP3    H126757   6.982   0.142   2.535 -0.8367  2.0366 -2.2520
 8931TIP3    H226758   6.972   0.059   2.410  0.5870 -2.2593  0.2645
 8932TIP3   OH226759   5.778   1.769   3.968 -0.1822  0.1249 -0.9045
 8932TIP3    H126760   5.759   1.676   3.975  0.4259 -0.0230 -1.1881
 8932TIP3    H226761   5.873   1.775   3.971 -0.2326  0.7791 -0.4167
 8933TIP3   OH226762   6.952   4.439   4.454 -0.4699  0.4000  0.1714
 8933TIP3    H126763   6.899   4.504   4.408  1.8897  1.9012 -0.5911
 8933TIP3    H226764   6.992   4.487   4.526  0.9047 -0.3104 -0.0839
 8934TIP3   OH226765   0.902   3.873   1.213  0.1841 -0.5905 -0.3987
 8934TIP3    H126766   0.827   3.813   1.210  0.1766 -0.5683 -0.7572
 8934TIP3    H226767   0.869   3.955   1.176 -0.1206  0.0004  1.1048
 8935TIP3   OH226768   2.342   5.020   5.138 -0.5520 -0.0712  0.7775
 8935TIP3    H126769   2.335   5.103   5.090  0.3236 -0.2933  0.2473
 8935TIP3    H226770   2.351   4.954   5.069  1.9703 -0.2785  1.2231
 8936TIP3   OH226771   2.538   0.044   0.532  0.2427  0.5917 -0.3327
 8936TIP3    H126772   2.520  -0.032   0.588  2.1000  1.4464  1.5487
 8936TIP3    H226773   2.574   0.007   0.452 -0.4086 -0.5648 -0.1216
 8937TIP3   OH226774   1.287   1.788   0.732 -0.3149 -0.0962  0.1988
 8937TIP3    H126775   1.237   1.870   0.735 -0.4247 -0.1795  1.0592
 8937TIP3    H226776   1.378   1.815   0.750 -0.3585 -0.1580  0.5302
 8938TIP3   OH226777   0.286   6.179   2.594 -0.4036  0.3216 -0.1416
 8938TIP3    H126778   0.266   6.150   2.683 -1.5442 -2.7224 -1.2546
 8938TIP3    H226779   0.364   6.130   2.570 -1.6267 -0.9772 -1.6661
 8939TIP3   OH226780   0.899   4.662   3.980 -0.0657 -0.3466  0.7994
 8939TIP3    H126781   0.965   4.594   3.975  0.4717  0.2113  0.0472
 8939TIP3    H226782   0.913   4.703   4.065 -0.2592 -1.0285  1.1666
 8940TIP3   OH226783   6.217   0.871   2.562 -0.5903 -0.6286  0.1031
 8940TIP3    H126784   6.260   0.870   2.647 -0.5326  5.0706  0.4996
 8940TIP3    H226785   6.281   0.912   2.503 -1.9441 -1.1081 -1.8011
 8941TIP3   OH226786   0.704   0.997   1.155  0.1768  0.1240  0.5819
 8941TIP3    H126787   0.697   1.057   1.229  1.3125  0.0887  0.7407
 8941TIP3    H226788   0.624   1.010   1.105  0.6379  2.2138  0.2898
 8942TIP3   OH226789   3.369   0.303   5.805  0.1170 -0.5516  0.0239
 8942TIP3    H126790   3.313   0.241   5.758 -0.2511 -0.1546 -0.0666
 8942TIP3    H226791   3.309   0.366   5.844  0.4332 -0.7802  0.8924
 8943TIP3   OH226792   0.824   5.526   1.408  0.2480  0.3163  0.3339
 8943TIP3    H126793   0.817   5.550   1.500  0.2569 -0.3547  0.5092
 8943TIP3    H226794   0.856   5.606   1.366 -1.4888  1.1999  0.6086
 8944TIP3   OH226795   3.057   0.524   5.036 -0.5052 -0.2277  0.3730
 8944TIP3    H126796   3.006   0.594   5.075 -0.3080 -0.2358  0.6495
 8944TIP3    H226797   3.142   0.564   5.017 -0.8165 -0.0364 -0.6804
 8945TIP3   OH226798   2.248   6.241   3.301  0.9298  0.0280  0.1041
 8945TIP3    H126799   2.274   6.223   3.211  1.5849 -0.2491  0.3383
 8945TIP3    H226800   2.281   6.329   3.319 -1.0584  0.9636 -0.5940
 8946TIP3   OH226801   1.137   5.563   3.008 -0.3665  0.6617 -0.4120
 8946TIP3    H126802   1.142   5.596   3.098  0.0396  0.5851 -0.4035
 8946TIP3    H226803   1.124   5.641   2.954 -1.3281  0.6382 -0.2282
 8947TIP3   OH226804   5.118   3.062   0.192 -0.3072  0.1432 -0.0826
 8947TIP3    H126805   5.041   3.009   0.169 -0.0448  0.0258 -0.7153
 8947TIP3    H226806   5.136   3.039   0.283 -0.8650 -0.0236 -0.0054
 8948TIP3   OH226807   4.833   3.509   2.335  0.2729  0.2900  0.3208
 8948TIP3    H126808   4.792   3.462   2.263  0.9334  0.5154 -0.2117
 8948TIP3    H226809   4.803   3.463   2.414  0.0023 -0.3100 -0.1237
 8949TIP3   OH226810   6.195   2.048   1.626 -0.1752 -0.0077  0.3139
 8949TIP3    H126811   6.113   2.095   1.611  0.8806  1.6061 -0.7260
 8949TIP3    H226812   6.263   2.115   1.619  1.1594 -0.9180  3.0071
 8950TIP3   OH226813   2.654   3.474   2.352 -0.5468  0.1130  0.0691
 8950TIP3    H126814   2.649   3.384   2.319  1.4218 -0.4131  1.0298
 8950TIP3    H226815   2.629   3.528   2.278  0.8158 -1.1461 -1.4004
 8951TIP3   OH226816   1.460   5.116   0.029  0.5217 -0.3824  0.3853
 8951TIP3    H126817   1.510   5.120   0.111  1.2507  0.3136 -0.0818
 8951TIP3    H226818   1.523   5.141  -0.038 -0.7652  1.7681 -0.0894
 8952TIP3   OH226819   5.534   4.729   2.667  0.7161  0.1972 -0.4436
 8952TIP3    H126820   5.457   4.765   2.624  0.3900 -0.3640 -0.3474
 8952TIP3    H226821   5.505   4.644   2.702  0.7962  0.8596  1.3620
 8953TIP3   OH226822   2.793   0.221   4.647 -0.0619 -0.1574  0.5006
 8953TIP3    H126823   2.818   0.158   4.714 -0.9035  0.0394  1.0042
 8953TIP3    H226824   2.795   0.306   4.691 -1.0579 -0.0737  0.4020
 8954TIP3   OH226825   2.519   0.518   4.877 -0.5188  0.1729 -0.7514
 8954TIP3    H126826   2.496   0.603   4.917  1.3554  0.0154  0.7884
 8954TIP3    H226827   2.468   0.455   4.927  0.6263  0.1259  0.4129
 8955TIP3   OH226828   0.247   2.552   0.386 -0.5027 -0.0107 -0.1603
 8955TIP3    H126829   0.222   2.629   0.335 -2.0634 -0.6172 -0.3620
 8955TIP3    H226830   0.246   2.581   0.477  1.5717  0.8832 -0.3563
 8956TIP3   OH226831   3.079   0.133   3.132  0.4150 -0.0663  0.3893
 8956TIP3    H126832   3.014   0.066   3.152  1.9002 -2.4260 -1.9816
 8956TIP3    H226833   3.028   0.204   3.091 -1.2298  0.5259  3.2195
 8957TIP3   OH226834   6.802   4.634   2.834 -0.1587 -0.1304 -0.2633
 8957TIP3    H126835   6.711   4.661   2.848  0.0973 -0.0581  1.4452
 8957TIP3    H226836   6.798   4.539   2.826 -0.3247 -0.1838  0.4262
 8958TIP3   OH226837   3.898   3.155   1.516 -0.7583  0.3065  0.1546
 8958TIP3    H126838   3.847   3.074   1.513 -1.8112  0.9977 -1.3037
 8958TIP3    H226839   3.854   3.208   1.582  0.6653 -0.7193  2.0426
 8959TIP3   OH226840   2.367   0.140   4.664  0.9672 -0.8600  0.0683
 8959TIP3    H126841   2.396   0.229   4.643 -2.2557  0.2341 -0.2755
 8959TIP3    H226842   2.364   0.137   4.760  0.7950 -0.4690  0.0758
 8960TIP3   OH226843   6.609   5.203   1.373 -0.0182  0.4015 -0.0528
 8960TIP3    H126844   6.540   5.169   1.316  1.4693  0.2318 -1.8732
 8960TIP3    H226845   6.675   5.236   1.312  3.2782 -2.9028  1.3988
 8961TIP3   OH226846   3.271   2.586   3.191  0.0028 -0.7581 -0.4807
 8961TIP3    H126847   3.262   2.570   3.285  1.8580  1.0688  0.0892
 8961TIP3    H226848   3.230   2.672   3.178  3.4408  1.0699 -0.4145
 8962TIP3   OH226849   2.073   2.582   1.905 -0.0822  0.2554  0.7931
 8962TIP3    H126850   2.127   2.661   1.899 -0.0099  0.1784  0.3920
 8962TIP3    H226851   2.132   2.511   1.880  0.2300 -0.0994  2.4511
 8963TIP3   OH226852   6.602   3.289   3.309  0.8285  0.1666  0.1724
 8963TIP3    H126853   6.584   3.196   3.317  1.2355 -0.0064 -0.7927
 8963TIP3    H226854   6.542   3.320   3.240  0.6223  0.6444  0.5551
 8964TIP3   OH226855   1.685   5.170   4.598  0.4686 -0.6679 -0.1461
 8964TIP3    H126856   1.739   5.095   4.574  0.7700 -0.2800 -0.7105
 8964TIP3    H226857   1.652   5.203   4.515  1.0116  0.3171  0.0114
 8965TIP3   OH226858   3.690   2.020   3.165  0.5982 -0.3515 -0.0629
 8965TIP3    H126859   3.603   1.982   3.182  0.1333 -0.1678 -1.8084
 8965TIP3    H226860   3.751   1.949   3.184  0.1926 -0.1813  2.1844
 8966TIP3   OH226861   2.516   1.460   1.277  0.0795  0.0044 -0.5103
 8966TIP3    H126862   2.562   1.514   1.212  0.8241 -1.9064 -1.6668
 8966TIP3    H226863   2.586   1.419   1.328 -0.3594 -1.3124 -0.9214
 8967TIP3   OH226864   2.879   2.042   2.390 -0.4372  0.3941 -0.2684
 8967TIP3    H126865   2.930   2.033   2.470  0.6871 -2.8108 -1.1969
 8967TIP3    H226866   2.925   2.110   2.340  1.5745 -0.7279 -0.0526
 8968TIP3   OH226867   6.193   3.897   2.586  0.1501 -0.2476  0.2494
 8968TIP3    H126868   6.273   3.949   2.572  0.9649 -1.4968  0.1070
 8968TIP3    H226869   6.136   3.921   2.513  0.5509  0.3746  0.1341
 8969TIP3   OH226870   2.930   0.844   0.656  0.3470  0.4978 -0.2060
 8969TIP3    H126871   2.989   0.919   0.656  0.6242  0.3590 -2.8239
 8969TIP3    H226872   2.987   0.768   0.657  0.0774  0.2745  1.5482
 8970TIP3   OH226873   3.126   3.780   3.250 -0.0609  0.0348 -0.3640
 8970TIP3    H126874   3.208   3.822   3.278 -0.1156  0.5656 -0.9870
 8970TIP3    H226875   3.151   3.689   3.233  0.5253  0.3175 -1.0755
 8971TIP3   OH226876   7.176   4.612   5.040  0.3302 -0.3531 -0.1825
 8971TIP3    H126877   7.158   4.663   4.961 -0.0415  0.6230  0.5125
 8971TIP3    H226878   7.211   4.676   5.102 -0.7385 -0.7885  0.9165
 8972TIP3   OH226879   3.374   1.711   0.496 -0.4656 -0.0502  0.0841
 8972TIP3    H126880   3.291   1.680   0.532 -1.4737 -0.1505 -2.1258
 8972TIP3    H226881   3.429   1.728   0.572 -2.7791  0.7922  1.6753
 8973TIP3   OH226882   6.026   3.749   5.434  0.6143  0.0502 -0.3062
 8973TIP3    H126883   6.106   3.799   5.451 -0.1681  0.5484  2.2967
 8973TIP3    H226884   6.001   3.714   5.519 -1.1177 -1.4011 -1.3403
 8974TIP3   OH226885   6.796   4.278   1.114  0.2229  0.0527  0.2242
 8974TIP3    H126886   6.774   4.258   1.023  0.4708  1.8457 -0.2654
 8974TIP3    H226887   6.712   4.279   1.159 -0.0747  0.6627 -0.3223
 8975TIP3   OH226888   0.060   2.774   5.604  0.5456 -0.3288  0.1319
 8975TIP3    H126889   0.098   2.718   5.536 -0.1851 -0.1453 -0.4301
 8975TIP3    H226890   0.106   2.857   5.594  0.7010 -0.4160  0.1067
 8976TIP3   OH226891   5.644   3.694   3.396  0.2267  0.3087 -0.0792
 8976TIP3    H126892   5.548   3.685   3.398  0.0888  1.2881 -0.9224
 8976TIP3    H226893   5.677   3.605   3.406 -0.7776 -0.0443  0.2064
 8977TIP3   OH226894   6.643   5.096   2.897  0.3740 -0.3991  0.0627
 8977TIP3    H126895   6.606   5.144   2.971  1.6838  0.3401  0.2681
 8977TIP3    H226896   6.574   5.099   2.830  0.9994  3.4771 -0.6679
 8978TIP3   OH226897   3.804   4.789   2.063  0.3643 -0.2574 -0.2961
 8978TIP3    H126898   3.719   4.810   2.023 -0.4778 -1.0784  1.0075
 8978TIP3    H226899   3.815   4.695   2.047 -0.4546 -0.8403  2.1296
 8979TIP3   OH226900   5.655   2.702   1.656 -0.7510  0.0526  0.5301
 8979TIP3    H126901   5.619   2.616   1.675  0.1550 -0.6701 -0.8731
 8979TIP3    H226902   5.742   2.702   1.696  0.0057 -0.4172 -1.0300
 8980TIP3   OH226903   1.773   1.585   2.702 -0.0325  1.1129 -0.1706
 8980TIP3    H126904   1.858   1.585   2.659  0.0151  0.4894 -0.0876
 8980TIP3    H226905   1.737   1.498   2.685 -1.1370  1.7240 -1.1305
 8981TIP3   OH226906   3.091   4.132   5.265  0.3848  0.7307  0.0029
 8981TIP3    H126907   3.144   4.207   5.291  1.7033 -0.4647  1.0219
 8981TIP3    H226908   3.039   4.112   5.343 -0.2376  0.8196 -0.3904
 8982TIP3   OH226909   1.826   2.711   0.188  0.3472 -0.0607 -0.0691
 8982TIP3    H126910   1.799   2.705   0.096  1.6656  1.7175 -0.6115
 8982TIP3    H226911   1.768   2.777   0.226 -0.5167 -1.1284  0.5542
 8983TIP3   OH226912   2.818   1.939   1.220  0.2324  0.3434 -0.2482
 8983TIP3    H126913   2.832   2.017   1.167 -1.1837  0.1117 -1.0438
 8983TIP3    H226914   2.883   1.944   1.290 -0.3507  2.6381  0.1918
 8984TIP3   OH226915   2.124   1.138   5.115 -0.4507  0.1039 -0.8715
 8984TIP3    H126916   2.207   1.157   5.070  0.4957  3.0116  1.6882
 8984TIP3    H226917   2.147   1.075   5.184 -0.1462  1.3033  0.1737
 8985TIP3   OH226918   6.712   5.264   3.740  0.2230 -0.1886  0.4122
 8985TIP3    H126919   6.715   5.169   3.756 -0.9675 -0.0880  1.3554
 8985TIP3    H226920   6.746   5.273   3.651 -0.4223 -1.6055 -0.0187
 8986TIP3   OH226921   0.521   5.865   5.315 -0.0128 -0.0405 -0.2860
 8986TIP3    H126922   0.439   5.914   5.302 -0.7742 -1.1093  0.3564
 8986TIP3    H226923   0.573   5.886   5.238 -1.2912 -0.1118 -1.2104
 8987TIP3   OH226924   4.369   6.216   1.270 -0.3624 -0.4645 -0.0651
 8987TIP3    H126925   4.402   6.199   1.181 -0.8351 -2.3198  0.0708
 8987TIP3    H226926   4.422   6.289   1.302  0.3429 -0.2708 -1.5863
 8988TIP3   OH226927   5.871   3.359   3.771 -0.1128 -0.1830 -0.0157
 8988TIP3    H126928   5.923   3.357   3.691 -1.4641  1.5163 -1.0183
 8988TIP3    H226929   5.851   3.267   3.789  0.8398 -0.6516 -1.1830
 8989TIP3   OH226930   1.333   6.550   3.917  0.1602 -0.2317  0.7269
 8989TIP3    H126931   1.284   6.468   3.923 -1.6479  0.8031  0.8910
 8989TIP3    H226932   1.402   6.542   3.983  1.5275 -2.5294 -0.8276
 8990TIP3   OH226933   2.905   2.219   3.255  0.0022 -0.6659  0.7721
 8990TIP3    H126934   2.905   2.291   3.192 -1.6165  0.5485  2.0798
 8990TIP3    H226935   2.998   2.203   3.273  0.4897 -0.7165 -1.4898
 8991TIP3   OH226936   6.579   0.358   4.134  0.2231 -0.5212 -0.5803
 8991TIP3    H126937   6.559   0.411   4.057  1.1764 -0.1258 -0.5768
 8991TIP3    H226938   6.554   0.269   4.110  0.4979 -0.3956 -1.3464
 8992TIP3   OH226939   5.873   1.531   3.696  0.0538 -0.1501  0.1239
 8992TIP3    H126940   5.900   1.607   3.643 -0.5557  1.3284  1.8115
 8992TIP3    H226941   5.915   1.546   3.781 -1.2175 -0.9503  0.9198
 8993TIP3   OH226942   1.760   3.870   0.628 -0.4178 -0.3986 -0.0093
 8993TIP3    H126943   1.846   3.833   0.649 -0.4579 -0.1419  0.6358
 8993TIP3    H226944   1.769   3.902   0.538  0.1169 -0.5097 -0.0006
 8994TIP3   OH226945   3.902   6.546   0.795 -0.2969 -0.3741  0.2075
 8994TIP3    H126946   3.955   6.624   0.780 -1.1784  0.3324  0.6320
 8994TIP3    H226947   3.964   6.474   0.794  0.9743  0.5845  2.5020
 8995TIP3   OH226948   6.726   2.661   2.658  0.1411 -0.0372  0.0305
 8995TIP3    H126949   6.784   2.729   2.692 -2.5607  1.9378  1.0543
 8995TIP3    H226950   6.713   2.683   2.566  0.1250  0.2027  0.0905
 8996TIP3   OH226951   0.481   6.333   4.380  0.2190 -0.0258 -0.4995
 8996TIP3    H126952   0.564   6.308   4.420  1.0312  2.0504 -0.7811
 8996TIP3    H226953   0.428   6.366   4.453  0.3670  0.4436 -0.6029
 8997TIP3   OH226954   1.903   2.851   5.009 -0.2659  0.0847 -0.6983
 8997TIP3    H126955   1.915   2.831   5.102 -0.5905 -0.1655 -0.7082
 8997TIP3    H226956   1.991   2.859   4.974 -0.1408  0.2706 -0.3475
 8998TIP3   OH226957   5.904   1.241   3.202 -0.0133 -0.0106  0.3644
 8998TIP3    H126958   5.873   1.320   3.247  1.1731  0.5544  0.2472
 8998TIP3    H226959   5.984   1.217   3.250  0.5368 -0.1719 -0.6066
 8999TIP3   OH226960   1.205   2.653   4.193  0.2376  0.1150  0.0630
 8999TIP3    H126961   1.225   2.718   4.126  1.2978  0.2491  0.4874
 8999TIP3    H226962   1.201   2.704   4.274  0.9902 -0.3333  0.3882
 9000TIP3   OH226963   2.493   1.197   3.107  0.2445 -0.3042 -0.3339
 9000TIP3    H126964   2.556   1.193   3.179  1.4778  0.8698 -1.2798
 9000TIP3    H226965   2.523   1.129   3.046  1.7549  1.4280 -1.6158
 9001TIP3   OH226966   6.793   5.151   4.507 -0.2318  0.5431 -0.5252
 9001TIP3    H126967   6.698   5.136   4.506 -0.1837 -0.4402  1.7704
 9001TIP3    H226968   6.802   5.241   4.538 -0.4623  0.1892  0.6544
 9002TIP3   OH226969   3.566   3.383   5.476  0.2003 -0.2445 -0.1496
 9002TIP3    H126970   3.526   3.382   5.389  2.3309  1.0487 -1.2391
 9002TIP3    H226971   3.588   3.291   5.494 -2.7533 -0.9449  0.3493
 9003TIP3   OH226972   4.403   3.314   0.063  0.6766 -0.8399 -0.1126
 9003TIP3    H126973   4.429   3.226   0.091 -0.7616 -1.1601  0.2727
 9003TIP3    H226974   4.435   3.320  -0.027  1.2120 -1.5753  0.0204
 9004TIP3   OH226975   2.306   5.224   2.192  0.1512 -0.4364  0.1395
 9004TIP3    H126976   2.392   5.209   2.231  0.2516 -1.3036 -0.3733
 9004TIP3    H226977   2.268   5.136   2.185 -0.2419 -0.1991 -0.8381
 9005TIP3   OH226978   3.321   5.067   5.783 -0.0413  0.5194 -0.7006
 9005TIP3    H126979   3.277   5.002   5.837  0.4997  1.2714  0.6716
 9005TIP3    H226980   3.254   5.130   5.760  0.3272  1.8870  1.7228
 9006TIP3   OH226981   1.241   5.964   4.316 -0.1662  0.1711 -0.1164
 9006TIP3    H126982   1.185   6.024   4.267 -1.8248 -0.9326  0.3576
 9006TIP3    H226983   1.287   5.913   4.249 -0.0096  0.8248 -0.5109
 9007TIP3   OH226984   3.553   5.184   0.713  0.2942 -0.0626  0.3564
 9007TIP3    H126985   3.646   5.174   0.733  0.1976  0.3307  1.0474
 9007TIP3    H226986   3.529   5.104   0.666  0.8416 -0.4432  0.7129
 9008TIP3   OH226987   5.918   3.520   2.284  0.2203 -0.1880 -0.1397
 9008TIP3    H126988   6.002   3.529   2.330 -0.2229  0.9035  0.4906
 9008TIP3    H226989   5.920   3.431   2.249  0.5122 -1.1548  2.1190
 9009TIP3   OH226990   0.833   6.530   5.374 -0.6137 -0.2788 -0.1256
 9009TIP3    H126991   0.905   6.555   5.316  1.1575  0.9841  2.3666
 9009TIP3    H226992   0.755   6.532   5.319  1.0518 -0.2923 -2.6598
 9010TIP3   OH226993   6.404   1.397   1.348  0.3185  0.7245  0.1929
 9010TIP3    H126994   6.351   1.464   1.392  0.1137  2.2379 -2.1472
 9010TIP3    H226995   6.360   1.315   1.369 -1.7197  1.7208  0.1374
 9011TIP3   OH226996   0.099   3.352   3.055  0.0113  0.1552 -0.2848
 9011TIP3    H126997   0.114   3.274   3.002 -2.8722 -0.6566 -0.0569
 9011TIP3    H226998   0.045   3.322   3.128  1.5733  1.7861  1.6350
 9012TIP3   OH226999   1.874   1.567   4.841  0.1474 -0.4485 -0.7025
 9012TIP3    H127000   1.859   1.532   4.929 -1.6756  0.8213 -0.4787
 9012TIP3    H227001   1.836   1.654   4.842  0.9246 -0.0379 -2.4957
 9013TIP3   OH227002   2.318   3.657   2.351  0.3950  0.1569  0.6596
 9013TIP3    H127003   2.313   3.636   2.257 -1.5551  3.0283  0.0018
 9013TIP3    H227004   2.389   3.721   2.357 -0.4483  1.0872  0.8669
 9014TIP3   OH227005   1.903   1.951   3.092 -0.0813  0.4819 -0.2269
 9014TIP3    H127006   1.905   1.967   3.186 -0.3670 -1.7776  0.2174
 9014TIP3    H227007   1.991   1.975   3.062 -0.5056  2.8643  0.2515
 9015TIP3   OH227008   3.138   1.193   5.648 -0.2803 -0.7396 -0.1019
 9015TIP3    H127009   3.098   1.219   5.565  1.1810 -0.9726 -0.9078
 9015TIP3    H227010   3.172   1.105   5.632  0.5186 -0.5618  0.5592
 9016TIP3   OH227011   1.134   4.634   2.338 -0.3780  0.1101  0.6031
 9016TIP3    H127012   1.165   4.634   2.428 -1.0901  0.1744  0.8514
 9016TIP3    H227013   1.212   4.612   2.286  0.5459  2.1228  1.0374
 9017TIP3   OH227014   6.250   3.034   4.122  0.5142 -0.2024  0.2174
 9017TIP3    H127015   6.217   2.962   4.176 -1.3485 -1.1262 -1.9882
 9017TIP3    H227016   6.247   3.110   4.180  3.6454 -1.8978  3.0383
 9018TIP3   OH227017   3.566   2.361   2.952 -0.4505 -0.1880  0.5698
 9018TIP3    H127018   3.612   2.444   2.969  0.3104 -0.4539 -0.1305
 9018TIP3    H227019   3.496   2.359   3.017 -1.1404  1.4981 -0.0474
 9019TIP3   OH227020   5.148   3.951   2.771 -0.1660 -0.6880 -0.2765
 9019TIP3    H127021   5.217   3.921   2.712  3.2184 -1.3073  3.5757
 9019TIP3    H227022   5.095   3.873   2.787  0.1666 -1.0346 -0.8113
 9020TIP3   OH227023   4.210   5.395   5.621 -0.4289 -0.2537  0.6621
 9020TIP3    H127024   4.161   5.474   5.643  0.2650  1.4204 -3.0312
 9020TIP3    H227025   4.146   5.338   5.579 -0.4998 -0.8551  1.5579
 9021TIP3   OH227026   2.018   0.185   4.367 -0.0234 -0.1951  0.1094
 9021TIP3    H127027   2.001   0.180   4.273  0.0033  2.3443 -0.0983
 9021TIP3    H227028   2.091   0.247   4.376 -1.1867  1.0478  1.8456
 9022TIP3   OH227029   1.364   1.896   1.275  0.1071 -0.1476 -0.2414
 9022TIP3    H127030   1.428   1.907   1.204 -0.4739 -0.7626 -0.8783
 9022TIP3    H227031   1.370   1.804   1.299 -1.1653 -0.4547 -0.9594
 9023TIP3   OH227032   5.699   3.321   0.922  0.4665 -0.2761  0.3116
 9023TIP3    H127033   5.664   3.311   1.011  0.9033 -0.6672  0.4378
 9023TIP3    H227034   5.748   3.241   0.906  2.6297  0.9047  0.7213
 9024TIP3   OH227035   1.051   0.036   5.136  0.1976  0.6223  0.5135
 9024TIP3    H127036   1.002   0.087   5.072  1.5765  1.1603 -0.1650
 9024TIP3    H227037   1.034  -0.055   5.111  0.6755  0.8212 -0.6297
 9025TIP3   OH227038   4.740   1.670   0.301 -0.1376 -0.2230  0.3598
 9025TIP3    H127039   4.812   1.707   0.351  0.3981 -0.7137 -0.0354
 9025TIP3    H227040   4.673   1.739   0.299  1.2645  1.1942 -1.3394
 9026TIP3   OH227041   1.034   0.465   5.681  0.4756  0.1787  0.3357
 9026TIP3    H127042   0.999   0.379   5.702  0.2216  0.4853  1.1912
 9026TIP3    H227043   1.008   0.521   5.754 -0.1048  1.1892 -0.6101
 9027TIP3   OH227044   4.714   3.687   0.818  0.1947 -0.2667  0.0781
 9027TIP3    H127045   4.651   3.665   0.749  0.1520  1.2422 -0.3882
 9027TIP3    H227046   4.789   3.725   0.771  1.2192 -1.4747  0.6771
 9028TIP3   OH227047   5.758   0.608   1.350  0.3140  0.0139  0.0250
 9028TIP3    H127048   5.694   0.603   1.422 -0.1442 -1.4701 -0.4524
 9028TIP3    H227049   5.725   0.678   1.293  1.2728  2.0023  1.7664
 9029TIP3   OH227050   1.138   4.292   4.851 -0.1890  0.2143 -0.5643
 9029TIP3    H127051   1.061   4.346   4.829  1.2471  1.9888 -1.4549
 9029TIP3    H227052   1.196   4.352   4.898  0.3477 -1.3294  0.8494
 9030TIP3   OH227053   1.789   0.761   2.766 -0.3695 -0.0275 -0.3198
 9030TIP3    H127054   1.857   0.694   2.772  1.4666  1.7400 -0.2663
 9030TIP3    H227055   1.809   0.807   2.684 -1.9849  0.0741 -0.6896
 9031TIP3   OH227056   1.188   2.791   4.459 -0.2954  0.0877  0.1684
 9031TIP3    H127057   1.242   2.871   4.461 -0.4185  0.1582  1.1425
 9031TIP3    H227058   1.110   2.813   4.510 -0.6886 -0.4097 -0.2099
 9032TIP3   OH227059   3.432   3.000   5.131 -0.1216 -0.6848 -0.2930
 9032TIP3    H127060   3.458   2.987   5.222 -0.5631  1.5796  0.2042
 9032TIP3    H227061   3.498   2.952   5.080  0.7197 -1.1347  1.1682
 9033TIP3   OH227062   4.053   5.868   4.240 -0.2169 -0.1624 -0.2500
 9033TIP3    H127063   3.965   5.901   4.259 -0.0984 -0.4122  0.7765
 9033TIP3    H227064   4.112   5.933   4.278  0.0691  0.3044 -1.4363
 9034TIP3   OH227065   6.467   4.869   4.053  0.1980 -0.7206 -0.7500
 9034TIP3    H127066   6.552   4.845   4.016  1.1152  2.1462 -0.7628
 9034TIP3    H227067   6.441   4.947   4.004 -0.8611  0.3694  1.3782
 9035TIP3   OH227068   1.966   2.520   0.271  0.5124  0.2058 -0.2559
 9035TIP3    H127069   1.936   2.606   0.242  1.4193  0.3190 -0.8845
 9035TIP3    H227070   1.964   2.466   0.192 -1.1845 -0.7066  0.3570
 9036TIP3   OH227071   1.585   2.715   4.353 -0.2020 -0.1558 -0.0268
 9036TIP3    H127072   1.577   2.669   4.269 -0.8009 -0.6342  0.2833
 9036TIP3    H227073   1.653   2.781   4.338  0.6943 -1.1405 -0.4860
 9037TIP3   OH227074   3.671   5.278   0.293  0.3333  0.6860 -0.0536
 9037TIP3    H127075   3.755   5.234   0.280  1.1632  2.0281  0.5428
 9037TIP3    H227076   3.607   5.207   0.297  1.1217 -0.2751 -2.6038
 9038TIP3   OH227077   0.892   0.651   1.258  0.2946  0.3634 -0.0755
 9038TIP3    H127078   0.970   0.647   1.313  0.1535 -0.5070  0.0775
 9038TIP3    H227079   0.911   0.592   1.185  0.1166  0.8089 -0.4907
 9039TIP3   OH227080   4.791   3.513  -0.009 -0.1041  0.0155  0.7421
 9039TIP3    H127081   4.824   3.436   0.038 -2.1538  0.3407  2.8969
 9039TIP3    H227082   4.697   3.514   0.010 -0.7334  1.2122 -2.0181
 9040TIP3   OH227083   2.312   0.071   4.188 -0.1385 -0.1239 -0.1615
 9040TIP3    H127084   2.275   0.069   4.276 -1.2832 -0.5240 -0.6354
 9040TIP3    H227085   2.406   0.063   4.202 -0.3071 -0.2812  1.0177
 9041TIP3   OH227086   2.233   0.216   1.100 -0.3317 -0.7572 -0.3906
 9041TIP3    H127087   2.230   0.228   1.194 -1.4021 -1.7191 -0.2908
 9041TIP3    H227088   2.325   0.232   1.077  0.2599 -1.9483  1.0154
 9042TIP3   OH227089   0.341   1.800   1.818  0.1127  0.7156  0.1743
 9042TIP3    H127090   0.288   1.879   1.809 -2.8409 -0.9865  1.1314
 9042TIP3    H227091   0.408   1.823   1.882 -0.2565  2.6078 -0.0583
 9043TIP3   OH227092   4.707   2.332   3.544 -0.1728  0.2578  0.3853
 9043TIP3    H127093   4.668   2.330   3.456  0.1029  1.0105  0.2397
 9043TIP3    H227094   4.692   2.421   3.575 -0.3627 -0.0355  1.1530
 9044TIP3   OH227095   2.552   3.309   1.037 -0.1752 -0.4263 -0.0447
 9044TIP3    H127096   2.500   3.259   1.099  1.8337 -1.9471  0.5158
 9044TIP3    H227097   2.572   3.248   0.967 -0.7222  0.6999 -1.2411
 9045TIP3   OH227098   2.298   1.423   1.050 -0.1149 -0.3139 -0.1031
 9045TIP3    H127099   2.374   1.463   1.093  0.2245  1.1084 -1.8954
 9045TIP3    H227100   2.333   1.345   1.007  0.0837 -0.3223  0.0737
 9046TIP3   OH227101   3.149   2.529   1.560  0.0889  0.1625  0.0682
 9046TIP3    H127102   3.122   2.615   1.594 -0.5968  0.3723 -0.9868
 9046TIP3    H227103   3.067   2.486   1.535  0.0344 -2.0923  3.3817
 9047TIP3   OH227104   3.192   1.562   5.702 -0.6259  0.4665 -0.1468
 9047TIP3    H127105   3.112   1.587   5.748 -0.9365  0.7663 -0.8453
 9047TIP3    H227106   3.229   1.491   5.755 -1.3427  0.3310  0.1769
 9048TIP3   OH227107   1.441   0.283   5.618 -0.0899  0.4103 -0.4748
 9048TIP3    H127108   1.347   0.289   5.635  0.0592 -0.5716  0.8439
 9048TIP3    H227109   1.470   0.207   5.669  1.2517  0.1087 -1.6363
 9049TIP3   OH227110   6.202   6.553   3.173 -0.1092 -0.5255 -0.3148
 9049TIP3    H127111   6.164   6.467   3.188 -2.1916  0.3094 -0.4063
 9049TIP3    H227112   6.174   6.606   3.248  0.2101  0.3484 -0.7900
 9050TIP3   OH227113   4.650   2.278   2.381 -0.2206 -0.5939  0.3605
 9050TIP3    H127114   4.618   2.188   2.379 -0.2124 -0.5921 -1.5232
 9050TIP3    H227115   4.579   2.330   2.344  0.7778 -0.2102 -1.1037
 9051TIP3   OH227116   1.507   6.430   1.884 -0.1144 -0.1328  0.0069
 9051TIP3    H127117   1.539   6.372   1.953 -0.5111  0.1544  0.4374
 9051TIP3    H227118   1.554   6.402   1.806 -0.5737 -1.2816  0.1231
 9052TIP3   OH227119   3.860   1.879   1.236  0.2118 -0.3998 -0.5662
 9052TIP3    H127120   3.796   1.846   1.174 -0.5116  0.9640 -0.5725
 9052TIP3    H227121   3.932   1.912   1.182 -0.7218  1.4277 -0.7658
 9053TIP3   OH227122   5.820   4.544   4.341 -0.0294 -0.0846 -0.1402
 9053TIP3    H127123   5.736   4.589   4.333  0.4096  0.6070 -1.0754
 9053TIP3    H227124   5.820   4.481   4.269  0.0049 -0.5023  0.2256
 9054TIP3   OH227125   0.036   2.040   5.593 -0.0391  0.0506 -0.7098
 9054TIP3    H127126   0.024   2.048   5.687  0.7385 -0.6538 -0.5386
 9054TIP3    H227127   0.124   2.073   5.577  0.5130 -1.4279 -0.9288
 9055TIP3   OH227128   4.590   6.082   0.434 -0.6406  0.1150 -0.3295
 9055TIP3    H127129   4.583   6.003   0.487  1.1556  0.0719 -0.0755
 9055TIP3    H227130   4.541   6.148   0.482 -1.3250 -0.5984 -0.0352
 9056TIP3   OH227131   4.924   4.926   5.677 -0.2205  0.3713 -0.7601
 9056TIP3    H127132   4.836   4.962   5.669 -0.4320  0.1158  0.2557
 9056TIP3    H227133   4.928   4.892   5.767  0.6215 -0.3806 -1.0643
 9057TIP3   OH227134   0.363   3.538   4.539 -0.7365  0.0939 -0.1887
 9057TIP3    H127135   0.440   3.484   4.521  0.1423  1.0994  0.4503
 9057TIP3    H227136   0.337   3.572   4.454  1.1321  1.8314 -0.1340
 9058TIP3   OH227137   5.593   2.327   5.313 -0.2168  0.2003 -0.7105
 9058TIP3    H127138   5.517   2.358   5.362  0.1852 -0.9821  0.7352
 9058TIP3    H227139   5.667   2.374   5.351  0.1339 -0.9381  0.0671
 9059TIP3   OH227140   4.637   2.316   2.649  0.4121 -0.1613 -0.1372
 9059TIP3    H127141   4.541   2.322   2.644  0.3631 -0.6861  0.0940
 9059TIP3    H227142   4.663   2.287   2.562  0.4389  0.7887 -0.4611
 9060TIP3   OH227143   7.138   1.687   5.725 -0.1996 -0.0816  0.1232
 9060TIP3    H127144   7.089   1.765   5.753  0.3448  0.1641  0.4105
 9060TIP3    H227145   7.077   1.638   5.670 -0.6939  0.3291  0.3033
 9061TIP3   OH227146   1.234   6.753   2.432 -0.2787 -0.2660 -0.5369
 9061TIP3    H127147   1.212   6.690   2.501 -0.9086 -0.7124 -1.1273
 9061TIP3    H227148   1.313   6.717   2.392  0.9715  0.7692  0.8835
 9062TIP3   OH227149   5.953   0.347   4.169  0.1401 -0.2940 -0.1403
 9062TIP3    H127150   5.994   0.263   4.190 -2.1293 -1.2903  0.5395
 9062TIP3    H227151   5.907   0.373   4.248 -1.6114  0.1123 -1.2328
 9063TIP3   OH227152   6.542   6.611   0.028  0.1374 -0.4463 -0.0060
 9063TIP3    H127153   6.632   6.639   0.015  0.6185 -1.2600  1.2937
 9063TIP3    H227154   6.542   6.518   0.004 -0.3937 -0.4099 -0.1568
 9064TIP3   OH227155   2.613   2.377   2.227  0.0981  0.5066 -0.5718
 9064TIP3    H127156   2.652   2.457   2.262  1.3625  0.0262 -0.8169
 9064TIP3    H227157   2.641   2.308   2.287 -0.7114  0.1965 -0.5386
 9065TIP3   OH227158   2.821   4.792   1.262  0.7472  0.0114 -0.2662
 9065TIP3    H127159   2.855   4.731   1.197  0.1807 -0.4398 -0.1440
 9065TIP3    H227160   2.726   4.788   1.252  0.6988  1.1194 -0.4785
 9066TIP3   OH227161   2.963   4.057   3.574 -0.3642  0.2046 -0.4239
 9066TIP3    H127162   2.967   4.092   3.663 -1.8570 -1.5691  0.4013
 9066TIP3    H227163   2.878   4.084   3.540 -0.8320 -1.1277 -0.3827
 9067TIP3   OH227164   0.594   1.029   1.567 -0.2405 -0.1227  0.0085
 9067TIP3    H127165   0.676   0.980   1.576  0.2933  0.6809 -0.3583
 9067TIP3    H227166   0.525   0.965   1.588  0.4674 -0.8459  0.1766
 9068TIP3   OH227167   4.361   5.806   4.662 -0.1133  0.2910 -0.6622
 9068TIP3    H127168   4.432   5.777   4.605 -1.3510 -0.4397 -1.9257
 9068TIP3    H227169   4.348   5.733   4.723  1.6085  1.3188  1.0267
 9069TIP3   OH227170   4.242   1.764   4.118  0.6209  0.1946  0.1381
 9069TIP3    H127171   4.244   1.749   4.024  0.7698  2.0354 -0.1846
 9069TIP3    H227172   4.149   1.774   4.139  0.7078  3.8545 -0.5993
 9070TIP3   OH227173   6.610   6.098   1.174  0.3331  0.7295  0.1301
 9070TIP3    H127174   6.704   6.092   1.155  0.0118  0.6594 -1.6149
 9070TIP3    H227175   6.567   6.065   1.095 -1.1819 -1.2044  1.6700
 9071TIP3   OH227176   0.056   0.744   3.965  0.1472  0.1673 -0.2948
 9071TIP3    H127177   0.031   0.781   4.049 -0.8944  1.0289 -0.9512
 9071TIP3    H227178   0.023   0.807   3.900  1.7617  0.0181 -1.3226
 9072TIP3   OH227179   3.530   6.084   1.723 -0.3526 -0.3388  0.3428
 9072TIP3    H127180   3.510   6.027   1.797  2.1185 -2.6594 -0.6076
 9072TIP3    H227181   3.621   6.064   1.701 -0.7807  0.7142 -2.9295
 9073TIP3   OH227182   3.376   5.638   2.495  0.0963 -0.0493  0.4821
 9073TIP3    H127183   3.323   5.589   2.432  0.0841  0.4936  0.0667
 9073TIP3    H227184   3.464   5.600   2.487  0.2615  0.4957 -0.3871
 9074TIP3   OH227185   4.469   2.626   2.247  0.0987  0.3277  0.2351
 9074TIP3    H127186   4.392   2.674   2.215 -1.4013 -1.6408  0.7199
 9074TIP3    H227187   4.434   2.546   2.284  2.4756 -1.0146 -0.2079
 9075TIP3   OH227188   6.647   6.627   4.429  0.0560 -0.1528  0.0756
 9075TIP3    H127189   6.666   6.566   4.500 -0.7660 -2.4359 -1.5432
 9075TIP3    H227190   6.719   6.614   4.366 -0.0202  0.7084 -0.1989
 9076TIP3   OH227191   4.126   3.419   3.417  0.5936  0.0293 -0.7720
 9076TIP3    H127192   4.088   3.355   3.477 -0.4123  0.3311 -1.0769
 9076TIP3    H227193   4.051   3.465   3.379  1.2817  2.3254  0.4207
 9077TIP3   OH227194   0.443   4.557   1.118  0.0233  0.4321  0.0913
 9077TIP3    H127195   0.485   4.643   1.110  1.9979 -0.4618  0.3750
 9077TIP3    H227196   0.389   4.564   1.197 -0.2701  1.5676 -0.1954
 9078TIP3   OH227197   0.234   1.229   4.617  0.6209 -0.1013  0.3474
 9078TIP3    H127198   0.175   1.289   4.664 -0.5489  0.3246 -1.5544
 9078TIP3    H227199   0.205   1.234   4.526  1.4787 -2.4458 -0.1154
 9079TIP3   OH227200   6.040   5.509   4.455  0.1821  0.6226 -0.1593
 9079TIP3    H127201   6.039   5.421   4.492  2.6839  0.8524  0.6472
 9079TIP3    H227202   5.957   5.548   4.482  0.6806 -0.1944  2.8293
 9080TIP3   OH227203   0.738   5.627   3.367  0.0317 -0.3920  0.6324
 9080TIP3    H127204   0.752   5.710   3.320  0.3174 -0.3081  0.8668
 9080TIP3    H227205   0.663   5.645   3.424 -1.2052 -0.9003 -0.7591
 9081TIP3   OH227206   2.850   4.598   5.187 -0.1338 -0.2833  0.0863
 9081TIP3    H127207   2.777   4.617   5.247 -0.1715  2.5793 -0.7074
 9081TIP3    H227208   2.928   4.616   5.239 -0.0850 -0.3854  0.0482
 9082TIP3   OH227209   5.711   2.117   3.499 -0.4229 -0.6783 -0.3453
 9082TIP3    H127210   5.666   2.124   3.415 -0.5021 -2.0344 -0.4486
 9082TIP3    H227211   5.804   2.118   3.477 -0.2965  2.6502 -0.0867
 9083TIP3   OH227212   6.608   0.667   5.440 -0.1761 -0.2959 -0.0499
 9083TIP3    H127213   6.614   0.634   5.350  1.5602 -0.7835  0.2116
 9083TIP3    H227214   6.539   0.614   5.481  1.0631 -2.1745 -0.2678
 9084TIP3   OH227215   0.786   3.696   4.811 -0.9325  0.7208 -1.0401
 9084TIP3    H127216   0.713   3.736   4.859 -0.7512  0.4192 -0.5021
 9084TIP3    H227217   0.852   3.765   4.806 -0.9385  0.7444 -0.8165
 9085TIP3   OH227218   0.320   3.739   5.867  0.3417 -0.6364  0.6150
 9085TIP3    H127219   0.359   3.815   5.910  0.4453 -0.6303  0.5124
 9085TIP3    H227220   0.250   3.774   5.813  0.5211 -0.5888  0.4087
 9086TIP3   OH227221   3.256   1.055   3.718 -0.4158 -0.3038  0.1209
 9086TIP3    H127222   3.162   1.073   3.723 -0.3758  0.1754 -0.6053
 9086TIP3    H227223   3.269   0.980   3.775 -0.8005  1.1855  2.2844
 9087TIP3   OH227224   0.362   4.238   2.186  0.1813 -0.0956 -0.0261
 9087TIP3    H127225   0.360   4.254   2.281 -0.0202  0.0178 -0.0462
 9087TIP3    H227226   0.270   4.226   2.163  0.0781  1.2808 -0.4325
 9088TIP3   OH227227   6.118   4.272   3.082  0.5224  0.0058  0.2660
 9088TIP3    H127228   6.152   4.293   2.995 -0.9365  1.7745  0.0716
 9088TIP3    H227229   6.196   4.250   3.133  1.3900 -1.3238 -1.5088
 9089TIP3   OH227230   3.872   0.939   2.742  0.2889  0.3005 -0.0965
 9089TIP3    H127231   3.945   0.878   2.733  0.0052  0.1028 -1.1323
 9089TIP3    H227232   3.901   1.001   2.810  3.0145  2.4363 -2.8956
 9090TIP3   OH227233   6.438   4.004   3.864  0.4110 -0.0737 -0.2099
 9090TIP3    H127234   6.501   4.075   3.864  1.5282 -1.0342  0.1976
 9090TIP3    H227235   6.377   4.027   3.794  1.0723  0.9911 -0.4641
 9091TIP3   OH227236   0.340   5.446   1.921 -0.1054  0.2371  0.6107
 9091TIP3    H127237   0.264   5.498   1.947 -0.2866  0.5609 -0.5336
 9091TIP3    H227238   0.414   5.506   1.929 -0.1940  0.4100  0.1579
 9092TIP3   OH227239   4.792   4.538   3.711  0.3881 -0.3321  0.7060
 9092TIP3    H127240   4.717   4.559   3.767  1.0490 -0.9226  1.8480
 9092TIP3    H227241   4.772   4.452   3.675 -0.2446  0.2376 -0.3710
 9093TIP3   OH227242   0.974   2.472   4.179  0.1218  0.3920 -0.2724
 9093TIP3    H127243   1.000   2.391   4.223 -1.2090  0.5276  0.8494
 9093TIP3    H227244   1.051   2.528   4.184  0.6493 -0.3473  0.0757
 9094TIP3   OH227245   2.404   2.210   3.281  0.2949  0.5415  0.6333
 9094TIP3    H127246   2.330   2.184   3.227  1.6104  1.0356 -1.5293
 9094TIP3    H227247   2.377   2.292   3.323  0.0126  1.3414 -1.0525
 9095TIP3   OH227248   1.124   0.451   2.481 -0.6098  0.1829  0.4122
 9095TIP3    H127249   1.138   0.451   2.576  0.5875 -2.1562  0.3057
 9095TIP3    H227250   1.191   0.391   2.447 -1.3113  0.6100 -1.8750
 9096TIP3   OH227251   5.728   5.079   0.750 -0.0689  0.6980  0.2151
 9096TIP3    H127252   5.781   5.078   0.830  1.0306  1.3757 -0.4656
 9096TIP3    H227253   5.643   5.044   0.776  0.8028 -0.7173  1.2899
 9097TIP3   OH227254   3.378   2.409   4.740  0.6710  0.1599 -0.2206
 9097TIP3    H127255   3.417   2.403   4.827  0.2408  1.1026  0.0551
 9097TIP3    H227256   3.416   2.336   4.691  2.6019  0.8920  0.1008
 9098TIP3   OH227257   4.300   5.998   2.126 -0.9835 -0.2369 -0.8555
 9098TIP3    H127258   4.367   6.060   2.152 -0.8076 -1.7011  2.7718
 9098TIP3    H227259   4.241   6.048   2.070  1.6665  1.7978 -2.0347
 9099TIP3   OH227260   4.016   3.642   4.685  0.0692  0.2090  0.7164
 9099TIP3    H127261   3.963   3.601   4.754 -0.5588  1.0134  0.7228
 9099TIP3    H227262   3.970   3.724   4.665 -0.8565 -0.8568 -1.9908
 9100TIP3   OH227263   3.610   6.022   5.783 -0.4126 -0.4955 -0.3873
 9100TIP3    H127264   3.535   6.040   5.838  1.0864  0.4950  1.4639
 9100TIP3    H227265   3.627   5.928   5.795 -1.5627 -0.8289 -1.1771
 9101TIP3   OH227266   2.105   0.313   2.567 -0.0262 -0.4404  0.0879
 9101TIP3    H127267   2.153   0.242   2.524  0.5811 -1.3628  2.1751
 9101TIP3    H227268   2.015   0.304   2.535 -0.6831 -4.0900  2.4484
 9102TIP3   OH227269   0.074   3.592   5.617 -0.5805 -0.5934 -0.1797
 9102TIP3    H127270   0.056   3.635   5.700  0.0002 -0.4576 -0.1203
 9102TIP3    H227271  -0.011   3.557   5.589 -0.9110 -0.0504  0.1316
 9103TIP3   OH227272   2.407   4.075   3.209  0.4010  0.1578  0.0657
 9103TIP3    H127273   2.485   4.057   3.157  1.0426 -0.4603  1.2129
 9103TIP3    H227274   2.337   4.027   3.164  0.7613  0.3200 -0.6907
 9104TIP3   OH227275   4.743   6.693   0.625 -0.2630 -0.5481  0.1967
 9104TIP3    H127276   4.774   6.632   0.558  0.7910  0.3615 -0.1676
 9104TIP3    H227277   4.699   6.637   0.689  0.1457 -1.6179 -0.4194
 9105TIP3   OH227278   6.316   6.606   3.632 -0.0283 -0.1415  0.0065
 9105TIP3    H127279   6.330   6.520   3.673 -2.7569 -0.1026  1.2642
 9105TIP3    H227280   6.266   6.655   3.697 -0.2557  1.7194 -1.4871
 9106TIP3   OH227281   5.130   5.684   2.978  0.1147 -0.6008  0.0414
 9106TIP3    H127282   5.082   5.721   3.052 -0.8171  0.9287 -1.2514
 9106TIP3    H227283   5.203   5.744   2.963 -0.6450  0.0523 -1.2518
 9107TIP3   OH227284   0.650   3.459   4.883 -0.0325 -0.0119  0.1393
 9107TIP3    H127285   0.684   3.535   4.836  0.5202 -0.5660 -0.3668
 9107TIP3    H227286   0.716   3.442   4.951 -0.3837  0.2376  0.5464
 9108TIP3   OH227287   0.114   4.525   5.842 -0.1688  0.2671 -0.5820
 9108TIP3    H127288   0.069   4.467   5.781  1.7499 -1.6131 -0.3448
 9108TIP3    H227289   0.056   4.530   5.918 -1.8538  1.3711 -1.8766
 9109TIP3   OH227290   5.807   6.415   3.711  0.6904 -0.0257  0.1915
 9109TIP3    H127291   5.722   6.378   3.689  0.7654 -1.0538  1.4906
 9109TIP3    H227292   5.865   6.385   3.640 -0.1352  1.3706 -1.1555
 9110TIP3   OH227293   6.804   2.601   4.399 -0.0801  0.3867 -0.5453
 9110TIP3    H127294   6.880   2.549   4.372 -0.4076 -0.9865  0.9754
 9110TIP3    H227295   6.742   2.536   4.433 -1.2272  1.6383 -0.1525
 9111TIP3   OH227296   4.438   4.743   0.158 -0.5339 -0.2761  0.3772
 9111TIP3    H127297   4.397   4.749   0.072  0.9270  1.7572 -0.2255
 9111TIP3    H227298   4.507   4.677   0.148  0.4931  0.8919 -0.4074
 9112TIP3   OH227299   5.189   0.059   3.335  0.1944  0.0101 -0.7026
 9112TIP3    H127300   5.126   0.127   3.311 -0.1728  0.0569  0.3552
 9112TIP3    H227301   5.184  -0.004   3.262 -2.2176 -0.7646  0.0180
 9113TIP3   OH227302   5.634   0.762   5.761 -0.2306  0.4234  0.8151
 9113TIP3    H127303   5.637   0.667   5.766 -0.8560  0.3919  0.7103
 9113TIP3    H227304   5.564   0.781   5.698  0.2282  0.9467  0.4519
 9114TIP3   OH227305   0.499   0.354   2.479 -0.1833 -0.2161  0.0592
 9114TIP3    H127306   0.543   0.438   2.484 -0.3545 -0.1046 -0.2382
 9114TIP3    H227307   0.423   0.362   2.536 -0.1395 -0.2064  0.1158
 9115TIP3   OH227308   3.510   6.066   5.013 -0.1657  0.5085  0.4707
 9115TIP3    H127309   3.571   6.063   5.087  0.8335 -0.6053 -0.3418
 9115TIP3    H227310   3.563   6.097   4.940 -0.7561  0.1888 -0.1009
 9116TIP3   OH227311   4.028   1.727   4.512 -0.0271 -0.0503 -0.0201
 9116TIP3    H127312   4.117   1.745   4.541 -0.6347  0.3632  1.7268
 9116TIP3    H227313   3.984   1.691   4.589 -1.8305  1.3774 -0.2918
 9117TIP3   OH227314   3.709   1.859   1.660  0.2264 -0.2556 -0.0909
 9117TIP3    H127315   3.631   1.862   1.716  1.4793 -3.2847  2.0714
 9117TIP3    H227316   3.755   1.941   1.679 -1.5664  0.8117 -0.1464
 9118TIP3   OH227317   6.346   0.609   2.255 -0.0727 -0.4363  0.7828
 9118TIP3    H127318   6.374   0.600   2.164  0.9764  0.1865  1.0293
 9118TIP3    H227319   6.251   0.599   2.252 -0.4251  2.4224 -0.7783
 9119TIP3   OH227320   3.296   3.328   4.474 -0.7087 -1.0712 -0.1081
 9119TIP3    H127321   3.270   3.372   4.393 -1.4201 -0.5128  0.4142
 9119TIP3    H227322   3.229   3.261   4.487 -0.7554 -0.9688  0.1745
 9120TIP3   OH227323   5.263   1.329   5.547 -0.5920 -0.0203 -0.0663
 9120TIP3    H127324   5.189   1.342   5.488 -0.4843 -2.4458 -0.8571
 9120TIP3    H227325   5.247   1.389   5.620 -1.9298  1.4008 -1.4571
 9121TIP3   OH227326   0.589   3.465   0.412 -0.2845  0.9839 -0.1135
 9121TIP3    H127327   0.641   3.473   0.492  0.6771 -0.6287 -0.5166
 9121TIP3    H227328   0.533   3.389   0.428  2.2316 -1.5127 -2.0734
 9122TIP3   OH227329   3.455   6.089   0.613 -0.3698 -0.1336 -0.3723
 9122TIP3    H127330   3.420   6.020   0.670  1.2313 -2.0928 -1.6425
 9122TIP3    H227331   3.522   6.132   0.666 -0.6495 -0.2275  0.0711
 9123TIP3   OH227332   5.238   1.626   3.493 -0.1533 -0.1070  0.1201
 9123TIP3    H127333   5.265   1.684   3.421 -0.0485 -0.3689 -0.0520
 9123TIP3    H227334   5.179   1.680   3.545  0.8990  0.5775  0.6565
 9124TIP3   OH227335   3.230   6.622   3.810 -0.0778 -0.3039 -0.0077
 9124TIP3    H127336   3.228   6.630   3.715 -1.2691  1.3389  0.1203
 9124TIP3    H227337   3.317   6.654   3.835 -1.0563  2.9135 -0.3301
 9125TIP3   OH227338   1.785   3.022   0.433  0.2366  0.3726 -0.6878
 9125TIP3    H127339   1.772   2.927   0.438 -2.1331  0.5271 -2.2428
 9125TIP3    H227340   1.810   3.038   0.342 -1.2991  1.3756 -0.9673
 9126TIP3   OH227341   0.313   4.672   3.596 -0.2898  0.8466  0.3473
 9126TIP3    H127342   0.312   4.582   3.564  0.1087  0.7727  0.5431
 9126TIP3    H227343   0.405   4.696   3.598 -0.3809  1.1837  0.5066
 9127TIP3   OH227344   1.304   6.057   2.014 -0.2475  0.4405 -0.2165
 9127TIP3    H127345   1.302   6.142   2.058  1.4687  2.1942 -3.1994
 9127TIP3    H227346   1.396   6.045   1.989  0.0275 -3.3913  1.8566
 9128TIP3   OH227347   0.279   3.170   2.058 -0.1237  0.4139  0.1932
 9128TIP3    H127348   0.334   3.139   1.986 -1.0694 -2.7706  0.6813
 9128TIP3    H227349   0.312   3.124   2.135 -0.9732  1.5207  1.2550
 9129TIP3   OH227350   6.408   0.726   0.962 -0.5820  0.0921 -0.1798
 9129TIP3    H127351   6.373   0.809   0.928  1.7799  1.1582 -0.2427
 9129TIP3    H227352   6.418   0.742   1.056  0.8654  0.3311 -0.3433
 9130TIP3   OH227353   4.564   1.879   0.241  0.2580 -0.5331  0.1462
 9130TIP3    H127354   4.578   1.885   0.147 -0.6157 -2.3200 -0.1432
 9130TIP3    H227355   4.535   1.966   0.267  0.3259 -0.0675 -1.2558
 9131TIP3   OH227356   4.287   4.002   3.726 -0.6910  0.0242 -0.1530
 9131TIP3    H127357   4.200   3.983   3.759 -1.5744 -1.3512 -2.9783
 9131TIP3    H227358   4.278   4.085   3.680 -1.3030 -1.3736 -2.7412
 9132TIP3   OH227359   0.318   4.076   5.640  0.4457  0.3830 -0.3714
 9132TIP3    H127360   0.234   4.079   5.685  0.2156  0.5698 -0.8063
 9132TIP3    H227361   0.382   4.066   5.710  0.1824  1.8340  0.1258
 9133TIP3   OH227362   6.163   4.752   0.377 -0.0491  0.0543  0.3618
 9133TIP3    H127363   6.233   4.804   0.338  0.1288 -0.6261 -0.2427
 9133TIP3    H227364   6.187   4.744   0.470  0.8998 -0.5337  0.0746
 9134TIP3   OH227365   6.602   1.728   1.893 -0.5948 -0.4853  0.3175
 9134TIP3    H127366   6.531   1.705   1.833  0.3404 -0.9167 -0.6682
 9134TIP3    H227367   6.575   1.811   1.932 -1.5397 -0.5407 -0.1869
 9135TIP3   OH227368   4.899   0.450   5.381 -0.5473 -0.1643  0.2381
 9135TIP3    H127369   4.874   0.493   5.300  0.3334 -0.3478 -0.1463
 9135TIP3    H227370   4.981   0.404   5.360 -1.1479 -1.5530  0.7741
 9136TIP3   OH227371   2.616   1.878   0.473 -0.4393  0.1530  0.0247
 9136TIP3    H127372   2.536   1.833   0.500 -1.3054  0.6676 -1.6090
 9136TIP3    H227373   2.599   1.970   0.493 -0.7703  0.4295 -1.4220
 9137TIP3   OH227374   0.871   5.162   5.227  0.3869 -0.5909 -0.0713
 9137TIP3    H127375   0.923   5.238   5.255 -1.0068  0.1217  0.7179
 9137TIP3    H227376   0.785   5.199   5.207 -0.4215 -2.0176  0.6636
 9138TIP3   OH227377   2.442   5.619   3.399 -0.2608  0.5572  0.1324
 9138TIP3    H127378   2.503   5.683   3.361 -0.8765  0.9108 -0.2794
 9138TIP3    H227379   2.491   5.579   3.471  0.1225  1.5320  0.4281
 9139TIP3   OH227380   5.960   6.736   1.006 -0.1814  0.2916  0.0941
 9139TIP3    H127381   5.926   6.774   1.086  1.1167 -0.5870  1.1045
 9139TIP3    H227382   5.947   6.804   0.939 -2.0529  0.7053  0.8378
 9140TIP3   OH227383   6.905   4.630   1.640 -0.6788 -0.5351  0.1520
 9140TIP3    H127384   6.937   4.717   1.666 -0.4926 -0.7202  0.5503
 9140TIP3    H227385   6.849   4.647   1.565  2.5484 -0.4110 -2.4785
 9141TIP3   OH227386   0.800   0.602   5.296 -0.2409  0.1052  0.5155
 9141TIP3    H127387   0.816   0.509   5.278 -2.5743 -1.4253  4.8547
 9141TIP3    H227388   0.712   0.618   5.264  0.4634  1.1924 -1.0081
 9142TIP3   OH227389   2.219   1.886   4.406  0.3643  0.4951  0.5716
 9142TIP3    H127390   2.188   1.841   4.327  0.5484 -1.6248  1.6282
 9142TIP3    H227391   2.271   1.959   4.373 -1.2865  0.9339 -1.2374
 9143TIP3   OH227392   1.622   3.097   0.058 -0.4157 -0.2259 -0.1635
 9143TIP3    H127393   1.546   3.156   0.059  0.2665  0.6901  1.1231
 9143TIP3    H227394   1.632   3.069   0.148 -0.4996 -2.0787 -0.6968
 9144TIP3   OH227395   3.215   3.939   2.607 -0.0240  0.2438 -0.5323
 9144TIP3    H127396   3.205   3.897   2.522  1.6829 -1.9761  0.2909
 9144TIP3    H227397   3.257   4.023   2.587 -2.6643  1.3310 -2.1189
 9145TIP3   OH227398   5.906   6.606   1.668 -0.2554  0.5122  0.7212
 9145TIP3    H127399   5.904   6.630   1.576  2.5423  0.0711  0.4360
 9145TIP3    H227400   5.971   6.666   1.707 -1.3588  0.6828  2.4195
 9146TIP3   OH227401   1.091   2.256   5.269  0.1990 -0.8338 -0.1350
 9146TIP3    H127402   1.065   2.277   5.179 -0.1285 -1.4330 -0.1828
 9146TIP3    H227403   1.088   2.340   5.315 -2.2458 -0.9097 -0.0451
 9147TIP3   OH227404   5.137   1.889   4.587 -0.5529 -0.8133  0.1611
 9147TIP3    H127405   5.182   1.856   4.509  0.0322 -1.5657  0.8068
 9147TIP3    H227406   5.201   1.944   4.631  0.2553 -2.8836  1.7491
 9148TIP3   OH227407   0.388   5.578   5.694  0.0411  0.4680 -0.0666
 9148TIP3    H127408   0.436   5.642   5.641  0.2313 -0.1502 -0.6611
 9148TIP3    H227409   0.311   5.625   5.725 -0.2644  0.7405 -1.2001
 9149TIP3   OH227410   4.050   1.162   5.443 -0.7306  0.4593 -0.0193
 9149TIP3    H127411   4.112   1.181   5.513  1.4290  0.2512 -1.7487
 9149TIP3    H227412   4.013   1.076   5.464  0.2933  0.1614  0.5873
 9150TIP3   OH227413   4.696   2.697   0.321  0.4742  0.0371  0.0840
 9150TIP3    H127414   4.602   2.717   0.323 -0.5525 -3.8788 -0.4891
 9150TIP3    H227415   4.713   2.650   0.402  1.4381 -1.0308 -0.7002
 9151TIP3   OH227416   6.770   4.025   2.520 -0.2117 -0.0619  0.0312
 9151TIP3    H127417   6.770   3.937   2.482 -2.1648 -0.3341  0.5363
 9151TIP3    H227418   6.754   4.011   2.613  1.8939  0.7441  0.5834
 9152TIP3   OH227419   5.268   2.760   3.056 -0.4769  0.0038 -0.6629
 9152TIP3    H127420   5.274   2.832   2.994  0.9461  0.0165 -0.5445
 9152TIP3    H227421   5.269   2.803   3.142  1.5401 -0.1599 -0.5571
 9153TIP3   OH227422   2.339   5.667   2.667 -0.6414  0.4537  0.2371
 9153TIP3    H127423   2.430   5.655   2.696 -0.4838 -0.0801 -0.4500
 9153TIP3    H227424   2.333   5.617   2.586 -1.2122  1.4809 -0.3799
 9154TIP3   OH227425   7.060   5.421   0.481 -0.2176 -1.3746  0.4546
 9154TIP3    H127426   6.987   5.370   0.445  0.6872 -2.8551  0.6346
 9154TIP3    H227427   7.021   5.471   0.553 -1.4902 -0.4365 -0.8546
 9155TIP3   OH227428   6.650   3.263   5.367 -0.0055 -0.1708 -0.1332
 9155TIP3    H127429   6.700   3.202   5.313 -0.9539  0.0513 -1.3079
 9155TIP3    H227430   6.576   3.290   5.312 -1.6970 -0.8185  1.6825
 9156TIP3   OH227431   6.201   5.886   5.202 -0.3089 -0.3194  0.2264
 9156TIP3    H127432   6.135   5.935   5.153 -0.0428 -0.8949 -0.7331
 9156TIP3    H227433   6.277   5.945   5.206 -0.5168 -0.0642  0.4100
 9157TIP3   OH227434   1.401   4.974   4.781 -0.1200 -0.2846 -0.0294
 9157TIP3    H127435   1.438   4.929   4.856  0.3675  1.2276  0.6765
 9157TIP3    H227436   1.475   4.988   4.722 -0.6014 -1.9699 -1.1018
 9158TIP3   OH227437   6.415   2.653   2.203  0.1655  0.2676  0.1325
 9158TIP3    H127438   6.440   2.701   2.281 -2.0131 -0.0216  1.0842
 9158TIP3    H227439   6.466   2.572   2.208  2.1794  1.4374 -0.3183
 9159TIP3   OH227440   3.526   2.803   4.730  0.2603 -0.2979  0.0226
 9159TIP3    H127441   3.553   2.732   4.672  1.0074  0.9778 -1.2489
 9159TIP3    H227442   3.431   2.801   4.728  0.2759 -0.7395 -0.6685
 9160TIP3   OH227443   6.369   3.370   1.211 -0.0088 -0.3867  0.3614
 9160TIP3    H127444   6.440   3.427   1.181 -0.7956  0.3534 -0.1633
 9160TIP3    H227445   6.359   3.305   1.141  2.6365 -2.9148  2.0963
 9161TIP3   OH227446   3.207   3.986   5.022 -0.0761  0.1412  0.0430
 9161TIP3    H127447   3.139   4.017   5.083 -1.1113 -0.1428 -0.9528
 9161TIP3    H227448   3.164   3.984   4.937  1.5068  1.0476 -0.8220
 9162TIP3   OH227449   1.504   1.033   5.061 -0.2923 -0.0790  0.3977
 9162TIP3    H127450   1.551   1.115   5.071  0.2926 -0.5416  1.7377
 9162TIP3    H227451   1.412   1.058   5.058 -0.0596  0.7017 -0.3940
 9163TIP3   OH227452   5.045   4.916   0.936  0.5587 -0.2523 -0.4211
 9163TIP3    H127453   5.057   5.000   0.980 -0.2734 -0.9155  1.1336
 9163TIP3    H227454   5.041   4.852   1.006 -1.4981 -1.2799 -1.4059
 9164TIP3   OH227455   3.626   4.889   4.184 -0.0805  0.1133  0.1848
 9164TIP3    H127456   3.715   4.918   4.164  0.4107 -1.5248 -0.1660
 9164TIP3    H227457   3.570   4.944   4.129  0.5830  2.0417  1.3459
 9165TIP3   OH227458   0.781   3.771   0.965 -0.1213 -1.0153 -0.5010
 9165TIP3    H127459   0.800   3.859   0.933  1.4663 -1.4114 -0.7212
 9165TIP3    H227460   0.695   3.778   1.006  0.4407  0.9061  0.4531
 9166TIP3   OH227461   1.730   0.937   1.024 -0.1100  0.0153 -0.4384
 9166TIP3    H127462   1.701   0.924   0.934 -1.3879  1.8217 -0.3229
 9166TIP3    H227463   1.805   0.995   1.017  0.8946 -1.2467 -0.4309
 9167TIP3   OH227464   3.723   1.844   2.631 -0.3042  0.0785 -0.0519
 9167TIP3    H127465   3.785   1.911   2.657  0.7881 -0.7885 -0.3502
 9167TIP3    H227466   3.762   1.804   2.554 -0.4931 -1.4611  0.6130
 9168TIP3   OH227467   6.450   6.516   1.594 -0.3149  0.3401  0.3385
 9168TIP3    H127468   6.507   6.501   1.519  0.9176 -0.6601  1.4343
 9168TIP3    H227469   6.409   6.601   1.576  0.4286  0.4229 -1.1450
 9169TIP3   OH227470   3.710   5.197   1.068  0.2228  0.2776 -0.0849
 9169TIP3    H127471   3.784   5.251   1.042 -0.1634  1.9099  1.8862
 9169TIP3    H227472   3.637   5.260   1.076 -0.6564 -0.8098  0.7197
 9170TIP3   OH227473   2.310   2.428   4.217  0.1387  0.0262  0.1115
 9170TIP3    H127474   2.254   2.455   4.290  0.2695  0.3182  0.1032
 9170TIP3    H227475   2.313   2.332   4.224  0.5998  0.0850  0.8256
 9171TIP3   OH227476   5.178   2.059   2.315 -0.0800 -0.1926  0.6157
 9171TIP3    H127477   5.110   2.119   2.285  0.7809 -0.1053 -1.3060
 9171TIP3    H227478   5.139   1.972   2.303 -0.2964 -0.1095  0.7017
 9172TIP3   OH227479   1.303   1.882   4.472 -0.3915 -0.0511 -0.5427
 9172TIP3    H127480   1.344   1.868   4.558  1.1894  0.6659 -1.1452
 9172TIP3    H227481   1.370   1.858   4.409 -1.4536 -0.3300 -1.6041
 9173TIP3   OH227482  -0.001   5.432   2.749 -0.1123  0.2250 -0.0919
 9173TIP3    H127483  -0.008   5.525   2.730  0.8281  0.1332 -0.9771
 9173TIP3    H227484   0.071   5.425   2.811  0.2824  0.0228 -0.5694
 9174TIP3   OH227485   2.273   2.040   1.604  0.4327  0.0646  0.0696
 9174TIP3    H127486   2.298   2.038   1.696  0.2286  0.4317  0.1345
 9174TIP3    H227487   2.178   2.035   1.605  0.2752  2.2114 -0.0165
 9175TIP3   OH227488   5.660   0.395   3.084 -0.3155  0.2510 -0.5622
 9175TIP3    H127489   5.712   0.315   3.079 -0.6832  0.0789 -1.8772
 9175TIP3    H227490   5.582   0.370   3.134 -0.2135 -0.0854 -0.5660
 9176TIP3   OH227491   0.985   2.180   0.226  0.0513 -0.0780 -0.3703
 9176TIP3    H127492   0.914   2.243   0.216 -0.3543 -0.4113  0.3998
 9176TIP3    H227493   1.003   2.150   0.136 -0.1058  0.7302 -0.6806
 9177TIP3   OH227494   5.584   4.512   1.321  0.0471  0.4699  0.0004
 9177TIP3    H127495   5.557   4.595   1.360  1.3406  1.0648 -0.2961
 9177TIP3    H227496   5.510   4.453   1.334 -0.4818  1.3611  1.1674
 9178TIP3   OH227497   2.368   0.859   2.580 -0.0562 -0.1333 -0.3645
 9178TIP3    H127498   2.321   0.938   2.603  0.1752 -0.3665  0.9986
 9178TIP3    H227499   2.365   0.855   2.484 -1.7793  0.4526 -0.3489
 9179TIP3   OH227500   1.223   2.338   1.112  0.3516 -0.1541  0.4255
 9179TIP3    H127501   1.130   2.353   1.132  0.4434  0.8854  0.1275
 9179TIP3    H227502   1.236   2.381   1.028  0.2148 -3.5522 -1.5017
 9180TIP3   OH227503   1.904   2.202   5.405  0.5389  0.0609 -0.5707
 9180TIP3    H127504   1.811   2.197   5.425  0.1570 -0.2437 -2.2386
 9180TIP3    H227505   1.921   2.123   5.352  1.2218  1.1960 -2.1187
 9181TIP3   OH227506   0.142   2.131   1.988 -0.4818 -0.2491  0.1082
 9181TIP3    H127507   0.226   2.091   1.968  0.0015  0.6728  0.2601
 9181TIP3    H227508   0.085   2.105   1.916  0.0365 -0.5546 -0.1948
 9182TIP3   OH227509   1.420   1.318   0.429 -0.5721  0.0134  0.8136
 9182TIP3    H127510   1.453   1.334   0.340  1.8685 -2.0308  1.2165
 9182TIP3    H227511   1.448   1.394   0.479 -1.2731  0.8185  0.0091
 9183TIP3   OH227512   3.651   3.790   3.662 -0.0685 -0.0658  0.0123
 9183TIP3    H127513   3.693   3.705   3.672 -1.1718 -0.9689 -2.1669
 9183TIP3    H227514   3.657   3.809   3.568  0.3850  2.4372  0.4578
 9184TIP3   OH227515   1.712   2.142   5.868  0.6384 -0.2365 -0.0022
 9184TIP3    H127516   1.719   2.163   5.775 -0.2683 -1.4432 -0.3723
 9184TIP3    H227517   1.665   2.058   5.871 -0.4024  0.3437  1.5829
 9185TIP3   OH227518   1.338   4.354   3.453 -0.2121  0.2308 -0.4387
 9185TIP3    H127519   1.359   4.336   3.361  1.2545 -0.1372 -0.0592
 9185TIP3    H227520   1.422   4.377   3.492 -1.0208  1.6732  0.5435
 9186TIP3   OH227521   4.978   1.198   2.662 -0.0264  0.3805  0.0898
 9186TIP3    H127522   4.972   1.246   2.579 -0.7547 -1.1889 -0.8073
 9186TIP3    H227523   4.923   1.121   2.649 -0.0791  0.0520  2.0182
 9187TIP3   OH227524   5.226   1.774   5.477 -0.3303  0.0640 -0.5834
 9187TIP3    H127525   5.311   1.805   5.509  0.1268 -0.9307 -0.7911
 9187TIP3    H227526   5.248   1.707   5.413 -1.2797 -0.0245 -0.8221
 9188TIP3   OH227527   4.759   0.910   5.164 -0.1443 -0.1653 -0.2506
 9188TIP3    H127528   4.666   0.909   5.141 -0.5183 -0.8921  1.2166
 9188TIP3    H227529   4.780   0.819   5.181  1.2747 -0.2435 -2.0983
 9189TIP3   OH227530   7.117   1.753   2.962 -0.6089 -0.1879  0.2649
 9189TIP3    H127531   7.207   1.735   2.990 -0.3258  2.0424  0.9857
 9189TIP3    H227532   7.062   1.707   3.025 -0.0216 -2.2224 -0.6389
 9190TIP3   OH227533   3.933   2.515   0.079 -0.0890  0.2101  0.6038
 9190TIP3    H127534   4.022   2.547   0.073  0.1688 -0.5180  0.3844
 9190TIP3    H227535   3.936   2.428   0.039 -1.0911  0.5401 -0.2287
 9191TIP3   OH227536   1.110   4.177   4.149  0.3174  0.2815  0.6398
 9191TIP3    H127537   1.195   4.205   4.116  0.4692  1.2864  1.8258
 9191TIP3    H227538   1.127   4.148   4.239  0.1344 -3.5795 -0.4120
 9192TIP3   OH227539   3.359   4.650   3.526  0.0602  0.2178 -0.2788
 9192TIP3    H127540   3.378   4.561   3.557 -1.4519  0.0556  0.2774
 9192TIP3    H227541   3.418   4.663   3.452  0.5460 -1.1090 -0.1529
 9193TIP3   OH227542   1.225   2.181   5.695  0.0663  0.3623  0.0247
 9193TIP3    H127543   1.212   2.103   5.749  2.5804 -0.6208 -0.6203
 9193TIP3    H227544   1.203   2.152   5.606  0.8701  0.3861 -0.1954
 9194TIP3   OH227545   0.995   5.910   2.643  0.2994 -0.6918 -0.6235
 9194TIP3    H127546   1.017   5.883   2.554  1.2026 -2.6687  0.1474
 9194TIP3    H227547   1.006   6.005   2.642  0.1445 -0.6469 -2.6396
 9195TIP3   OH227548   5.026   3.023   3.664 -0.0381 -0.3363 -0.4339
 9195TIP3    H127549   5.006   2.933   3.640  2.6403 -1.0733 -0.1999
 9195TIP3    H227550   5.010   3.027   3.758  0.5278 -0.8065 -0.3097
 9196TIP3   OH227551   4.581   0.846   5.818 -0.0720 -0.3873 -0.2964
 9196TIP3    H127552   4.582   0.756   5.852  0.6083  0.1688  1.2467
 9196TIP3    H227553   4.607   0.900   5.893 -0.9739  1.1569 -1.0512
 9197TIP3   OH227554   1.669   3.672   1.278  0.3010 -0.1726  0.5535
 9197TIP3    H127555   1.720   3.657   1.198 -0.8721 -1.7568  0.0559
 9197TIP3    H227556   1.590   3.716   1.249  0.1554 -0.1751  0.9360
 9198TIP3   OH227557   4.647   5.391   5.295  0.3292 -0.5436 -0.2786
 9198TIP3    H127558   4.676   5.466   5.243  0.5051 -0.8102 -0.5624
 9198TIP3    H227559   4.715   5.325   5.283  1.2288 -0.0243  1.6175
 9199TIP3   OH227560   6.197   0.406   4.396  0.2371  0.1065  0.1731
 9199TIP3    H127561   6.109   0.393   4.432  0.7247 -0.1542  1.3120
 9199TIP3    H227562   6.221   0.494   4.424  0.5902 -0.0681  0.4257
 9200TIP3   OH227563   4.947   3.986   0.470 -0.1053  0.1593 -0.3733
 9200TIP3    H127564   4.962   3.987   0.375  0.8281 -0.2494 -0.2474
 9200TIP3    H227565   5.002   4.057   0.504 -1.0523  0.8352 -0.2020
 9201TIP3   OH227566   4.298   2.248   2.884  0.7132 -0.0256  0.0506
 9201TIP3    H127567   4.339   2.321   2.931  1.0787  0.4550 -0.9876
 9201TIP3    H227568   4.219   2.229   2.935 -0.3416  2.2603 -0.5649
 9202TIP3   OH227569   2.660   4.409   5.482 -0.2604  0.0396  0.3420
 9202TIP3    H127570   2.746   4.448   5.462 -0.7697  1.9265  1.5238
 9202TIP3    H227571   2.601   4.449   5.418 -0.2522 -1.4966 -0.6765
 9203TIP3   OH227572   5.622   6.721   1.721 -0.1830  0.0862 -0.0402
 9203TIP3    H127573   5.624   6.808   1.760 -1.8705  0.0673  0.1522
 9203TIP3    H227574   5.715   6.699   1.707  0.3719  1.1011  1.6723
 9204TIP3   OH227575   4.537   5.369   2.560  0.1592 -0.3494  0.1290
 9204TIP3    H127576   4.457   5.419   2.574 -0.6386  0.4794 -5.4558
 9204TIP3    H227577   4.606   5.435   2.552  0.4581 -0.6920 -0.1526
 9205TIP3   OH227578   5.724   3.011   5.617 -0.0387  0.0896 -0.2705
 9205TIP3    H127579   5.693   3.077   5.555 -0.2894  0.3081  0.0897
 9205TIP3    H227580   5.656   2.944   5.617  0.0522 -0.0037 -0.3745
 9206TIP3   OH227581   6.601   6.735   5.072  0.3480  0.5676  0.3751
 9206TIP3    H127582   6.662   6.677   5.116 -0.7207 -0.1589  0.9386
 9206TIP3    H227583   6.585   6.806   5.134 -1.9714 -0.9902  1.7057
 9207TIP3   OH227584   6.802   4.261   3.213 -0.0943  0.1391  0.2779
 9207TIP3    H127585   6.770   4.226   3.296 -1.5683 -2.2521 -1.1640
 9207TIP3    H227586   6.807   4.356   3.226  0.4215 -0.2035  3.2608
 9208TIP3   OH227587   0.371   6.388   1.196  0.0493  0.2900 -0.9976
 9208TIP3    H127588   0.376   6.309   1.142  0.5382  1.4818 -2.7772
 9208TIP3    H227589   0.283   6.423   1.180 -0.8967 -0.8538  1.2863
 9209TIP3   OH227590   1.120   0.170   2.231 -0.2090 -0.4127  0.6215
 9209TIP3    H127591   1.034   0.165   2.274  0.1234  1.4817  1.6122
 9209TIP3    H227592   1.114   0.246   2.174  0.6970 -0.5138  0.3761
 9210TIP3   OH227593   6.692   1.797   1.526  0.9686 -0.2375  0.2054
 9210TIP3    H127594   6.656   1.733   1.464  3.4199 -1.2650 -0.3066
 9210TIP3    H227595   6.615   1.840   1.564 -0.7634 -2.5063 -0.4665
 9211TIP3   OH227596   1.261   3.780   3.963  0.4801  0.0000 -0.3593
 9211TIP3    H127597   1.266   3.868   3.926 -0.9627  1.6887  2.9854
 9211TIP3    H227598   1.347   3.766   4.003 -0.3392  1.6411  2.2823
 9212TIP3   OH227599   1.069   1.770   5.214  0.3181  0.4698 -0.4872
 9212TIP3    H127600   0.993   1.739   5.165 -1.0647 -0.1288  1.8964
 9212TIP3    H227601   1.043   1.856   5.247  1.2503  0.9035 -0.8591
 9213TIP3   OH227602   1.211   0.112   5.845 -0.4073  0.5969  0.0438
 9213TIP3    H127603   1.270   0.174   5.887  0.2451  0.9712 -1.3678
 9213TIP3    H227604   1.236   0.027   5.881  1.3055  0.6978 -0.8419
 9214TIP3   OH227605   5.452   2.018   0.484  0.4214 -0.1917  0.1111
 9214TIP3    H127606   5.398   1.983   0.556 -1.6683  0.0247 -1.2548
 9214TIP3    H227607   5.525   2.062   0.527 -0.9491  0.2274  2.1255
 9215TIP3   OH227608   3.581   4.802   5.702  0.3187  0.1573  0.0908
 9215TIP3    H127609   3.578   4.851   5.620 -2.5231 -0.5805 -0.3387
 9215TIP3    H227610   3.617   4.865   5.765 -0.5891  1.8662 -1.0044
 9216TIP3   OH227611   6.873   3.466   1.674  0.0300  0.3440 -0.3494
 9216TIP3    H127612   6.836   3.534   1.618  2.3072  3.2122  1.3605
 9216TIP3    H227613   6.851   3.492   1.763  1.9376 -0.4835  0.4346
 9217TIP3   OH227614   3.410   2.685   1.589 -0.2427 -0.4838 -0.2506
 9217TIP3    H127615   3.380   2.765   1.631 -0.5863  0.4043 -2.0892
 9217TIP3    H227616   3.341   2.621   1.607 -0.7282  0.0714 -0.0991
 9218TIP3   OH227617   5.029   3.378   2.094 -0.2170 -0.5524  0.4158
 9218TIP3    H127618   5.121   3.372   2.067 -0.5207 -0.2753 -0.7076
 9218TIP3    H227619   5.024   3.322   2.172  0.8109 -0.8856  0.2649
 9219TIP3   OH227620   3.523   3.079   5.604  0.3560 -0.2364 -0.3536
 9219TIP3    H127621   3.571   3.128   5.670  0.1972  0.8682 -1.0316
 9219TIP3    H227622   3.432   3.104   5.617  0.3773  0.3472 -1.2743
 9220TIP3   OH227623   6.913   3.176   4.698  0.3555 -0.0920 -0.2610
 9220TIP3    H127624   6.938   3.268   4.705  0.2916 -0.0137 -1.0707
 9220TIP3    H227625   6.899   3.149   4.789 -0.7570  0.9986 -0.0763
 9221TIP3   OH227626   7.066   2.452   5.111  0.0824  0.3645 -0.0860
 9221TIP3    H127627   7.021   2.501   5.180 -0.6989 -0.2488 -0.1575
 9221TIP3    H227628   7.001   2.391   5.077  1.0959 -0.8959  0.1452
 9222TIP3   OH227629   0.537   2.366   0.430 -0.2259 -0.6081 -0.1062
 9222TIP3    H127630   0.475   2.379   0.502  0.7940  1.4430  0.4652
 9222TIP3    H227631   0.484   2.375   0.351 -1.2353 -2.2260  0.3251
 9223TIP3   OH227632   0.514   5.634   3.554 -0.6816 -0.1381  0.1240
 9223TIP3    H127633   0.460   5.713   3.565 -1.9731 -1.0031  0.1814
 9223TIP3    H227634   0.465   5.580   3.492  0.4187 -0.7112 -0.2750
 9224TIP3   OH227635   2.566   1.944   4.863  0.7321 -0.0826 -0.2350
 9224TIP3    H127636   2.553   2.005   4.936  1.4655  0.7097 -0.7450
 9224TIP3    H227637   2.479   1.933   4.825  0.0577 -1.5972  1.5696
 9225TIP3   OH227638   0.591   4.430   0.094 -0.0727 -0.2106  0.8284
 9225TIP3    H127639   0.533   4.427   0.018  1.4677 -1.6089 -0.3643
 9225TIP3    H227640   0.534   4.453   0.167 -2.0178 -0.9570 -0.3841
 9226TIP3   OH227641   3.323   3.342   1.828 -0.3443 -0.4961 -0.3216
 9226TIP3    H127642   3.273   3.396   1.767 -0.9656 -1.1661 -0.4128
 9226TIP3    H227643   3.406   3.327   1.782  0.0345  0.7573 -0.0945
 9227TIP3   OH227644   6.580   3.930   1.280 -0.4522 -0.0058  0.1518
 9227TIP3    H127645   6.647   3.957   1.343  0.2837 -0.7692 -0.2676
 9227TIP3    H227646   6.527   3.866   1.328  0.6454 -1.2540 -0.2280
 9228TIP3   OH227647   7.106   0.904   2.986 -0.4934  0.0405 -0.0155
 9228TIP3    H127648   7.091   0.848   3.062  0.7388 -3.1515 -1.9374
 9228TIP3    H227649   7.025   0.897   2.935 -0.1999 -0.3325 -0.4377
 9229TIP3   OH227650   0.905   0.490   1.043  0.1007  0.6168 -0.7644
 9229TIP3    H127651   0.900   0.420   1.109  2.5315  0.4540 -0.6733
 9229TIP3    H227652   0.858   0.455   0.967  0.6818 -0.8318 -0.4771
 9230TIP3   OH227653   3.267   2.730   3.771 -0.3748  0.2461  0.0300
 9230TIP3    H127654   3.255   2.657   3.710  0.2811 -1.8979  2.3071
 9230TIP3    H227655   3.184   2.734   3.819  0.0378  0.1816  0.7526
 9231TIP3   OH227656   4.920   6.001   2.099 -0.7672  0.0433 -0.0171
 9231TIP3    H127657   4.962   5.916   2.110 -1.5269 -0.2991  0.2872
 9231TIP3    H227658   4.989   6.057   2.063 -0.1707 -0.6117  0.0820
 9232TIP3   OH227659   7.091   0.331   4.974 -0.1157 -0.3509  0.1830
 9232TIP3    H127660   7.082   0.384   4.895  1.3816 -0.5421 -0.1438
 9232TIP3    H227661   7.009   0.282   4.980 -0.9572  0.9444 -0.2713
 9233TIP3   OH227662   1.383   3.236   0.058  0.3962  0.4183  0.0806
 9233TIP3    H127663   1.292   3.212   0.076  0.2347 -0.8259 -2.0676
 9233TIP3    H227664   1.382   3.270  -0.031  1.8097  1.9513  0.6033
 9234TIP3   OH227665   4.217   3.026   5.402 -0.5195  0.0875  0.1093
 9234TIP3    H127666   4.157   3.090   5.438  1.2441  0.8624  1.8316
 9234TIP3    H227667   4.243   2.972   5.476  0.5135 -0.5502 -0.6791
 9235TIP3   OH227668   6.127   6.023   0.552  0.3236  0.0903  0.1191
 9235TIP3    H127669   6.047   5.976   0.529 -0.0127  0.8198 -0.2407
 9235TIP3    H227670   6.138   6.007   0.646 -0.8384  0.8267  0.4123
 9236TIP3   OH227671   0.016   5.753   0.704  0.5351 -0.1874  0.1358
 9236TIP3    H127672   0.082   5.783   0.766  0.2168 -1.0349  0.9059
 9236TIP3    H227673   0.065   5.738   0.623  1.1658 -0.1533  0.5011
 9237TIP3   OH227674   6.091   4.064   3.818 -0.2106  0.2494 -0.1003
 9237TIP3    H127675   6.127   4.122   3.885 -1.7362  1.2251 -0.0809
 9237TIP3    H227676   5.997   4.061   3.837 -0.5423 -0.1338 -1.6844
 9238TIP3   OH227677   5.862   3.714   1.583 -0.0155 -0.5302 -0.1071
 9238TIP3    H127678   5.926   3.784   1.600 -0.2790  0.7878 -3.5970
 9238TIP3    H227679   5.905   3.658   1.518 -1.1180 -1.6529  0.1078
 9239TIP3   OH227680   0.740   6.681   4.048  0.3842  0.4039 -0.3693
 9239TIP3    H127681   0.700   6.704   3.965 -2.8049  1.4152  1.2776
 9239TIP3    H227682   0.798   6.755   4.067 -1.6271  2.0121 -0.1142
 9240TIP3   OH227683   4.403   2.868   0.708 -0.2706 -0.1276  0.3797
 9240TIP3    H127684   4.329   2.870   0.769  1.8932  0.2524  3.1828
 9240TIP3    H227685   4.455   2.793   0.735  0.3800 -0.4517 -1.5942
 9241TIP3   OH227686   5.409   5.546   2.980 -0.3412 -0.0944 -0.4695
 9241TIP3    H127687   5.404   5.633   2.940 -2.8812 -0.6355 -1.5426
 9241TIP3    H227688   5.322   5.531   3.016  0.0535 -2.1810 -0.2412
 9242TIP3   OH227689   5.576   6.307   0.066  0.0330  0.4269 -0.8967
 9242TIP3    H127690   5.620   6.392   0.073  0.7367  0.0279 -0.1850
 9242TIP3    H227691   5.522   6.301   0.145 -0.2779  0.3610 -1.1143
 9243TIP3   OH227692   5.700   2.003   5.558  0.3694 -0.6869  0.3977
 9243TIP3    H127693   5.730   1.989   5.647  0.7403 -2.6805  0.0081
 9243TIP3    H227694   5.767   2.059   5.518  1.0314 -1.0787  0.9384
 9244TIP3   OH227695   3.369   0.651   2.365  0.1048  0.2799 -0.2396
 9244TIP3    H127696   3.419   0.578   2.401  0.9003  0.4469 -0.9650
 9244TIP3    H227697   3.431   0.725   2.368  0.5184  0.1085 -2.7016
 9245TIP3   OH227698   2.821   0.649   0.819 -0.5611 -0.1013 -0.0421
 9245TIP3    H127699   2.896   0.611   0.773  0.1725  0.3060  0.7869
 9245TIP3    H227700   2.841   0.743   0.824 -1.6842  0.2042 -0.8365
 9246TIP3   OH227701   0.884   6.688   1.632  0.1005  0.9979 -0.0553
 9246TIP3    H127702   0.974   6.685   1.599 -0.2206  0.7053 -0.9264
 9246TIP3    H227703   0.836   6.625   1.578 -0.8128  1.7630 -0.1777
 9247TIP3   OH227704   0.942   0.199   5.329  0.3391  0.0198 -0.2541
 9247TIP3    H127705   0.863   0.250   5.346 -0.1270  0.1092 -2.4029
 9247TIP3    H227706   0.917   0.140   5.258  1.1892 -2.4870  1.3898
 9248TIP3   OH227707   6.898   4.432   2.574  0.3394 -0.4368  0.3047
 9248TIP3    H127708   6.829   4.381   2.532 -0.6201  1.1593 -0.1492
 9248TIP3    H227709   6.939   4.371   2.635 -0.9439 -1.6524  0.0030
 9249TIP3   OH227710   2.509   1.454   0.459  0.1171 -0.1921  0.0128
 9249TIP3    H127711   2.589   1.491   0.422 -0.2522  0.6722  0.0476
 9249TIP3    H227712   2.438   1.494   0.408 -0.2930 -1.1253 -0.1779
 9250TIP3   OH227713   3.195   3.122   3.076 -0.0506  0.3056 -0.2328
 9250TIP3    H127714   3.183   3.155   3.165  1.5900 -0.9228  0.4709
 9250TIP3    H227715   3.261   3.179   3.038  1.1945 -0.7539  0.2621
 9251TIP3   OH227716   2.692   1.295   0.163  0.1819  0.7954 -0.0744
 9251TIP3    H127717   2.745   1.216   0.153  1.1235  1.2786  0.8429
 9251TIP3    H227718   2.749   1.356   0.210 -0.8481  1.6958  0.0464
 9252TIP3   OH227719   4.807   2.785   0.655  0.2174  0.2304 -0.8367
 9252TIP3    H127720   4.871   2.714   0.662 -0.5509 -0.3323  1.0388
 9252TIP3    H227721   4.724   2.740   0.638 -0.2142  0.6987 -0.0073
 9253TIP3   OH227722   4.626   4.805   2.032 -0.3336  0.5583 -0.0210
 9253TIP3    H127723   4.584   4.875   1.982 -0.1448 -0.2266 -1.3427
 9253TIP3    H227724   4.717   4.805   2.000 -0.0915  0.3341  0.6625
 9254TIP3   OH227725   1.859   2.691   2.653 -0.5334 -0.2971  0.0155
 9254TIP3    H127726   1.911   2.618   2.687  0.0791  0.2937  0.3662
 9254TIP3    H227727   1.797   2.711   2.723  0.9574  1.1486  0.9835
 9255TIP3   OH227728   2.203   1.642   2.857  0.4496 -0.0606  0.2415
 9255TIP3    H127729   2.295   1.647   2.885  0.6726 -1.4219 -0.1496
 9255TIP3    H227730   2.177   1.733   2.844  2.6730  0.3131 -2.6097
 9256TIP3   OH227731   3.021   0.992   3.074 -0.3358 -0.1975 -0.3095
 9256TIP3    H127732   2.956   1.033   3.018 -1.3239 -1.3212 -0.0129
 9256TIP3    H227733   2.970   0.944   3.139  0.7467  1.2906  1.7659
 9257TIP3   OH227734   3.991   6.629   3.526  0.2169 -0.3695 -0.3686
 9257TIP3    H127735   3.957   6.540   3.514 -0.0408 -0.1159 -1.6992
 9257TIP3    H227736   4.049   6.622   3.602  0.2015 -1.6752 -0.4445
 9258TIP3   OH227737   1.945   3.171   0.264  0.2440 -0.4092 -0.2484
 9258TIP3    H127738   1.905   3.204   0.345 -2.3532  1.8963 -2.2532
 9258TIP3    H227739   2.003   3.242   0.236  0.2570 -0.7037 -0.9812
 9259TIP3   OH227740   3.665   6.229   3.032  0.0703  0.1253  0.0194
 9259TIP3    H127741   3.623   6.270   2.957 -1.0052  0.6864  0.9041
 9259TIP3    H227742   3.594   6.213   3.095  0.7410 -1.4442  0.4457
 9260TIP3   OH227743   4.390   6.202   3.315 -0.6409  0.1551 -0.1287
 9260TIP3    H127744   4.344   6.139   3.371  0.5923 -0.7724 -0.1187
 9260TIP3    H227745   4.409   6.275   3.373 -2.1557  0.6156 -0.1536
 9261TIP3   OH227746   4.405   1.270   4.755  0.4445  0.2338 -0.6726
 9261TIP3    H127747   4.427   1.363   4.761  0.2159  0.2138  0.9106
 9261TIP3    H227748   4.342   1.265   4.683  0.7949  1.2339 -1.0609
 9262TIP3   OH227749   0.634   1.602   2.231  0.0658 -0.1504  0.5811
 9262TIP3    H127750   0.667   1.524   2.188  0.2788 -0.3271  1.0606
 9262TIP3    H227751   0.589   1.570   2.309 -1.3957  0.0738 -0.1488
 9263TIP3   OH227752   1.669   2.989   5.149  0.0309 -0.0669  0.2044
 9263TIP3    H127753   1.606   2.988   5.077  1.1369 -0.4336 -0.7973
 9263TIP3    H227754   1.694   3.081   5.158  2.7494 -0.3933 -2.5435
 9264TIP3   OH227755   5.057   2.066   4.854  0.3098  0.0721 -0.1976
 9264TIP3    H127756   5.103   2.148   4.837 -0.2073  0.2161 -0.9475
 9264TIP3    H227757   4.990   2.089   4.919 -1.2518  0.7794 -1.9390
 9265TIP3   OH227758   4.910   5.229   5.747  0.2820 -0.3457 -0.1864
 9265TIP3    H127759   4.939   5.313   5.711 -0.5337  0.0159 -0.0193
 9265TIP3    H227760   4.832   5.207   5.697  0.8818 -1.3595 -0.7055
 9266TIP3   OH227761   3.101   6.310   5.075 -0.5665  0.1762 -0.4056
 9266TIP3    H127762   3.139   6.312   4.987  1.2505  0.0482  0.3245
 9266TIP3    H227763   3.099   6.217   5.098 -1.5220  0.1645 -0.4804
 9267TIP3   OH227764   4.097   3.529   5.491 -0.7113 -0.2247  0.6138
 9267TIP3    H127765   4.119   3.506   5.581  1.4196  0.4136  0.3147
 9267TIP3    H227766   4.145   3.465   5.438 -0.5042  0.4999 -0.0946
 9268TIP3   OH227767   3.032   2.917   0.538  0.2719 -0.4962 -0.1944
 9268TIP3    H127768   3.071   2.888   0.620  0.5698 -1.5557 -0.6925
 9268TIP3    H227769   3.043   3.012   0.539  0.1863 -0.4829  1.0264
 9269TIP3   OH227770   0.639   4.993   0.408  0.2566  0.0853 -0.4024
 9269TIP3    H127771   0.640   4.984   0.503 -0.5923 -2.1160 -0.5476
 9269TIP3    H227772   0.547   5.003   0.385  0.2823 -1.0768 -1.0944
 9270TIP3   OH227773   5.561   5.534   0.937 -0.4769  0.0592  0.4427
 9270TIP3    H127774   5.531   5.613   0.892  0.0085  1.1067  1.8941
 9270TIP3    H227775   5.524   5.541   1.025 -0.9819 -1.6890  0.3981
 9271TIP3   OH227776   2.295   3.542   1.800 -0.4712  0.6691  0.6727
 9271TIP3    H127777   2.258   3.453   1.798 -1.6318  1.1274  0.9256
 9271TIP3    H227778   2.343   3.546   1.883 -0.0400  0.1454  0.4578
 9272TIP3   OH227779   0.668   6.267   4.560 -0.1569 -0.0691  0.0021
 9272TIP3    H127780   0.706   6.273   4.648 -0.0497  1.2714 -0.1054
 9272TIP3    H227781   0.723   6.205   4.514 -0.9245 -1.7425  1.2100
 9273TIP3   OH227782   0.134   0.616   3.311  0.3690  0.2436  0.1235
 9273TIP3    H127783   0.214   0.572   3.340  0.3220 -0.6210 -1.0140
 9273TIP3    H227784   0.128   0.693   3.367  1.0855 -0.5683  1.3672
 9274TIP3   OH227785   6.522   3.429   4.057 -0.1814 -0.1268  0.2009
 9274TIP3    H127786   6.593   3.483   4.022 -0.0822 -0.9756 -0.9243
 9274TIP3    H227787   6.566   3.354   4.096 -0.4221 -0.2345  0.2622
 9275TIP3   OH227788   3.176   1.615   0.647 -0.0679 -0.3523 -0.1937
 9275TIP3    H127789   3.091   1.637   0.684  0.0225 -1.5196  0.8024
 9275TIP3    H227790   3.158   1.544   0.586  0.1789 -0.6276  0.0479
 9276TIP3   OH227791   5.932   1.478   1.552 -0.0222  0.5380  0.0568
 9276TIP3    H127792   5.905   1.568   1.568 -1.5366  0.1601 -0.2210
 9276TIP3    H227793   5.872   1.425   1.605  0.6030 -0.3313 -0.0777
 9277TIP3   OH227794   4.984   5.066   0.710  0.3952  0.2984  0.6692
 9277TIP3    H127795   5.001   5.006   0.783  4.0440  0.1523 -0.0880
 9277TIP3    H227796   4.917   5.021   0.658  2.1988 -2.7362  0.6896
 9278TIP3   OH227797   0.842   5.058   1.721 -0.2811  0.4860  0.2429
 9278TIP3    H127798   0.926   5.051   1.676 -0.1712 -1.5386  0.6550
 9278TIP3    H227799   0.839   4.981   1.778 -1.9419  1.1082  1.0637
 9279TIP3   OH227800   2.100   2.777   4.368  0.4114 -0.7111 -0.2465
 9279TIP3    H127801   2.074   2.852   4.421 -2.2861 -1.0053 -1.0324
 9279TIP3    H227802   2.179   2.806   4.322 -0.1445  1.3733  0.0325
 9280TIP3   OH227803   5.240   6.093   3.572 -0.0974 -0.3444  0.1091
 9280TIP3    H127804   5.300   6.050   3.511  1.4303  0.7896  0.7546
 9280TIP3    H227805   5.214   6.024   3.633  0.1178 -0.9724 -0.4956
 9281TIP3   OH227806   0.231   4.574   1.291 -0.1637  0.0582  0.0678
 9281TIP3    H127807   0.256   4.535   1.375 -1.5627 -0.4161  0.2826
 9281TIP3    H227808   0.229   4.668   1.308  3.1779  0.3475 -0.4399
 9282TIP3   OH227809   1.854   3.104   1.506 -0.2147  0.1053  0.1239
 9282TIP3    H127810   1.931   3.049   1.522  0.0425  0.0852 -1.0883
 9282TIP3    H227811   1.816   3.068   1.426 -1.8255 -0.2384  1.0027
 9283TIP3   OH227812   6.226   2.667   1.785 -0.3240 -0.0523  0.2009
 9283TIP3    H127813   6.287   2.627   1.722 -1.0009  0.8019 -1.0396
 9283TIP3    H227814   6.253   2.758   1.791 -0.8388  0.0908  0.4405
 9284TIP3   OH227815   6.876   3.316   5.198 -0.7463 -0.3468  0.3575
 9284TIP3    H127816   6.950   3.259   5.222  0.5278  1.0043 -0.2431
 9284TIP3    H227817   6.856   3.363   5.279  1.1134  1.5058 -0.1835
 9285TIP3   OH227818   0.461   5.202   2.594 -0.4618 -0.1020  0.0864
 9285TIP3    H127819   0.485   5.243   2.677 -0.0923  0.1031 -0.1211
 9285TIP3    H227820   0.382   5.250   2.566 -0.3888  0.0538  0.1482
 9286TIP3   OH227821   3.763   2.097   1.387 -0.2027  0.1094  0.0960
 9286TIP3    H127822   3.698   2.048   1.436 -2.1625  1.9391 -0.4987
 9286TIP3    H227823   3.818   2.031   1.346 -2.6767 -1.6142 -0.6707
 9287TIP3   OH227824   5.892   3.119   0.814  0.2274  0.1767 -0.8873
 9287TIP3    H127825   5.916   3.030   0.841  1.2534  0.1812 -1.7351
 9287TIP3    H227826   5.879   3.113   0.719 -2.0295  0.4456 -0.6495
 9288TIP3   OH227827   3.343   0.522   0.957 -0.5121 -0.1347 -0.0101
 9288TIP3    H127828   3.337   0.552   0.866 -1.1946  0.1747  0.1317
 9288TIP3    H227829   3.437   0.527   0.978 -0.5013  0.9944 -0.2897
 9289TIP3   OH227830   1.450   6.626   0.035  0.2748  0.1863 -0.0802
 9289TIP3    H127831   1.474   6.603   0.125  0.1295 -0.5611 -0.2280
 9289TIP3    H227832   1.434   6.542  -0.008 -1.3850  0.5868 -0.3330
 9290TIP3   OH227833   1.570   3.699   5.262 -0.0738 -0.0227  0.0435
 9290TIP3    H127834   1.619   3.691   5.344  0.3599  0.8530 -0.1165
 9290TIP3    H227835   1.478   3.706   5.290  0.0831  0.4054  0.4750
 9291TIP3   OH227836   4.646   4.198   2.446 -0.5771  0.4301 -0.0914
 9291TIP3    H127837   4.561   4.189   2.402 -2.3211  1.8400  2.7182
 9291TIP3    H227838   4.654   4.119   2.500  1.1974 -0.9280 -2.1687
 9292TIP3   OH227839   0.994   4.727   0.937 -0.2144 -0.2145 -0.2455
 9292TIP3    H127840   0.963   4.763   1.020  1.2283  0.0748  0.2010
 9292TIP3    H227841   0.960   4.638   0.934  0.8551 -0.6952  1.3132
 9293TIP3   OH227842   2.234   5.095   3.407 -0.2392  0.6627  0.3270
 9293TIP3    H127843   2.271   5.158   3.469 -0.6452  1.2999 -0.0657
 9293TIP3    H227844   2.154   5.065   3.449 -0.1007  0.4897  0.4671
 9294TIP3   OH227845   2.405   3.795   2.129 -0.0990  0.1510  0.4784
 9294TIP3    H127846   2.394   3.889   2.136 -1.0082  0.0867 -0.0153
 9294TIP3    H227847   2.383   3.774   2.038  0.6274 -0.4744  0.4274
 9295TIP3   OH227848   4.167   3.751   4.380 -0.3196  0.0048 -0.3083
 9295TIP3    H127849   4.091   3.717   4.428 -0.9191 -0.6075 -1.6360
 9295TIP3    H227850   4.144   3.842   4.360  0.2148  0.4797  1.0686
 9296TIP3   OH227851   4.156   5.469   2.348  0.1300  0.6019 -0.5035
 9296TIP3    H127852   4.109   5.397   2.391  0.7274 -0.7116 -1.9574
 9296TIP3    H227853   4.187   5.431   2.266  1.0620  2.3466 -0.9919
 9297TIP3   OH227854   5.413   2.978   0.645  0.6328 -0.2836  0.9606
 9297TIP3    H127855   5.477   2.920   0.684  1.4563 -0.6272 -0.7892
 9297TIP3    H227856   5.465   3.045   0.601 -0.1406 -0.8166 -0.8691
 9298TIP3   OH227857   4.079   1.423   4.298  0.0136  0.3793  0.1337
 9298TIP3    H127858   4.169   1.400   4.272  0.3168 -0.7410  1.9813
 9298TIP3    H227859   4.025   1.359   4.252  0.2049  0.6568 -0.4918
 9299TIP3   OH227860   2.049   5.261   5.123  0.1490 -0.2337 -0.5089
 9299TIP3    H127861   2.136   5.300   5.114  0.1974  0.0305  0.8888
 9299TIP3    H227862   1.989   5.334   5.105  0.2087 -0.2674 -0.8627
 9300TIP3   OH227863   3.573   4.507   4.423  0.2905 -0.1805  0.1556
 9300TIP3    H127864   3.552   4.583   4.477  0.0761  0.0100 -0.1880
 9300TIP3    H227865   3.585   4.543   4.335  0.5136 -0.5006  0.0534
 9301TIP3   OH227866   6.414   3.171   5.506  0.1848  0.0187 -0.0962
 9301TIP3    H127867   6.379   3.152   5.419 -2.0097 -1.4368  1.0156
 9301TIP3    H227868   6.503   3.135   5.504  0.7554  1.3109 -2.1217
 9302TIP3   OH227869   0.713   2.952   3.900  0.1134  0.4585  0.5004
 9302TIP3    H127870   0.759   2.887   3.848  1.6760  0.8000  1.3824
 9302TIP3    H227871   0.731   2.927   3.991 -2.0577  0.2085  0.9077
 9303TIP3   OH227872   4.163   6.274   2.134 -0.1250 -0.2798  0.3800
 9303TIP3    H127873   4.172   6.276   2.038 -0.6947 -1.8683  0.2611
 9303TIP3    H227874   4.076   6.237   2.148  0.7293 -1.9542  1.5196
 9304TIP3   OH227875   3.048   5.385   3.382  0.3711  0.3658 -0.4576
 9304TIP3    H127876   2.966   5.430   3.360 -0.6933 -0.1712  2.0417
 9304TIP3    H227877   3.048   5.308   3.326 -0.2832  0.9233 -1.2600
 9305TIP3   OH227878   6.370   6.493   5.778 -0.0184 -0.1925  0.1286
 9305TIP3    H127879   6.384   6.398   5.772 -1.5309 -0.4366  0.0099
 9305TIP3    H227880   6.442   6.531   5.729  0.3113 -1.3141 -0.2865
 9306TIP3   OH227881   0.503   6.045   4.816 -0.0937 -0.2737 -0.1372
 9306TIP3    H127882   0.575   6.008   4.763 -1.5613 -1.1498 -1.6099
 9306TIP3    H227883   0.496   6.135   4.785 -0.0625 -0.3857 -0.4803
 9307TIP3   OH227884   1.204   6.000   5.823 -0.0854  0.6367  0.3817
 9307TIP3    H127885   1.193   6.024   5.916 -0.0664  1.4384  0.1909
 9307TIP3    H227886   1.225   5.907   5.824  1.4580  0.9472  1.2989
 9308TIP3   OH227887   4.238   1.461   0.257  0.3691 -0.3259 -0.1393
 9308TIP3    H127888   4.260   1.529   0.321  1.0475 -0.8880  0.2303
 9308TIP3    H227889   4.201   1.390   0.309 -1.4870  0.2070 -0.6441
 9309TIP3   OH227890   0.567   1.126   4.002  0.2275  0.0193 -0.2854
 9309TIP3    H127891   0.541   1.200   4.058 -1.2925  0.0547 -0.9924
 9309TIP3    H227892   0.652   1.153   3.966  0.6540  0.5247  1.0173
 9310TIP3   OH227893   0.664   5.781   3.771  0.0307 -0.2745 -0.2681
 9310TIP3    H127894   0.641   5.769   3.679 -0.4411 -1.5262 -0.0065
 9310TIP3    H227895   0.706   5.699   3.796 -2.0109 -0.9586  1.2394
 9311TIP3   OH227896   3.053   5.647   4.356 -0.2523  0.0624 -0.0690
 9311TIP3    H127897   3.018   5.734   4.372  2.5086  1.3581 -0.4304
 9311TIP3    H227898   3.044   5.633   4.262  1.8467  1.2969 -0.5344
 9312TIP3   OH227899   1.880   4.573   0.817  0.4338 -0.3436  0.1389
 9312TIP3    H127900   1.919   4.658   0.836 -0.5429 -0.1265  1.2891
 9312TIP3    H227901   1.955   4.515   0.801  1.1205  0.6217 -0.2168
 9313TIP3   OH227902   2.944   2.346   5.850  0.3131  0.0576 -0.1079
 9313TIP3    H127903   2.964   2.435   5.877 -2.0736  1.0142 -1.1795
 9313TIP3    H227904   3.000   2.330   5.775  0.9554  0.5332  0.2643
 9314TIP3   OH227905   5.822   5.322   2.537 -0.1789 -0.0794  0.1012
 9314TIP3    H127906   5.753   5.266   2.500  0.5046  0.8027 -2.6978
 9314TIP3    H227907   5.779   5.406   2.552  0.1930  0.3810 -1.3559
 9315TIP3   OH227908   1.132   6.533   5.385 -0.3851  0.2330 -0.5046
 9315TIP3    H127909   1.204   6.583   5.347 -0.4575 -0.5772 -1.7539
 9315TIP3    H227910   1.113   6.578   5.467 -0.8524  2.6331 -1.8485
 9316TIP3   OH227911   6.805   1.479   5.070  0.0799 -0.1588  0.2130
 9316TIP3    H127912   6.867   1.419   5.111  0.4701  0.3527  0.3725
 9316TIP3    H227913   6.725   1.468   5.121  0.9149  1.4122  1.9939
 9317TIP3   OH227914   6.271   4.306   2.864 -0.7843  0.6600  0.5809
 9317TIP3    H127915   6.341   4.369   2.877  0.0934  0.4115 -2.4000
 9317TIP3    H227916   6.247   4.314   2.772 -3.2254 -0.7842  0.9900
 9318TIP3   OH227917   2.702   5.166   0.333 -0.0646 -0.3026 -0.1282
 9318TIP3    H127918   2.698   5.261   0.332  0.0420 -0.2921 -1.1361
 9318TIP3    H227919   2.610   5.138   0.330 -0.2173 -0.2728  2.4384
 9319TIP3   OH227920   4.698   1.233   2.861 -0.1614  0.1973 -0.3633
 9319TIP3    H127921   4.748   1.160   2.897  0.1944  1.0982  1.0786
 9319TIP3    H227922   4.731   1.244   2.772  0.2890 -0.9304 -0.3398
 9320TIP3   OH227923   0.709   2.998   5.274 -0.2286 -0.2330 -0.2957
 9320TIP3    H127924   0.733   3.077   5.324  1.2862 -1.2501  0.6596
 9320TIP3    H227925   0.631   3.024   5.224 -0.1035  1.6878  0.4295
 9321TIP3   OH227926   6.455   2.090   0.213  0.0352 -0.8506 -0.2558
 9321TIP3    H127927   6.400   2.014   0.230 -0.0954 -1.0809 -1.6107
 9321TIP3    H227928   6.530   2.079   0.271 -0.0299 -1.9751 -0.3593
 9322TIP3   OH227929   1.220   3.683   2.036  0.3922  0.5055  0.4945
 9322TIP3    H127930   1.175   3.645   1.961  0.4232 -0.7951  1.1032
 9322TIP3    H227931   1.169   3.653   2.112  0.9478  0.9377  1.0498
 9323TIP3   OH227932   4.464   0.873   1.098 -0.1473  0.3189  0.1506
 9323TIP3    H127933   4.528   0.816   1.140  0.6731  0.3558 -1.0052
 9323TIP3    H227934   4.400   0.813   1.060 -1.0650  0.2906  1.6393
 9324TIP3   OH227935   0.610   3.117   1.392  0.1601 -0.3985  0.0607
 9324TIP3    H127936   0.692   3.148   1.352  1.8212 -1.2439  2.5344
 9324TIP3    H227937   0.632   3.031   1.428 -1.6812 -0.4451  1.2262
 9325TIP3   OH227938   3.908   6.166   4.194  0.5332 -0.3806  0.4159
 9325TIP3    H127939   3.835   6.105   4.180 -1.0233  1.8530 -2.2533
 9325TIP3    H227940   3.885   6.212   4.275 -0.6987 -0.2058 -0.0116
 9326TIP3   OH227941   7.094   6.739   5.046 -0.8687 -0.4129  0.2326
 9326TIP3    H127942   7.161   6.700   4.990 -0.7123  0.4216 -0.1671
 9326TIP3    H227943   7.064   6.666   5.101  0.4476 -0.7724  0.5106
 9327TIP3   OH227944   2.600   4.517   3.390 -0.0406  0.1765  0.3338
 9327TIP3    H127945   2.583   4.422   3.390 -0.0934  0.1337 -1.4909
 9327TIP3    H227946   2.688   4.525   3.424 -0.2434 -0.4759  1.0518
 9328TIP3   OH227947   0.544   5.074   3.653  0.4014  0.0567  0.6371
 9328TIP3    H127948   0.639   5.086   3.659  0.5840 -0.1473 -1.2714
 9328TIP3    H227949   0.512   5.154   3.612  0.0998 -0.8707 -1.0294
 9329TIP3   OH227950   3.250   3.551   2.703 -0.5990  0.0544 -0.5850
 9329TIP3    H127951   3.273   3.569   2.794 -0.5826 -0.2492 -0.5279
 9329TIP3    H227952   3.325   3.583   2.653 -0.6067  0.2188 -0.4947
 9330TIP3   OH227953   4.641   3.498   4.641  0.1700  0.4504 -0.4212
 9330TIP3    H127954   4.588   3.514   4.719  0.6365 -3.1151  0.8145
 9330TIP3    H227955   4.729   3.483   4.674  1.1855  2.2596 -2.0710
 9331TIP3   OH227956   1.805   1.564   5.654 -0.0384  0.5642 -0.1005
 9331TIP3    H127957   1.856   1.503   5.708  1.6449  2.1952  0.2460
 9331TIP3    H227958   1.861   1.581   5.578 -1.7981 -0.6418 -1.7604
 9332TIP3   OH227959   0.990   0.801   3.800 -0.4321 -0.1782  0.1960
 9332TIP3    H127960   0.992   0.748   3.721 -0.8397  0.1291 -0.0230
 9332TIP3    H227961   0.912   0.772   3.847 -0.4823  0.0067  0.2286
 9333TIP3   OH227962   6.056   5.434   4.853 -0.6514 -0.2044  0.3875
 9333TIP3    H127963   6.037   5.356   4.800 -0.8999 -0.6669  1.1493
 9333TIP3    H227964   6.133   5.472   4.811 -0.4366 -0.9384  0.0902
 9334TIP3   OH227965   0.606   4.645   2.812 -0.4474  0.4984  0.1608
 9334TIP3    H127966   0.536   4.587   2.838  0.4025 -0.2419  0.8563
 9334TIP3    H227967   0.666   4.646   2.886 -2.1485  5.2087  1.8971
 9335TIP3   OH227968   0.251   1.208   3.480  0.3363  1.1826  0.3023
 9335TIP3    H127969   0.286   1.251   3.558  1.4325 -0.7268  0.9193
 9335TIP3    H227970   0.304   1.243   3.408  0.4731  1.6508  0.6235
 9336TIP3   OH227971   2.563   0.175   2.546  0.1888 -0.1235 -0.0935
 9336TIP3    H127972   2.582   0.206   2.634  1.7673  0.5986 -0.6659
 9336TIP3    H227973   2.607   0.090   2.541  0.5479  0.0744 -0.3475
 9337TIP3   OH227974   4.990   3.668   1.711 -0.0289 -0.5026 -0.2312
 9337TIP3    H127975   5.078   3.694   1.684  0.0855 -1.1662 -0.5010
 9337TIP3    H227976   4.990   3.678   1.806  0.7756 -1.7994 -0.0812
 9338TIP3   OH227977   6.083   1.795   1.490 -0.3230  0.2377  0.4333
 9338TIP3    H127978   5.997   1.799   1.449  0.1794  0.0556 -0.6834
 9338TIP3    H227979   6.074   1.848   1.570 -0.8165  2.3398 -0.9145
 9339TIP3   OH227980   2.882   2.427   1.468 -0.6232  0.0444 -0.7002
 9339TIP3    H127981   2.811   2.368   1.443 -1.9466  0.9086  0.7749
 9339TIP3    H227982   2.838   2.495   1.519  1.3845  0.1382  1.0248
 9340TIP3   OH227983   4.751   0.893   3.189  0.1486  0.1024 -0.1585
 9340TIP3    H127984   4.680   0.911   3.127 -1.2257 -0.7444  1.1023
 9340TIP3    H227985   4.723   0.934   3.270  1.4194  0.3009  0.1957
 9341TIP3   OH227986   5.250   1.047   0.770  0.1823 -0.3740 -0.3837
 9341TIP3    H127987   5.343   1.061   0.751 -0.2625 -0.8521 -3.4190
 9341TIP3    H227988   5.213   1.135   0.772  0.5400 -0.2263 -0.0072
 9342TIP3   OH227989   6.297   2.332   2.816 -0.1606 -0.1170 -0.0962
 9342TIP3    H127990   6.312   2.277   2.739  1.0412 -1.0388  0.7632
 9342TIP3    H227991   6.349   2.411   2.800  0.7281 -0.6515  0.1147
 9343TIP3   OH227992   4.422   4.479   0.613 -0.2134  0.0384  0.6223
 9343TIP3    H127993   4.444   4.573   0.614  1.2568 -0.2777  1.9330
 9343TIP3    H227994   4.457   4.447   0.531  1.3309  0.2295  1.1751
 9344TIP3   OH227995   0.253   3.463   3.987 -0.1815 -0.0240 -0.2254
 9344TIP3    H127996   0.324   3.417   4.031  1.2056  2.6513  0.5246
 9344TIP3    H227997   0.264   3.442   3.894  0.8183 -0.6007  0.0144
 9345TIP3   OH227998   0.116   2.561   4.035  0.7227 -0.5811 -0.0150
 9345TIP3    H127999   0.041   2.501   4.043  1.2897 -1.3957 -0.7151
 9345TIP3    H228000   0.152   2.544   3.948  0.8005  0.9127 -0.2957
 9346TIP3   OH228001   3.606   3.101   3.145 -0.2696  0.5331  0.2632
 9346TIP3    H128002   3.648   3.064   3.222  0.2031  0.0858 -0.2066
 9346TIP3    H228003   3.516   3.070   3.149 -0.3412  0.7931  0.8123
 9347TIP3   OH228004   1.375   5.111   5.607  0.2021 -0.1002 -0.3019
 9347TIP3    H128005   1.368   5.085   5.515 -0.2431  1.0563 -0.6026
 9347TIP3    H228006   1.418   5.036   5.649 -1.6163 -1.6025 -0.9975
 9348TIP3   OH228007   2.769   3.005   5.154 -0.1758  0.2507  0.4202
 9348TIP3    H128008   2.762   2.982   5.062  0.7612 -0.6183  0.5554
 9348TIP3    H228009   2.796   2.924   5.197  2.3983  1.3507  1.0394
 9349TIP3   OH228010   2.807   0.679   3.689  0.2745  0.3499 -0.2296
 9349TIP3    H128011   2.769   0.593   3.709 -0.0588  0.5432 -0.0276
 9349TIP3    H228012   2.735   0.728   3.649  0.1773  0.8673  0.5511
 9350TIP3   OH228013   1.372   1.937   2.455 -0.2839  0.3947 -0.0695
 9350TIP3    H128014   1.294   1.925   2.509  0.1788 -1.0159  0.3270
 9350TIP3    H228015   1.437   1.974   2.515 -0.6981  1.8246 -0.4645
 9351TIP3   OH228016   4.763   4.831   4.354 -0.1592 -0.0465  0.4306
 9351TIP3    H128017   4.851   4.856   4.383 -0.3592  0.8562  0.3149
 9351TIP3    H228018   4.705   4.893   4.399 -0.7125 -0.4745  0.3156
 9352TIP3   OH228019   0.369   2.747   1.214  0.1174 -0.0583  0.2469
 9352TIP3    H128020   0.329   2.771   1.298  0.4106 -2.6448  1.2134
 9352TIP3    H228021   0.462   2.765   1.226 -0.0366  1.2088 -0.2123
 9353TIP3   OH228022   6.358   4.304   1.806 -0.1327 -0.1200 -0.0033
 9353TIP3    H128023   6.403   4.225   1.777  1.1496  0.9632 -1.1008
 9353TIP3    H228024   6.336   4.286   1.898 -0.5016 -1.9871 -0.4070
 9354TIP3   OH228025   4.084   4.494   4.955  0.2442  0.0999  0.0506
 9354TIP3    H128026   4.063   4.419   5.012  1.0037  0.4543  0.8209
 9354TIP3    H228027   4.072   4.460   4.866  0.4466 -0.9063  0.3871
 9355TIP3   OH228028   6.566   1.164   2.826  0.0573  0.2652  0.0921
 9355TIP3    H128029   6.542   1.249   2.788 -0.0220  0.2985  0.2198
 9355TIP3    H228030   6.525   1.100   2.769  0.2364  0.3090 -0.0895
 9356TIP3   OH228031   5.664   4.306   3.602  0.2557 -0.2171  0.3999
 9356TIP3    H128032   5.691   4.397   3.599  0.0881 -0.1728  0.2408
 9356TIP3    H228033   5.745   4.257   3.617  0.1524  0.0719  2.1707
 9357TIP3   OH228034   1.644   3.510   2.404  0.1604  0.4649 -0.7653
 9357TIP3    H128035   1.566   3.541   2.358 -1.1712 -1.1011  0.3375
 9357TIP3    H228036   1.615   3.435   2.454  3.1078 -2.5540 -3.0717
 9358TIP3   OH228037   3.401   0.739   1.909 -0.1545  0.3893 -0.1516
 9358TIP3    H128038   3.451   0.666   1.871  0.4816  1.0154 -0.5409
 9358TIP3    H228039   3.359   0.781   1.834  0.1845  0.9471 -0.0318
 9359TIP3   OH228040   3.071   6.287   3.236 -0.9363  0.7057  0.4315
 9359TIP3    H128041   3.127   6.275   3.159 -1.0492  1.3781  0.2359
 9359TIP3    H228042   3.113   6.357   3.286 -0.7873  0.1733  1.0582
 9360TIP3   OH228043   4.664   5.610   5.111 -0.4944 -0.2377 -0.2849
 9360TIP3    H128044   4.607   5.601   5.035 -1.5328  2.3176  0.1106
 9360TIP3    H228045   4.749   5.634   5.074 -0.4741 -0.9160 -0.7056
 9361TIP3   OH228046   0.030   3.432   2.378 -0.1965  0.2278 -0.0751
 9361TIP3    H128047  -0.061   3.409   2.398  0.2076 -0.4771  1.0704
 9361TIP3    H228048   0.033   3.527   2.385 -1.3387  0.5275 -2.4101
 9362TIP3   OH228049   6.496   1.648   3.239 -0.3025 -0.2967 -0.4975
 9362TIP3    H128050   6.425   1.620   3.180  0.5319 -0.4889 -1.4451
 9362TIP3    H228051   6.556   1.573   3.240 -0.4184 -0.3990  0.8279
 9363TIP3   OH228052   4.956   4.556   0.845 -0.1839  0.5063 -0.0065
 9363TIP3    H128053   4.956   4.559   0.941  0.4214  0.3352  0.0038
 9363TIP3    H228054   5.028   4.497   0.823 -1.0172 -0.3359 -0.5463
 9364TIP3   OH228055   1.233   5.147   3.224  0.1182  0.2975  0.1278
 9364TIP3    H128056   1.218   5.170   3.316  1.8732 -2.7138  1.3227
 9364TIP3    H228057   1.277   5.224   3.187 -0.1943  1.4104  1.9260
 9365TIP3   OH228058   2.516   6.058   0.408 -0.6770  0.0870  0.0928
 9365TIP3    H128059   2.492   5.972   0.373 -2.2825  0.2781  0.6445
 9365TIP3    H228060   2.588   6.039   0.469  0.0249 -0.6439 -0.9299
 9366TIP3   OH228061   3.540   3.977   0.441 -0.0288  0.1204 -0.1987
 9366TIP3    H128062   3.538   3.938   0.354 -0.1650  0.4697 -0.3520
 9366TIP3    H228063   3.462   3.942   0.485 -0.6501  0.9004 -0.6376
 9367TIP3   OH228064   3.914   1.680   2.514  0.0102  0.0120 -0.3297
 9367TIP3    H128065   3.912   1.727   2.431  0.2388  0.2598 -0.1971
 9367TIP3    H228066   4.002   1.696   2.549  0.5074 -1.4661 -0.8214
 9368TIP3   OH228067   3.779   4.482   0.086  0.3191  0.2525 -0.1320
 9368TIP3    H128068   3.771   4.408   0.027  1.4631 -0.1854  0.2353
 9368TIP3    H228069   3.689   4.508   0.104 -0.0991 -0.9368 -0.4061
 9369TIP3   OH228070   4.670   2.967   2.532 -0.5103 -0.7578  0.4307
 9369TIP3    H128071   4.754   2.939   2.568  0.1803  0.6293 -0.0389
 9369TIP3    H228072   4.667   2.927   2.445  0.2611  0.2098 -0.0570
 9370TIP3   OH228073   2.961   6.006   4.663  0.0192  0.0794 -0.4658
 9370TIP3    H128074   2.904   6.082   4.662  1.2431  1.0296 -1.5007
 9370TIP3    H228075   2.950   5.966   4.577 -1.4749 -1.6294  0.4597
 9371TIP3   OH228076   5.015   3.184   3.464 -0.1062  0.1858 -0.2754
 9371TIP3    H128077   4.946   3.244   3.492 -0.1813 -0.3737  0.7860
 9371TIP3    H228078   5.016   3.116   3.531  1.2645  0.0137 -0.4486
 9372TIP3   OH228079   6.956   0.657   0.471  0.3238 -0.2882 -0.0606
 9372TIP3    H128080   6.929   0.741   0.435 -1.6714 -0.7756  0.1582
 9372TIP3    H228081   6.942   0.595   0.400 -1.9434 -0.9848  0.9150
 9373TIP3   OH228082   0.132   4.648   2.745 -0.1471 -0.7015 -0.1846
 9373TIP3    H128083   0.102   4.684   2.829 -1.3152 -0.6205 -0.6245
 9373TIP3    H228084   0.067   4.582   2.722 -2.3248  2.1906 -3.0997
 9374TIP3   OH228085   1.041   0.655   3.566 -0.3929  0.2208 -0.3326
 9374TIP3    H128086   1.131   0.672   3.538 -0.8801 -0.1714 -2.3132
 9374TIP3    H228087   1.048   0.581   3.626  0.6845  0.8113  0.2986
 9375TIP3   OH228088   0.058   2.422   5.619  0.0653 -0.8346 -0.0837
 9375TIP3    H128089   0.044   2.443   5.527 -0.1898 -1.3207 -0.1561
 9375TIP3    H228090  -0.021   2.454   5.664 -0.6444 -2.2412 -0.2900
 9376TIP3   OH228091   4.614   6.609   0.851  0.3324  0.2251 -0.0293
 9376TIP3    H128092   4.632   6.566   0.934  0.2495  1.8410  0.8579
 9376TIP3    H228093   4.522   6.634   0.856  0.5191  0.9999 -0.2663
 9377TIP3   OH228094   4.137   3.080   4.519 -0.1818 -0.4467 -0.2003
 9377TIP3    H128095   4.085   3.152   4.554  1.1793  0.5609 -0.1422
 9377TIP3    H228096   4.104   3.065   4.431  0.5717  1.4014 -0.8411
 9378TIP3   OH228097   0.402   3.265   4.178 -0.1240 -0.3110  0.1817
 9378TIP3    H128098   0.478   3.272   4.119 -1.0531  0.9721 -0.9268
 9378TIP3    H228099   0.370   3.175   4.165 -0.2069 -0.1073 -1.1669
 9379TIP3   OH228100   4.907   5.131   1.941  0.6831  0.2076  0.1925
 9379TIP3    H128101   4.931   5.218   1.908  2.6660 -0.7958 -1.1737
 9379TIP3    H228102   4.972   5.113   2.009 -0.4849  0.2651  1.3630
 9380TIP3   OH228103   3.482   3.780   0.686 -0.9926 -0.3995  0.2850
 9380TIP3    H128104   3.558   3.813   0.734 -2.6397  1.3088  1.9015
 9380TIP3    H228105   3.514   3.703   0.640  2.1553  1.2649 -0.5948
 9381TIP3   OH228106   1.168   4.519   1.922  0.0443  0.2785  0.4039
 9381TIP3    H128107   1.129   4.469   1.851  0.5402 -0.4059  0.5975
 9381TIP3    H228108   1.130   4.480   2.002  1.9264 -1.1852  0.6597
 9382TIP3   OH228109   0.196   2.302   1.678 -0.2196 -0.0160 -0.4746
 9382TIP3    H128110   0.219   2.384   1.721  0.1947  0.4081 -1.4668
 9382TIP3    H228111   0.262   2.239   1.707  0.2535  0.3516 -0.7342
 9383TIP3   OH228112   1.597   3.385   5.165  0.5018 -0.0365 -0.1016
 9383TIP3    H128113   1.659   3.457   5.169  0.2481  0.1818 -0.0447
 9383TIP3    H228114   1.615   3.342   5.081 -0.3823  1.0529 -0.8758
 9384TIP3   OH228115   4.912   2.257   5.396  0.1372 -0.5051 -0.0930
 9384TIP3    H128116   4.824   2.250   5.433  0.1224 -1.1259 -0.2263
 9384TIP3    H228117   4.955   2.176   5.424  1.0334  0.2832  0.9213
 9385TIP3   OH228118   6.691   5.762   4.669  0.0756 -0.3570 -0.1670
 9385TIP3    H128119   6.723   5.838   4.621 -0.6022 -0.3224 -0.5769
 9385TIP3    H228120   6.608   5.739   4.626  1.1676 -2.4975 -1.3431
 9386TIP3   OH228121   1.917   4.125   1.052  0.4248 -0.2322 -0.0286
 9386TIP3    H128122   1.879   4.126   0.964 -0.3350 -1.0473  0.2794
 9386TIP3    H228123   2.005   4.089   1.039  0.9421  1.1730 -0.6682
 9387TIP3   OH228124   2.316   0.423   1.712  0.7526  0.2172 -0.2948
 9387TIP3    H128125   2.332   0.380   1.795  1.7908  1.3737  0.1284
 9387TIP3    H228126   2.233   0.386   1.681  0.5880 -0.5509  1.0216
 9388TIP3   OH228127   6.117   3.507   1.154 -0.5114 -0.3521  0.8067
 9388TIP3    H128128   6.063   3.463   1.088  0.3637  0.9455 -0.8391
 9388TIP3    H228129   6.178   3.439   1.184 -1.6857 -1.2739  1.1924
 9389TIP3   OH228130   0.289   2.159   5.581  0.1709 -0.0014  0.1478
 9389TIP3    H128131   0.314   2.195   5.666 -0.2189 -1.5915  0.9820
 9389TIP3    H228132   0.315   2.226   5.518 -0.1059  1.5103  1.5516
 9390TIP3   OH228133   1.675   4.111   2.676  0.0217 -0.2307  0.0461
 9390TIP3    H128134   1.713   4.092   2.761 -0.9515 -3.1251 -0.0729
 9390TIP3    H228135   1.630   4.030   2.650 -0.9006  0.9939 -2.5930
 9391TIP3   OH228136   6.017   2.225   4.867 -0.1518 -0.3458 -0.1827
 9391TIP3    H128137   5.959   2.239   4.942  1.6199  3.0991  0.7798
 9391TIP3    H228138   6.072   2.151   4.894 -0.2189  0.1711  1.5454
 9392TIP3   OH228139   6.465   2.732   3.012 -0.2736  0.1107 -0.6317
 9392TIP3    H128140   6.386   2.701   3.055  0.4852 -1.1771 -0.1197
 9392TIP3    H228141   6.520   2.655   3.003  0.3965  0.7260 -2.1826
 9393TIP3   OH228142   2.568   6.600   1.436  0.0291  0.2588  0.2823
 9393TIP3    H128143   2.548   6.660   1.364 -0.2358 -0.2623 -0.0920
 9393TIP3    H228144   2.531   6.642   1.513 -0.5557  0.3674 -0.0498
 9394TIP3   OH228145   3.296   2.259   2.034 -0.3226 -0.5386  0.0074
 9394TIP3    H128146   3.260   2.172   2.015  1.2011 -0.7459 -2.5700
 9394TIP3    H228147   3.387   2.253   2.002  0.7905  1.1005  2.6124
 9395TIP3   OH228148   3.441   6.752   1.176  0.3231 -0.7633  0.1821
 9395TIP3    H128149   3.468   6.686   1.111  0.6110 -0.6417  0.1770
 9395TIP3    H228150   3.351   6.773   1.152  0.8466  0.2702 -1.0308
 9396TIP3   OH228151   4.344   5.127   0.089  0.0649 -0.0997  0.5339
 9396TIP3    H128152   4.327   5.082   0.172 -0.7146 -3.4420 -1.2367
 9396TIP3    H228153   4.344   5.220   0.112 -4.5754 -0.4729  3.5980
 9397TIP3   OH228154   5.177   5.075   5.717  0.1397 -0.1415  0.8824
 9397TIP3    H128155   5.184   5.151   5.660  0.9811 -0.9371 -0.1068
 9397TIP3    H228156   5.084   5.053   5.717  0.0597  0.1897  0.2573
 9398TIP3   OH228157   6.158   0.256   2.683 -0.8361  0.1069 -0.0170
 9398TIP3    H128158   6.070   0.221   2.692 -0.4818 -1.0221 -0.7151
 9398TIP3    H228159   6.168   0.274   2.590 -0.7627  1.4525  0.2334
 9399TIP3   OH228160   5.985   1.206   4.716  0.7525 -0.2845  0.4586
 9399TIP3    H128161   5.933   1.262   4.658  0.1903 -0.3864  0.8550
 9399TIP3    H228162   5.979   1.119   4.677  1.2536 -0.1680  0.0946
 9400TIP3   OH228163   0.934   0.850   3.076  0.1223 -0.1236 -0.0991
 9400TIP3    H128164   0.881   0.786   3.123 -0.7871  0.3186 -0.5127
 9400TIP3    H228165   0.899   0.935   3.101  0.7192  0.1829 -0.2737
 9401TIP3   OH228166   3.765   5.450   0.481  0.1227  0.4598 -0.0711
 9401TIP3    H128167   3.725   5.388   0.420  0.0652  0.6449 -0.2225
 9401TIP3    H228168   3.835   5.400   0.524  0.6891  0.5438 -0.8628
 9402TIP3   OH228169   3.267   3.140   4.191 -0.1217 -0.4549 -0.3857
 9402TIP3    H128170   3.264   3.235   4.201 -1.1947 -0.5677  0.6369
 9402TIP3    H228171   3.347   3.114   4.236  0.8453  0.0455 -1.7423
 9403TIP3   OH228172   2.269   1.819   0.055 -0.1358  0.6122  0.2506
 9403TIP3    H128173   2.358   1.852   0.046 -0.2195  0.9259  0.5584
 9403TIP3    H228174   2.263   1.748  -0.009  1.2801 -1.4244  2.2321
 9404TIP3   OH228175   1.768   4.656   3.127 -0.1728 -0.0145 -0.0498
 9404TIP3    H128176   1.824   4.731   3.150 -0.0065 -0.0323 -0.3935
 9404TIP3    H228177   1.693   4.696   3.083 -0.4447  0.0107  0.4239
 9405TIP3   OH228178   5.529   0.023   3.058  0.2568  0.4026  0.4261
 9405TIP3    H128179   5.520   0.076   2.980 -1.7966  0.8011  0.8723
 9405TIP3    H228180   5.508   0.082   3.130  1.1896 -0.1909  1.2159
 9406TIP3   OH228181   5.272   2.946   0.900 -0.1969 -0.1393 -0.1005
 9406TIP3    H128182   5.253   2.853   0.894  1.0014 -0.2878 -2.7212
 9406TIP3    H228183   5.275   2.976   0.809 -0.2110  2.3971  0.6585
 9407TIP3   OH228184   4.065   0.917   5.073 -0.3048  0.2068  0.2087
 9407TIP3    H128185   3.984   0.868   5.085  0.0838 -0.6029 -0.3788
 9407TIP3    H228186   4.122   0.887   5.144 -0.2275  0.1508  0.1229
 9408TIP3   OH228187   0.648   0.985   4.774 -0.0447 -0.5587 -0.3924
 9408TIP3    H128188   0.566   1.027   4.750  1.2874  1.0224 -2.4592
 9408TIP3    H228189   0.625   0.893   4.787 -2.4097  0.1185  0.8195
 9409TIP3   OH228190   1.071   6.157   4.652 -0.4592  0.2343 -0.4644
 9409TIP3    H128191   1.055   6.085   4.590 -0.4565  1.0189 -1.4012
 9409TIP3    H228192   1.106   6.114   4.730 -0.6414 -0.8007 -0.9352
 9410TIP3   OH228193   2.917   3.274   2.657  0.2474 -0.4904  0.3522
 9410TIP3    H128194   2.943   3.342   2.719  1.3230 -1.0150  0.4946
 9410TIP3    H228195   2.983   3.206   2.666 -1.4022 -2.0793  0.9972
 9411TIP3   OH228196   6.338   1.309   0.920 -0.2633 -0.7455 -0.2499
 9411TIP3    H128197   6.248   1.278   0.927 -0.8931  1.3323  2.6828
 9411TIP3    H228198   6.385   1.260   0.988  0.2695 -0.1149 -0.1592
 9412TIP3   OH228199   3.654   0.682   4.649  0.2604  0.4984 -0.1239
 9412TIP3    H128200   3.614   0.595   4.655  1.1401  0.0352 -0.7731
 9412TIP3    H228201   3.677   0.691   4.557 -0.5646  1.7777 -0.2407
 9413TIP3   OH228202   0.992   1.561   2.634  0.2664  0.5354  0.0014
 9413TIP3    H128203   0.948   1.519   2.559  1.1690  0.4805 -0.5157
 9413TIP3    H228204   1.083   1.572   2.605  1.4338 -2.2384  2.1628
 9414TIP3   OH228205   4.972   0.390   4.099  0.0820 -0.0301 -0.2334
 9414TIP3    H128206   5.058   0.392   4.141 -0.1711 -0.2571  0.3153
 9414TIP3    H228207   4.939   0.480   4.106  1.5733  0.8759 -3.2868
 9415TIP3   OH228208   4.211   2.186   1.882 -0.4921 -0.2911 -0.5106
 9415TIP3    H128209   4.287   2.174   1.826 -0.8658 -0.9241 -0.8980
 9415TIP3    H228210   4.190   2.098   1.913 -1.0622 -0.1233 -0.4091
 9416TIP3   OH228211   5.845   0.423   3.791  0.2204 -0.3836 -0.2255
 9416TIP3    H128212   5.933   0.390   3.812  0.1670 -2.1819 -2.4392
 9416TIP3    H228213   5.841   0.508   3.834  2.4130 -0.9692  1.3418
 9417TIP3   OH228214   0.380   0.815   3.519  0.5223  0.6569  0.3879
 9417TIP3    H128215   0.417   0.803   3.607  1.7321  0.7257 -0.1058
 9417TIP3    H228216   0.426   0.890   3.483 -0.5757  1.1706 -0.0048
 9418TIP3   OH228217   3.563   3.705   5.478  0.4445  0.4192 -0.3281
 9418TIP3    H128218   3.600   3.625   5.516 -1.7273 -0.4056  0.2132
 9418TIP3    H228219   3.470   3.699   5.497  0.1966  3.0729 -0.3674
 9419TIP3   OH228220   2.774   0.428   1.766 -0.2709  1.0269  0.3038
 9419TIP3    H128221   2.698   0.435   1.709 -1.3956  1.4961  1.7791
 9419TIP3    H228222   2.744   0.461   1.851  1.5125  0.9991  1.0077
 9420TIP3   OH228223   2.118   6.411   3.054  0.2141 -0.1520 -0.3625
 9420TIP3    H128224   2.045   6.358   3.021 -0.3063  0.8648 -0.9046
 9420TIP3    H228225   2.078   6.494   3.078  1.2481  0.5796 -1.0754
 9421TIP3   OH228226   2.511   1.905   5.571  0.8072  0.5963  0.2079
 9421TIP3    H128227   2.469   1.876   5.652 -1.3102 -1.2442 -1.4134
 9421TIP3    H228228   2.593   1.856   5.568  0.0004 -0.8379  0.3570
 9422TIP3   OH228229   6.455   2.580   1.618 -0.0440  0.0876  0.6243
 9422TIP3    H128230   6.376   2.565   1.566 -0.4527 -2.0625  1.7692
 9422TIP3    H228231   6.464   2.675   1.621 -1.7289  0.3330 -0.7860
 9423TIP3   OH228232   3.719   5.509   3.992 -0.1439 -0.0278  0.1315
 9423TIP3    H128233   3.725   5.532   4.085  0.5893 -0.1854  0.1287
 9423TIP3    H228234   3.703   5.415   3.992  0.7784 -0.1926  0.0923
 9424TIP3   OH228235   2.889   1.937   2.143 -0.0913  0.0458  0.3404
 9424TIP3    H128236   2.845   2.018   2.116 -0.2942  0.1599  0.9951
 9424TIP3    H228237   2.883   1.937   2.238 -1.1250 -1.3076  0.3056
 9425TIP3   OH228238   0.472   4.934   3.427 -0.1552  0.0475  0.0994
 9425TIP3    H128239   0.533   4.861   3.417 -0.1684  0.2163 -1.5110
 9425TIP3    H228240   0.478   4.959   3.519  0.5151 -1.4006  0.4666
 9426TIP3   OH228241   5.210   6.597   4.428  0.1108  0.4295  0.1349
 9426TIP3    H128242   5.207   6.680   4.380 -0.3516 -0.0888 -0.7567
 9426TIP3    H228243   5.171   6.617   4.513  0.9939  1.3763  0.3394
 9427TIP3   OH228244   7.027   4.402   1.220 -0.0820  0.5761  0.5636
 9427TIP3    H128245   7.102   4.362   1.176 -0.0004  2.2297 -0.9281
 9427TIP3    H228246   6.951   4.373   1.169 -0.0848  1.6631 -0.0990
 9428TIP3   OH228247   6.527   0.063   4.063  0.0050 -0.9660  0.0213
 9428TIP3    H128248   6.450   0.011   4.087 -0.5572 -0.2815 -0.2637
 9428TIP3    H228249   6.518   0.078   3.969  0.6896 -1.2000 -0.0870
 9429TIP3   OH228250   5.050   1.971   2.735 -0.4232 -0.4641 -0.2206
 9429TIP3    H128251   5.121   1.925   2.691  0.5797  0.4103  0.4460
 9429TIP3    H228252   4.981   1.976   2.668  0.0040 -1.5871 -0.7758
 9430TIP3   OH228253   5.043   6.231   3.416 -0.1185 -0.6424 -0.6996
 9430TIP3    H128254   5.077   6.244   3.327 -1.1592 -1.3692 -1.2335
 9430TIP3    H228255   5.113   6.185   3.462 -0.0629 -1.4161 -1.5310
 9431TIP3   OH228256   5.378   1.334   1.064  0.8552 -0.0085  0.2224
 9431TIP3    H128257   5.445   1.393   1.031  0.0653  0.9620  0.2981
 9431TIP3    H228258   5.426   1.260   1.100  1.8616  0.5431  0.0374
 9432TIP3   OH228259   3.544   6.362   2.839 -0.5750 -0.0480 -0.3009
 9432TIP3    H128260   3.583   6.416   2.771 -0.4742 -0.3529 -0.4843
 9432TIP3    H228261   3.450   6.378   2.831 -0.5821 -0.2971 -0.6889
 9433TIP3   OH228262   2.048   1.223   4.462  0.2222 -0.0379 -1.1170
 9433TIP3    H128263   2.100   1.304   4.462  0.8315 -0.4275 -1.3698
 9433TIP3    H228264   1.969   1.245   4.414  0.4878  0.3451 -1.3787
 9434TIP3   OH228265   2.388   4.622   5.165  0.5443  0.0171  0.8017
 9434TIP3    H128266   2.367   4.537   5.125 -0.1940  0.0389  1.1304
 9434TIP3    H228267   2.305   4.669   5.166  0.9376  0.7227  0.6893
 9435TIP3   OH228268   2.507   5.430   4.967  0.0403 -0.0563 -0.4648
 9435TIP3    H128269   2.585   5.482   4.950 -0.5518  1.3254  0.8555
 9435TIP3    H228270   2.436   5.476   4.922 -0.2136 -0.7082 -0.7529
 9436TIP3   OH228271   2.373   5.858   3.518  0.4599 -0.0131 -0.8316
 9436TIP3    H128272   2.407   5.779   3.474 -0.0408 -1.3942  1.1126
 9436TIP3    H228273   2.451   5.899   3.556  0.4468 -0.9980  0.2958
 9437TIP3   OH228274   1.396   5.554   3.272  0.2872  0.2855  0.3157
 9437TIP3    H128275   1.466   5.618   3.288  1.5965 -1.0128 -0.0064
 9437TIP3    H228276   1.315   5.601   3.294  1.1857  2.0815 -0.0509
 9438TIP3   OH228277   0.505   4.723   0.083  0.3735  0.2850 -0.1414
 9438TIP3    H128278   0.590   4.762   0.062  0.3839  0.4805  0.2468
 9438TIP3    H228279   0.515   4.692   0.173 -0.3002  1.2807  0.2960
 9439TIP3   OH228280   1.834   5.604   0.382 -0.3824 -0.1703 -0.4707
 9439TIP3    H128281   1.783   5.665   0.436  1.1265  1.4029 -0.7480
 9439TIP3    H228282   1.919   5.599   0.425 -0.2030 -1.4668 -0.9255
 9440TIP3   OH228283   1.014   4.247   5.385  0.5039  0.0077 -0.1753
 9440TIP3    H128284   1.075   4.175   5.366  1.1456  0.6784 -0.7228
 9440TIP3    H228285   0.992   4.283   5.299 -0.9513 -0.4249 -0.0162
 9441TIP3   OH228286   5.042   0.401   4.532 -0.0740  0.3138  0.5989
 9441TIP3    H128287   5.131   0.396   4.567 -0.6284  0.7772  2.1547
 9441TIP3    H228288   5.019   0.493   4.540 -0.7132  0.1857  0.2495
 9442TIP3   OH228289   5.166   5.838   3.655 -0.2111  0.4818 -0.3130
 9442TIP3    H128290   5.134   5.755   3.689  0.7889  0.9239  1.9141
 9442TIP3    H228291   5.226   5.814   3.584 -1.4899 -0.5547 -1.0880
 9443TIP3   OH228292   1.980   6.402   0.362  0.4305 -0.4127 -0.1670
 9443TIP3    H128293   2.032   6.352   0.424 -1.6467  1.5875  3.5526
 9443TIP3    H228294   2.008   6.493   0.374 -1.9913  0.3962  0.0811
 9444TIP3   OH228295   2.897   5.522   0.516  0.6619 -0.3125 -0.1707
 9444TIP3    H128296   2.804   5.500   0.524  0.3432 -0.1483 -2.5769
 9444TIP3    H228297   2.897   5.614   0.488  1.6316  0.1123  1.1469
 9445TIP3   OH228298   7.016   3.997   4.538  0.2354  0.0647 -0.0132
 9445TIP3    H128299   6.975   4.077   4.505  1.2425  0.1268 -1.1697
 9445TIP3    H228300   6.960   3.927   4.504 -1.8923  0.2695  2.7529
 9446TIP3   OH228301   1.741   2.916   4.274 -0.4538 -0.0935 -0.0022
 9446TIP3    H128302   1.718   3.008   4.288 -0.9299 -0.3840  1.3199
 9446TIP3    H228303   1.834   2.917   4.254 -0.1307  0.5724  1.4306
 9447TIP3   OH228304   5.512   0.188   5.485 -0.6793 -0.5359  0.1050
 9447TIP3    H128305   5.437   0.133   5.505  0.3122 -1.7157  0.7124
 9447TIP3    H228306   5.585   0.149   5.533  0.2240  0.8840 -0.0356
 9448TIP3   OH228307   7.090   5.222   3.640 -0.0927 -0.1289  0.1131
 9448TIP3    H128308   7.019   5.160   3.624 -0.0901  0.2827 -1.6801
 9448TIP3    H228309   7.046   5.300   3.675 -0.2885 -0.5095  0.7395
 9449TIP3   OH228310   7.132   0.397   0.874  0.5939  0.0978 -0.2399
 9449TIP3    H128311   7.121   0.302   0.871  1.4975  0.0051 -1.3952
 9449TIP3    H228312   7.090   0.429   0.794  0.9887  0.5775 -0.2648
 9450TIP3   OH228313   1.387   1.209   2.216  0.0075 -0.3243 -0.0808
 9450TIP3    H128314   1.437   1.219   2.135 -0.4662  1.7724 -0.1496
 9450TIP3    H228315   1.434   1.141   2.264  1.3345 -0.3229 -1.3086
 9451TIP3   OH228316   5.439   6.055   3.140  0.1208 -0.6290 -0.5351
 9451TIP3    H128317   5.437   6.032   3.048 -1.7084 -2.3773 -0.1141
 9451TIP3    H228318   5.411   5.976   3.186  0.9208  0.2057  1.5333
 9452TIP3   OH228319   6.668   2.911   3.726 -0.0017 -0.3824  0.4875
 9452TIP3    H128320   6.698   2.907   3.817  0.7052 -1.3056  0.2254
 9452TIP3    H228321   6.712   2.988   3.689 -1.4810  0.9159  1.3204
 9453TIP3   OH228322   5.260   4.409   1.088  0.6453 -0.4629 -0.1689
 9453TIP3    H128323   5.238   4.487   1.138  1.1331 -0.3551 -0.1156
 9453TIP3    H228324   5.188   4.348   1.105 -0.7512  0.6519 -1.7379
 9454TIP3   OH228325   5.724   2.254   0.740  0.4019  0.2767 -0.0984
 9454TIP3    H128326   5.800   2.280   0.688  0.5949 -0.1088 -0.0110
 9454TIP3    H228327   5.710   2.162   0.718 -1.6852  0.9778 -2.1568
 9455TIP3   OH228328   3.522   4.870   3.202 -0.0289  0.3098  0.3949
 9455TIP3    H128329   3.511   4.828   3.116 -0.0099  0.7755  0.1610
 9455TIP3    H228330   3.553   4.800   3.259 -0.9580 -0.2359  0.2536
 9456TIP3   OH228331   6.313   2.242   4.952 -0.2910 -0.0260  0.6557
 9456TIP3    H128332   6.382   2.306   4.972 -0.2715  1.3653 -3.0915
 9456TIP3    H228333   6.361   2.162   4.930  0.2029  0.7005 -1.1340
 9457TIP3   OH228334   2.946   4.696   2.952 -0.1528 -0.7085  0.6594
 9457TIP3    H128335   2.864   4.691   3.001 -0.4429  0.1581  0.2779
 9457TIP3    H228336   2.955   4.789   2.929 -0.1218 -1.1106 -1.0958
 9458TIP3   OH228337   5.055   6.672   1.516 -0.0458 -0.2505  0.2982
 9458TIP3    H128338   4.963   6.647   1.509  0.0952 -1.2736  1.6797
 9458TIP3    H228339   5.064   6.711   1.603  1.1758 -2.0116  1.0404
 9459TIP3   OH228340   0.150   2.370   1.075 -0.1272  0.3656 -0.1240
 9459TIP3    H128341   0.200   2.380   1.156  0.3422  2.5927 -0.6138
 9459TIP3    H228342   0.127   2.460   1.050 -2.6994 -0.4310 -0.9923
 9460TIP3   OH228343   5.070   3.141   1.538  0.2438  0.4267  0.7724
 9460TIP3    H128344   4.985   3.148   1.582 -0.2872  1.4189 -0.3775
 9460TIP3    H228345   5.105   3.230   1.541  0.5347  0.3434 -0.1499
 9461TIP3   OH228346   3.428   5.476   5.846  0.1249  0.5765 -0.1226
 9461TIP3    H128347   3.367   5.501   5.777 -0.3551 -0.4397 -0.0948
 9461TIP3    H228348   3.464   5.392   5.817 -0.2986 -0.0039  0.9823
 9462TIP3   OH228349   4.625   1.348   4.129  0.5569 -0.2197  0.3066
 9462TIP3    H128350   4.633   1.397   4.048 -1.2704 -0.3927 -0.0212
 9462TIP3    H228351   4.612   1.415   4.196 -1.8337 -0.1793 -0.1261
 9463TIP3   OH228352   3.974   3.141   3.117  0.0711  0.0056 -0.2131
 9463TIP3    H128353   4.020   3.215   3.155 -0.9229  0.6456 -0.2070
 9463TIP3    H228354   3.906   3.120   3.181  0.6910 -1.2813  0.0482
 9464TIP3   OH228355   3.941   2.670   2.492  0.8457  0.0136 -0.1341
 9464TIP3    H128356   3.944   2.765   2.476 -0.5762  0.2629  0.8220
 9464TIP3    H228357   3.873   2.660   2.559  0.5798 -1.7467 -0.6249
 9465TIP3   OH228358   5.761   0.587   3.276  0.3515 -0.0033 -0.3970
 9465TIP3    H128359   5.743   0.544   3.192  0.3349  0.2749 -0.5399
 9465TIP3    H228360   5.792   0.517   3.333  1.4952 -0.0107 -0.9810
 9466TIP3   OH228361   4.411   1.658   0.623 -0.5015 -0.6294  0.1386
 9466TIP3    H128362   4.323   1.622   0.612 -0.5188 -0.4617 -0.2729
 9466TIP3    H228363   4.464   1.582   0.648 -0.7008 -0.7881  0.0908
 9467TIP3   OH228364   2.399   0.421   1.383  0.0385 -0.4388 -0.3703
 9467TIP3    H128365   2.337   0.348   1.375 -0.2833 -0.2315  0.1624
 9467TIP3    H228366   2.343   0.499   1.388  0.3813 -0.1457 -0.9848
 9468TIP3   OH228367   0.471   5.508   0.055  0.0034  0.6268 -0.7074
 9468TIP3    H128368   0.524   5.581   0.086  1.2018 -0.9795  1.2868
 9468TIP3    H228369   0.403   5.498   0.121 -0.5720  0.3568 -1.3275
 9469TIP3   OH228370   5.075   0.569   5.817 -0.4188 -0.1921  0.1625
 9469TIP3    H128371   5.079   0.664   5.830  0.2714 -0.0274 -1.0796
 9469TIP3    H228372   4.982   0.548   5.821 -0.5529  0.4768  0.8054
 9470TIP3   OH228373   3.454   6.178   3.229  0.0066  0.5037 -0.3755
 9470TIP3    H128374   3.412   6.116   3.288  0.9365  0.5318  0.3347
 9470TIP3    H228375   3.381   6.220   3.182 -0.6420 -1.0356 -0.8129
 9471TIP3   OH228376   1.585   6.709   0.591  0.4157  0.7581 -0.0442
 9471TIP3    H128377   1.604   6.618   0.611 -2.5374  0.4031  1.8764
 9471TIP3    H228378   1.614   6.758   0.669 -0.8705  0.9648  0.3332
 9472TIP3   OH228379   5.218   0.183   1.843  0.0820 -0.1298  0.3193
 9472TIP3    H128380   5.201   0.244   1.914  1.4396  0.4430  0.1810
 9472TIP3    H228381   5.237   0.239   1.767  0.0741 -0.7261 -0.1295
 9473TIP3   OH228382   1.756   4.214   0.823  0.0186 -0.2632  0.5099
 9473TIP3    H128383   1.692   4.155   0.784  1.5286 -1.7046  0.0880
 9473TIP3    H228384   1.707   4.294   0.842 -2.4359 -2.0668  2.3068
 9474TIP3   OH228385   3.146   1.329   2.363  0.1398  0.2522 -0.6223
 9474TIP3    H128386   3.133   1.422   2.379  1.3210  0.6770 -1.9039
 9474TIP3    H228387   3.215   1.303   2.424 -2.5117 -0.6652  2.1867
 9475TIP3   OH228388   4.144   0.442   3.597  0.2972 -0.1480 -0.0952
 9475TIP3    H128389   4.099   0.387   3.533 -0.0912 -0.8871  0.7904
 9475TIP3    H228390   4.073   0.486   3.645  0.5851  0.5132 -0.2655
 9476TIP3   OH228391   1.472   4.070   4.481 -0.0335  0.3551  0.2497
 9476TIP3    H128392   1.420   4.010   4.534  0.8066 -0.3368  0.3186
 9476TIP3    H228393   1.476   4.150   4.533 -2.8099  1.2246 -0.6982
 9477TIP3   OH228394   5.975   3.012   4.095  0.1228 -0.0090  0.5057
 9477TIP3    H128395   6.054   3.021   4.042 -1.4051  0.0900 -1.9038
 9477TIP3    H228396   5.919   3.084   4.067 -1.8281 -1.5475  0.2673
 9478TIP3   OH228397   3.082   0.302   0.857 -0.4167  0.7594 -0.6729
 9478TIP3    H128398   3.070   0.236   0.788  1.2269 -0.1815 -0.1166
 9478TIP3    H228399   3.087   0.385   0.809  0.4687  0.1494 -1.6927
 9479TIP3   OH228400   5.924   1.419   1.176  0.4078 -0.3016  0.3232
 9479TIP3    H128401   5.896   1.469   1.100  0.5917 -1.8781 -0.8309
 9479TIP3    H228402   5.888   1.467   1.251 -1.8517  0.0044 -0.8659
 9480TIP3   OH228403   4.858   3.574   3.002 -0.5220 -0.2434 -0.0685
 9480TIP3    H128404   4.775   3.568   2.954 -1.4469  0.7760  1.3185
 9480TIP3    H228405   4.913   3.506   2.963 -1.3948  0.1606 -2.1786
 9481TIP3   OH228406   2.591   6.498   0.532  0.6461 -1.1665  0.5999
 9481TIP3    H128407   2.671   6.451   0.555  0.3086 -1.8695  0.3406
 9481TIP3    H228408   2.546   6.441   0.469  1.9441  0.9941 -2.6075
 9482TIP3   OH228409   1.436   1.858   4.722  0.7446  0.8609 -0.3252
 9482TIP3    H128410   1.453   1.765   4.710  1.6773  0.8456  0.9293
 9482TIP3    H228411   1.514   1.891   4.767 -0.0596  2.0220  0.2630
 9483TIP3   OH228412   2.830   5.020   0.566  0.1348 -0.7485 -0.0323
 9483TIP3    H128413   2.769   5.072   0.514 -0.4753 -1.3859  0.0294
 9483TIP3    H228414   2.843   5.071   0.646  1.2456  0.3415 -0.8693
 9484TIP3   OH228415   4.632   4.512   2.011 -0.2092 -0.6424 -0.4278
 9484TIP3    H128416   4.597   4.509   2.100 -0.8074 -1.3245 -0.6750
 9484TIP3    H228417   4.581   4.580   1.967 -0.9153 -1.3092 -0.6537
 9485TIP3   OH228418   4.762   0.142   3.469 -0.4464 -0.0675 -0.1166
 9485TIP3    H128419   4.716   0.163   3.388  0.0599  0.4659 -0.2746
 9485TIP3    H228420   4.852   0.126   3.441 -0.8289 -2.7917 -0.0553
 9486TIP3   OH228421   0.448   3.617   3.292  0.1806 -0.2170 -0.1607
 9486TIP3    H128422   0.480   3.578   3.210  0.7307  0.0965 -0.0994
 9486TIP3    H228423   0.421   3.705   3.267 -0.4996 -0.4274 -0.1803
 9487TIP3   OH228424   0.048   5.533   3.495 -0.1909 -0.4923 -0.2089
 9487TIP3    H128425   0.082   5.452   3.458 -1.0862 -1.5645  1.2424
 9487TIP3    H228426   0.062   5.598   3.426  1.5810 -1.6082 -0.9663
 9488TIP3   OH228427   5.583   0.674   5.314 -0.5446  0.3699  0.0437
 9488TIP3    H128428   5.592   0.652   5.221 -0.4042 -0.4705  0.2531
 9488TIP3    H228429   5.670   0.706   5.339  0.0719 -1.5088  0.4238
 9489TIP3   OH228430   6.210   3.368   1.589  0.1488 -0.1005  0.0060
 9489TIP3    H128431   6.166   3.411   1.662  0.5742 -0.6216  0.5776
 9489TIP3    H228432   6.157   3.290   1.571 -0.3410  0.3813 -0.7027
 9490TIP3   OH228433   4.435   3.127   2.683  0.0602 -0.3791 -0.4289
 9490TIP3    H128434   4.365   3.067   2.709  1.2044 -0.4434  3.1652
 9490TIP3    H228435   4.496   3.072   2.633 -0.2177 -1.5645  0.4827
 9491TIP3   OH228436   1.149   0.541   0.946 -0.0078 -0.1721  0.2346
 9491TIP3    H128437   1.117   0.580   0.865  1.0503  1.3370  0.4947
 9491TIP3    H228438   1.076   0.550   1.007 -0.0886  0.6457  0.0350
 9492TIP3   OH228439   1.392   5.933   1.054 -0.1824  0.3051 -0.5189
 9492TIP3    H128440   1.392   5.873   0.980  1.9860 -0.2921 -0.0847
 9492TIP3    H228441   1.424   6.016   1.019 -0.1156  0.3047 -0.4604
 9493TIP3   OH228442   1.972   4.048   3.656  0.2157  0.9205 -0.6356
 9493TIP3    H128443   1.901   4.004   3.608  1.5963 -0.9039 -1.1069
 9493TIP3    H228444   1.933   4.130   3.686 -2.3052 -0.2894 -0.3047
 9494TIP3   OH228445   3.244   0.267   4.611 -0.0690 -0.3012 -0.0915
 9494TIP3    H128446   3.161   0.315   4.615  0.1779  0.1088  0.1038
 9494TIP3    H228447   3.292   0.307   4.539 -0.2343 -0.8615 -0.5251
 9495TIP3   OH228448   0.611   3.224   3.981  0.8930 -0.2394  0.1920
 9495TIP3    H128449   0.644   3.136   4.002  0.5499 -0.2624  0.6582
 9495TIP3    H228450   0.598   3.223   3.886  0.4863 -0.8391  0.2492
 9496TIP3   OH228451   5.885   2.441   1.472  0.7621  0.5625 -0.5897
 9496TIP3    H128452   5.801   2.401   1.450  1.2819 -1.0406  0.2623
 9496TIP3    H228453   5.874   2.474   1.561  0.8104  1.0119 -0.7466
 9497TIP3   OH228454   5.209   6.230   3.166  0.0282  0.6032  0.0693
 9497TIP3    H128455   5.279   6.167   3.146 -1.4400 -0.9643 -0.4474
 9497TIP3    H228456   5.162   6.240   3.083 -1.6811 -0.1409  0.8969
 9498TIP3   OH228457   3.757   6.040   2.071 -0.0599 -0.5719  0.5312
 9498TIP3    H128458   3.686   5.996   2.118 -0.9506  0.8249  0.5336
 9498TIP3    H228459   3.714   6.107   2.019  1.2421  0.1557  0.3511
 9499TIP3   OH228460   5.907   6.403   0.400 -0.2865 -0.6188 -0.2237
 9499TIP3    H128461   5.962   6.389   0.477  0.9090  1.0190 -0.7311
 9499TIP3    H228462   5.888   6.314   0.369  0.1095 -1.2837  1.3134
 9500TIP3   OH228463   3.722   6.390   4.661 -0.1132 -0.2449  0.2249
 9500TIP3    H128464   3.807   6.419   4.693 -0.6748  0.0821  1.5092
 9500TIP3    H228465   3.659   6.444   4.708 -1.0838 -1.4435  0.3637
 9501TIP3   OH228466   6.276   5.055   1.894 -0.4912  0.3997  0.2248
 9501TIP3    H128467   6.236   4.985   1.842  2.8760 -1.2710 -0.3554
 9501TIP3    H228468   6.281   5.130   1.834 -2.7453  0.7730  0.3912
 9502TIP3   OH228469   1.035   1.781   4.805  0.2393  0.1715  0.0693
 9502TIP3    H128470   1.014   1.766   4.897  0.3869 -0.6753 -0.0268
 9502TIP3    H228471   1.093   1.857   4.805 -0.3851  0.6568  0.6042
 9503TIP3   OH228472   1.902   5.831   2.163 -0.3876  0.1723  0.7371
 9503TIP3    H128473   1.976   5.872   2.117 -1.3552 -1.9709 -3.2443
 9503TIP3    H228474   1.921   5.737   2.158 -3.3203 -0.4684 -0.5958
 9504TIP3   OH228475   3.799   5.357   2.743  0.2251 -0.0915 -0.7490
 9504TIP3    H128476   3.774   5.441   2.705 -0.2671  0.6609  1.1221
 9504TIP3    H228477   3.841   5.380   2.826  0.4855 -1.6754 -0.4087
 9505TIP3   OH228478   6.537   0.199   0.192  0.0832 -0.0983 -0.1976
 9505TIP3    H128479   6.446   0.211   0.167  0.0907  0.0160 -0.1680
 9505TIP3    H228480   6.534   0.180   0.286  0.2316  1.7779  0.2174
 9506TIP3   OH228481   1.153   2.686   3.113 -0.1655 -0.4787 -0.6017
 9506TIP3    H128482   1.068   2.675   3.069 -0.8524  1.0626  0.2326
 9506TIP3    H228483   1.191   2.764   3.072 -0.9074  1.1173  1.5491
 9507TIP3   OH228484   3.916   5.376   3.347  0.0608  0.3631 -0.1239
 9507TIP3    H128485   3.981   5.321   3.391 -1.2013 -2.3269 -1.3893
 9507TIP3    H228486   3.967   5.427   3.284  1.1048 -0.7070 -0.1869
 9508TIP3   OH228487   1.003   2.267   3.541 -0.0857 -0.3917 -0.1029
 9508TIP3    H128488   1.028   2.295   3.453 -0.1424  1.4213  0.4201
 9508TIP3    H228489   0.970   2.346   3.583 -1.1003 -1.4556  1.2008
 9509TIP3   OH228490   4.477   1.636   2.231 -0.6241  0.2656  0.1710
 9509TIP3    H128491   4.538   1.709   2.223 -1.5495  0.8805 -2.0698
 9509TIP3    H228492   4.528   1.567   2.274  1.0027  1.4276  0.2096
 9510TIP3   OH228493   4.751   6.562   4.152 -0.3568  0.1372 -0.3245
 9510TIP3    H128494   4.787   6.476   4.132 -2.5941 -0.9119 -0.1522
 9510TIP3    H228495   4.727   6.598   4.067  0.7705  0.7070 -0.4145
 9511TIP3   OH228496   3.834   3.665   2.044 -0.2706  0.6171  0.1701
 9511TIP3    H128497   3.740   3.657   2.030 -0.2150 -0.7142  0.4425
 9511TIP3    H228498   3.864   3.575   2.056  0.7698  1.1340  1.7320
 9512TIP3   OH228499   2.808   0.768   2.051 -0.1082  0.1567  0.2437
 9512TIP3    H128500   2.877   0.746   2.113  1.0020  1.2043 -0.5668
 9512TIP3    H228501   2.765   0.685   2.031  0.8232 -0.4837  0.8778
 9513TIP3   OH228502   4.303   3.394   5.032 -0.1146 -0.0761  0.0776
 9513TIP3    H128503   4.369   3.325   5.033  1.0877  0.9963 -1.0336
 9513TIP3    H228504   4.261   3.386   4.946 -0.5918  0.0186  0.2953
 9514TIP3   OH228505   4.020   5.973   3.245 -0.3346 -0.0637 -0.0353
 9514TIP3    H128506   4.091   5.980   3.181 -0.6864 -2.4103 -0.7733
 9514TIP3    H228507   3.994   5.881   3.243 -2.4262  0.4130  1.2900
 9515TIP3   OH228508   3.631   6.456   1.754 -0.5465  0.2526  0.5329
 9515TIP3    H128509   3.639   6.551   1.745 -0.3711  0.1411 -0.5976
 9515TIP3    H228510   3.639   6.422   1.665  0.3066 -0.8875  1.0061
 9516TIP3   OH228511   3.560   5.172   2.400  0.3585  0.7558  0.1202
 9516TIP3    H128512   3.653   5.150   2.406  0.2379 -0.1005 -0.9487
 9516TIP3    H228513   3.549   5.246   2.460  1.6850  0.7492  0.3951
 9517TIP3   OH228514   2.700   2.033   0.002 -0.3808  0.0507  0.1048
 9517TIP3    H128515   2.759   2.100   0.038  1.3203 -0.4075 -1.6502
 9517TIP3    H228516   2.619   2.081  -0.016  0.0903  1.1620  0.7896
 9518TIP3   OH228517   7.091   1.965   2.817  0.3036  0.5196 -0.2602
 9518TIP3    H128518   7.117   2.027   2.886 -2.3013 -0.6073  1.8874
 9518TIP3    H228519   7.113   1.879   2.853 -0.7648 -0.0684 -0.9700
 9519TIP3   OH228520   2.253   5.213   0.988  0.3527  0.6397  0.5290
 9519TIP3    H128521   2.340   5.252   0.996  2.8181 -2.9407 -4.2389
 9519TIP3    H228522   2.202   5.280   0.941  0.9143  2.1556  1.9572
 9520TIP3   OH228523   5.225   0.071   2.642 -0.5603 -0.1195  0.1291
 9520TIP3    H128524   5.192  -0.011   2.678 -0.5019  0.7470  2.2540
 9520TIP3    H228525   5.147   0.122   2.620 -0.7226  0.9012  2.7704
 9521TIP3   OH228526   6.104   1.894   4.235  0.2883  0.0862 -0.4626
 9521TIP3    H128527   6.040   1.871   4.302  1.0590 -1.3354 -0.1739
 9521TIP3    H228528   6.164   1.955   4.279 -0.3159  0.6822 -0.4541
 9522TIP3   OH228529   6.771   6.032   2.920  0.3557  0.2271  0.2862
 9522TIP3    H128530   6.699   5.981   2.883 -0.0543  0.4188  0.8080
 9522TIP3    H228531   6.770   6.113   2.869  0.8744 -0.1859 -0.4025
 9523TIP3   OH228532   5.861   4.091   4.146  0.1777 -0.5953  0.2377
 9523TIP3    H128533   5.787   4.041   4.181 -0.0903 -0.2213  0.2195
 9523TIP3    H228534   5.938   4.050   4.184 -0.0804 -0.5228  0.8613
 9524TIP3   OH228535   3.882   0.291   0.753 -0.4275 -0.3110  0.1123
 9524TIP3    H128536   3.789   0.267   0.757 -0.7869  0.1272 -3.2848
 9524TIP3    H228537   3.882   0.385   0.774 -0.5758 -0.5537  1.2592
 9525TIP3   OH228538   6.232   4.898   0.644  0.0121 -0.3129 -0.2928
 9525TIP3    H128539   6.215   4.896   0.738  0.0786 -0.8608 -0.2870
 9525TIP3    H228540   6.303   4.835   0.632 -1.0411 -1.4297 -0.9113
 9526TIP3   OH228541   4.427   1.399   5.833 -0.1989 -0.5001 -0.0438
 9526TIP3    H128542   4.482   1.387   5.756 -0.7727  1.2846 -0.7906
 9526TIP3    H228543   4.486   1.435   5.900 -0.0165 -0.5836 -0.1615
 9527TIP3   OH228544   2.283   3.535   3.237  0.5327  0.5203  0.2057
 9527TIP3    H128545   2.225   3.466   3.204  1.2492 -0.3647  0.7248
 9527TIP3    H228546   2.258   3.544   3.329  2.0280 -0.7993  0.7957
 9528TIP3   OH228547   1.986   2.479   4.614 -0.1352 -0.7259  0.0069
 9528TIP3    H128548   1.904   2.526   4.598 -0.3253 -0.5465  1.4359
 9528TIP3    H228549   1.969   2.425   4.691  1.5751  0.6385  1.4279
 9529TIP3   OH228550   5.006   1.742   5.644  0.5129 -0.4484 -0.0248
 9529TIP3    H128551   5.034   1.791   5.721  1.8492 -2.2983  0.7487
 9529TIP3    H228552   5.081   1.745   5.584  0.1599 -0.5376 -0.4780
 9530TIP3   OH228553   1.563   6.129   1.934  0.0193 -0.0628  0.1753
 9530TIP3    H128554   1.650   6.101   1.906  0.4652  1.2380  0.1997
 9530TIP3    H228555   1.514   6.142   1.852 -0.5102 -1.8094  0.1825
 9531TIP3   OH228556   2.185   1.335   2.504 -0.1338 -0.7107  0.9076
 9531TIP3    H128557   2.275   1.319   2.476  0.0268 -0.4304  1.2482
 9531TIP3    H228558   2.132   1.277   2.449  0.4844 -3.2372  2.7863
 9532TIP3   OH228559   1.229   2.136   3.769 -1.0332 -0.1912  0.5036
 9532TIP3    H128560   1.225   2.212   3.828  0.4577  0.4079 -0.0928
 9532TIP3    H228561   1.148   2.140   3.718 -1.6112  0.1856  1.4281
 9533TIP3   OH228562   1.535   0.907   5.308 -0.0249  0.4626  0.0160
 9533TIP3    H128563   1.535   0.954   5.224 -0.1499 -0.6489 -0.6342
 9533TIP3    H228564   1.497   0.822   5.287  0.1248  0.0975  1.1743
 9534TIP3   OH228565   3.043   1.938   1.372  0.3059  0.0635  0.3100
 9534TIP3    H128566   3.035   2.021   1.420 -1.7931  0.0938  0.0250
 9534TIP3    H228567   3.047   1.871   1.441  0.1125  0.2918  0.5495
 9535TIP3   OH228568   5.987   3.691   4.255  0.4282  0.3598 -0.0260
 9535TIP3    H128569   6.005   3.784   4.241 -0.0290  0.4615  0.0491
 9535TIP3    H228570   5.997   3.679   4.349 -0.9193  0.6483  0.1712
 9536TIP3   OH228571   7.043   0.243   0.235  0.3268 -0.1181  0.0477
 9536TIP3    H128572   7.107   0.252   0.165 -0.0355  1.6040 -0.0941
 9536TIP3    H228573   7.012   0.332   0.252 -1.6762 -0.8275  0.4327
 9537TIP3   OH228574   4.781   2.936   0.242 -0.3170  0.1263  0.0746
 9537TIP3    H128575   4.708   2.993   0.264 -0.7597 -0.3296 -0.1803
 9537TIP3    H228576   4.748   2.848   0.257  0.2926 -0.0742  0.2705
 9538TIP3   OH228577   3.584   2.363   0.367  0.3313  0.1275 -0.1351
 9538TIP3    H128578   3.596   2.447   0.323 -0.5095 -0.5153 -1.6716
 9538TIP3    H228579   3.672   2.325   0.370  0.6299  0.8211  0.1029
 9539TIP3   OH228580   7.100   5.871   3.586  0.6184 -0.2857  0.5234
 9539TIP3    H128581   7.135   5.782   3.590  1.6931  0.0507 -0.8022
 9539TIP3    H228582   7.021   5.863   3.532  1.0702 -0.3472 -0.1430
 9540TIP3   OH228583   0.241   5.032   2.627  0.4703  0.0368 -0.0438
 9540TIP3    H128584   0.305   5.095   2.660 -1.3893  1.0118  1.9618
 9540TIP3    H228585   0.277   4.946   2.651  3.0437  0.2048 -2.8316
 9541TIP3   OH228586   5.995   2.878   1.747 -0.3158 -0.3595 -0.5941
 9541TIP3    H128587   5.958   2.789   1.743 -1.6820  0.2155 -3.2244
 9541TIP3    H228588   5.959   2.922   1.670  1.2449  2.1500 -0.0012
 9542TIP3   OH228589   1.907   1.135   1.018 -0.3832 -0.0308 -0.2431
 9542TIP3    H128590   1.943   1.170   0.937 -0.4276  0.7203  0.0524
 9542TIP3    H228591   1.984   1.104   1.067 -0.3842 -0.7813 -0.6960
 9543TIP3   OH228592   5.030   0.871   0.758 -0.1549  0.1778 -0.0775
 9543TIP3    H128593   5.107   0.832   0.715 -0.8495 -1.6248  0.2108
 9543TIP3    H228594   4.965   0.800   0.759 -0.2081  0.0584  3.8739
 9544TIP3   OH228595   6.798   6.169   0.035 -0.5416 -0.1056  0.3603
 9544TIP3    H128596   6.718   6.218   0.054 -0.0616  0.3482  1.2407
 9544TIP3    H228597   6.770   6.077   0.038 -1.1694  0.0615 -0.0383
 9545TIP3   OH228598   3.892   1.175   5.001  0.1579  0.0970 -0.3266
 9545TIP3    H128599   3.908   1.081   5.013 -1.4650 -0.2380 -0.5514
 9545TIP3    H228600   3.832   1.179   4.926 -0.3318  1.2658  0.1091
 9546TIP3   OH228601   4.300   4.267   3.623 -0.0269  0.2020 -0.2962
 9546TIP3    H128602   4.358   4.339   3.598  1.2659 -0.9795 -0.8662
 9546TIP3    H228603   4.228   4.271   3.560  0.0870  0.9323 -0.3868
 9547TIP3   OH228604   0.832   5.520   1.034 -0.0097 -0.3438  0.2816
 9547TIP3    H128605   0.753   5.550   0.990  0.4682 -1.3242 -1.3301
 9547TIP3    H228606   0.881   5.601   1.052 -0.3841  0.1224 -0.7030
 9548TIP3   OH228607   4.015   3.099   5.226  0.6175 -0.0240  0.0150
 9548TIP3    H128608   4.100   3.068   5.256  0.5699  0.2258  0.4165
 9548TIP3    H228609   4.030   3.125   5.135  1.0363  0.2755  0.1653
 9549TIP3   OH228610   5.411   6.517   4.090 -0.3441 -0.0335  0.0492
 9549TIP3    H128611   5.491   6.469   4.111 -0.3179  0.2614  0.6484
 9549TIP3    H228612   5.364   6.460   4.028  0.6546  0.1133 -0.8711
 9550TIP3   OH228613   5.267   5.219   4.875 -0.3106  0.5735  0.1456
 9550TIP3    H128614   5.314   5.267   4.807 -2.5945  0.1240 -1.8716
 9550TIP3    H228615   5.215   5.286   4.920  0.5110  0.7310  0.8896
 9551TIP3   OH228616   0.761   4.974   4.060  0.2860 -0.0208 -0.3076
 9551TIP3    H128617   0.826   5.042   4.043 -0.6279  0.3634 -2.5054
 9551TIP3    H228618   0.760   4.921   3.981 -0.6554 -1.2277  0.4828
 9552TIP3   OH228619   6.705   1.642   2.654 -0.7267 -0.9737 -0.4701
 9552TIP3    H128620   6.745   1.555   2.650 -0.4704 -0.8687 -0.1959
 9552TIP3    H228621   6.772   1.697   2.693 -1.3805 -0.9303  0.6108
 9553TIP3   OH228622   2.997   0.266   1.771  0.7062  0.0732  0.0104
 9553TIP3    H128623   2.949   0.202   1.718  1.4628  0.1596 -0.7932
 9553TIP3    H228624   2.929   0.325   1.805 -0.0077 -1.1767  0.8205
 9554TIP3   OH228625   4.241   2.883   3.311  0.1733 -0.2762 -0.1919
 9554TIP3    H128626   4.245   2.842   3.398  1.1530  0.8439  0.3235
 9554TIP3    H228627   4.320   2.937   3.306 -0.5962  0.8327 -1.1871
 9555TIP3   OH228628   1.598   1.452   1.967  0.1655 -0.5520  0.0441
 9555TIP3    H128629   1.548   1.371   1.977  1.0739 -1.2350 -0.7908
 9555TIP3    H228630   1.660   1.433   1.897  1.1456  0.5074  0.6072
 9556TIP3   OH228631   6.273   5.365   1.140  0.1876  0.1717  0.7244
 9556TIP3    H128632   6.294   5.445   1.188 -2.8754  1.2589  0.4734
 9556TIP3    H228633   6.348   5.352   1.081  0.6853  3.0409  0.5689
 9557TIP3   OH228634   6.654   0.612   4.230  0.3723 -0.2266 -0.4229
 9557TIP3    H128635   6.615   0.541   4.179 -0.4202  0.5099 -0.8657
 9557TIP3    H228636   6.691   0.671   4.165  0.8473 -0.1242 -0.0634
 9558TIP3   OH228637   2.633   6.737   4.246  0.1394 -0.5102 -0.4712
 9558TIP3    H128638   2.654   6.794   4.171 -0.2800  0.6446  0.2603
 9558TIP3    H228639   2.680   6.776   4.319 -0.4859 -0.8828  0.1334
 9559TIP3   OH228640   4.022   0.815   5.737  0.2534 -0.0974 -0.3492
 9559TIP3    H128641   3.961   0.749   5.769 -1.6684  2.0016  0.6461
 9559TIP3    H228642   4.105   0.769   5.726 -0.6241 -2.3333  1.6156
 9560TIP3   OH228643   1.255   1.446   2.930 -1.2332  0.4214  0.2569
 9560TIP3    H128644   1.179   1.505   2.929 -1.0084  0.7930  2.0156
 9560TIP3    H228645   1.322   1.493   2.881 -1.7137  0.6844 -0.1640
 9561TIP3   OH228646   4.971   0.643   4.575 -0.6788  0.3544 -0.0522
 9561TIP3    H128647   4.933   0.711   4.519 -2.1577  1.1658  1.8238
 9561TIP3    H228648   5.032   0.690   4.631  3.2880 -0.9078 -2.8860
 9562TIP3   OH228649   0.175   2.307   0.356 -0.1512  0.0907  0.0514
 9562TIP3    H128650   0.175   2.322   0.262 -3.0743  0.8424  0.0897
 9562TIP3    H228651   0.207   2.389   0.394  0.3346  0.0375 -0.2279
 9563TIP3   OH228652   1.692   5.864   1.651 -0.0489  0.1463  0.3730
 9563TIP3    H128653   1.754   5.830   1.585 -0.2831 -0.5296  0.4945
 9563TIP3    H228654   1.739   5.855   1.734 -0.1414  0.0460  0.4142
 9564TIP3   OH228655   1.302   0.329   0.921  0.4229  0.2123 -0.4211
 9564TIP3    H128656   1.374   0.349   0.861  0.9329  2.4213  0.8004
 9564TIP3    H228657   1.255   0.412   0.929  0.4179  0.0208  2.2123
 9565TIP3   OH228658   5.395   3.154   3.294  0.2732 -0.2357  0.5127
 9565TIP3    H128659   5.380   3.239   3.253  0.3382 -0.4485  0.0436
 9565TIP3    H228660   5.337   3.154   3.371  0.2604  0.2232  0.5030
 9566TIP3   OH228661   6.002   5.115   1.479 -0.2080  0.2619 -0.4369
 9566TIP3    H128662   5.928   5.063   1.450 -0.2147  0.6395 -1.1071
 9566TIP3    H228663   5.966   5.202   1.495 -0.2441  0.0281  0.9075
 9567TIP3   OH228664   1.419   0.783   1.568 -0.3131  0.3294  0.2671
 9567TIP3    H128665   1.398   0.830   1.487 -1.3946 -3.5417 -1.9805
 9567TIP3    H228666   1.334   0.769   1.610  0.1883  1.8206  1.9231
 9568TIP3   OH228667   5.558   3.685   2.511  0.1607  0.0117  0.3070
 9568TIP3    H128668   5.637   3.703   2.459  1.3918  0.4435  2.2123
 9568TIP3    H228669   5.526   3.771   2.536 -0.3237 -0.1934  0.3929
 9569TIP3   OH228670   4.979   5.424   1.952  0.0460  0.6468 -0.3587
 9569TIP3    H128671   4.986   5.402   2.045  2.7634  1.5170 -0.2937
 9569TIP3    H228672   4.974   5.520   1.950 -1.1019  0.6004 -1.1093
 9570TIP3   OH228673   1.830   4.095   4.115  0.8869  0.2275  0.0200
 9570TIP3    H128674   1.787   4.012   4.138  2.2277 -0.4215  0.2936
 9570TIP3    H228675   1.758   4.157   4.106 -0.0671 -0.6606  1.0892
 9571TIP3   OH228676   3.330   6.215   4.371  0.0530  0.1851  0.0111
 9571TIP3    H128677   3.243   6.255   4.364 -0.5886 -0.8298  1.5351
 9571TIP3    H228678   3.389   6.289   4.384 -1.0417  0.7492  2.2917
 9572TIP3   OH228679   0.792   0.821   2.556 -0.7177  0.0867 -0.6317
 9572TIP3    H128680   0.846   0.878   2.501 -2.6166  2.0408 -0.5922
 9572TIP3    H228681   0.850   0.795   2.627  1.1154 -0.6275 -2.2908
 9573TIP3   OH228682   2.593   6.303   3.134 -0.2128 -0.1866  0.2382
 9573TIP3    H128683   2.555   6.224   3.173  0.7694 -0.0003  1.6693
 9573TIP3    H228684   2.645   6.342   3.205  0.4268  1.0075 -0.8415
 9574TIP3   OH228685   0.967   4.559   5.804  0.6708  0.0345  0.0010
 9574TIP3    H128686   0.901   4.575   5.737  0.1921  0.5138  0.5640
 9574TIP3    H228687   1.019   4.486   5.771  1.5366  1.3249 -1.6928
 9575TIP3   OH228688   4.301   2.196   4.539  0.1319 -0.4041  0.6715
 9575TIP3    H128689   4.260   2.244   4.467 -1.0212 -1.7789  0.3711
 9575TIP3    H228690   4.231   2.140   4.574  1.1200 -1.0115  1.7538
 9576TIP3   OH228691   3.391   3.883   1.015  0.1894 -0.6158 -0.0032
 9576TIP3    H128692   3.340   3.904   1.093  1.2251  1.6319  0.1591
 9576TIP3    H228693   3.330   3.893   0.943 -0.3423 -0.9570  0.3959
 9577TIP3   OH228694   4.079   5.906   2.479 -0.7775 -0.1298  0.2211
 9577TIP3    H128695   4.037   5.881   2.397  1.8157 -1.4072 -0.8386
 9577TIP3    H228696   4.086   6.001   2.475  0.0750 -0.2327 -1.4944
 9578TIP3   OH228697   4.434   5.004   0.335 -0.4590 -0.5142  0.0191
 9578TIP3    H128698   4.445   4.924   0.283  1.6806  0.1583 -0.6640
 9578TIP3    H228699   4.507   5.060   0.308 -0.8565  0.9506  1.8116
 9579TIP3   OH228700   5.608   5.342   4.812 -0.3305 -0.7032  0.4603
 9579TIP3    H128701   5.625   5.361   4.904  0.0682  0.3193  0.1915
 9579TIP3    H228702   5.695   5.325   4.775 -0.2234  0.9668 -0.1525
 9580TIP3   OH228703   2.004   1.593   4.602 -0.0570 -0.2146  0.0398
 9580TIP3    H128704   1.973   1.585   4.693  1.5023  0.6198  0.6961
 9580TIP3    H228705   1.988   1.685   4.580  1.2965  0.0884  0.1918
 9581TIP3   OH228706   5.237   4.223   2.866  0.4129  0.4435 -0.0658
 9581TIP3    H128707   5.192   4.145   2.834  0.8509 -0.0293  0.4555
 9581TIP3    H228708   5.207   4.234   2.956  0.9523  0.4085  0.1253
 9582TIP3   OH228709   5.209   6.676   0.782 -0.2687  0.0223 -0.2340
 9582TIP3    H128710   5.177   6.668   0.872  0.1161  1.5695  0.0773
 9582TIP3    H228711   5.292   6.724   0.791  1.4351 -2.5210 -1.1416
 9583TIP3   OH228712   2.304   3.459   2.573  0.7132  0.0833 -0.2731
 9583TIP3    H128713   2.317   3.396   2.502  0.8256 -0.5388  0.2914
 9583TIP3    H228714   2.306   3.545   2.530  1.1099 -0.2720 -0.9727
 9584TIP3   OH228715   1.812   0.083   0.195 -0.0167  0.5427 -0.5455
 9584TIP3    H128716   1.900   0.110   0.218 -0.8976  0.8239  3.1016
 9584TIP3    H228717   1.806  -0.008   0.223 -0.5540  0.1101 -1.9562
 9585TIP3   OH228718   1.543   6.733   4.719 -0.3779  0.5414 -1.2309
 9585TIP3    H128719   1.485   6.802   4.685  0.8399  1.8870 -0.6875
 9585TIP3    H228720   1.631   6.764   4.699  0.2239 -0.4996 -0.2852
 9586TIP3   OH228721   1.767   1.931   4.365 -0.4772  0.0374 -0.0877
 9586TIP3    H128722   1.837   1.888   4.415 -0.8946 -1.7429 -0.9260
 9586TIP3    H228723   1.774   2.023   4.387  1.4444 -0.2506  0.6883
 9587TIP3   OH228724   4.279   4.645   3.188 -0.0710 -0.2021  0.3491
 9587TIP3    H128725   4.199   4.597   3.166 -0.2567 -0.2100  1.0220
 9587TIP3    H228726   4.257   4.736   3.171  0.0721 -0.2853 -0.3145
 9588TIP3   OH228727   6.708   5.234   1.985 -0.0670 -0.0605  0.2692
 9588TIP3    H128728   6.796   5.203   1.964  0.7422  2.1379  0.1177
 9588TIP3    H228729   6.656   5.155   1.994  1.6437 -1.3887 -0.8756
 9589TIP3   OH228730   5.439   6.172   2.729  0.4996 -0.0341 -0.2817
 9589TIP3    H128731   5.447   6.253   2.780 -0.8941 -0.1836  0.2086
 9589TIP3    H228732   5.362   6.185   2.674  0.5690 -0.8248 -0.5765
 9590TIP3   OH228733   3.406   5.135   3.263 -0.2818 -0.1756  0.1289
 9590TIP3    H128734   3.467   5.062   3.276  1.2193  1.3007  1.8466
 9590TIP3    H228735   3.399   5.143   3.167  2.1074 -0.5263 -0.1286
 9591TIP3   OH228736   3.539   0.433   4.617 -0.8220  0.2067 -0.4739
 9591TIP3    H128737   3.505   0.479   4.540 -0.8249  0.4230 -0.3447
 9591TIP3    H228738   3.463   0.425   4.675 -0.2469  2.6149  0.7622
 9592TIP3   OH228739   5.532   2.278   2.931  0.7526 -0.6205 -0.1038
 9592TIP3    H128740   5.495   2.192   2.952  2.1987 -1.0911  0.7273
 9592TIP3    H228741   5.532   2.281   2.835  1.3089 -1.8646 -0.1636
 9593TIP3   OH228742   5.900   1.293   3.983  0.2591 -0.3726  0.1094
 9593TIP3    H128743   5.850   1.346   4.046 -0.2955  0.0865 -0.7069
 9593TIP3    H228744   5.834   1.240   3.939  0.6421 -0.6557 -0.1227
 9594TIP3   OH228745   2.066   1.570   1.129  0.0372 -0.4564 -0.2052
 9594TIP3    H128746   2.116   1.530   1.058  0.2507 -1.8682  0.7106
 9594TIP3    H228747   2.114   1.651   1.149 -0.0149 -0.0532 -1.6217
 9595TIP3   OH228748   0.924   6.206   1.063 -0.6331  0.1829  0.7843
 9595TIP3    H128749   0.890   6.168   0.982 -1.2543 -0.0213  1.1399
 9595TIP3    H228750   0.994   6.146   1.089  1.7195  1.8594 -1.2212
 9596TIP3   OH228751   2.609   4.383   4.473 -0.0913 -0.0373 -0.7851
 9596TIP3    H128752   2.698   4.405   4.499 -0.5635  1.1508 -0.0944
 9596TIP3    H228753   2.578   4.461   4.427 -1.1499  0.0074 -0.0246
 9597TIP3   OH228754   0.030   0.778   3.538 -0.0999  0.5508  0.0444
 9597TIP3    H128755  -0.050   0.725   3.540  0.8662 -0.9391  0.7957
 9597TIP3    H228756   0.081   0.747   3.612 -0.0296  3.5039  1.3975
 9598TIP3   OH228757   0.710   2.597   0.802 -0.5028 -0.7265 -0.1330
 9598TIP3    H128758   0.673   2.661   0.740 -2.3404 -0.4308  1.1859
 9598TIP3    H228759   0.731   2.649   0.879 -1.4935 -1.5822  0.7475
 9599TIP3   OH228760   4.765   2.291   0.963  0.4361 -0.2894 -0.1335
 9599TIP3    H128761   4.833   2.351   0.993  2.1312 -1.9746 -0.3703
 9599TIP3    H228762   4.713   2.272   1.041  0.4155  0.7928  0.1246
 9600TIP3   OH228763   0.516   2.610   3.898 -0.1567  0.5061  0.7023
 9600TIP3    H128764   0.490   2.529   3.943 -0.0821 -0.7020 -1.2994
 9600TIP3    H228765   0.592   2.641   3.947  0.1981 -0.9867  1.1650
 9601TIP3   OH228766   3.264   0.871   0.529 -0.2102  0.2540  0.1399
 9601TIP3    H128767   3.263   0.898   0.621 -0.4527 -1.7878  0.7920
 9601TIP3    H228768   3.257   0.775   0.532  1.1138  0.0301 -1.9671
 9602TIP3   OH228769   1.435   4.940   0.767  0.2723 -0.4186  0.4898
 9602TIP3    H128770   1.376   5.006   0.804  0.8286  0.3449  0.0586
 9602TIP3    H228771   1.446   4.876   0.838  2.2625  1.6220  2.2192
 9603TIP3   OH228772   4.594   6.123   5.520 -0.1594  0.6150 -0.0783
 9603TIP3    H128773   4.514   6.164   5.554 -0.2174 -1.1605  2.1733
 9603TIP3    H228774   4.564   6.050   5.467 -0.1439 -0.9501  1.9393
 9604TIP3   OH228775   4.662   2.329   0.635  0.1321  0.5175 -0.1050
 9604TIP3    H128776   4.674   2.240   0.601 -0.9355  0.1698  0.4034
 9604TIP3    H228777   4.612   2.318   0.716 -2.8637  1.7418 -1.6180
 9605TIP3   OH228778   0.849   0.417   2.389 -0.3585 -0.0953  0.0419
 9605TIP3    H128779   0.940   0.433   2.411 -0.7301  3.5582 -0.6042
 9605TIP3    H228780   0.843   0.321   2.380  3.4010 -0.4329 -0.1720
 9606TIP3   OH228781   3.898   2.243   3.691 -0.2939  0.6191  0.1255
 9606TIP3    H128782   3.981   2.287   3.709  0.0559 -0.2734  0.7665
 9606TIP3    H228783   3.886   2.252   3.597  0.1826  1.3429  0.1254
 9607TIP3   OH228784   1.305   5.719   1.881 -0.1752  0.2131 -0.2136
 9607TIP3    H128785   1.246   5.664   1.830  1.6302 -1.6824 -0.3892
 9607TIP3    H228786   1.359   5.763   1.815  0.7309 -0.5852 -0.0319
 9608TIP3   OH228787   1.632   5.492   2.958  0.1227 -0.0253 -0.0239
 9608TIP3    H128788   1.605   5.517   3.046 -1.8929  2.0355 -1.1270
 9608TIP3    H228789   1.653   5.399   2.965  0.1977  0.1254  2.6426
 9609TIP3   OH228790   4.001   4.922   0.341  0.3325  0.3419 -0.0650
 9609TIP3    H128791   4.092   4.894   0.351 -0.3984 -2.2472  0.0086
 9609TIP3    H228792   3.962   4.909   0.427 -0.5105 -0.2844 -0.5211
 9610TIP3   OH228793   0.278   4.834   3.249  0.1453  0.2848 -0.3581
 9610TIP3    H128794   0.250   4.747   3.279  0.3446  0.9433  1.8828
 9610TIP3    H228795   0.348   4.859   3.308  0.4476  1.7755 -1.2928
 9611TIP3   OH228796   2.648   2.962   3.064 -0.5373 -0.2088 -0.1946
 9611TIP3    H128797   2.578   2.943   3.001  0.8658 -1.6219 -1.4221
 9611TIP3    H228798   2.715   3.007   3.012 -0.2329  0.5109  0.8012
 9612TIP3   OH228799   6.367   6.470   4.130  0.0154  0.3414 -0.4332
 9612TIP3    H128800   6.274   6.476   4.106  0.6801  1.8221 -3.1258
 9612TIP3    H228801   6.379   6.540   4.195 -0.3567  1.8120 -1.8544
 9613TIP3   OH228802   0.537   5.227   4.777 -0.1254  1.0273  0.0338
 9613TIP3    H128803   0.630   5.229   4.801 -0.6151  0.3521  2.2358
 9613TIP3    H228804   0.532   5.163   4.706  1.1503  1.4623 -0.4699
 9614TIP3   OH228805   4.864   2.114   0.768 -0.4781 -0.3311  0.3901
 9614TIP3    H128806   4.832   2.175   0.834 -0.1691  0.2586  0.0029
 9614TIP3    H228807   4.958   2.126   0.766 -0.3860 -1.0129  0.4940
 9615TIP3   OH228808   4.255   4.751   0.365 -0.0734 -0.4731 -0.1759
 9615TIP3    H128809   4.293   4.719   0.284  1.3695  1.3556 -0.2832
 9615TIP3    H228810   4.327   4.748   0.428 -0.8222 -0.6394  0.6989
 9616TIP3   OH228811   5.528   4.113   0.467 -0.2255 -0.3932  0.6704
 9616TIP3    H128812   5.472   4.036   0.477 -0.3898 -0.2925  0.5431
 9616TIP3    H228813   5.594   4.088   0.403  0.3078 -0.7504  1.3530
 9617TIP3   OH228814   0.529   4.857   5.275  0.3260  0.6403  0.3168
 9617TIP3    H128815   0.464   4.892   5.214  0.6687 -0.6025 -0.8046
 9617TIP3    H228816   0.579   4.934   5.303 -1.1312  1.5192  0.6401
 9618TIP3   OH228817   1.580   3.665   4.624 -0.0150  0.7021  0.0365
 9618TIP3    H128818   1.528   3.736   4.663  2.4958  2.6905  0.0599
 9618TIP3    H228819   1.582   3.597   4.691 -1.9213  0.8681  0.3065
 9619TIP3   OH228820   2.700   2.597   1.576  0.0866  0.6299 -0.4926
 9619TIP3    H128821   2.724   2.673   1.523  1.4590 -0.6408 -1.8033
 9619TIP3    H228822   2.605   2.598   1.579  0.0537  1.7764 -1.4244
 9620TIP3   OH228823   5.089   2.017   0.595 -0.1614  0.4475  0.3964
 9620TIP3    H128824   5.026   1.948   0.616  0.2320 -0.4461 -1.2192
 9620TIP3    H228825   5.070   2.042   0.505  2.1226 -0.2907 -0.3699
 9621TIP3   OH228826   6.190   5.345   0.177  0.4402 -0.1987 -0.1877
 9621TIP3    H128827   6.125   5.280   0.204 -0.1751  0.2141 -0.6612
 9621TIP3    H228828   6.216   5.318   0.090  1.1772 -0.5682  0.1412
 9622TIP3   OH228829   5.826   0.020   3.805 -0.2736 -0.1627 -1.1029
 9622TIP3    H128830   5.859   0.032   3.894 -0.1106 -0.7273 -1.0852
 9622TIP3    H228831   5.764   0.093   3.792 -1.7192 -1.0992  0.1374
 9623TIP3   OH228832   0.395   2.781   1.943  0.0699 -0.2102 -0.1606
 9623TIP3    H128833   0.477   2.759   1.986  0.0985  0.7543  0.3005
 9623TIP3    H228834   0.409   2.867   1.905 -0.9884  0.3676  0.6763
 9624TIP3   OH228835   4.240   0.378   2.259 -0.0869 -0.4282 -0.2983
 9624TIP3    H128836   4.167   0.429   2.295  1.0568 -0.0074  1.5412
 9624TIP3    H228837   4.197   0.309   2.208 -1.7106  1.3017 -1.4124
 9625TIP3   OH228838   0.374   1.619   4.534 -0.0737  0.6249 -0.0720
 9625TIP3    H128839   0.437   1.591   4.600  0.3582 -1.4420 -1.2462
 9625TIP3    H228840   0.428   1.640   4.458 -0.7162 -1.0396 -1.0488
 9626TIP3   OH228841   1.729   5.234   5.788 -0.1502 -0.0679 -0.1709
 9626TIP3    H128842   1.752   5.142   5.799 -1.2931 -0.2672  0.7601
 9626TIP3    H228843   1.803   5.282   5.825 -0.4710 -0.6600  1.3264
 9627TIP3   OH228844   1.576   4.362   4.357 -0.1980  0.2159  0.0879
 9627TIP3    H128845   1.632   4.321   4.423 -0.0091  1.6577  0.8557
 9627TIP3    H228846   1.572   4.454   4.382  1.3671  1.2585 -2.9154
 9628TIP3   OH228847   5.752   5.206   1.323 -0.5326  0.5072 -0.1815
 9628TIP3    H128848   5.687   5.212   1.393  0.5395  0.1177  0.8785
 9628TIP3    H228849   5.830   5.247   1.359  0.2226 -0.2417 -0.9207
 9629TIP3   OH228850   5.047   5.838   4.075  0.1942 -0.3516  0.0399
 9629TIP3    H128851   5.003   5.867   3.994  2.2054  1.9014 -0.3483
 9629TIP3    H228852   5.128   5.798   4.045  0.4427 -0.4993  0.8888
 9630TIP3   OH228853   5.562   5.750   5.206  0.0670 -0.4309 -0.4624
 9630TIP3    H128854   5.601   5.680   5.259 -0.1373 -0.4376 -0.3208
 9630TIP3    H228855   5.478   5.713   5.177 -0.2713 -0.0525  0.0317
 9631TIP3   OH228856   0.720   5.501   4.000 -0.2041  0.0503 -0.0407
 9631TIP3    H128857   0.628   5.516   3.979 -0.3658 -0.2594  0.4273
 9631TIP3    H228858   0.725   5.409   4.025  0.0114  0.3256  1.0116
 9632TIP3   OH228859   0.918   0.514   1.831 -0.0374  0.1885  0.2997
 9632TIP3    H128860   0.987   0.483   1.890 -0.7448  1.8313  2.0626
 9632TIP3    H228861   0.838   0.475   1.865 -0.0621 -1.8943 -1.8752
 9633TIP3   OH228862   1.900   6.085   4.835 -0.0033  0.0491 -0.4211
 9633TIP3    H128863   1.964   6.133   4.782 -0.0430  0.6043  0.0234
 9633TIP3    H228864   1.862   6.021   4.774  0.8628 -0.1890 -0.7306
 9634TIP3   OH228865   2.657   2.237   3.388  0.5913  0.2238 -0.3469
 9634TIP3    H128866   2.576   2.214   3.344  0.3470 -2.9072  1.4745
 9634TIP3    H228867   2.725   2.225   3.322 -0.1298 -0.1184 -1.0364
 9635TIP3   OH228868   5.810   5.905   3.070  0.0310 -0.1257  1.1204
 9635TIP3    H128869   5.779   5.977   3.016 -0.4321 -1.5678 -0.5999
 9635TIP3    H228870   5.897   5.884   3.035 -0.3760 -1.2411  0.7539
 9636TIP3   OH228871   5.807   5.336   2.986 -0.1354  0.1348  0.1000
 9636TIP3    H128872   5.823   5.428   3.009  0.4189  0.1500 -0.3082
 9636TIP3    H228873   5.748   5.304   3.054  2.0960 -0.0775  2.0544
 9637TIP3   OH228874   5.788   0.561   0.666  0.2849  0.2382 -0.3239
 9637TIP3    H128875   5.729   0.518   0.604 -0.4058  0.8742 -0.1271
 9637TIP3    H228876   5.869   0.510   0.661 -0.9108 -1.9367  0.9174
 9638TIP3   OH228877   1.212   0.737   0.424 -0.2843 -0.1076 -0.0123
 9638TIP3    H128878   1.179   0.819   0.461  0.0632 -0.6015  1.4654
 9638TIP3    H228879   1.161   0.669   0.467  0.5827 -0.7309  0.0652
 9639TIP3   OH228880   3.501   4.415   2.821 -0.1862 -0.2781  0.1102
 9639TIP3    H128881   3.534   4.435   2.909  1.2978 -0.1272 -0.4441
 9639TIP3    H228882   3.545   4.333   2.797  2.1521  1.3563 -1.7604
 9640TIP3   OH228883   2.957   3.371   4.037  0.3799 -0.1855 -0.1228
 9640TIP3    H128884   2.923   3.284   4.056 -0.5774 -0.2013 -1.6950
 9640TIP3    H228885   3.032   3.356   3.980 -0.7420  0.0052 -1.7388
 9641TIP3   OH228886   4.876   0.829   1.774 -0.2268 -0.8587  0.2872
 9641TIP3    H128887   4.855   0.759   1.712 -0.6483 -0.2619 -0.2542
 9641TIP3    H228888   4.876   0.909   1.721  0.0921 -0.4240  0.9272
 9642TIP3   OH228889   3.388   0.803   2.850 -0.0983  0.2185  0.2805
 9642TIP3    H128890   3.400   0.823   2.943  0.0306  0.0656  0.2964
 9642TIP3    H228891   3.475   0.815   2.812 -0.4574  1.8190 -0.1070
 9643TIP3   OH228892   5.398   2.068   5.405  0.0656  0.5878  0.1739
 9643TIP3    H128893   5.479   2.018   5.400  0.8498  1.8103  0.3510
 9643TIP3    H228894   5.414   2.136   5.470 -1.3007  0.5142  0.6325
 9644TIP3   OH228895   6.845   2.194   2.042  0.1317 -0.2094 -0.0734
 9644TIP3    H128896   6.873   2.275   2.085  0.0868 -0.0537 -0.3379
 9644TIP3    H228897   6.761   2.217   2.001  1.1974  0.2561 -2.0820
 9645TIP3   OH228898   7.033   5.075   4.655 -0.2845  0.0558 -0.2327
 9645TIP3    H128899   6.983   5.078   4.574  0.0553  1.3290 -0.4097
 9645TIP3    H228900   7.119   5.041   4.629 -0.3903 -0.1753 -0.2834
 9646TIP3   OH228901   1.137   4.183   4.420  0.5162  0.0261  0.3685
 9646TIP3    H128902   1.201   4.239   4.465  1.0036  1.2729 -1.7449
 9646TIP3    H228903   1.052   4.225   4.438  0.6125  0.0669  0.7420
 9647TIP3   OH228904   3.727   0.492   5.589  0.6615 -0.1041 -0.4901
 9647TIP3    H128905   3.671   0.440   5.647 -1.2342  0.0950 -2.0326
 9647TIP3    H228906   3.740   0.575   5.635  0.5750 -0.5553  0.3523
 9648TIP3   OH228907   1.944   3.081   4.192 -0.1125 -0.1887 -0.9760
 9648TIP3    H128908   2.008   3.069   4.262 -1.4597  0.2680  0.3765
 9648TIP3    H228909   1.961   3.009   4.131  1.6920 -0.0522 -0.6853
 9649TIP3   OH228910   5.037   6.041   0.735 -0.1349  0.0440  0.1181
 9649TIP3    H128911   4.973   6.112   0.730 -0.1320  0.0005 -0.6979
 9649TIP3    H228912   4.993   5.966   0.696  0.5790  0.1460 -0.9130
 9650TIP3   OH228913   0.792   5.708   4.626  0.2126  0.5147  0.1519
 9650TIP3    H128914   0.810   5.615   4.638 -2.3922 -0.0477  0.2761
 9650TIP3    H228915   0.770   5.717   4.533 -0.6586  0.7514  0.3655
 9651TIP3   OH228916   0.962   5.102   1.432  0.1572  0.3222 -0.1161
 9651TIP3    H128917   0.981   5.195   1.422 -1.3592  0.9167  1.8567
 9651TIP3    H228918   1.038   5.066   1.478  1.5982  0.1163 -2.5030
 9652TIP3   OH228919   0.975   3.531   0.153 -0.2611  0.5109 -0.1525
 9652TIP3    H128920   0.948   3.524   0.244  0.8292 -0.0433  0.1432
 9652TIP3    H228921   1.031   3.456   0.138  2.3417  2.3413 -0.2720
 9653TIP3   OH228922   0.288   0.731   1.810 -0.3655 -0.1743  0.3834
 9653TIP3    H128923   0.256   0.650   1.768 -0.8128  0.3866 -0.3866
 9653TIP3    H228924   0.323   0.702   1.894  0.6329 -1.3596 -0.4015
 9654TIP3   OH228925   1.801   3.564   3.046 -0.2022  0.1402  0.3057
 9654TIP3    H128926   1.849   3.518   3.115  0.1245  0.8905  0.5901
 9654TIP3    H228927   1.750   3.630   3.092 -1.1123 -0.2936 -0.0462
 9655TIP3   OH228928   7.026   4.352   0.853 -0.1557  0.4507 -0.9253
 9655TIP3    H128929   7.023   4.440   0.891 -0.4930 -0.1033  0.3872
 9655TIP3    H228930   6.941   4.314   0.876  0.7489 -0.9239  0.3384
 9656TIP3   OH228931   2.080   1.638   1.499 -0.4281 -0.0953  0.0132
 9656TIP3    H128932   2.051   1.547   1.506 -0.1748 -0.1107  1.1531
 9656TIP3    H228933   2.158   1.635   1.443 -1.1353 -0.3956 -0.9715
 9657TIP3   OH228934   1.716   3.040   2.317  0.0585  0.4652  0.5289
 9657TIP3    H128935   1.733   3.032   2.411  0.5035 -0.2515  0.3953
 9657TIP3    H228936   1.699   2.950   2.288  2.8130  0.2014 -0.5979
 9658TIP3   OH228937   2.795   0.194   1.209 -0.4790  0.2114 -0.2364
 9658TIP3    H128938   2.741   0.163   1.136 -0.7530 -0.1634  0.1215
 9658TIP3    H228939   2.749   0.271   1.241  0.5747  1.4465 -1.5779
 9659TIP3   OH228940   2.174   4.862   4.602  0.0922 -0.2632 -0.2030
 9659TIP3    H128941   2.155   4.873   4.509  0.1417 -2.8444 -0.5998
 9659TIP3    H228942   2.224   4.940   4.626  0.0910  0.4606 -2.3301
 9660TIP3   OH228943   3.166   0.493   1.702  0.1202  0.7377  0.3529
 9660TIP3    H128944   3.132   0.404   1.711  0.5199  0.7769  2.9396
 9660TIP3    H228945   3.248   0.482   1.654 -0.7749  0.0045 -1.1095
 9661TIP3   OH228946   3.142   0.692   3.659 -0.0608  0.2506 -0.7835
 9661TIP3    H128947   3.233   0.710   3.682  0.2415  0.1305 -1.8261
 9661TIP3    H228948   3.104   0.654   3.738  0.5586  1.1012 -0.0622
 9662TIP3   OH228949   0.820   2.599   4.693 -0.0676  0.2789 -0.3565
 9662TIP3    H128950   0.792   2.604   4.601  1.5079  0.8918 -0.8509
 9662TIP3    H228951   0.852   2.688   4.712 -2.2762  0.7634  1.4769
 9663TIP3   OH228952   0.341   1.354   3.678 -0.2219  0.1704 -0.4997
 9663TIP3    H128953   0.327   1.354   3.772 -0.1239 -0.2717 -0.4833
 9663TIP3    H228954   0.335   1.446   3.653  1.7635  0.5376  0.2301
 9664TIP3   OH228955   5.827   0.075   0.299 -0.0914 -0.0010 -0.4658
 9664TIP3    H128956   5.901   0.042   0.248 -1.0896 -0.0973 -1.8923
 9664TIP3    H228957   5.851   0.165   0.320  1.1732 -0.5411  0.5952
 9665TIP3   OH228958   4.413   1.184   2.967  0.0735 -0.7130 -0.7527
 9665TIP3    H128959   4.463   1.126   3.024 -1.0093 -0.5900  0.3692
 9665TIP3    H228960   4.473   1.256   2.948  0.1988 -0.2974  1.0007
 9666TIP3   OH228961   1.185   6.518   4.266  0.5721  0.1162  0.1577
 9666TIP3    H128962   1.253   6.458   4.235  0.7844 -0.0248  0.8884
 9666TIP3    H228963   1.114   6.509   4.202 -0.1197 -2.2019  1.1654
 9667TIP3   OH228964   3.081   5.462   2.455  0.0622  0.1277  0.2167
 9667TIP3    H128965   3.039   5.380   2.480 -1.4288  0.8709  0.2395
 9667TIP3    H228966   3.065   5.521   2.529 -1.1726  1.2209 -0.8859
 9668TIP3   OH228967   3.232   5.107   3.476  0.0788  0.4632 -0.3300
 9668TIP3    H128968   3.155   5.131   3.423  0.7260 -0.0853 -1.5563
 9668TIP3    H228969   3.306   5.126   3.419  0.8990  1.3185  0.9702
 9669TIP3   OH228970   4.845   3.078   5.771  0.2796  0.2421  0.0584
 9669TIP3    H128971   4.934   3.113   5.778 -0.0064  0.7434  1.2864
 9669TIP3    H228972   4.849   2.994   5.816  0.5179 -0.5459 -1.3465
 9670TIP3   OH228973   5.771   3.879   0.468 -0.2692 -0.1047  0.3691
 9670TIP3    H128974   5.755   3.949   0.405  1.4414  0.0825  0.1034
 9670TIP3    H228975   5.860   3.893   0.498 -1.0808 -0.0623  3.0263
 9671TIP3   OH228976   0.031   4.435   5.344 -0.3632  0.0110  0.0597
 9671TIP3    H128977   0.094   4.507   5.343 -0.2587 -0.0631  0.6994
 9671TIP3    H228978  -0.054   4.478   5.351 -0.4248  0.1240 -1.1083
 9672TIP3   OH228979   6.692   3.547   4.852 -0.2078  0.1174 -0.3476
 9672TIP3    H128980   6.651   3.632   4.866  0.5246  0.3951  0.1676
 9672TIP3    H228981   6.782   3.567   4.828 -0.1438 -0.5037 -0.6644
 9673TIP3   OH228982   0.618   6.471   4.142 -0.4877  0.4838  0.5166
 9673TIP3    H128983   0.659   6.556   4.129 -0.2026  0.2250 -0.3827
 9673TIP3    H228984   0.554   6.485   4.212 -0.7947  1.5590  0.0482
 9674TIP3   OH228985   6.341   2.437   5.495  0.1317  0.3688 -0.6912
 9674TIP3    H128986   6.383   2.391   5.422 -1.8099 -2.1485 -0.3558
 9674TIP3    H228987   6.402   2.428   5.568  0.5362 -0.1582 -1.0856
 9675TIP3   OH228988   3.582   3.431   2.810  0.3068  0.5293  0.0906
 9675TIP3    H128989   3.560   3.515   2.849  1.6939  0.5288  0.9298
 9675TIP3    H228990   3.593   3.450   2.717  1.6031  1.5108  0.4164
 9676TIP3   OH228991   2.678   0.510   2.282 -0.2990 -0.1681  0.1154
 9676TIP3    H128992   2.661   0.423   2.246  1.1551 -0.2627 -0.3989
 9676TIP3    H228993   2.592   0.541   2.312 -0.6986 -2.1286  1.1269
 9677TIP3   OH228994   4.030   2.825   2.726 -0.2455  0.2466  0.0402
 9677TIP3    H128995   3.948   2.873   2.737  0.2572  0.5892  4.7434
 9677TIP3    H228996   4.003   2.735   2.707 -2.0669 -0.1920  3.7376
 9678TIP3   OH228997   0.674   5.661   4.918 -0.6375 -0.1329 -0.4290
 9678TIP3    H128998   0.759   5.637   4.954 -0.8824 -0.3257  0.0233
 9678TIP3    H228999   0.691   5.678   4.825 -0.6573 -3.2326 -1.0826
 9679TIP3   OH229000   3.266   1.456   3.321 -0.0617 -0.2294  0.4148
 9679TIP3    H129001   3.172   1.443   3.309  0.2881 -3.8739  0.3428
 9679TIP3    H229002   3.279   1.450   3.415  0.2168 -1.4385  0.3183
 9680TIP3   OH229003   1.168   5.901   3.134  0.2626 -0.2315  0.1713
 9680TIP3    H129004   1.240   5.866   3.186  0.2661  1.8587  1.6804
 9680TIP3    H229005   1.094   5.903   3.194  0.2216  2.0909  0.1211
 9681TIP3   OH229006   0.716   2.173   2.993 -0.5495 -0.1873 -0.1447
 9681TIP3    H129007   0.745   2.153   3.082 -1.8475 -0.4462  0.2419
 9681TIP3    H229008   0.747   2.262   2.977  1.7042 -0.9398 -0.3235
 9682TIP3   OH229009   5.775   3.870   3.934  0.1717 -0.3061 -0.3402
 9682TIP3    H129010   5.862   3.894   3.965  0.2648 -0.0253 -0.8184
 9682TIP3    H229011   5.790   3.827   3.850 -0.2759  1.6750 -1.5023
 9683TIP3   OH229012   2.242   6.187   1.044  0.2007 -0.0894  0.3079
 9683TIP3    H129013   2.265   6.168   1.135 -0.1677 -1.3201  0.1618
 9683TIP3    H229014   2.179   6.259   1.050 -1.7678 -1.7849  1.2354
 9684TIP3   OH229015   4.990   3.009   4.800  0.4171  0.4396  0.2289
 9684TIP3    H129016   4.947   3.047   4.877 -2.2760 -0.4528 -0.7207
 9684TIP3    H229017   4.971   3.071   4.729 -1.3605 -1.0302 -0.6678
 9685TIP3   OH229018   4.358   5.836   5.161  0.1764 -0.4940 -0.2440
 9685TIP3    H129019   4.268   5.868   5.168  0.2323 -0.3661 -0.0999
 9685TIP3    H229020   4.399   5.892   5.095 -0.3796 -1.7678 -1.7145
 9686TIP3   OH229021   6.419   5.385   2.727 -0.8364  0.1086 -0.0353
 9686TIP3    H129022   6.337   5.402   2.774 -0.6539 -0.9053  0.6963
 9686TIP3    H229023   6.486   5.428   2.781 -0.7751  0.0579 -0.0712
 9687TIP3   OH229024   5.242   6.212   2.495  0.4852  0.0121  0.1585
 9687TIP3    H129025   5.159   6.164   2.505  0.8827 -1.1207 -1.5270
 9687TIP3    H229026   5.232   6.289   2.551 -1.8366  0.0517 -0.2115
 9688TIP3   OH229027   0.759   4.166   4.991 -0.2939 -0.4535 -0.3277
 9688TIP3    H129028   0.780   4.139   4.901 -2.1176 -3.0499 -0.1012
 9688TIP3    H229029   0.664   4.180   4.989 -0.0144  1.8353  0.6864
 9689TIP3   OH229030   2.190   2.336   2.711  0.3490 -0.4496  0.6518
 9689TIP3    H129031   2.129   2.264   2.697 -0.1802  0.3317 -1.3981
 9689TIP3    H229032   2.252   2.330   2.638 -0.1021  1.5394  0.0550
 9690TIP3   OH229033   4.948   4.943   3.127  0.4821 -0.6876 -0.2845
 9690TIP3    H129034   4.909   4.949   3.040  0.1647 -1.7233 -0.2262
 9690TIP3    H229035   5.036   4.908   3.111  1.1384  0.8936 -0.3423
 9691TIP3   OH229036   4.125   4.165   5.701  0.6828  0.6507 -0.2808
 9691TIP3    H129037   4.093   4.117   5.778  0.3978  0.5955 -0.4337
 9691TIP3    H229038   4.062   4.235   5.689 -0.1160 -0.2324 -1.3720
 9692TIP3   OH229039   1.409   6.205   1.037  0.4497 -0.1510  0.0071
 9692TIP3    H129040   1.356   6.182   1.113  2.5138  1.4010  2.0430
 9692TIP3    H229041   1.361   6.278   0.996  0.6163  0.7639  1.3914
 9693TIP3   OH229042   6.972   3.997   1.022 -0.3030  0.6490 -0.1075
 9693TIP3    H129043   6.930   4.003   0.936  0.6115 -0.6767 -0.6821
 9693TIP3    H229044   7.065   3.986   1.003 -0.2718 -1.5224  0.9302
 9694TIP3   OH229045   5.223   1.025   0.408 -0.2090  0.0310  0.0659
 9694TIP3    H129046   5.186   1.099   0.456  1.0916  0.0026  1.1813
 9694TIP3    H229047   5.191   1.036   0.318  0.6589  2.4774 -0.0195
 9695TIP3   OH229048   6.126   6.722   4.133 -0.2951 -0.2848 -0.0887
 9695TIP3    H129049   6.043   6.763   4.157 -0.1946 -0.0355 -0.1632
 9695TIP3    H229050   6.104   6.630   4.119 -0.5834 -0.1958 -0.2356
 9696TIP3   OH229051   3.935   5.358   0.679  0.1011  0.1782  0.3990
 9696TIP3    H129052   4.020   5.346   0.721  0.2215  0.8310  0.3437
 9696TIP3    H229053   3.882   5.284   0.711  0.9376 -0.7215 -0.2301
 9697TIP3   OH229054   2.359   5.104   4.239  0.0203 -0.1936  0.4131
 9697TIP3    H129055   2.380   5.104   4.145  0.0897  0.9092  0.4148
 9697TIP3    H229056   2.300   5.178   4.250 -0.2232 -0.4959  1.2032
 9698TIP3   OH229057  -0.003   4.021   0.762  0.2211 -0.2217  0.2918
 9698TIP3    H129058   0.010   3.955   0.693 -0.3031  0.8841 -0.9068
 9698TIP3    H229059   0.084   4.056   0.780  0.1793  0.5058 -0.8702
 9699TIP3   OH229060   1.669   0.492   4.717 -0.6278 -0.0951 -0.2968
 9699TIP3    H129061   1.647   0.528   4.803 -1.8888 -2.0565  0.2639
 9699TIP3    H229062   1.688   0.569   4.663 -0.1734  1.1941  1.6128
 9700TIP3   OH229063   4.997   5.514   1.413  0.0238  0.3587  0.4653
 9700TIP3    H129064   4.924   5.560   1.454 -0.2241  0.6153 -0.2599
 9700TIP3    H229065   5.065   5.513   1.480 -0.5455  0.3594  1.0482
 9701TIP3   OH229066   6.674   1.002   1.565 -0.0252 -0.1896 -0.4653
 9701TIP3    H129067   6.699   1.068   1.629  1.2652 -2.2078  1.2321
 9701TIP3    H229068   6.583   0.981   1.586  0.1866 -0.3631  0.3099
 9702TIP3   OH229069   4.428   2.977   1.826  0.0967 -0.2956  0.4463
 9702TIP3    H129070   4.370   3.053   1.830  1.2497  0.7024 -0.7254
 9702TIP3    H229071   4.481   2.992   1.748  0.9947 -1.8510  0.7178
 9703TIP3   OH229072   6.106   5.620   0.928 -0.5480 -0.6133 -0.0497
 9703TIP3    H129073   6.102   5.695   0.987 -0.5206 -0.5446 -0.1341
 9703TIP3    H229074   6.162   5.649   0.856  0.0357 -0.9529  0.2593
 9704TIP3   OH229075   5.151   2.170   0.810  0.0081  0.4099 -0.0825
 9704TIP3    H129076   5.127   2.124   0.729 -1.6746  0.0748  0.5596
 9704TIP3    H229077   5.217   2.234   0.782  2.6214 -2.4371 -0.9812
 9705TIP3   OH229078   2.453   1.101   3.760 -0.7388  0.3236  1.1282
 9705TIP3    H129079   2.412   1.044   3.695 -1.0234  2.7167 -0.9540
 9705TIP3    H229080   2.380   1.132   3.814 -0.5420 -1.4062  2.5013
 9706TIP3   OH229081   4.045   0.217   1.367  0.5487 -0.4793  0.2383
 9706TIP3    H129082   3.997   0.188   1.289  0.8851 -1.6422  0.4313
 9706TIP3    H229083   4.133   0.180   1.355  0.0305 -2.5060  2.1273
 9707TIP3   OH229084   0.817   4.149   1.169  0.1068  0.8391 -0.0236
 9707TIP3    H129085   0.735   4.144   1.218  0.2319 -2.8117  0.1131
 9707TIP3    H229086   0.880   4.185   1.232 -0.4825 -0.5391  1.4205
 9708TIP3   OH229087   4.666   0.755   1.319 -0.3844  0.3138 -0.0188
 9708TIP3    H129088   4.616   0.738   1.400 -0.6576  0.4577 -0.1570
 9708TIP3    H229089   4.726   0.826   1.343  0.5818 -0.6448  0.4874
 9709TIP3   OH229090   1.471   6.193   3.675  0.4438  0.4871  0.1802
 9709TIP3    H129091   1.532   6.267   3.670 -0.0944  0.9660  0.6134
 9709TIP3    H229092   1.516   6.128   3.730  1.2782  0.1315 -0.8986
 9710TIP3   OH229093   3.129   3.959   4.111  0.7136  0.0377  0.0968
 9710TIP3    H129094   3.213   3.998   4.086  1.4553 -0.1926  2.0968
 9710TIP3    H229095   3.145   3.865   4.108  0.4402 -0.0128  0.2320
 9711TIP3   OH229096   3.268   2.123   4.971 -0.3881  0.1169  0.4348
 9711TIP3    H129097   3.262   2.155   4.881 -0.8329  3.3135  1.4990
 9711TIP3    H229098   3.361   2.132   4.993 -0.0620 -1.7567  0.0021
 9712TIP3   OH229099   4.130   0.070   2.082  0.4317  0.1348 -0.1521
 9712TIP3    H129100   4.055   0.116   2.045  2.1237  1.8917 -1.6557
 9712TIP3    H229101   4.110  -0.022   2.070 -0.7910  0.5872 -2.0550
 9713TIP3   OH229102   4.850   4.834   1.903  0.2362 -0.0971  0.0633
 9713TIP3    H129103   4.913   4.904   1.884  0.2863 -0.8723 -3.1938
 9713TIP3    H229104   4.899   4.754   1.887 -0.5862 -0.8491  1.1620
 9714TIP3   OH229105   7.149   2.564   2.687 -0.0276  0.7879  0.6045
 9714TIP3    H129106   7.100   2.619   2.627 -0.9869 -1.5789 -0.8864
 9714TIP3    H229107   7.084   2.508   2.728  0.9816  0.3353  1.6648
 9715TIP3   OH229108   2.243   0.201   4.961  0.0091  0.0423 -0.1037
 9715TIP3    H129109   2.175   0.205   4.893 -0.5167  0.6353  0.4534
 9715TIP3    H229110   2.234   0.114   4.998  0.1962 -0.2319 -0.6834
 9716TIP3   OH229111   1.520   6.217   4.793 -0.1265  0.4022 -0.0228
 9716TIP3    H129112   1.453   6.187   4.854 -0.9661 -0.2079 -1.2065
 9716TIP3    H229113   1.483   6.295   4.753 -0.1587  0.0399 -0.7158
 9717TIP3   OH229114   5.067   1.606   1.889  0.0684  0.5113  0.5307
 9717TIP3    H129115   5.001   1.615   1.821 -2.6249 -1.8928  2.5702
 9717TIP3    H229116   5.030   1.653   1.964  0.6235 -0.8262  1.6972
 9718TIP3   OH229117   6.519   0.311   5.012 -0.0582  0.3899  0.0090
 9718TIP3    H129118   6.604   0.348   4.986  0.2640  0.5449  1.2013
 9718TIP3    H229119   6.526   0.301   5.107 -1.8496  1.6333  0.3366
 9719TIP3   OH229120   5.611   1.175   1.163 -0.1925  0.5230  0.0336
 9719TIP3    H129121   5.625   1.193   1.256 -1.3129 -0.2606  0.3721
 9719TIP3    H229122   5.579   1.085   1.161  0.8778  0.1532 -1.2201
 9720TIP3   OH229123   7.073   3.762   3.922 -0.2692 -0.0039 -0.3523
 9720TIP3    H129124   7.157   3.741   3.964 -0.2730  2.6014  1.1580
 9720TIP3    H229125   7.013   3.695   3.954  0.4139  0.2473  1.5845
 9721TIP3   OH229126   0.862   5.871   4.998  0.5239 -0.2933  0.0710
 9721TIP3    H129127   0.776   5.859   5.040  0.4219 -0.5615 -0.2103
 9721TIP3    H229128   0.896   5.782   4.988 -0.0382 -0.3518 -1.6286
 9722TIP3   OH229129   6.430   6.061   5.289 -0.1736  0.6194  0.2753
 9722TIP3    H129130   6.406   6.147   5.254 -2.3861 -0.5169 -1.2451
 9722TIP3    H229131   6.396   6.061   5.378 -0.7702  1.0918  0.0569
 9723TIP3   OH229132   4.869   2.737   5.679  0.4248 -0.3579 -0.2508
 9723TIP3    H129133   4.864   2.744   5.774 -1.4640 -0.4307 -0.2978
 9723TIP3    H229134   4.868   2.643   5.662  0.1683 -0.3366 -0.3561
 9724TIP3   OH229135   7.189   0.588   1.756  0.1918  0.4726 -0.3316
 9724TIP3    H129136   7.240   0.527   1.809 -1.3865  0.6354  1.4834
 9724TIP3    H229137   7.182   0.546   1.670 -0.0600 -1.4732  0.5970
 9725TIP3   OH229138   3.131   6.559   1.745 -0.2309  0.1321  0.5603
 9725TIP3    H129139   3.114   6.653   1.755 -1.8303 -0.2553  2.0754
 9725TIP3    H229140   3.150   6.530   1.834  1.5365 -0.7852 -0.0808
 9726TIP3   OH229141   4.279   3.665   1.064  0.1990  0.2186  0.2371
 9726TIP3    H129142   4.262   3.634   1.153  0.9977  1.9449  1.0366
 9726TIP3    H229143   4.365   3.628   1.043  1.8013  2.7732  1.7258
 9727TIP3   OH229144   1.656   6.037   4.634 -0.0991 -0.2846 -0.1978
 9727TIP3    H129145   1.585   6.042   4.570  0.3707  0.7407 -0.6568
 9727TIP3    H229146   1.632   6.099   4.702  1.4800  1.9458 -1.5473
 9728TIP3   OH229147   5.136   3.098   2.898 -0.1401 -0.1121  0.1663
 9728TIP3    H129148   5.180   3.177   2.929 -2.0938  1.6602 -1.2873
 9728TIP3    H229149   5.208   3.041   2.869  1.3075  1.3442  0.7260
 9729TIP3   OH229150   3.667   3.858   5.732 -0.1811  0.0459  0.0110
 9729TIP3    H129151   3.680   3.797   5.659 -0.3795  0.6669 -0.5581
 9729TIP3    H229152   3.746   3.850   5.785  0.0945 -0.2075 -0.4340
 9730TIP3   OH229153   2.781   3.475   4.326  0.0133 -0.1442 -0.1794
 9730TIP3    H129154   2.717   3.528   4.277 -0.9383 -0.6549  0.4955
 9730TIP3    H229155   2.855   3.534   4.338 -0.5855  0.6789 -0.4099
 9731TIP3   OH229156   4.730   4.883   5.170  0.4133  0.5196  0.0209
 9731TIP3    H129157   4.672   4.906   5.098  0.2656  3.2525  0.8884
 9731TIP3    H229158   4.818   4.903   5.138  0.7887 -1.8004 -0.6140
 9732TIP3   OH229159   2.037   2.985   1.785 -0.2160 -0.4036 -0.1400
 9732TIP3    H129160   2.123   2.949   1.764  0.1166  0.0835  0.3544
 9732TIP3    H229161   2.051   3.080   1.787 -0.4110 -0.3709  1.3619
 9733TIP3   OH229162   4.027   2.271   1.212 -0.3340  0.4371  0.0095
 9733TIP3    H129163   4.067   2.230   1.135  1.2165 -0.3358  1.1674
 9733TIP3    H229164   3.939   2.296   1.183 -0.5094 -1.6064 -1.4501
 9734TIP3   OH229165   1.731   5.701   3.223 -0.1836  0.1458 -0.4725
 9734TIP3    H129166   1.754   5.608   3.231 -1.0129  0.0907  3.6137
 9734TIP3    H229167   1.813   5.744   3.200  1.2283 -1.2649  1.5851
 9735TIP3   OH229168   1.146   3.895   4.451  0.0917  0.7770 -0.1619
 9735TIP3    H129169   1.165   3.989   4.445  1.9497  0.4870  0.5516
 9735TIP3    H229170   1.127   3.868   4.361 -0.5165  1.8281 -0.3620
 9736TIP3   OH229171   1.471   6.310   0.648  0.2592 -0.9228  0.1573
 9736TIP3    H129172   1.412   6.339   0.718  0.5270 -0.8391  0.3462
 9736TIP3    H229173   1.485   6.217   0.665  1.8396 -0.5155  1.3284
 9737TIP3   OH229174   0.967   2.016   5.662  0.4469 -0.3178  0.5830
 9737TIP3    H129175   1.003   1.991   5.747  1.8534 -0.3594 -0.0073
 9737TIP3    H229176   0.891   2.070   5.684  0.8038 -0.3043  1.8699
 9738TIP3   OH229177   5.310   2.234   1.954  0.2300  0.1927  1.0932
 9738TIP3    H129178   5.356   2.151   1.943 -0.4349 -0.1576  0.9746
 9738TIP3    H229179   5.277   2.256   1.867 -2.1423 -0.9160  1.6437
 9739TIP3   OH229180   6.093   5.868   1.109 -0.0433 -0.2036  0.7762
 9739TIP3    H129181   6.175   5.867   1.157  0.2138  1.0148  0.3846
 9739TIP3    H229182   6.091   5.953   1.065  0.0805 -1.5132 -1.9725
 9740TIP3   OH229183   4.501   1.028   3.181  0.0671 -0.3363  0.0414
 9740TIP3    H129184   4.499   1.102   3.241  1.2930 -0.2467 -0.0070
 9740TIP3    H229185   4.480   0.952   3.236  2.6484 -0.4723  0.9627
 9741TIP3   OH229186   6.032   3.886   3.616 -0.2594 -0.5338  0.4417
 9741TIP3    H129187   6.066   3.958   3.668 -0.0721  1.0256 -1.7205
 9741TIP3    H229188   5.937   3.902   3.612 -0.1764 -0.2035 -0.3129
 9742TIP3   OH229189   4.021   0.120   2.461 -0.1873 -0.1661  0.0342
 9742TIP3    H129190   3.993   0.132   2.552 -2.5842 -1.8365 -0.4032
 9742TIP3    H229191   3.974   0.188   2.412  0.7598  0.4471 -0.0588
 9743TIP3   OH229192   5.577   0.388   1.347 -0.5127  0.1877  0.4800
 9743TIP3    H129193   5.639   0.366   1.278 -1.5329  1.2350 -0.8179
 9743TIP3    H229194   5.525   0.308   1.359  1.2582 -0.8568  1.8913
 9744TIP3   OH229195   5.842   2.567   0.568  0.7793 -0.4948 -0.0686
 9744TIP3    H129196   5.799   2.622   0.502  1.0034  1.0997  1.0733
 9744TIP3    H229197   5.898   2.508   0.516 -0.1025 -0.2366 -1.3653
 9745TIP3   OH229198   1.649   5.190   1.132 -0.2247 -0.2863  0.2166
 9745TIP3    H129199   1.727   5.185   1.188  0.3340  0.8469 -0.4178
 9745TIP3    H229200   1.643   5.103   1.092  0.4315 -0.5327  0.6301
 9746TIP3   OH229201   0.626   2.362   2.552  0.1533  0.6644  0.3540
 9746TIP3    H129202   0.619   2.273   2.584 -0.2939  0.9450  1.0480
 9746TIP3    H229203   0.562   2.368   2.481 -1.8139  1.1905  2.0739
 9747TIP3   OH229204   2.698   4.992   3.406 -0.2497 -0.1229  0.0302
 9747TIP3    H129205   2.604   4.978   3.411 -0.4910  1.2901 -0.2627
 9747TIP3    H229206   2.728   4.930   3.339 -0.9721 -0.5115  0.0595
 9748TIP3   OH229207   4.978   2.364   1.164 -0.0884 -0.4293 -0.5024
 9748TIP3    H129208   5.037   2.414   1.107 -0.2067 -0.9819 -1.1263
 9748TIP3    H229209   5.023   2.280   1.177 -0.0006 -0.2647  0.3406
 9749TIP3   OH229210   0.472   1.057   3.192  0.2368  0.2078 -0.3753
 9749TIP3    H129211   0.528   1.023   3.122 -0.1921 -0.2121 -0.5203
 9749TIP3    H229212   0.512   1.024   3.273 -0.9663 -1.9165 -0.5640
   7.20537   6.79329   5.88315   0.00000   0.00000  -2.40180   0.00000  -2.40180  -3.39664
