Title t= 435.00000 step= 217500
19942
    1ASP      N    1   2.025   2.069   2.300
    1ASP    HT1    2   2.110   2.053   2.358
    1ASP    HT2    3   2.059   2.144   2.237
    1ASP    HT3    4   2.001   1.981   2.250
    1ASP     CA    5   1.908   2.107   2.384
    1ASP     HA    6   1.932   2.189   2.450
    1ASP     CB    7   1.788   2.151   2.294
    1ASP    HB1    8   1.708   2.172   2.367
    1ASP    HB2    9   1.745   2.068   2.234
    1ASP     CG   10   1.819   2.282   2.223
    1ASP    OD1   11   1.726   2.328   2.151
    1ASP    OD2   12   1.927   2.338   2.250
    1ASP      C   13   1.875   1.990   2.487
    1ASP      O   14   1.854   1.876   2.446
    2ALA      N   15   1.870   2.023   2.620
    2ALA     HN   16   1.879   2.120   2.640
    2ALA     CA   17   1.826   1.939   2.728
    2ALA     HA   18   1.903   1.864   2.720
    2ALA     CB   19   1.855   2.014   2.864
    2ALA    HB1   20   1.963   2.036   2.876
    2ALA    HB2   21   1.835   1.941   2.946
    2ALA    HB3   22   1.790   2.103   2.871
    2ALA      C   23   1.682   1.866   2.733
    2ALA      O   24   1.597   1.895   2.651
    3ASP      N   25   1.666   1.773   2.824
    3ASP     HN   26   1.741   1.762   2.890
    3ASP     CA   27   1.551   1.698   2.856
    3ASP     HA   28   1.523   1.631   2.776
    3ASP     CB   29   1.580   1.608   2.979
    3ASP    HB1   30   1.491   1.544   2.999
    3ASP    HB2   31   1.590   1.672   3.070
    3ASP     CG   32   1.702   1.512   2.950
    3ASP    OD1   33   1.729   1.490   2.830
    3ASP    OD2   34   1.749   1.441   3.036
    3ASP      C   35   1.421   1.782   2.865
    3ASP      O   36   1.411   1.883   2.931
    4GLY      N   37   1.323   1.729   2.797
    4GLY     HN   38   1.337   1.647   2.742
    4GLY     CA   39   1.180   1.763   2.798
    4GLY    HA1   40   1.139   1.731   2.703
    4GLY    HA2   41   1.171   1.868   2.818
    4GLY      C   42   1.100   1.683   2.902
    4GLY      O   43   1.143   1.573   2.941
    5PRO      N   44   0.980   1.720   2.931
    5PRO     CD   45   0.914   1.842   2.883
    5PRO    HD1   46   0.903   1.857   2.774
    5PRO    HD2   47   0.964   1.931   2.927
    5PRO     CA   48   0.888   1.635   3.011
    5PRO     HA   49   0.939   1.590   3.096
    5PRO     CB   50   0.789   1.738   3.064
    5PRO    HB1   51   0.842   1.788   3.148
    5PRO    HB2   52   0.692   1.711   3.112
    5PRO     CG   53   0.771   1.837   2.950
    5PRO    HG1   54   0.690   1.807   2.881
    5PRO    HG2   55   0.742   1.942   2.975
    5PRO      C   56   0.816   1.529   2.929
    5PRO      O   57   0.696   1.507   2.939
    6GLY      N   58   0.897   1.457   2.847
    6GLY     HN   59   0.992   1.489   2.846
    6GLY     CA   60   0.865   1.343   2.764
    6GLY    HA1   61   0.963   1.309   2.735
    6GLY    HA2   62   0.799   1.382   2.689
    6GLY      C   63   0.799   1.225   2.829
    6GLY      O   64   0.826   1.202   2.943
    7ASP      N   65   0.716   1.147   2.756
    7ASP     HN   66   0.723   1.154   2.657
    7ASP     CA   67   0.638   1.038   2.811
    7ASP     HA   68   0.626   1.041   2.918
    7ASP     CB   69   0.502   1.034   2.746
    7ASP    HB1   70   0.510   1.015   2.637
    7ASP    HB2   71   0.456   1.134   2.760
    7ASP     CG   72   0.400   0.940   2.804
    7ASP    OD1   73   0.302   0.910   2.727
    7ASP    OD2   74   0.405   0.898   2.917
    7ASP      C   75   0.713   0.910   2.784
    7ASP      O   76   0.722   0.867   2.670
    8PRO      N   77   0.772   0.836   2.883
    8PRO     CD   78   0.749   0.866   3.022
    8PRO    HD1   79   0.642   0.847   3.046
    8PRO    HD2   80   0.783   0.968   3.049
    8PRO     CA   81   0.856   0.714   2.871
    8PRO     HA   82   0.955   0.748   2.843
    8PRO     CB   83   0.850   0.644   3.009
    8PRO    HB1   84   0.932   0.577   3.044
    8PRO    HB2   85   0.759   0.581   3.003
    8PRO     CG   86   0.825   0.763   3.110
    8PRO    HG1   87   0.773   0.738   3.204
    8PRO    HG2   88   0.927   0.801   3.135
    8PRO      C   89   0.815   0.612   2.760
    8PRO      O   90   0.903   0.576   2.679
    9ASP      N   91   0.693   0.559   2.755
    9ASP     HN   92   0.624   0.592   2.818
    9ASP     CA   93   0.653   0.459   2.655
    9ASP     HA   94   0.730   0.384   2.648
    9ASP     CB   95   0.517   0.384   2.693
    9ASP    HB1   96   0.480   0.314   2.616
    9ASP    HB2   97   0.444   0.465   2.717
    9ASP     CG   98   0.541   0.297   2.811
    9ASP    OD1   99   0.470   0.305   2.915
    9ASP    OD2  100   0.641   0.221   2.808
    9ASP      C  101   0.644   0.511   2.514
    9ASP      O  102   0.659   0.436   2.421
   10ALA      N  103   0.626   0.641   2.485
   10ALA     HN  104   0.625   0.703   2.563
   10ALA     CA  105   0.621   0.699   2.349
   10ALA     HA  106   0.581   0.625   2.281
   10ALA     CB  107   0.532   0.827   2.346
   10ALA    HB1  108   0.557   0.915   2.410
   10ALA    HB2  109   0.428   0.805   2.378
   10ALA    HB3  110   0.540   0.866   2.242
   10ALA      C  111   0.766   0.731   2.305
   10ALA      O  112   0.799   0.699   2.193
   11GLY      N  113   0.843   0.791   2.391
   11GLY     HN  114   0.800   0.790   2.481
   11GLY     CA  115   0.974   0.843   2.389
   11GLY    HA1  116   1.015   0.813   2.294
   11GLY    HA2  117   1.025   0.797   2.473
   11GLY      C  118   0.971   0.992   2.397
   11GLY    OT1  119   0.947   1.047   2.508
   11GLY    OT2  120   0.996   1.070   2.299
   12LIT    LIT  121   2.886   5.025   0.043
   13LIT    LIT  122   1.039   2.378   2.174
   14LIT    LIT  123   5.444   3.317   2.271
   15LIT    LIT  124   0.087   0.581   3.278
   16LIT    LIT  125   3.227   4.744   3.410
   17LIT    LIT  126   2.899   1.951   0.953
   18LIT    LIT  127   1.746   0.147   4.828
   19LIT    LIT  128   4.973   4.658   2.085
   20LIT    LIT  129   3.656   1.760   2.375
   21LIT    LIT  130   2.841   1.009   1.479
   22LIT    LIT  131   0.018   4.682   0.359
   23LIT    LIT  132   2.942   3.385   1.956
   24LIT    LIT  133   5.529   4.188   2.742
   25LIT    LIT  134   0.137   5.920   0.425
   26LIT    LIT  135   5.078   1.084   2.699
   27LIT    LIT  136   0.900   1.062   3.429
   28LIT    LIT  137   1.256   0.683   3.161
   29LIT    LIT  138   3.025   3.723   0.653
   30LIT    LIT  139   1.964   2.612   3.786
   31LIT    LIT  140   4.440   2.023   4.263
   32LIT    LIT  141   1.609   0.605   1.239
   33LIT    LIT  142   5.576   2.450  -0.057
   34CLA    CLA  143   1.495   3.324   3.435
   35CLA    CLA  144   4.381   4.608   1.915
   36CLA    CLA  145   5.844   2.296   1.526
   37CLA    CLA  146   5.184   4.235   1.601
   38CLA    CLA  147   4.722   2.133   3.895
   39CLA    CLA  148   1.165   0.118   3.798
   40CLA    CLA  149   6.252   4.778   0.821
   41CLA    CLA  150   3.444   1.314   4.893
   42CLA    CLA  151   4.794   3.470   0.867
   43CLA    CLA  152   6.125   0.933   4.555
   44CLA    CLA  153   3.870   3.812   0.215
   45CLA    CLA  154   5.440   2.611   5.011
   46CLA    CLA  155   6.074   5.927   4.851
   47CLA    CLA  156   2.083   0.431   0.945
   48CLA    CLA  157   2.334   4.523   2.828
   49CLA    CLA  158   5.218   4.427   0.163
   50CLA    CLA  159   2.611   2.200   0.657
   51CLA    CLA  160   1.172   4.340   2.591
   52TIP3   OH2  161   4.402   4.001   2.333
   52TIP3    H1  162   4.340   3.962   2.271
   52TIP3    H2  163   4.471   4.038   2.278
   53TIP3   OH2  164   6.118   2.213   0.485
   53TIP3    H1  165   6.177   2.146   0.517
   53TIP3    H2  166   6.041   2.165   0.455
   54TIP3   OH2  167   2.769   0.602   3.030
   54TIP3    H1  168   2.718   0.526   3.059
   54TIP3    H2  169   2.794   0.647   3.110
   55TIP3   OH2  170   3.690   2.142   3.420
   55TIP3    H1  171   3.676   2.050   3.399
   55TIP3    H2  172   3.692   2.145   3.516
   56TIP3   OH2  173   2.405   0.311   0.811
   56TIP3    H1  174   2.413   0.336   0.718
   56TIP3    H2  175   2.313   0.287   0.821
   57TIP3   OH2  176   2.097   4.070   1.145
   57TIP3    H1  177   2.168   4.008   1.162
   57TIP3    H2  178   2.025   4.016   1.112
   58TIP3   OH2  179   1.705   5.429   0.666
   58TIP3    H1  180   1.637   5.394   0.724
   58TIP3    H2  181   1.708   5.367   0.593
   59TIP3   OH2  182   1.807   0.994   4.228
   59TIP3    H1  183   1.736   1.021   4.170
   59TIP3    H2  184   1.765   0.974   4.311
   60TIP3   OH2  185   5.645   5.375   1.846
   60TIP3    H1  186   5.739   5.360   1.835
   60TIP3    H2  187   5.612   5.389   1.758
   61TIP3   OH2  188   1.664   4.452   4.383
   61TIP3    H1  189   1.712   4.406   4.451
   61TIP3    H2  190   1.638   4.535   4.423
   62TIP3   OH2  191   3.234   5.837   0.533
   62TIP3    H1  192   3.273   5.759   0.573
   62TIP3    H2  193   3.204   5.889   0.607
   63TIP3   OH2  194   1.805   3.439   2.492
   63TIP3    H1  195   1.718   3.401   2.477
   63TIP3    H2  196   1.787   3.526   2.529
   64TIP3   OH2  197   5.672   2.541   1.604
   64TIP3    H1  198   5.728   2.471   1.570
   64TIP3    H2  199   5.584   2.502   1.608
   65TIP3   OH2  200   2.832   1.570   3.223
   65TIP3    H1  201   2.798   1.590   3.310
   65TIP3    H2  202   2.760   1.528   3.177
   66TIP3   OH2  203   0.863   0.375   3.646
   66TIP3    H1  204   0.829   0.302   3.698
   66TIP3    H2  205   0.954   0.350   3.627
   67TIP3   OH2  206   2.817   1.461   0.670
   67TIP3    H1  207   2.842   1.446   0.761
   67TIP3    H2  208   2.740   1.516   0.676
   68TIP3   OH2  209   3.480   0.767   2.980
   68TIP3    H1  210   3.508   0.687   2.937
   68TIP3    H2  211   3.385   0.770   2.967
   69TIP3   OH2  212   4.482   4.693   2.535
   69TIP3    H1  213   4.503   4.683   2.442
   69TIP3    H2  214   4.562   4.668   2.581
   70TIP3   OH2  215   5.367   3.116   1.601
   70TIP3    H1  216   5.330   3.028   1.604
   70TIP3    H2  217   5.343   3.148   1.514
   71TIP3   OH2  218   4.712   4.097   0.169
   71TIP3    H1  219   4.622   4.086   0.139
   71TIP3    H2  220   4.732   4.189   0.150
   72TIP3   OH2  221   4.098   4.074   1.354
   72TIP3    H1  222   4.117   4.053   1.446
   72TIP3    H2  223   4.183   4.066   1.310
   73TIP3   OH2  224   6.195   1.606   0.837
   73TIP3    H1  225   6.207   1.553   0.915
   73TIP3    H2  226   6.221   1.694   0.863
   74TIP3   OH2  227   1.967   3.046   1.503
   74TIP3    H1  228   2.062   3.053   1.503
   74TIP3    H2  229   1.939   3.094   1.581
   75TIP3   OH2  230   6.310   0.245   1.822
   75TIP3    H1  231   6.312   0.214   1.731
   75TIP3    H2  232   6.343   0.172   1.874
   76TIP3   OH2  233   0.990   0.391   4.492
   76TIP3    H1  234   0.945   0.426   4.416
   76TIP3    H2  235   0.921   0.383   4.559
   77TIP3   OH2  236   2.419   2.302   2.353
   77TIP3    H1  237   2.483   2.241   2.316
   77TIP3    H2  238   2.470   2.357   2.412
   78TIP3   OH2  239   3.330   0.363   2.016
   78TIP3    H1  240   3.312   0.355   1.922
   78TIP3    H2  241   3.249   0.397   2.053
   79TIP3   OH2  242   4.839   5.690   1.151
   79TIP3    H1  243   4.762   5.701   1.094
   79TIP3    H2  244   4.816   5.738   1.231
   80TIP3   OH2  245   2.454   2.032   2.177
   80TIP3    H1  246   2.381   2.025   2.115
   80TIP3    H2  247   2.527   1.988   2.132
   81TIP3   OH2  248   2.780   2.819   1.749
   81TIP3    H1  249   2.728   2.829   1.669
   81TIP3    H2  250   2.855   2.765   1.722
   82TIP3   OH2  251   3.344   5.633   0.671
   82TIP3    H1  252   3.436   5.634   0.699
   82TIP3    H2  253   3.301   5.576   0.734
   83TIP3   OH2  254   5.964   2.218   3.012
   83TIP3    H1  255   5.887   2.163   2.998
   83TIP3    H2  256   6.034   2.155   3.034
   84TIP3   OH2  257   2.223   4.026   0.535
   84TIP3    H1  258   2.233   4.116   0.568
   84TIP3    H2  259   2.130   4.016   0.520
   85TIP3   OH2  260   2.112   4.073   3.669
   85TIP3    H1  261   2.198   4.069   3.712
   85TIP3    H2  262   2.085   4.165   3.678
   86TIP3   OH2  263   4.448   2.831   0.543
   86TIP3    H1  264   4.390   2.769   0.499
   86TIP3    H2  265   4.453   2.905   0.483
   87TIP3   OH2  266   0.527   5.515   3.607
   87TIP3    H1  267   0.546   5.534   3.515
   87TIP3    H2  268   0.431   5.516   3.612
   88TIP3   OH2  269   3.153   2.150   3.061
   88TIP3    H1  270   3.205   2.147   2.981
   88TIP3    H2  271   3.070   2.190   3.035
   89TIP3   OH2  272   6.352   3.299   0.340
   89TIP3    H1  273   6.285   3.333   0.281
   89TIP3    H2  274   6.435   3.313   0.293
   90TIP3   OH2  275   6.143   2.994   0.099
   90TIP3    H1  276   6.207   2.958   0.161
   90TIP3    H2  277   6.062   3.003   0.150
   91TIP3   OH2  278   0.349   3.858   0.770
   91TIP3    H1  279   0.402   3.783   0.797
   91TIP3    H2  280   0.271   3.820   0.731
   92TIP3   OH2  281   3.671   3.902   1.363
   92TIP3    H1  282   3.665   3.996   1.378
   92TIP3    H2  283   3.761   3.879   1.387
   93TIP3   OH2  284   5.065   2.279   2.012
   93TIP3    H1  285   5.145   2.235   2.040
   93TIP3    H2  286   5.028   2.315   2.093
   94TIP3   OH2  287   2.906   5.156   0.581
   94TIP3    H1  288   2.905   5.218   0.654
   94TIP3    H2  289   2.963   5.197   0.516
   95TIP3   OH2  290   3.960   5.847   0.591
   95TIP3    H1  291   3.948   5.931   0.636
   95TIP3    H2  292   4.055   5.834   0.589
   96TIP3   OH2  293   1.421   0.191   0.776
   96TIP3    H1  294   1.427   0.286   0.781
   96TIP3    H2  295   1.331   0.172   0.803
   97TIP3   OH2  296   1.182   0.671   2.749
   97TIP3    H1  297   1.254   0.608   2.736
   97TIP3    H2  298   1.103   0.622   2.726
   98TIP3   OH2  299   1.169   0.044   4.634
   98TIP3    H1  300   1.133   0.052   4.545
   98TIP3    H2  301   1.245  -0.013   4.624
   99TIP3   OH2  302   4.162   3.672   2.899
   99TIP3    H1  303   4.165   3.580   2.874
   99TIP3    H2  304   4.074   3.685   2.933
  100TIP3   OH2  305   1.801   2.559   3.701
  100TIP3    H1  306   1.786   2.593   3.612
  100TIP3    H2  307   1.750   2.478   3.704
  101TIP3   OH2  308   4.217   4.370   2.867
  101TIP3    H1  309   4.312   4.384   2.860
  101TIP3    H2  310   4.200   4.373   2.961
  102TIP3   OH2  311   0.882   5.886   1.279
  102TIP3    H1  312   0.924   5.865   1.196
  102TIP3    H2  313   0.815   5.818   1.290
  103TIP3   OH2  314   4.562   5.489   0.396
  103TIP3    H1  315   4.629   5.524   0.454
  103TIP3    H2  316   4.541   5.561   0.337
  104TIP3   OH2  317   4.792   0.950   2.652
  104TIP3    H1  318   4.833   0.883   2.707
  104TIP3    H2  319   4.775   1.023   2.711
  105TIP3   OH2  320   5.065   5.644   1.506
  105TIP3    H1  321   5.160   5.643   1.497
  105TIP3    H2  322   5.049   5.628   1.599
  106TIP3   OH2  323   0.098   2.687   4.767
  106TIP3    H1  324   0.091   2.610   4.711
  106TIP3    H2  325   0.064   2.759   4.714
  107TIP3   OH2  326   4.976   4.728   4.621
  107TIP3    H1  327   4.994   4.655   4.561
  107TIP3    H2  328   5.025   4.801   4.584
  108TIP3   OH2  329   3.836   2.372   0.398
  108TIP3    H1  330   3.770   2.326   0.450
  108TIP3    H2  331   3.918   2.327   0.417
  109TIP3   OH2  332   4.187   1.159   0.757
  109TIP3    H1  333   4.282   1.156   0.747
  109TIP3    H2  334   4.154   1.156   0.667
  110TIP3   OH2  335   0.799   0.109   2.613
  110TIP3    H1  336   0.753   0.127   2.695
  110TIP3    H2  337   0.740   0.143   2.545
  111TIP3   OH2  338   4.424   5.419   4.827
  111TIP3    H1  339   4.383   5.473   4.759
  111TIP3    H2  340   4.463   5.346   4.779
  112TIP3   OH2  341   0.765   3.888   2.825
  112TIP3    H1  342   0.796   3.821   2.765
  112TIP3    H2  343   0.816   3.966   2.801
  113TIP3   OH2  344   1.861   3.951   1.100
  113TIP3    H1  345   1.863   3.865   1.058
  113TIP3    H2  346   1.846   3.932   1.193
  114TIP3   OH2  347   1.591   2.550   2.237
  114TIP3    H1  348   1.639   2.613   2.184
  114TIP3    H2  349   1.621   2.465   2.206
  115TIP3   OH2  350   3.780   5.334   1.254
  115TIP3    H1  351   3.845   5.297   1.195
  115TIP3    H2  352   3.818   5.322   1.342
  116TIP3   OH2  353   3.220   5.279   0.051
  116TIP3    H1  354   3.213   5.186   0.074
  116TIP3    H2  355   3.305   5.287   0.010
  117TIP3   OH2  356   4.534   0.833   1.659
  117TIP3    H1  357   4.614   0.869   1.695
  117TIP3    H2  358   4.543   0.738   1.670
  118TIP3   OH2  359   6.079   2.841   0.993
  118TIP3    H1  360   6.168   2.808   1.005
  118TIP3    H2  361   6.024   2.779   1.041
  119TIP3   OH2  362   6.041   4.570   2.103
  119TIP3    H1  363   6.007   4.501   2.047
  119TIP3    H2  364   6.118   4.603   2.056
  120TIP3   OH2  365   4.543   2.270   0.142
  120TIP3    H1  366   4.500   2.347   0.178
  120TIP3    H2  367   4.482   2.235   0.077
  121TIP3   OH2  368   1.963   0.617   0.468
  121TIP3    H1  369   2.026   0.554   0.502
  121TIP3    H2  370   1.880   0.593   0.509
  122TIP3   OH2  371   0.862   1.918   1.590
  122TIP3    H1  372   0.891   1.988   1.533
  122TIP3    H2  373   0.941   1.867   1.609
  123TIP3   OH2  374   2.658   2.470   3.019
  123TIP3    H1  375   2.617   2.385   3.033
  123TIP3    H2  376   2.658   2.511   3.106
  124TIP3   OH2  377   1.955   4.057   3.445
  124TIP3    H1  378   2.017   4.049   3.517
  124TIP3    H2  379   1.977   3.986   3.385
  125TIP3   OH2  380   2.601   1.843   1.747
  125TIP3    H1  381   2.569   1.842   1.657
  125TIP3    H2  382   2.691   1.873   1.740
  126TIP3   OH2  383   3.167   1.331   2.914
  126TIP3    H1  384   3.110   1.328   2.991
  126TIP3    H2  385   3.114   1.373   2.847
  127TIP3   OH2  386   1.438   2.634   3.195
  127TIP3    H1  387   1.443   2.691   3.118
  127TIP3    H2  388   1.515   2.659   3.247
  128TIP3   OH2  389   0.568   5.115   0.648
  128TIP3    H1  390   0.630   5.056   0.606
  128TIP3    H2  391   0.573   5.093   0.741
  129TIP3   OH2  392   6.203   3.331   4.590
  129TIP3    H1  393   6.245   3.336   4.504
  129TIP3    H2  394   6.272   3.356   4.651
  130TIP3   OH2  395   5.174   0.431   2.888
  130TIP3    H1  396   5.162   0.477   2.804
  130TIP3    H2  397   5.089   0.391   2.905
  131TIP3   OH2  398   4.088   4.493   3.301
  131TIP3    H1  399   4.134   4.489   3.217
  131TIP3    H2  400   4.158   4.504   3.365
  132TIP3   OH2  401   4.434   3.397   1.151
  132TIP3    H1  402   4.430   3.379   1.057
  132TIP3    H2  403   4.350   3.367   1.185
  133TIP3   OH2  404   0.032   3.446   1.353
  133TIP3    H1  405  -0.013   3.512   1.300
  133TIP3    H2  406  -0.029   3.428   1.425
  134TIP3   OH2  407   0.165   5.600   3.182
  134TIP3    H1  408   0.162   5.557   3.096
  134TIP3    H2  409   0.177   5.528   3.244
  135TIP3   OH2  410   3.978   3.976   3.730
  135TIP3    H1  411   3.894   3.937   3.707
  135TIP3    H2  412   3.980   4.060   3.684
  136TIP3   OH2  413   4.157   1.213   2.351
  136TIP3    H1  414   4.090   1.278   2.329
  136TIP3    H2  415   4.171   1.224   2.446
  137TIP3   OH2  416   2.429   1.716   1.994
  137TIP3    H1  417   2.477   1.689   2.072
  137TIP3    H2  418   2.497   1.735   1.929
  138TIP3   OH2  419   1.284   3.613   4.426
  138TIP3    H1  420   1.288   3.649   4.338
  138TIP3    H2  421   1.214   3.662   4.469
  139TIP3   OH2  422   1.395   2.485   1.986
  139TIP3    H1  423   1.365   2.470   2.076
  139TIP3    H2  424   1.473   2.431   1.977
  140TIP3   OH2  425   3.743   5.012   3.972
  140TIP3    H1  426   3.667   4.953   3.975
  140TIP3    H2  427   3.802   4.971   3.909
  141TIP3   OH2  428   4.572   4.746   0.758
  141TIP3    H1  429   4.572   4.822   0.817
  141TIP3    H2  430   4.596   4.782   0.673
  142TIP3   OH2  431   1.086   3.190  -0.078
  142TIP3    H1  432   1.078   3.106  -0.033
  142TIP3    H2  433   1.142   3.243  -0.021
  143TIP3   OH2  434   0.207   0.570   1.417
  143TIP3    H1  435   0.179   0.478   1.416
  143TIP3    H2  436   0.268   0.577   1.343
  144TIP3   OH2  437   4.604   5.186   1.563
  144TIP3    H1  438   4.600   5.214   1.472
  144TIP3    H2  439   4.550   5.107   1.565
  145TIP3   OH2  440   5.376   0.392   1.382
  145TIP3    H1  441   5.357   0.485   1.392
  145TIP3    H2  442   5.311   0.361   1.319
  146TIP3   OH2  443   4.281   5.735   4.955
  146TIP3    H1  444   4.326   5.723   4.871
  146TIP3    H2  445   4.262   5.829   4.959
  147TIP3   OH2  446   3.522   2.817   3.731
  147TIP3    H1  447   3.588   2.793   3.796
  147TIP3    H2  448   3.503   2.909   3.747
  148TIP3   OH2  449   1.507   1.198   2.543
  148TIP3    H1  450   1.518   1.240   2.457
  148TIP3    H2  451   1.503   1.271   2.605
  149TIP3   OH2  452   4.461   3.259   2.610
  149TIP3    H1  453   4.520   3.291   2.542
  149TIP3    H2  454   4.374   3.290   2.583
  150TIP3   OH2  455   0.186   5.910   3.724
  150TIP3    H1  456   0.219   5.839   3.670
  150TIP3    H2  457   0.135   5.867   3.792
  151TIP3   OH2  458   2.676   0.265   2.344
  151TIP3    H1  459   2.680   0.357   2.317
  151TIP3    H2  460   2.602   0.261   2.405
  152TIP3   OH2  461   4.183   3.811   3.775
  152TIP3    H1  462   4.197   3.750   3.847
  152TIP3    H2  463   4.111   3.867   3.805
  153TIP3   OH2  464   5.232   5.471   2.602
  153TIP3    H1  465   5.165   5.490   2.668
  153TIP3    H2  466   5.198   5.510   2.521
  154TIP3   OH2  467   0.680   3.102   1.161
  154TIP3    H1  468   0.647   3.037   1.223
  154TIP3    H2  469   0.659   3.066   1.075
  155TIP3   OH2  470   5.080   2.040   3.461
  155TIP3    H1  471   5.164   2.061   3.501
  155TIP3    H2  472   5.084   1.946   3.443
  156TIP3   OH2  473   2.097   1.342   2.671
  156TIP3    H1  474   2.113   1.330   2.765
  156TIP3    H2  475   2.035   1.415   2.666
  157TIP3   OH2  476   6.066   0.468   3.322
  157TIP3    H1  477   6.012   0.546   3.335
  157TIP3    H2  478   6.004   0.396   3.317
  158TIP3   OH2  479   2.007   0.372   1.470
  158TIP3    H1  480   2.053   0.298   1.509
  158TIP3    H2  481   1.915   0.356   1.490
  159TIP3   OH2  482   1.295   5.916   1.875
  159TIP3    H1  483   1.247   5.922   1.957
  159TIP3    H2  484   1.358   5.988   1.879
  160TIP3   OH2  485   6.276   1.951   4.600
  160TIP3    H1  486   6.187   1.928   4.575
  160TIP3    H2  487   6.265   2.011   4.674
  161TIP3   OH2  488   2.313   1.805   4.013
  161TIP3    H1  489   2.306   1.746   3.938
  161TIP3    H2  490   2.399   1.787   4.050
  162TIP3   OH2  491   0.255   3.247   1.662
  162TIP3    H1  492   0.174   3.275   1.619
  162TIP3    H2  493   0.259   3.300   1.741
  163TIP3   OH2  494   4.513   4.275   2.581
  163TIP3    H1  495   4.585   4.211   2.581
  163TIP3    H2  496   4.441   4.230   2.625
  164TIP3   OH2  497   2.576   4.324   3.491
  164TIP3    H1  498   2.627   4.247   3.467
  164TIP3    H2  499   2.536   4.353   3.409
  165TIP3   OH2  500   4.466   2.380   0.815
  165TIP3    H1  501   4.560   2.370   0.829
  165TIP3    H2  502   4.425   2.332   0.886
  166TIP3   OH2  503   0.597   5.050   4.973
  166TIP3    H1  504   0.509   5.071   5.001
  166TIP3    H2  505   0.645   5.031   5.053
  167TIP3   OH2  506   0.509   4.315   2.903
  167TIP3    H1  507   0.591   4.324   2.854
  167TIP3    H2  508   0.533   4.336   2.993
  168TIP3   OH2  509   2.540   4.277   4.272
  168TIP3    H1  510   2.520   4.190   4.307
  168TIP3    H2  511   2.603   4.314   4.335
  169TIP3   OH2  512   3.091   5.753   3.271
  169TIP3    H1  513   3.039   5.795   3.339
  169TIP3    H2  514   3.164   5.814   3.255
  170TIP3   OH2  515   0.331   4.009   0.294
  170TIP3    H1  516   0.336   3.933   0.236
  170TIP3    H2  517   0.237   4.021   0.310
  171TIP3   OH2  518   5.185   2.182   4.093
  171TIP3    H1  519   5.166   2.138   4.011
  171TIP3    H2  520   5.139   2.266   4.086
  172TIP3   OH2  521   0.305   5.796   1.394
  172TIP3    H1  522   0.245   5.723   1.378
  172TIP3    H2  523   0.348   5.811   1.310
  173TIP3   OH2  524   3.563   4.806   0.519
  173TIP3    H1  525   3.574   4.711   0.513
  173TIP3    H2  526   3.602   4.830   0.603
  174TIP3   OH2  527   4.019   3.775   4.023
  174TIP3    H1  528   4.010   3.704   4.087
  174TIP3    H2  529   3.967   3.746   3.948
  175TIP3   OH2  530   1.487   3.117   3.654
  175TIP3    H1  531   1.507   3.165   3.574
  175TIP3    H2  532   1.420   3.054   3.627
  176TIP3   OH2  533   2.958   0.406   0.662
  176TIP3    H1  534   2.910   0.424   0.582
  176TIP3    H2  535   2.891   0.388   0.728
  177TIP3   OH2  536   3.727   3.857   2.298
  177TIP3    H1  537   3.641   3.890   2.326
  177TIP3    H2  538   3.705   3.788   2.235
  178TIP3   OH2  539   3.609   5.751   5.156
  178TIP3    H1  540   3.525   5.711   5.176
  178TIP3    H2  541   3.619   5.741   5.062
  179TIP3   OH2  542   1.664   2.074   1.242
  179TIP3    H1  543   1.676   2.161   1.203
  179TIP3    H2  544   1.752   2.035   1.242
  180TIP3   OH2  545   4.800   1.539   1.283
  180TIP3    H1  546   4.748   1.536   1.202
  180TIP3    H2  547   4.743   1.500   1.349
  181TIP3   OH2  548   1.118   0.100   1.788
  181TIP3    H1  549   1.140   0.192   1.803
  181TIP3    H2  550   1.198   0.062   1.752
  182TIP3   OH2  551   0.414   5.400   2.928
  182TIP3    H1  552   0.459   5.324   2.891
  182TIP3    H2  553   0.426   5.392   3.022
  183TIP3   OH2  554   4.677   3.354   0.603
  183TIP3    H1  555   4.728   3.276   0.582
  183TIP3    H2  556   4.717   3.388   0.683
  184TIP3   OH2  557   6.163   3.612   1.040
  184TIP3    H1  558   6.156   3.539   0.978
  184TIP3    H2  559   6.236   3.664   1.007
  185TIP3   OH2  560   0.946   3.526   4.298
  185TIP3    H1  561   0.937   3.528   4.203
  185TIP3    H2  562   0.998   3.448   4.316
  186TIP3   OH2  563   3.126   4.333   0.999
  186TIP3    H1  564   3.195   4.374   1.052
  186TIP3    H2  565   3.173   4.270   0.944
  187TIP3   OH2  566   0.205   0.732   1.080
  187TIP3    H1  567   0.113   0.706   1.087
  187TIP3    H2  568   0.250   0.675   1.142
  188TIP3   OH2  569   4.894   3.359   2.714
  188TIP3    H1  570   4.835   3.285   2.703
  188TIP3    H2  571   4.890   3.379   2.808
  189TIP3   OH2  572   4.102   1.953   4.540
  189TIP3    H1  573   4.129   1.913   4.457
  189TIP3    H2  574   4.061   1.881   4.589
  190TIP3   OH2  575   3.072   4.225   2.728
  190TIP3    H1  576   3.033   4.138   2.715
  190TIP3    H2  577   3.166   4.209   2.732
  191TIP3   OH2  578   4.205   5.459   4.974
  191TIP3    H1  579   4.206   5.553   4.957
  191TIP3    H2  580   4.290   5.428   4.944
  192TIP3   OH2  581   4.862   6.070   1.281
  192TIP3    H1  582   4.848   6.046   1.189
  192TIP3    H2  583   4.845   5.989   1.329
  193TIP3   OH2  584   5.564   1.075   4.628
  193TIP3    H1  585   5.530   1.135   4.561
  193TIP3    H2  586   5.490   1.020   4.651
  194TIP3   OH2  587   2.058   1.369   3.784
  194TIP3    H1  588   2.049   1.325   3.869
  194TIP3    H2  589   2.147   1.350   3.756
  195TIP3   OH2  590   3.713   1.339   1.931
  195TIP3    H1  591   3.723   1.430   1.903
  195TIP3    H2  592   3.622   1.332   1.957
  196TIP3   OH2  593   4.254   2.058   1.645
  196TIP3    H1  594   4.305   2.004   1.584
  196TIP3    H2  595   4.175   2.081   1.597
  197TIP3   OH2  596   0.833   4.031   1.619
  197TIP3    H1  597   0.821   3.948   1.665
  197TIP3    H2  598   0.879   4.087   1.682
  198TIP3   OH2  599   3.239   1.705   2.556
  198TIP3    H1  600   3.230   1.796   2.583
  198TIP3    H2  601   3.329   1.698   2.525
  199TIP3   OH2  602   5.666   1.841   2.783
  199TIP3    H1  603   5.719   1.920   2.767
  199TIP3    H2  604   5.596   1.847   2.719
  200TIP3   OH2  605   0.762   4.458   1.104
  200TIP3    H1  606   0.732   4.546   1.123
  200TIP3    H2  607   0.742   4.446   1.011
  201TIP3   OH2  608   2.974   4.576   4.749
  201TIP3    H1  609   3.040   4.519   4.709
  201TIP3    H2  610   2.905   4.517   4.779
  202TIP3   OH2  611   1.105   3.116   3.189
  202TIP3    H1  612   1.140   3.201   3.161
  202TIP3    H2  613   1.050   3.136   3.264
  203TIP3   OH2  614   4.825   2.302   0.123
  203TIP3    H1  615   4.816   2.360   0.047
  203TIP3    H2  616   4.738   2.262   0.134
  204TIP3   OH2  617   4.562   0.131   4.799
  204TIP3    H1  618   4.559   0.073   4.875
  204TIP3    H2  619   4.497   0.095   4.739
  205TIP3   OH2  620   4.885   2.241   0.415
  205TIP3    H1  621   4.970   2.201   0.398
  205TIP3    H2  622   4.860   2.281   0.332
  206TIP3   OH2  623   0.754   3.162   3.037
  206TIP3    H1  624   0.708   3.207   2.966
  206TIP3    H2  625   0.811   3.100   2.992
  207TIP3   OH2  626   0.968   5.248   4.047
  207TIP3    H1  627   0.902   5.317   4.052
  207TIP3    H2  628   0.961   5.214   3.957
  208TIP3   OH2  629   4.099   3.140   2.767
  208TIP3    H1  630   4.051   3.102   2.693
  208TIP3    H2  631   4.190   3.114   2.752
  209TIP3   OH2  632   5.005   0.949   2.854
  209TIP3    H1  633   5.045   0.971   2.938
  209TIP3    H2  634   4.962   0.865   2.869
  210TIP3   OH2  635   4.281   0.220   3.366
  210TIP3    H1  636   4.199   0.174   3.387
  210TIP3    H2  637   4.289   0.287   3.433
  211TIP3   OH2  638   4.722   5.552   4.712
  211TIP3    H1  639   4.657   5.544   4.643
  211TIP3    H2  640   4.756   5.464   4.724
  212TIP3   OH2  641   4.540   4.913   1.504
  212TIP3    H1  642   4.572   4.834   1.461
  212TIP3    H2  643   4.455   4.930   1.463
  213TIP3   OH2  644   2.212   4.080   4.214
  213TIP3    H1  645   2.199   3.986   4.224
  213TIP3    H2  646   2.250   4.090   4.126
  214TIP3   OH2  647   1.427   1.706   4.099
  214TIP3    H1  648   1.437   1.794   4.063
  214TIP3    H2  649   1.342   1.709   4.144
  215TIP3   OH2  650   0.577   5.050   0.921
  215TIP3    H1  651   0.485   5.073   0.926
  215TIP3    H2  652   0.597   5.014   1.008
  216TIP3   OH2  653   5.858   5.004   3.139
  216TIP3    H1  654   5.927   5.012   3.204
  216TIP3    H2  655   5.793   4.946   3.179
  217TIP3   OH2  656   2.667   3.726   1.792
  217TIP3    H1  657   2.627   3.666   1.730
  217TIP3    H2  658   2.649   3.687   1.878
  218TIP3   OH2  659   5.456   5.733   0.487
  218TIP3    H1  660   5.366   5.732   0.454
  218TIP3    H2  661   5.475   5.826   0.500
  219TIP3   OH2  662   1.211   5.689   0.536
  219TIP3    H1  663   1.302   5.660   0.541
  219TIP3    H2  664   1.160   5.609   0.542
  220TIP3   OH2  665   1.413   3.844   0.344
  220TIP3    H1  666   1.381   3.797   0.266
  220TIP3    H2  667   1.338   3.894   0.375
  221TIP3   OH2  668   1.686   4.878   1.433
  221TIP3    H1  669   1.770   4.920   1.415
  221TIP3    H2  670   1.707   4.785   1.440
  222TIP3   OH2  671   5.605   1.660   3.930
  222TIP3    H1  672   5.681   1.608   3.956
  222TIP3    H2  673   5.642   1.745   3.906
  223TIP3   OH2  674   1.784   3.295   2.802
  223TIP3    H1  675   1.851   3.227   2.792
  223TIP3    H2  676   1.746   3.280   2.889
  224TIP3   OH2  677   1.618   3.569   0.373
  224TIP3    H1  678   1.560   3.533   0.305
  224TIP3    H2  679   1.668   3.494   0.404
  225TIP3   OH2  680   5.068   4.707   3.693
  225TIP3    H1  681   5.114   4.678   3.614
  225TIP3    H2  682   5.047   4.626   3.739
  226TIP3   OH2  683   0.802   3.218   2.428
  226TIP3    H1  684   0.764   3.183   2.348
  226TIP3    H2  685   0.819   3.141   2.482
  227TIP3   OH2  686   4.952   2.550   1.153
  227TIP3    H1  687   4.996   2.628   1.186
  227TIP3    H2  688   4.882   2.584   1.097
  228TIP3   OH2  689   4.365   3.000   2.704
  228TIP3    H1  690   4.431   2.934   2.727
  228TIP3    H2  691   4.416   3.078   2.682
  229TIP3   OH2  692   0.915   3.196   1.113
  229TIP3    H1  693   0.895   3.236   1.029
  229TIP3    H2  694   0.831   3.163   1.145
  230TIP3   OH2  695   3.763   1.793   3.905
  230TIP3    H1  696   3.674   1.798   3.871
  230TIP3    H2  697   3.752   1.782   4.000
  231TIP3   OH2  698   4.606   5.524   2.604
  231TIP3    H1  699   4.593   5.601   2.660
  231TIP3    H2  700   4.676   5.475   2.647
  232TIP3   OH2  701   0.552   1.018   1.685
  232TIP3    H1  702   0.627   1.055   1.732
  232TIP3    H2  703   0.569   1.039   1.593
  233TIP3   OH2  704   2.964   1.097   4.478
  233TIP3    H1  705   2.877   1.088   4.517
  233TIP3    H2  706   3.009   1.161   4.534
  234TIP3   OH2  707   5.027   0.284   2.681
  234TIP3    H1  708   4.974   0.266   2.603
  234TIP3    H2  709   5.058   0.197   2.709
  235TIP3   OH2  710   5.293   0.507   2.037
  235TIP3    H1  711   5.293   0.602   2.035
  235TIP3    H2  712   5.228   0.484   2.104
  236TIP3   OH2  713   3.601   0.217   4.668
  236TIP3    H1  714   3.685   0.263   4.666
  236TIP3    H2  715   3.620   0.129   4.636
  237TIP3   OH2  716   2.043   5.142   3.481
  237TIP3    H1  717   1.960   5.108   3.515
  237TIP3    H2  718   2.066   5.214   3.539
  238TIP3   OH2  719   4.076   5.475   1.105
  238TIP3    H1  720   4.026   5.507   1.180
  238TIP3    H2  721   4.155   5.530   1.104
  239TIP3   OH2  722   6.207   1.637   4.510
  239TIP3    H1  723   6.262   1.715   4.509
  239TIP3    H2  724   6.260   1.570   4.551
  240TIP3   OH2  725   4.577   3.485   4.286
  240TIP3    H1  726   4.594   3.449   4.199
  240TIP3    H2  727   4.524   3.418   4.330
  241TIP3   OH2  728   4.848   5.409   3.680
  241TIP3    H1  729   4.806   5.494   3.685
  241TIP3    H2  730   4.841   5.373   3.769
  242TIP3   OH2  731   2.658   0.212   4.479
  242TIP3    H1  732   2.635   0.241   4.391
  242TIP3    H2  733   2.630   0.285   4.535
  243TIP3   OH2  734   1.847   0.342   3.859
  243TIP3    H1  735   1.770   0.342   3.915
  243TIP3    H2  736   1.813   0.354   3.771
  244TIP3   OH2  737   1.244   2.384   4.593
  244TIP3    H1  738   1.165   2.337   4.565
  244TIP3    H2  739   1.219   2.476   4.591
  245TIP3   OH2  740   4.600   0.277   2.341
  245TIP3    H1  741   4.583   0.329   2.420
  245TIP3    H2  742   4.536   0.309   2.278
  246TIP3   OH2  743   2.097   0.809   4.775
  246TIP3    H1  744   2.058   0.757   4.846
  246TIP3    H2  745   2.191   0.799   4.787
  247TIP3   OH2  746   1.189   0.362   1.843
  247TIP3    H1  747   1.223   0.393   1.927
  247TIP3    H2  748   1.136   0.435   1.810
  248TIP3   OH2  749   1.046   0.465   2.459
  248TIP3    H1  750   1.050   0.373   2.485
  248TIP3    H2  751   0.986   0.505   2.522
  249TIP3   OH2  752   0.604   3.498   2.052
  249TIP3    H1  753   0.700   3.498   2.054
  249TIP3    H2  754   0.580   3.588   2.074
  250TIP3   OH2  755   2.066   2.606   2.831
  250TIP3    H1  756   2.031   2.517   2.824
  250TIP3    H2  757   2.130   2.613   2.761
  251TIP3   OH2  758   2.744   5.467   1.177
  251TIP3    H1  759   2.835   5.450   1.200
  251TIP3    H2  760   2.718   5.392   1.124
  252TIP3   OH2  761   4.420   3.056   2.131
  252TIP3    H1  762   4.332   3.040   2.098
  252TIP3    H2  763   4.431   2.992   2.201
  253TIP3   OH2  764   0.408   0.977   3.174
  253TIP3    H1  765   0.442   0.894   3.210
  253TIP3    H2  766   0.393   0.958   3.082
  254TIP3   OH2  767   1.262   0.387   1.275
  254TIP3    H1  768   1.170   0.379   1.250
  254TIP3    H2  769   1.259   0.405   1.369
  255TIP3   OH2  770   4.567   2.019   2.280
  255TIP3    H1  771   4.560   2.013   2.185
  255TIP3    H2  772   4.604   2.106   2.295
  256TIP3   OH2  773   2.953   1.206   0.633
  256TIP3    H1  774   2.903   1.286   0.616
  256TIP3    H2  775   2.889   1.136   0.621
  257TIP3   OH2  776   3.968   3.763   1.992
  257TIP3    H1  777   3.882   3.767   1.951
  257TIP3    H2  778   3.986   3.852   2.020
  258TIP3   OH2  779   5.328   5.536   1.578
  258TIP3    H1  780   5.416   5.505   1.557
  258TIP3    H2  781   5.304   5.487   1.657
  259TIP3   OH2  782   4.819   4.082   1.831
  259TIP3    H1  783   4.751   4.017   1.813
  259TIP3    H2  784   4.775   4.166   1.820
  260TIP3   OH2  785   5.725   0.259   1.495
  260TIP3    H1  786   5.804   0.312   1.481
  260TIP3    H2  787   5.668   0.281   1.422
  261TIP3   OH2  788   3.657   0.983   4.296
  261TIP3    H1  789   3.663   0.889   4.277
  261TIP3    H2  790   3.748   1.011   4.308
  262TIP3   OH2  791   4.600   1.283   0.167
  262TIP3    H1  792   4.685   1.318   0.192
  262TIP3    H2  793   4.565   1.347   0.105
  263TIP3   OH2  794   0.167   2.767   3.236
  263TIP3    H1  795   0.249   2.718   3.237
  263TIP3    H2  796   0.133   2.755   3.147
  264TIP3   OH2  797   4.454   1.315   1.919
  264TIP3    H1  798   4.431   1.356   2.003
  264TIP3    H2  799   4.387   1.247   1.907
  265TIP3   OH2  800   3.245   3.263   1.641
  265TIP3    H1  801   3.198   3.295   1.564
  265TIP3    H2  802   3.330   3.307   1.638
  266TIP3   OH2  803   4.871   4.897   5.025
  266TIP3    H1  804   4.890   4.940   5.108
  266TIP3    H2  805   4.843   4.968   4.967
  267TIP3   OH2  806   0.708   4.836   4.632
  267TIP3    H1  807   0.639   4.886   4.588
  267TIP3    H2  808   0.673   4.747   4.638
  268TIP3   OH2  809   1.873   5.005   3.665
  268TIP3    H1  810   1.784   4.988   3.695
  268TIP3    H2  811   1.915   5.051   3.737
  269TIP3   OH2  812   3.160   3.089   1.358
  269TIP3    H1  813   3.188   3.176   1.385
  269TIP3    H2  814   3.067   3.099   1.337
  270TIP3   OH2  815   2.164   4.652   1.517
  270TIP3    H1  816   2.118   4.699   1.448
  270TIP3    H2  817   2.218   4.718   1.560
  271TIP3   OH2  818   5.441   0.544   4.044
  271TIP3    H1  819   5.440   0.636   4.072
  271TIP3    H2  820   5.533   0.519   4.047
  272TIP3   OH2  821   0.121   1.155   2.336
  272TIP3    H1  822   0.202   1.131   2.291
  272TIP3    H2  823   0.143   1.148   2.429
  273TIP3   OH2  824   5.734   3.780   4.131
  273TIP3    H1  825   5.676   3.705   4.144
  273TIP3    H2  826   5.788   3.755   4.056
  274TIP3   OH2  827   1.534   3.995   4.322
  274TIP3    H1  828   1.504   3.998   4.412
  274TIP3    H2  829   1.484   4.064   4.278
  275TIP3   OH2  830   1.149   1.188   0.907
  275TIP3    H1  831   1.197   1.189   0.990
  275TIP3    H2  832   1.145   1.095   0.882
  276TIP3   OH2  833   1.746   2.924   2.317
  276TIP3    H1  834   1.686   2.896   2.387
  276TIP3    H2  835   1.810   2.980   2.362
  277TIP3   OH2  836   4.472   4.824   5.227
  277TIP3    H1  837   4.526   4.815   5.148
  277TIP3    H2  838   4.397   4.876   5.199
  278TIP3   OH2  839   3.330   1.883   2.971
  278TIP3    H1  840   3.404   1.914   3.024
  278TIP3    H2  841   3.287   1.817   3.026
  279TIP3   OH2  842   4.942   5.195   0.008
  279TIP3    H1  843   4.965   5.183   0.101
  279TIP3    H2  844   4.904   5.111  -0.017
  280TIP3   OH2  845   1.601   4.779   4.283
  280TIP3    H1  846   1.644   4.816   4.360
  280TIP3    H2  847   1.524   4.835   4.270
  281TIP3   OH2  848   3.264   3.802   2.005
  281TIP3    H1  849   3.323   3.765   2.071
  281TIP3    H2  850   3.200   3.852   2.056
  282TIP3   OH2  851   3.558   4.038   3.807
  282TIP3    H1  852   3.569   4.105   3.874
  282TIP3    H2  853   3.562   4.086   3.724
  283TIP3   OH2  854   2.734   4.334   1.091
  283TIP3    H1  855   2.798   4.326   1.162
  283TIP3    H2  856   2.651   4.353   1.136
  284TIP3   OH2  857   5.002   3.908   4.337
  284TIP3    H1  858   4.929   3.907   4.275
  284TIP3    H2  859   5.074   3.950   4.289
  285TIP3   OH2  860   5.802   2.915   4.220
  285TIP3    H1  861   5.840   2.888   4.303
  285TIP3    H2  862   5.827   2.845   4.159
  286TIP3   OH2  863   6.288   1.483   3.905
  286TIP3    H1  864   6.194   1.481   3.884
  286TIP3    H2  865   6.303   1.571   3.939
  287TIP3   OH2  866   4.622   3.640   1.578
  287TIP3    H1  867   4.646   3.551   1.603
  287TIP3    H2  868   4.607   3.635   1.483
  288TIP3   OH2  869   4.256   0.378   0.236
  288TIP3    H1  870   4.232   0.393   0.144
  288TIP3    H2  871   4.334   0.324   0.232
  289TIP3   OH2  872   2.106   2.855   1.127
  289TIP3    H1  873   2.165   2.800   1.076
  289TIP3    H2  874   2.043   2.890   1.064
  290TIP3   OH2  875   5.612   1.584   0.289
  290TIP3    H1  876   5.573   1.513   0.238
  290TIP3    H2  877   5.561   1.586   0.370
  291TIP3   OH2  878   1.341   2.029   3.744
  291TIP3    H1  879   1.308   1.962   3.685
  291TIP3    H2  880   1.265   2.057   3.794
  292TIP3   OH2  881   1.298   2.221   1.901
  292TIP3    H1  882   1.386   2.255   1.920
  292TIP3    H2  883   1.247   2.299   1.877
  293TIP3   OH2  884   6.261   5.017   5.117
  293TIP3    H1  885   6.173   5.054   5.113
  293TIP3    H2  886   6.292   5.037   5.205
  294TIP3   OH2  887   1.469   2.488   1.313
  294TIP3    H1  888   1.410   2.448   1.378
  294TIP3    H2  889   1.451   2.441   1.232
  295TIP3   OH2  890   1.963   0.018   1.391
  295TIP3    H1  891   2.038   0.065   1.429
  295TIP3    H2  892   1.929  -0.035   1.464
  296TIP3   OH2  893   5.550   5.377   4.240
  296TIP3    H1  894   5.539   5.436   4.165
  296TIP3    H2  895   5.643   5.381   4.260
  297TIP3   OH2  896   0.493   4.492   2.521
  297TIP3    H1  897   0.403   4.497   2.552
  297TIP3    H2  898   0.544   4.469   2.599
  298TIP3   OH2  899   2.885   3.179   3.604
  298TIP3    H1  900   2.842   3.241   3.546
  298TIP3    H2  901   2.972   3.217   3.620
  299TIP3   OH2  902   3.407   3.598   2.733
  299TIP3    H1  903   3.336   3.545   2.768
  299TIP3    H2  904   3.365   3.681   2.709
  300TIP3   OH2  905   4.742   0.768   3.222
  300TIP3    H1  906   4.718   0.741   3.310
  300TIP3    H2  907   4.807   0.837   3.234
  301TIP3   OH2  908   3.683   0.509   0.106
  301TIP3    H1  909   3.688   0.489   0.200
  301TIP3    H2  910   3.635   0.435   0.069
  302TIP3   OH2  911   0.533   0.436   1.017
  302TIP3    H1  912   0.496   0.376   0.953
  302TIP3    H2  913   0.624   0.449   0.988
  303TIP3   OH2  914   2.020   1.202   3.551
  303TIP3    H1  915   2.003   1.195   3.644
  303TIP3    H2  916   2.024   1.296   3.534
  304TIP3   OH2  917   5.738   1.349   4.454
  304TIP3    H1  918   5.777   1.265   4.431
  304TIP3    H2  919   5.748   1.403   4.375
  305TIP3   OH2  920   0.332   0.225   4.046
  305TIP3    H1  921   0.345   0.136   4.079
  305TIP3    H2  922   0.360   0.281   4.119
  306TIP3   OH2  923   0.802   0.874   3.987
  306TIP3    H1  924   0.777   0.961   4.018
  306TIP3    H2  925   0.888   0.859   4.027
  307TIP3   OH2  926   3.982   3.795   2.412
  307TIP3    H1  927   3.887   3.790   2.400
  307TIP3    H2  928   4.002   3.888   2.400
  308TIP3   OH2  929   5.124   2.286   1.228
  308TIP3    H1  930   5.165   2.339   1.159
  308TIP3    H2  931   5.197   2.256   1.282
  309TIP3   OH2  932   5.532   1.834   4.832
  309TIP3    H1  933   5.477   1.774   4.881
  309TIP3    H2  934   5.617   1.831   4.876
  310TIP3   OH2  935   0.626   1.446   3.828
  310TIP3    H1  936   0.586   1.375   3.778
  310TIP3    H2  937   0.557   1.474   3.888
  311TIP3   OH2  938   2.900   1.137   2.707
  311TIP3    H1  939   2.897   1.221   2.752
  311TIP3    H2  940   2.815   1.097   2.725
  312TIP3   OH2  941   1.616   0.116   4.022
  312TIP3    H1  942   1.671   0.126   4.101
  312TIP3    H2  943   1.596   0.206   3.996
  313TIP3   OH2  944   0.851   0.804   1.137
  313TIP3    H1  945   0.778   0.866   1.137
  313TIP3    H2  946   0.912   0.838   1.203
  314TIP3   OH2  947   2.625   2.975   4.472
  314TIP3    H1  948   2.709   3.001   4.509
  314TIP3    H2  949   2.642   2.892   4.428
  315TIP3   OH2  950   4.868   4.694   2.237
  315TIP3    H1  951   4.773   4.685   2.238
  315TIP3    H2  952   4.889   4.738   2.319
  316TIP3   OH2  953   4.218   2.189   2.217
  316TIP3    H1  954   4.217   2.282   2.196
  316TIP3    H2  955   4.306   2.160   2.194
  317TIP3   OH2  956   0.563   0.495   3.407
  317TIP3    H1  957   0.546   0.405   3.436
  317TIP3    H2  958   0.574   0.488   3.312
  318TIP3   OH2  959   1.581   5.790   2.874
  318TIP3    H1  960   1.560   5.833   2.791
  318TIP3    H2  961   1.524   5.833   2.938
  319TIP3   OH2  962   3.909   4.304   3.924
  319TIP3    H1  963   3.906   4.208   3.930
  319TIP3    H2  964   3.900   4.335   4.014
  320TIP3   OH2  965   1.733   2.948   4.148
  320TIP3    H1  966   1.680   2.941   4.227
  320TIP3    H2  967   1.673   2.980   4.081
  321TIP3   OH2  968   6.192   0.236   2.281
  321TIP3    H1  969   6.190   0.275   2.193
  321TIP3    H2  970   6.190   0.310   2.341
  322TIP3   OH2  971   0.267   3.053   1.365
  322TIP3    H1  972   0.285   3.134   1.317
  322TIP3    H2  973   0.171   3.050   1.370
  323TIP3   OH2  974   3.072   0.855   2.326
  323TIP3    H1  975   3.110   0.768   2.340
  323TIP3    H2  976   3.092   0.904   2.406
  324TIP3   OH2  977   4.338   1.097   3.149
  324TIP3    H1  978   4.376   1.121   3.064
  324TIP3    H2  979   4.280   1.023   3.129
  325TIP3   OH2  980   2.378   4.199   2.833
  325TIP3    H1  981   2.350   4.288   2.815
  325TIP3    H2  982   2.347   4.181   2.922
  326TIP3   OH2  983   1.320   0.747   1.826
  326TIP3    H1  984   1.228   0.727   1.842
  326TIP3    H2  985   1.356   0.766   1.912
  327TIP3   OH2  986   1.101   5.792   2.506
  327TIP3    H1  987   1.165   5.757   2.568
  327TIP3    H2  988   1.153   5.837   2.440
  328TIP3   OH2  989   5.047   4.796   0.280
  328TIP3    H1  990   5.036   4.725   0.218
  328TIP3    H2  991   5.119   4.767   0.337
  329TIP3   OH2  992   3.997   5.828   4.284
  329TIP3    H1  993   4.050   5.905   4.264
  329TIP3    H2  994   3.969   5.795   4.199
  330TIP3   OH2  995   3.569   4.453   3.896
  330TIP3    H1  996   3.497   4.395   3.922
  330TIP3    H2  997   3.538   4.540   3.919
  331TIP3   OH2  998   0.524   3.518   2.839
  331TIP3    H1  999   0.494   3.514   2.930
  331TIP3    H2 1000   0.559   3.431   2.822
  332TIP3   OH2 1001   0.492   3.840   2.470
  332TIP3    H1 1002   0.571   3.799   2.434
  332TIP3    H2 1003   0.465   3.782   2.541
  333TIP3   OH2 1004   0.852   5.371   3.457
  333TIP3    H1 1005   0.811   5.290   3.487
  333TIP3    H2 1006   0.868   5.421   3.536
  334TIP3   OH2 1007   2.031   0.729   4.080
  334TIP3    H1 1008   2.015   0.815   4.119
  334TIP3    H2 1009   2.122   0.710   4.100
  335TIP3   OH2 1010   2.426   4.687   2.350
  335TIP3    H1 1011   2.413   4.657   2.440
  335TIP3    H2 1012   2.341   4.724   2.325
  336TIP3   OH2 1013   4.776   0.116   1.844
  336TIP3    H1 1014   4.799   0.184   1.906
  336TIP3    H2 1015   4.715   0.059   1.892
  337TIP3   OH2 1016   2.146   0.127   3.720
  337TIP3    H1 1017   2.195   0.057   3.678
  337TIP3    H2 1018   2.054   0.106   3.704
  338TIP3   OH2 1019   5.405   2.270   1.293
  338TIP3    H1 1020   5.437   2.359   1.306
  338TIP3    H2 1021   5.475   2.213   1.325
  339TIP3   OH2 1022   6.394   4.252   0.937
  339TIP3    H1 1023   6.320   4.218   0.887
  339TIP3    H2 1024   6.470   4.206   0.902
  340TIP3   OH2 1025   6.374   5.043   0.734
  340TIP3    H1 1026   6.371   4.954   0.769
  340TIP3    H2 1027   6.309   5.044   0.664
  341TIP3   OH2 1028   4.652   4.223   2.139
  341TIP3    H1 1029   4.644   4.128   2.129
  341TIP3    H2 1030   4.745   4.237   2.154
  342TIP3   OH2 1031   1.276   5.921   0.942
  342TIP3    H1 1032   1.267   5.851   1.007
  342TIP3    H2 1033   1.366   5.912   0.910
  343TIP3   OH2 1034   1.261   1.683   0.671
  343TIP3    H1 1035   1.255   1.590   0.694
  343TIP3    H2 1036   1.172   1.716   0.688
  344TIP3   OH2 1037   1.256   3.499   3.401
  344TIP3    H1 1038   1.331   3.440   3.397
  344TIP3    H2 1039   1.291   3.584   3.373
  345TIP3   OH2 1040   0.757   2.088   4.516
  345TIP3    H1 1041   0.790   2.079   4.605
  345TIP3    H2 1042   0.718   2.175   4.513
  346TIP3   OH2 1043   1.837   5.347   4.283
  346TIP3    H1 1044   1.907   5.344   4.349
  346TIP3    H2 1045   1.879   5.387   4.207
  347TIP3   OH2 1046   5.211   1.303   1.394
  347TIP3    H1 1047   5.227   1.325   1.486
  347TIP3    H2 1048   5.267   1.364   1.345
  348TIP3   OH2 1049   1.486   0.203   2.031
  348TIP3    H1 1050   1.440   0.120   2.047
  348TIP3    H2 1051   1.460   0.259   2.104
  349TIP3   OH2 1052   5.614   4.843   1.507
  349TIP3    H1 1053   5.701   4.883   1.515
  349TIP3    H2 1054   5.556   4.915   1.483
  350TIP3   OH2 1055   0.707   3.133   4.543
  350TIP3    H1 1056   0.792   3.170   4.566
  350TIP3    H2 1057   0.649   3.209   4.534
  351TIP3   OH2 1058   4.454   0.894   2.791
  351TIP3    H1 1059   4.522   0.892   2.859
  351TIP3    H2 1060   4.433   0.801   2.777
  352TIP3   OH2 1061   0.113   3.081   0.462
  352TIP3    H1 1062   0.038   3.023   0.470
  352TIP3    H2 1063   0.080   3.156   0.412
  353TIP3   OH2 1064   1.905   1.435   1.124
  353TIP3    H1 1065   1.853   1.366   1.083
  353TIP3    H2 1066   1.845   1.509   1.130
  354TIP3   OH2 1067   4.290   4.627   2.298
  354TIP3    H1 1068   4.283   4.605   2.391
  354TIP3    H2 1069   4.371   4.585   2.269
  355TIP3   OH2 1070   5.477   4.354   5.103
  355TIP3    H1 1071   5.482   4.363   5.007
  355TIP3    H2 1072   5.567   4.370   5.133
  356TIP3   OH2 1073   5.302   5.997   2.675
  356TIP3    H1 1074   5.262   5.918   2.711
  356TIP3    H2 1075   5.231   6.060   2.671
  357TIP3   OH2 1076   3.287   1.931   0.365
  357TIP3    H1 1077   3.372   1.952   0.405
  357TIP3    H2 1078   3.267   1.843   0.398
  358TIP3   OH2 1079   5.808   5.141   4.093
  358TIP3    H1 1080   5.788   5.141   3.999
  358TIP3    H2 1081   5.841   5.053   4.110
  359TIP3   OH2 1082   0.564   4.590   1.792
  359TIP3    H1 1083   0.489   4.628   1.837
  359TIP3    H2 1084   0.536   4.501   1.769
  360TIP3   OH2 1085   6.006   1.716   2.877
  360TIP3    H1 1086   6.002   1.735   2.971
  360TIP3    H2 1087   5.915   1.724   2.848
  361TIP3   OH2 1088   1.740   0.368   1.553
  361TIP3    H1 1089   1.700   0.417   1.625
  361TIP3    H2 1090   1.684   0.291   1.542
  362TIP3   OH2 1091   2.574   2.228   4.985
  362TIP3    H1 1092   2.663   2.263   4.984
  362TIP3    H2 1093   2.561   2.198   5.075
  363TIP3   OH2 1094   0.276   1.796   2.566
  363TIP3    H1 1095   0.252   1.738   2.638
  363TIP3    H2 1096   0.313   1.738   2.500
  364TIP3   OH2 1097   4.612   1.233   2.729
  364TIP3    H1 1098   4.599   1.244   2.635
  364TIP3    H2 1099   4.530   1.196   2.761
  365TIP3   OH2 1100   2.145   2.602   3.184
  365TIP3    H1 1101   2.069   2.634   3.136
  365TIP3    H2 1102   2.218   2.612   3.124
  366TIP3   OH2 1103   6.248   5.386   4.855
  366TIP3    H1 1104   6.225   5.372   4.947
  366TIP3    H2 1105   6.198   5.464   4.829
  367TIP3   OH2 1106   5.632   0.634   2.995
  367TIP3    H1 1107   5.568   0.679   2.940
  367TIP3    H2 1108   5.589   0.625   3.080
  368TIP3   OH2 1109   1.469   5.421   4.433
  368TIP3    H1 1110   1.393   5.387   4.386
  368TIP3    H2 1111   1.535   5.352   4.426
  369TIP3   OH2 1112   2.218   2.813   1.390
  369TIP3    H1 1113   2.167   2.833   1.312
  369TIP3    H2 1114   2.248   2.898   1.422
  370TIP3   OH2 1115   2.512   6.061   3.826
  370TIP3    H1 1116   2.427   6.057   3.782
  370TIP3    H2 1117   2.490   6.055   3.919
  371TIP3   OH2 1118   5.007   3.155   1.045
  371TIP3    H1 1119   4.996   3.192   0.958
  371TIP3    H2 1120   5.000   3.060   1.031
  372TIP3   OH2 1121   3.995   3.533   0.902
  372TIP3    H1 1122   4.012   3.575   0.986
  372TIP3    H2 1123   4.026   3.443   0.913
  373TIP3   OH2 1124   5.854   4.369   1.875
  373TIP3    H1 1125   5.762   4.350   1.857
  373TIP3    H2 1126   5.889   4.287   1.908
  374TIP3   OH2 1127   1.265   4.166   0.579
  374TIP3    H1 1128   1.300   4.120   0.502
  374TIP3    H2 1129   1.273   4.103   0.650
  375TIP3   OH2 1130   0.868   1.466   4.380
  375TIP3    H1 1131   0.939   1.409   4.408
  375TIP3    H2 1132   0.880   1.546   4.431
  376TIP3   OH2 1133   5.797   0.909   2.237
  376TIP3    H1 1134   5.709   0.892   2.203
  376TIP3    H2 1135   5.795   1.001   2.264
  377TIP3   OH2 1136   3.752   0.217   5.132
  377TIP3    H1 1137   3.774   0.303   5.167
  377TIP3    H2 1138   3.659   0.224   5.108
  378TIP3   OH2 1139   2.134   1.869   4.214
  378TIP3    H1 1140   2.206   1.825   4.169
  378TIP3    H2 1141   2.056   1.847   4.163
  379TIP3   OH2 1142   3.275   1.065   2.926
  379TIP3    H1 1143   3.234   1.031   3.005
  379TIP3    H2 1144   3.239   1.153   2.915
  380TIP3   OH2 1145   1.144   1.749   4.191
  380TIP3    H1 1146   1.124   1.843   4.186
  380TIP3    H2 1147   1.093   1.710   4.120
  381TIP3   OH2 1148   4.278   0.166   4.675
  381TIP3    H1 1149   4.310   0.214   4.752
  381TIP3    H2 1150   4.201   0.119   4.707
  382TIP3   OH2 1151   3.996   4.795   4.952
  382TIP3    H1 1152   4.031   4.875   4.991
  382TIP3    H2 1153   4.065   4.765   4.892
  383TIP3   OH2 1154   6.330   2.489   3.388
  383TIP3    H1 1155   6.252   2.446   3.352
  383TIP3    H2 1156   6.321   2.581   3.362
  384TIP3   OH2 1157   3.694   1.940   2.271
  384TIP3    H1 1158   3.761   1.937   2.203
  384TIP3    H2 1159   3.664   2.030   2.272
  385TIP3   OH2 1160   3.712   3.017   2.016
  385TIP3    H1 1161   3.729   2.985   2.105
  385TIP3    H2 1162   3.748   3.106   2.015
  386TIP3   OH2 1163   1.444   1.715   0.138
  386TIP3    H1 1164   1.364   1.719   0.191
  386TIP3    H2 1165   1.435   1.787   0.076
  387TIP3   OH2 1166   3.632   1.786   1.823
  387TIP3    H1 1167   3.650   1.702   1.781
  387TIP3    H2 1168   3.536   1.790   1.830
  388TIP3   OH2 1169   4.193   2.307   3.993
  388TIP3    H1 1170   4.158   2.247   3.926
  388TIP3    H2 1171   4.288   2.296   3.987
  389TIP3   OH2 1172   1.150  -0.024   4.288
  389TIP3    H1 1173   1.059  -0.043   4.265
  389TIP3    H2 1174   1.199  -0.035   4.207
  390TIP3   OH2 1175   1.117   3.226   2.537
  390TIP3    H1 1176   1.194   3.200   2.588
  390TIP3    H2 1177   1.049   3.164   2.562
  391TIP3   OH2 1178   2.150   5.358   3.880
  391TIP3    H1 1179   2.222   5.317   3.927
  391TIP3    H2 1180   2.104   5.285   3.838
  392TIP3   OH2 1181   3.579   3.462   4.061
  392TIP3    H1 1182   3.654   3.406   4.045
  392TIP3    H2 1183   3.527   3.414   4.126
  393TIP3   OH2 1184   3.390   5.240   1.365
  393TIP3    H1 1185   3.439   5.246   1.447
  393TIP3    H2 1186   3.323   5.174   1.381
  394TIP3   OH2 1187   2.915   1.992   4.484
  394TIP3    H1 1188   2.917   1.985   4.389
  394TIP3    H2 1189   2.826   2.022   4.505
  395TIP3   OH2 1190   2.789   4.872   5.072
  395TIP3    H1 1191   2.730   4.923   5.017
  395TIP3    H2 1192   2.813   4.796   5.019
  396TIP3   OH2 1193   2.191   3.428   0.756
  396TIP3    H1 1194   2.154   3.349   0.795
  396TIP3    H2 1195   2.272   3.444   0.805
  397TIP3   OH2 1196   0.390   4.660   3.392
  397TIP3    H1 1197   0.389   4.565   3.394
  397TIP3    H2 1198   0.364   4.687   3.480
  398TIP3   OH2 1199   3.606   2.467   0.261
  398TIP3    H1 1200   3.547   2.540   0.279
  398TIP3    H2 1201   3.656   2.457   0.342
  399TIP3   OH2 1202   1.200   1.665   4.459
  399TIP3    H1 1203   1.149   1.586   4.478
  399TIP3    H2 1204   1.179   1.685   4.367
  400TIP3   OH2 1205   3.506   4.199   2.365
  400TIP3    H1 1206   3.514   4.290   2.394
  400TIP3    H2 1207   3.595   4.164   2.374
  401TIP3   OH2 1208   1.365   4.408   4.867
  401TIP3    H1 1209   1.370   4.315   4.846
  401TIP3    H2 1210   1.276   4.433   4.842
  402TIP3   OH2 1211   0.494   4.984   4.228
  402TIP3    H1 1212   0.416   4.951   4.273
  402TIP3    H2 1213   0.567   4.943   4.275
  403TIP3   OH2 1214   3.860   2.065   4.474
  403TIP3    H1 1215   3.953   2.042   4.483
  403TIP3    H2 1216   3.827   2.070   4.563
  404TIP3   OH2 1217   2.206   0.628   2.784
  404TIP3    H1 1218   2.200   0.532   2.783
  404TIP3    H2 1219   2.131   0.656   2.730
  405TIP3   OH2 1220   4.407   0.997   1.051
  405TIP3    H1 1221   4.319   1.034   1.061
  405TIP3    H2 1222   4.404   0.914   1.099
  406TIP3   OH2 1223   4.017   3.346   4.523
  406TIP3    H1 1224   4.006   3.284   4.451
  406TIP3    H2 1225   4.014   3.432   4.481
  407TIP3   OH2 1226   4.324   5.225   1.570
  407TIP3    H1 1227   4.367   5.267   1.496
  407TIP3    H2 1228   4.383   5.241   1.644
  408TIP3   OH2 1229   5.527   0.911   0.432
  408TIP3    H1 1230   5.565   0.979   0.376
  408TIP3    H2 1231   5.476   0.960   0.497
  409TIP3   OH2 1232   4.036   0.724   3.669
  409TIP3    H1 1233   4.079   0.732   3.754
  409TIP3    H2 1234   4.001   0.635   3.667
  410TIP3   OH2 1235   5.607   0.551   0.488
  410TIP3    H1 1236   5.635   0.638   0.460
  410TIP3    H2 1237   5.525   0.535   0.440
  411TIP3   OH2 1238   3.942   2.009   3.038
  411TIP3    H1 1239   3.966   2.033   2.948
  411TIP3    H2 1240   3.982   2.077   3.092
  412TIP3   OH2 1241   3.310   5.989   4.014
  412TIP3    H1 1242   3.233   6.039   3.987
  412TIP3    H2 1243   3.378   6.054   4.029
  413TIP3   OH2 1244   0.239   2.995   1.944
  413TIP3    H1 1245   0.205   3.015   2.031
  413TIP3    H2 1246   0.161   2.970   1.894
  414TIP3   OH2 1247   3.818   4.038   3.997
  414TIP3    H1 1248   3.879   3.966   4.015
  414TIP3    H2 1249   3.740   3.995   3.961
  415TIP3   OH2 1250   6.152   3.319   0.155
  415TIP3    H1 1251   6.125   3.231   0.178
  415TIP3    H2 1252   6.072   3.362   0.126
  416TIP3   OH2 1253   5.128   2.530   0.238
  416TIP3    H1 1254   5.090   2.454   0.193
  416TIP3    H2 1255   5.153   2.590   0.167
  417TIP3   OH2 1256   1.722   0.118   0.782
  417TIP3    H1 1257   1.753   0.170   0.856
  417TIP3    H2 1258   1.626   0.116   0.792
  418TIP3   OH2 1259   1.260   1.639   1.866
  418TIP3    H1 1260   1.280   1.726   1.901
  418TIP3    H2 1261   1.315   1.580   1.917
  419TIP3   OH2 1262   0.356   4.333   1.696
  419TIP3    H1 1263   0.326   4.276   1.625
  419TIP3    H2 1264   0.372   4.273   1.769
  420TIP3   OH2 1265   3.288   1.579   1.348
  420TIP3    H1 1266   3.231   1.652   1.327
  420TIP3    H2 1267   3.232   1.502   1.345
  421TIP3   OH2 1268   0.372   2.277   2.493
  421TIP3    H1 1269   0.463   2.256   2.509
  421TIP3    H2 1270   0.323   2.205   2.531
  422TIP3   OH2 1271   5.353   1.778   1.637
  422TIP3    H1 1272   5.394   1.701   1.598
  422TIP3    H2 1273   5.355   1.761   1.731
  423TIP3   OH2 1274   4.952   5.317   1.977
  423TIP3    H1 1275   4.976   5.252   1.911
  423TIP3    H2 1276   4.858   5.307   1.988
  424TIP3   OH2 1277   1.855   0.483   0.214
  424TIP3    H1 1278   1.852   0.505   0.121
  424TIP3    H2 1279   1.816   0.395   0.219
  425TIP3   OH2 1280   0.527   0.008   1.022
  425TIP3    H1 1281   0.458   0.068   0.994
  425TIP3    H2 1282   0.498  -0.078   0.991
  426TIP3   OH2 1283   3.010   4.744   4.513
  426TIP3    H1 1284   2.947   4.815   4.530
  426TIP3    H2 1285   2.982   4.673   4.570
  427TIP3   OH2 1286   4.299   4.009   3.626
  427TIP3    H1 1287   4.363   3.947   3.589
  427TIP3    H2 1288   4.252   3.958   3.692
  428TIP3   OH2 1289   2.530   0.525   2.027
  428TIP3    H1 1290   2.515   0.463   2.098
  428TIP3    H2 1291   2.495   0.608   2.059
  429TIP3   OH2 1292   5.886   5.267   0.764
  429TIP3    H1 1293   5.905   5.304   0.678
  429TIP3    H2 1294   5.947   5.194   0.773
  430TIP3   OH2 1295   0.102   3.469   0.155
  430TIP3    H1 1296   0.030   3.508   0.106
  430TIP3    H2 1297   0.141   3.541   0.203
  431TIP3   OH2 1298   0.990   3.201   4.132
  431TIP3    H1 1299   0.989   3.203   4.228
  431TIP3    H2 1300   1.083   3.211   4.109
  432TIP3   OH2 1301   5.454   3.978   3.142
  432TIP3    H1 1302   5.464   3.947   3.232
  432TIP3    H2 1303   5.382   4.041   3.147
  433TIP3   OH2 1304   6.000   0.252   0.689
  433TIP3    H1 1305   5.951   0.214   0.617
  433TIP3    H2 1306   6.005   0.345   0.669
  434TIP3   OH2 1307   6.345   4.755   3.299
  434TIP3    H1 1308   6.265   4.790   3.339
  434TIP3    H2 1309   6.314   4.710   3.220
  435TIP3   OH2 1310   3.796   0.360   3.360
  435TIP3    H1 1311   3.830   0.348   3.271
  435TIP3    H2 1312   3.710   0.399   3.347
  436TIP3   OH2 1313   3.351   0.043   3.722
  436TIP3    H1 1314   3.417   0.111   3.711
  436TIP3    H2 1315   3.313   0.032   3.635
  437TIP3   OH2 1316   3.062   2.241   2.561
  437TIP3    H1 1317   3.117   2.223   2.637
  437TIP3    H2 1318   3.093   2.325   2.529
  438TIP3   OH2 1319   3.128   3.751   3.907
  438TIP3    H1 1320   3.223   3.752   3.894
  438TIP3    H2 1321   3.092   3.744   3.819
  439TIP3   OH2 1322   6.273   5.634   2.773
  439TIP3    H1 1323   6.367   5.650   2.766
  439TIP3    H2 1324   6.258   5.554   2.724
  440TIP3   OH2 1325   3.526   3.059   4.497
  440TIP3    H1 1326   3.510   3.153   4.506
  440TIP3    H2 1327   3.455   3.027   4.442
  441TIP3   OH2 1328   2.858   1.848   3.614
  441TIP3    H1 1329   2.911   1.911   3.565
  441TIP3    H2 1330   2.922   1.785   3.649
  442TIP3   OH2 1331   5.054   5.708   0.155
  442TIP3    H1 1332   5.036   5.626   0.110
  442TIP3    H2 1333   5.116   5.754   0.099
  443TIP3   OH2 1334   6.199   5.894   4.080
  443TIP3    H1 1335   6.160   5.826   4.134
  443TIP3    H2 1336   6.249   5.948   4.142
  444TIP3   OH2 1337   5.163   3.427   0.880
  444TIP3    H1 1338   5.170   3.344   0.833
  444TIP3    H2 1339   5.089   3.472   0.839
  445TIP3   OH2 1340   2.673   2.655   0.547
  445TIP3    H1 1341   2.650   2.647   0.455
  445TIP3    H2 1342   2.721   2.575   0.567
  446TIP3   OH2 1343   1.722   1.378   4.057
  446TIP3    H1 1344   1.773   1.354   4.134
  446TIP3    H2 1345   1.664   1.303   4.042
  447TIP3   OH2 1346   6.309   4.058   2.722
  447TIP3    H1 1347   6.389   4.071   2.671
  447TIP3    H2 1348   6.339   4.057   2.813
  448TIP3   OH2 1349   2.099   2.245   4.512
  448TIP3    H1 1350   2.086   2.194   4.592
  448TIP3    H2 1351   2.193   2.261   4.509
  449TIP3   OH2 1352   4.554   4.015   1.448
  449TIP3    H1 1353   4.601   4.098   1.448
  449TIP3    H2 1354   4.592   3.966   1.522
  450TIP3   OH2 1355   3.255   2.750   4.181
  450TIP3    H1 1356   3.247   2.666   4.135
  450TIP3    H2 1357   3.237   2.816   4.114
  451TIP3   OH2 1358   0.852   4.973   4.012
  451TIP3    H1 1359   0.819   4.935   3.931
  451TIP3    H2 1360   0.896   5.054   3.985
  452TIP3   OH2 1361   2.445   0.752   1.578
  452TIP3    H1 1362   2.426   0.788   1.491
  452TIP3    H2 1363   2.395   0.808   1.638
  453TIP3   OH2 1364   5.341   1.628   1.888
  453TIP3    H1 1365   5.256   1.605   1.924
  453TIP3    H2 1366   5.392   1.547   1.890
  454TIP3   OH2 1367   0.519   4.375   0.114
  454TIP3    H1 1368   0.562   4.351   0.196
  454TIP3    H2 1369   0.571   4.447   0.080
  455TIP3   OH2 1370   5.431   3.352   3.413
  455TIP3    H1 1371   5.432   3.269   3.365
  455TIP3    H2 1372   5.348   3.393   3.388
  456TIP3   OH2 1373   6.233   2.293   3.161
  456TIP3    H1 1374   6.246   2.205   3.198
  456TIP3    H2 1375   6.138   2.302   3.153
  457TIP3   OH2 1376   5.915   2.919   0.273
  457TIP3    H1 1377   5.929   2.910   0.367
  457TIP3    H2 1378   5.820   2.923   0.263
  458TIP3   OH2 1379   2.496   2.716   1.996
  458TIP3    H1 1380   2.429   2.762   2.046
  458TIP3    H2 1381   2.452   2.638   1.962
  459TIP3   OH2 1382   4.478   0.185   0.290
  459TIP3    H1 1383   4.572   0.186   0.274
  459TIP3    H2 1384   4.449   0.098   0.261
  460TIP3   OH2 1385   6.198   5.151   0.058
  460TIP3    H1 1386   6.111   5.190   0.046
  460TIP3    H2 1387   6.235   5.199   0.132
  461TIP3   OH2 1388   3.548   1.828   4.611
  461TIP3    H1 1389   3.459   1.851   4.638
  461TIP3    H2 1390   3.545   1.734   4.593
  462TIP3   OH2 1391   2.029   3.108   4.808
  462TIP3    H1 1392   2.100   3.121   4.872
  462TIP3    H2 1393   2.026   3.190   4.760
  463TIP3   OH2 1394   2.706   4.174   0.261
  463TIP3    H1 1395   2.672   4.252   0.306
  463TIP3    H2 1396   2.686   4.102   0.320
  464TIP3   OH2 1397   1.906   1.368   4.252
  464TIP3    H1 1398   1.900   1.393   4.345
  464TIP3    H2 1399   1.999   1.360   4.236
  465TIP3   OH2 1400   3.967   3.486   5.130
  465TIP3    H1 1401   3.876   3.491   5.103
  465TIP3    H2 1402   4.003   3.572   5.106
  466TIP3   OH2 1403   6.144   2.743   2.264
  466TIP3    H1 1404   6.065   2.773   2.310
  466TIP3    H2 1405   6.115   2.667   2.213
  467TIP3   OH2 1406   4.118   2.385   3.599
  467TIP3    H1 1407   4.126   2.308   3.656
  467TIP3    H2 1408   4.044   2.364   3.542
  468TIP3   OH2 1409   0.012   4.533   0.490
  468TIP3    H1 1410   0.073   4.542   0.563
  468TIP3    H2 1411  -0.052   4.468   0.519
  469TIP3   OH2 1412   1.573   5.673   3.207
  469TIP3    H1 1413   1.512   5.736   3.168
  469TIP3    H2 1414   1.521   5.628   3.274
  470TIP3   OH2 1415   5.148   4.548   2.686
  470TIP3    H1 1416   5.140   4.477   2.623
  470TIP3    H2 1417   5.155   4.627   2.633
  471TIP3   OH2 1418   3.666   2.086   4.004
  471TIP3    H1 1419   3.746   2.091   3.951
  471TIP3    H2 1420   3.698   2.085   4.095
  472TIP3   OH2 1421   1.980   5.709   4.961
  472TIP3    H1 1422   1.998   5.718   5.054
  472TIP3    H2 1423   2.031   5.779   4.920
  473TIP3   OH2 1424   1.092   3.617   4.748
  473TIP3    H1 1425   1.062   3.551   4.811
  473TIP3    H2 1426   1.016   3.634   4.692
  474TIP3   OH2 1427   1.979   3.904   1.736
  474TIP3    H1 1428   2.056   3.938   1.781
  474TIP3    H2 1429   1.935   3.981   1.702
  475TIP3   OH2 1430   1.725   4.224   1.127
  475TIP3    H1 1431   1.721   4.138   1.085
  475TIP3    H2 1432   1.751   4.283   1.056
  476TIP3   OH2 1433   3.133   3.353   0.852
  476TIP3    H1 1434   3.079   3.344   0.930
  476TIP3    H2 1435   3.102   3.284   0.793
  477TIP3   OH2 1436   1.759   0.561   2.490
  477TIP3    H1 1437   1.664   0.566   2.498
  477TIP3    H2 1438   1.775   0.477   2.446
  478TIP3   OH2 1439   2.884   4.749   1.180
  478TIP3    H1 1440   2.814   4.684   1.174
  478TIP3    H2 1441   2.914   4.760   1.089
  479TIP3   OH2 1442   2.488   2.690   3.533
  479TIP3    H1 1443   2.406   2.683   3.485
  479TIP3    H2 1444   2.504   2.602   3.568
  480TIP3   OH2 1445   6.149   0.569   0.027
  480TIP3    H1 1446   6.238   0.534   0.023
  480TIP3    H2 1447   6.112   0.550  -0.059
  481TIP3   OH2 1448   1.180   4.907   1.978
  481TIP3    H1 1449   1.107   4.847   1.994
  481TIP3    H2 1450   1.237   4.896   2.054
  482TIP3   OH2 1451   2.608   1.978   3.486
  482TIP3    H1 1452   2.630   1.997   3.577
  482TIP3    H2 1453   2.545   2.046   3.462
  483TIP3   OH2 1454   1.804   1.497   1.444
  483TIP3    H1 1455   1.759   1.426   1.398
  483TIP3    H2 1456   1.805   1.569   1.381
  484TIP3   OH2 1457   5.194   0.088   4.435
  484TIP3    H1 1458   5.185   0.141   4.355
  484TIP3    H2 1459   5.259   0.136   4.487
  485TIP3   OH2 1460   2.544   4.936   1.151
  485TIP3    H1 1461   2.581   4.873   1.212
  485TIP3    H2 1462   2.519   4.884   1.075
  486TIP3   OH2 1463   3.384   4.896   1.690
  486TIP3    H1 1464   3.329   4.833   1.736
  486TIP3    H2 1465   3.321   4.954   1.646
  487TIP3   OH2 1466   2.004   2.251   1.853
  487TIP3    H1 1467   2.020   2.300   1.934
  487TIP3    H2 1468   2.085   2.202   1.839
  488TIP3   OH2 1469   2.361   2.210   4.520
  488TIP3    H1 1470   2.397   2.293   4.553
  488TIP3    H2 1471   2.395   2.202   4.431
  489TIP3   OH2 1472   0.576   5.382   5.011
  489TIP3    H1 1473   0.638   5.315   5.039
  489TIP3    H2 1474   0.526   5.342   4.940
  490TIP3   OH2 1475   2.793   3.267   4.115
  490TIP3    H1 1476   2.743   3.329   4.062
  490TIP3    H2 1477   2.771   3.289   4.206
  491TIP3   OH2 1478   1.395   4.716   2.059
  491TIP3    H1 1479   1.437   4.644   2.106
  491TIP3    H2 1480   1.368   4.678   1.976
  492TIP3   OH2 1481   1.762   4.634   1.273
  492TIP3    H1 1482   1.685   4.592   1.311
  492TIP3    H2 1483   1.773   4.591   1.188
  493TIP3   OH2 1484   2.303   4.926   0.025
  493TIP3    H1 1485   2.257   4.856  -0.022
  493TIP3    H2 1486   2.252   4.939   0.104
  494TIP3   OH2 1487   1.047   5.354   0.553
  494TIP3    H1 1488   0.988   5.403   0.610
  494TIP3    H2 1489   1.011   5.265   0.554
  495TIP3   OH2 1490   3.930   4.508   0.808
  495TIP3    H1 1491   3.924   4.495   0.902
  495TIP3    H2 1492   4.014   4.469   0.783
  496TIP3   OH2 1493   1.818   1.129   3.403
  496TIP3    H1 1494   1.750   1.167   3.458
  496TIP3    H2 1495   1.900   1.152   3.446
  497TIP3   OH2 1496   2.254   1.985   3.677
  497TIP3    H1 1497   2.197   1.939   3.738
  497TIP3    H2 1498   2.210   1.979   3.592
  498TIP3   OH2 1499   0.911   5.246   3.773
  498TIP3    H1 1500   0.841   5.222   3.713
  498TIP3    H2 1501   0.921   5.341   3.763
  499TIP3   OH2 1502   1.414   2.083   3.342
  499TIP3    H1 1503   1.363   2.061   3.265
  499TIP3    H2 1504   1.349   2.107   3.408
  500TIP3   OH2 1505   5.701   1.991   0.864
  500TIP3    H1 1506   5.773   1.929   0.857
  500TIP3    H2 1507   5.622   1.937   0.859
  501TIP3   OH2 1508   5.994   4.222   2.629
  501TIP3    H1 1509   6.040   4.199   2.549
  501TIP3    H2 1510   6.050   4.189   2.699
  502TIP3   OH2 1511   4.736   1.751   2.709
  502TIP3    H1 1512   4.657   1.774   2.661
  502TIP3    H2 1513   4.807   1.790   2.659
  503TIP3   OH2 1514   3.739   1.506   0.365
  503TIP3    H1 1515   3.811   1.491   0.303
  503TIP3    H2 1516   3.714   1.418   0.394
  504TIP3   OH2 1517   5.928   5.832   1.128
  504TIP3    H1 1518   5.863   5.891   1.091
  504TIP3    H2 1519   5.890   5.744   1.117
  505TIP3   OH2 1520   4.052   5.841   1.856
  505TIP3    H1 1521   4.139   5.851   1.816
  505TIP3    H2 1522   3.997   5.808   1.785
  506TIP3   OH2 1523   0.843   3.082   4.833
  506TIP3    H1 1524   0.880   2.994   4.842
  506TIP3    H2 1525   0.848   3.118   4.922
  507TIP3   OH2 1526   3.811   2.776   3.864
  507TIP3    H1 1527   3.902   2.790   3.838
  507TIP3    H2 1528   3.814   2.699   3.921
  508TIP3   OH2 1529   5.963   1.123   0.646
  508TIP3    H1 1530   5.951   1.204   0.597
  508TIP3    H2 1531   5.875   1.086   0.653
  509TIP3   OH2 1532   5.937   5.097   1.961
  509TIP3    H1 1533   5.961   5.067   1.874
  509TIP3    H2 1534   5.940   5.018   2.016
  510TIP3   OH2 1535   2.157   2.756   4.662
  510TIP3    H1 1536   2.175   2.662   4.671
  510TIP3    H2 1537   2.087   2.761   4.597
  511TIP3   OH2 1538   3.184   0.319   4.269
  511TIP3    H1 1539   3.115   0.386   4.278
  511TIP3    H2 1540   3.177   0.267   4.349
  512TIP3   OH2 1541   3.607   2.842   4.261
  512TIP3    H1 1542   3.683   2.885   4.301
  512TIP3    H2 1543   3.579   2.778   4.326
  513TIP3   OH2 1544   2.075   0.729   3.422
  513TIP3    H1 1545   2.050   0.819   3.398
  513TIP3    H2 1546   2.051   0.676   3.347
  514TIP3   OH2 1547   3.158   4.097   3.607
  514TIP3    H1 1548   3.100   4.161   3.648
  514TIP3    H2 1549   3.119   4.012   3.628
  515TIP3   OH2 1550   3.445   3.455   1.583
  515TIP3    H1 1551   3.435   3.518   1.655
  515TIP3    H2 1552   3.511   3.494   1.526
  516TIP3   OH2 1553   2.038   4.373   2.394
  516TIP3    H1 1554   2.101   4.343   2.328
  516TIP3    H2 1555   1.954   4.339   2.364
  517TIP3   OH2 1556   3.025   0.999   1.449
  517TIP3    H1 1557   3.097   0.940   1.472
  517TIP3    H2 1558   3.064   1.064   1.390
  518TIP3   OH2 1559   3.756   5.250   3.846
  518TIP3    H1 1560   3.773   5.188   3.917
  518TIP3    H2 1561   3.670   5.224   3.812
  519TIP3   OH2 1562   0.548   4.051   4.949
  519TIP3    H1 1563   0.565   4.143   4.967
  519TIP3    H2 1564   0.547   4.009   5.035
  520TIP3   OH2 1565   3.945   0.346   1.184
  520TIP3    H1 1566   3.949   0.282   1.255
  520TIP3    H2 1567   3.869   0.400   1.204
  521TIP3   OH2 1568   2.903   5.348   5.144
  521TIP3    H1 1569   2.985   5.397   5.138
  521TIP3    H2 1570   2.930   5.260   5.168
  522TIP3   OH2 1571   5.716   5.141   2.938
  522TIP3    H1 1572   5.767   5.089   2.999
  522TIP3    H2 1573   5.637   5.164   2.986
  523TIP3   OH2 1574   1.437   0.926   4.702
  523TIP3    H1 1575   1.394   0.983   4.638
  523TIP3    H2 1576   1.530   0.948   4.695
  524TIP3   OH2 1577   5.692   3.085   2.146
  524TIP3    H1 1578   5.667   3.028   2.218
  524TIP3    H2 1579   5.692   3.029   2.068
  525TIP3   OH2 1580   0.392   0.549   1.216
  525TIP3    H1 1581   0.410   0.490   1.143
  525TIP3    H2 1582   0.475   0.555   1.263
  526TIP3   OH2 1583   3.711   3.616   4.454
  526TIP3    H1 1584   3.731   3.701   4.494
  526TIP3    H2 1585   3.623   3.627   4.418
  527TIP3   OH2 1586   3.480   2.542   2.545
  527TIP3    H1 1587   3.488   2.610   2.612
  527TIP3    H2 1588   3.554   2.483   2.560
  528TIP3   OH2 1589   3.970   5.414   2.702
  528TIP3    H1 1590   3.916   5.385   2.628
  528TIP3    H2 1591   3.976   5.337   2.759
  529TIP3   OH2 1592   5.407   3.183   1.323
  529TIP3    H1 1593   5.491   3.137   1.326
  529TIP3    H2 1594   5.345   3.118   1.292
  530TIP3   OH2 1595   3.015   3.395   5.005
  530TIP3    H1 1596   3.000   3.432   5.092
  530TIP3    H2 1597   3.039   3.303   5.023
  531TIP3   OH2 1598   3.826   4.276   4.729
  531TIP3    H1 1599   3.820   4.370   4.715
  531TIP3    H2 1600   3.904   4.249   4.680
  532TIP3   OH2 1601   4.237   5.668   2.273
  532TIP3    H1 1602   4.290   5.594   2.303
  532TIP3    H2 1603   4.293   5.714   2.211
  533TIP3   OH2 1604   1.637   2.053   0.039
  533TIP3    H1 1605   1.569   2.108   0.079
  533TIP3    H2 1606   1.668   1.997   0.111
  534TIP3   OH2 1607   5.372   3.592   4.582
  534TIP3    H1 1608   5.345   3.508   4.545
  534TIP3    H2 1609   5.401   3.643   4.507
  535TIP3   OH2 1610   3.313   5.331   4.343
  535TIP3    H1 1611   3.253   5.359   4.274
  535TIP3    H2 1612   3.372   5.269   4.300
  536TIP3   OH2 1613   0.630   2.466   5.233
  536TIP3    H1 1614   0.581   2.503   5.159
  536TIP3    H2 1615   0.709   2.428   5.193
  537TIP3   OH2 1616   4.662   4.797   1.733
  537TIP3    H1 1617   4.685   4.705   1.718
  537TIP3    H2 1618   4.639   4.830   1.646
  538TIP3   OH2 1619   2.149   0.541   0.122
  538TIP3    H1 1620   2.163   0.620   0.173
  538TIP3    H2 1621   2.073   0.500   0.163
  539TIP3   OH2 1622   3.111   1.193   0.878
  539TIP3    H1 1623   3.078   1.192   0.789
  539TIP3    H2 1624   3.203   1.219   0.870
  540TIP3   OH2 1625   3.744   5.491   3.942
  540TIP3    H1 1626   3.749   5.403   3.904
  540TIP3    H2 1627   3.655   5.521   3.922
  541TIP3   OH2 1628   3.642   4.998   2.546
  541TIP3    H1 1629   3.611   5.079   2.507
  541TIP3    H2 1630   3.720   4.975   2.495
  542TIP3   OH2 1631   1.492   2.633   0.233
  542TIP3    H1 1632   1.521   2.695   0.166
  542TIP3    H2 1633   1.521   2.547   0.201
  543TIP3   OH2 1634   3.170   1.184   3.262
  543TIP3    H1 1635   3.129   1.268   3.284
  543TIP3    H2 1636   3.247   1.179   3.318
  544TIP3   OH2 1637   2.156   4.249   5.051
  544TIP3    H1 1638   2.152   4.231   4.957
  544TIP3    H2 1639   2.138   4.342   5.059
  545TIP3   OH2 1640   5.862   5.505   2.276
  545TIP3    H1 1641   5.858   5.561   2.199
  545TIP3    H2 1642   5.788   5.445   2.265
  546TIP3   OH2 1643   1.899   3.862   4.127
  546TIP3    H1 1644   1.852   3.943   4.108
  546TIP3    H2 1645   1.960   3.852   4.054
  547TIP3   OH2 1646   4.714   1.586   3.097
  547TIP3    H1 1647   4.706   1.678   3.073
  547TIP3    H2 1648   4.623   1.557   3.111
  548TIP3   OH2 1649   1.668   3.187   4.928
  548TIP3    H1 1650   1.638   3.252   4.865
  548TIP3    H2 1651   1.596   3.124   4.933
  549TIP3   OH2 1652   5.271   4.076   0.825
  549TIP3    H1 1653   5.222   4.096   0.905
  549TIP3    H2 1654   5.252   4.149   0.766
  550TIP3   OH2 1655   0.526   3.326   1.048
  550TIP3    H1 1656   0.571   3.268   1.109
  550TIP3    H2 1657   0.498   3.268   0.977
  551TIP3   OH2 1658   5.848   2.860   2.019
  551TIP3    H1 1659   5.891   2.946   2.012
  551TIP3    H2 1660   5.907   2.800   1.973
  552TIP3   OH2 1661   2.797   3.980   4.305
  552TIP3    H1 1662   2.725   4.021   4.256
  552TIP3    H2 1663   2.759   3.901   4.343
  553TIP3   OH2 1664   5.940   3.146   0.701
  553TIP3    H1 1665   5.869   3.082   0.697
  553TIP3    H2 1666   6.020   3.093   0.694
  554TIP3   OH2 1667   1.441   2.045   1.068
  554TIP3    H1 1668   1.448   1.965   1.016
  554TIP3    H2 1669   1.515   2.041   1.128
  555TIP3   OH2 1670   5.344   5.569   4.717
  555TIP3    H1 1671   5.367   5.610   4.634
  555TIP3    H2 1672   5.422   5.519   4.741
  556TIP3   OH2 1673   6.171   3.885   4.728
  556TIP3    H1 1674   6.250   3.833   4.742
  556TIP3    H2 1675   6.151   3.873   4.635
  557TIP3   OH2 1676   1.651   5.170   4.425
  557TIP3    H1 1677   1.688   5.086   4.452
  557TIP3    H2 1678   1.727   5.224   4.404
  558TIP3   OH2 1679   5.890   5.440   0.551
  558TIP3    H1 1680   5.878   5.535   0.559
  558TIP3    H2 1681   5.864   5.420   0.461
  559TIP3   OH2 1682   4.627   2.471   4.450
  559TIP3    H1 1683   4.626   2.555   4.405
  559TIP3    H2 1684   4.621   2.494   4.543
  560TIP3   OH2 1685   4.953   3.930   3.616
  560TIP3    H1 1686   4.950   3.866   3.688
  560TIP3    H2 1687   5.045   3.955   3.610
  561TIP3   OH2 1688   6.077   0.755   4.301
  561TIP3    H1 1689   6.118   0.813   4.365
  561TIP3    H2 1690   6.040   0.814   4.236
  562TIP3   OH2 1691   0.712   1.163   2.463
  562TIP3    H1 1692   0.789   1.113   2.489
  562TIP3    H2 1693   0.744   1.226   2.399
  563TIP3   OH2 1694   1.880   4.126   1.950
  563TIP3    H1 1695   1.881   4.189   1.878
  563TIP3    H2 1696   1.972   4.106   1.966
  564TIP3   OH2 1697   2.150   3.176   1.885
  564TIP3    H1 1698   2.085   3.127   1.834
  564TIP3    H2 1699   2.113   3.264   1.894
  565TIP3   OH2 1700   2.565   3.370   4.992
  565TIP3    H1 1701   2.576   3.350   5.085
  565TIP3    H2 1702   2.472   3.355   4.976
  566TIP3   OH2 1703   2.592   2.979   1.925
  566TIP3    H1 1704   2.568   2.886   1.929
  566TIP3    H2 1705   2.680   2.980   1.888
  567TIP3   OH2 1706   1.990   1.057   3.045
  567TIP3    H1 1707   1.958   1.137   3.004
  567TIP3    H2 1708   2.060   1.027   2.988
  568TIP3   OH2 1709   1.371   3.729   3.284
  568TIP3    H1 1710   1.361   3.709   3.192
  568TIP3    H2 1711   1.383   3.824   3.287
  569TIP3   OH2 1712   4.657   0.186   1.592
  569TIP3    H1 1713   4.618   0.100   1.572
  569TIP3    H2 1714   4.711   0.169   1.669
  570TIP3   OH2 1715   0.952   4.700   2.870
  570TIP3    H1 1716   1.013   4.755   2.821
  570TIP3    H2 1717   1.001   4.620   2.888
  571TIP3   OH2 1718   2.359   0.545   1.092
  571TIP3    H1 1719   2.309   0.465   1.109
  571TIP3    H2 1720   2.350   0.560   0.998
  572TIP3   OH2 1721   4.952   5.489   1.302
  572TIP3    H1 1722   5.009   5.538   1.362
  572TIP3    H2 1723   4.900   5.557   1.258
  573TIP3   OH2 1724   1.655   5.942   1.548
  573TIP3    H1 1725   1.724   5.882   1.521
  573TIP3    H2 1726   1.642   5.925   1.641
  574TIP3   OH2 1727   4.543   5.921   4.088
  574TIP3    H1 1728   4.636   5.902   4.096
  574TIP3    H2 1729   4.504   5.836   4.066
  575TIP3   OH2 1730   4.272   3.568   3.412
  575TIP3    H1 1731   4.216   3.643   3.433
  575TIP3    H2 1732   4.253   3.504   3.481
  576TIP3   OH2 1733   1.415   2.985   3.317
  576TIP3    H1 1734   1.417   3.079   3.298
  576TIP3    H2 1735   1.360   2.948   3.248
  577TIP3   OH2 1736   4.522   5.919   5.117
  577TIP3    H1 1737   4.532   5.850   5.182
  577TIP3    H2 1738   4.576   5.890   5.043
  578TIP3   OH2 1739   1.493   2.748   3.644
  578TIP3    H1 1740   1.520   2.680   3.706
  578TIP3    H2 1741   1.528   2.719   3.560
  579TIP3   OH2 1742   2.476   4.123   1.297
  579TIP3    H1 1743   2.536   4.190   1.327
  579TIP3    H2 1744   2.389   4.155   1.322
  580TIP3   OH2 1745   5.638   2.711   3.819
  580TIP3    H1 1746   5.625   2.661   3.738
  580TIP3    H2 1747   5.685   2.651   3.877
  581TIP3   OH2 1748   4.160   5.844   3.218
  581TIP3    H1 1749   4.196   5.756   3.230
  581TIP3    H2 1750   4.120   5.842   3.132
  582TIP3   OH2 1751   5.378   3.482   2.348
  582TIP3    H1 1752   5.423   3.545   2.404
  582TIP3    H2 1753   5.285   3.495   2.365
  583TIP3   OH2 1754   0.793   2.093   0.801
  583TIP3    H1 1755   0.800   2.107   0.896
  583TIP3    H2 1756   0.873   2.132   0.765
  584TIP3   OH2 1757   2.213   1.657   3.203
  584TIP3    H1 1758   2.124   1.637   3.175
  584TIP3    H2 1759   2.268   1.631   3.129
  585TIP3   OH2 1760   0.834   2.596   0.719
  585TIP3    H1 1761   0.741   2.578   0.736
  585TIP3    H2 1762   0.832   2.657   0.644
  586TIP3   OH2 1763   3.056   1.635   2.344
  586TIP3    H1 1764   3.039   1.729   2.355
  586TIP3    H2 1765   3.122   1.615   2.411
  587TIP3   OH2 1766   3.600   2.201   2.222
  587TIP3    H1 1767   3.638   2.289   2.216
  587TIP3    H2 1768   3.637   2.155   2.146
  588TIP3   OH2 1769   4.004   5.061   5.096
  588TIP3    H1 1770   4.009   5.141   5.043
  588TIP3    H2 1771   3.923   5.072   5.147
  589TIP3   OH2 1772   4.757   2.446   3.998
  589TIP3    H1 1773   4.764   2.405   3.912
  589TIP3    H2 1774   4.726   2.376   4.056
  590TIP3   OH2 1775   6.009   1.522   3.810
  590TIP3    H1 1776   5.995   1.584   3.739
  590TIP3    H2 1777   5.922   1.510   3.849
  591TIP3   OH2 1778   3.270   4.580   0.551
  591TIP3    H1 1779   3.245   4.661   0.594
  591TIP3    H2 1780   3.205   4.567   0.482
  592TIP3   OH2 1781   6.217   3.765   2.111
  592TIP3    H1 1782   6.312   3.771   2.101
  592TIP3    H2 1783   6.198   3.671   2.100
  593TIP3   OH2 1784   3.578   3.924   0.514
  593TIP3    H1 1785   3.640   3.851   0.515
  593TIP3    H2 1786   3.492   3.882   0.511
  594TIP3   OH2 1787   2.020   0.399   4.063
  594TIP3    H1 1788   2.102   0.351   4.071
  594TIP3    H2 1789   1.981   0.366   3.982
  595TIP3   OH2 1790   0.998   3.729   2.402
  595TIP3    H1 1791   1.060   3.752   2.471
  595TIP3    H2 1792   1.050   3.733   2.321
  596TIP3   OH2 1793   0.744   4.584   2.422
  596TIP3    H1 1794   0.796   4.504   2.429
  596TIP3    H2 1795   0.659   4.560   2.459
  597TIP3   OH2 1796   0.532   2.824   0.728
  597TIP3    H1 1797   0.534   2.730   0.743
  597TIP3    H2 1798   0.468   2.836   0.658
  598TIP3   OH2 1799   3.522   3.370   2.271
  598TIP3    H1 1800   3.438   3.333   2.244
  598TIP3    H2 1801   3.499   3.452   2.316
  599TIP3   OH2 1802   3.210   1.927   4.332
  599TIP3    H1 1803   3.239   1.957   4.246
  599TIP3    H2 1804   3.165   1.844   4.314
  600TIP3   OH2 1805   2.023   4.097   2.535
  600TIP3    H1 1806   1.959   4.104   2.465
  600TIP3    H2 1807   2.037   4.187   2.564
  601TIP3   OH2 1808   5.364   4.298   4.018
  601TIP3    H1 1809   5.411   4.368   3.973
  601TIP3    H2 1810   5.310   4.344   4.083
  602TIP3   OH2 1811   1.576   4.428   2.737
  602TIP3    H1 1812   1.495   4.475   2.718
  602TIP3    H2 1813   1.635   4.453   2.666
  603TIP3   OH2 1814   4.652   4.931   4.660
  603TIP3    H1 1815   4.622   4.996   4.724
  603TIP3    H2 1816   4.668   4.852   4.712
  604TIP3   OH2 1817   0.722   3.393   0.136
  604TIP3    H1 1818   0.721   3.351   0.049
  604TIP3    H2 1819   0.667   3.471   0.125
  605TIP3   OH2 1820   5.127   0.885   2.335
  605TIP3    H1 1821   5.088   0.798   2.346
  605TIP3    H2 1822   5.059   0.935   2.290
  606TIP3   OH2 1823   0.386   1.099   3.482
  606TIP3    H1 1824   0.405   1.158   3.555
  606TIP3    H2 1825   0.432   1.137   3.407
  607TIP3   OH2 1826   0.283   3.672   4.630
  607TIP3    H1 1827   0.330   3.622   4.696
  607TIP3    H2 1828   0.351   3.719   4.582
  608TIP3   OH2 1829   3.884   2.901   3.442
  608TIP3    H1 1830   3.880   2.996   3.432
  608TIP3    H2 1831   3.864   2.867   3.355
  609TIP3   OH2 1832   1.709   3.664   1.436
  609TIP3    H1 1833   1.695   3.580   1.393
  609TIP3    H2 1834   1.770   3.710   1.378
  610TIP3   OH2 1835   1.547   5.930   4.618
  610TIP3    H1 1836   1.557   5.915   4.524
  610TIP3    H2 1837   1.629   5.899   4.655
  611TIP3   OH2 1838   5.201   1.219   2.162
  611TIP3    H1 1839   5.202   1.155   2.091
  611TIP3    H2 1840   5.113   1.214   2.199
  612TIP3   OH2 1841   1.068   2.836   2.511
  612TIP3    H1 1842   1.075   2.748   2.473
  612TIP3    H2 1843   1.093   2.895   2.440
  613TIP3   OH2 1844   1.993   0.707   5.004
  613TIP3    H1 1845   1.902   0.706   4.976
  613TIP3    H2 1846   2.007   0.796   5.037
  614TIP3   OH2 1847   1.786   5.300   2.285
  614TIP3    H1 1848   1.785   5.236   2.214
  614TIP3    H2 1849   1.703   5.347   2.275
  615TIP3   OH2 1850   1.914   2.681   1.246
  615TIP3    H1 1851   1.942   2.703   1.335
  615TIP3    H2 1852   1.971   2.733   1.189
  616TIP3   OH2 1853   5.212   0.167   2.391
  616TIP3    H1 1854   5.162   0.092   2.425
  616TIP3    H2 1855   5.255   0.133   2.312
  617TIP3   OH2 1856   1.231   5.750   0.235
  617TIP3    H1 1857   1.192   5.671   0.272
  617TIP3    H2 1858   1.304   5.770   0.293
  618TIP3   OH2 1859   1.547   2.234   0.625
  618TIP3    H1 1860   1.620   2.207   0.681
  618TIP3    H2 1861   1.469   2.200   0.668
  619TIP3   OH2 1862   4.110   4.858   4.282
  619TIP3    H1 1863   4.118   4.828   4.373
  619TIP3    H2 1864   4.164   4.798   4.232
  620TIP3   OH2 1865   0.346   3.504   3.510
  620TIP3    H1 1866   0.280   3.572   3.525
  620TIP3    H2 1867   0.428   3.551   3.502
  621TIP3   OH2 1868   3.849   1.517   4.628
  621TIP3    H1 1869   3.791   1.442   4.628
  621TIP3    H2 1870   3.926   1.488   4.578
  622TIP3   OH2 1871   2.668   4.071   2.942
  622TIP3    H1 1872   2.624   3.997   2.984
  622TIP3    H2 1873   2.604   4.142   2.945
  623TIP3   OH2 1874   2.098   1.529   1.549
  623TIP3    H1 1875   2.010   1.564   1.559
  623TIP3    H2 1876   2.116   1.535   1.455
  624TIP3   OH2 1877   3.816   5.628   0.544
  624TIP3    H1 1878   3.859   5.706   0.579
  624TIP3    H2 1879   3.744   5.612   0.605
  625TIP3   OH2 1880   5.921   3.842   2.015
  625TIP3    H1 1881   5.865   3.840   2.092
  625TIP3    H2 1882   6.010   3.833   2.049
  626TIP3   OH2 1883   4.497   0.783   4.601
  626TIP3    H1 1884   4.454   0.805   4.518
  626TIP3    H2 1885   4.552   0.859   4.619
  627TIP3   OH2 1886   6.206   5.933   1.051
  627TIP3    H1 1887   6.119   5.924   1.091
  627TIP3    H2 1888   6.216   6.027   1.037
  628TIP3   OH2 1889   4.542   0.889   3.543
  628TIP3    H1 1890   4.569   0.918   3.630
  628TIP3    H2 1891   4.458   0.846   3.557
  629TIP3   OH2 1892   2.054   2.511   5.028
  629TIP3    H1 1893   1.988   2.566   5.071
  629TIP3    H2 1894   2.108   2.572   4.978
  630TIP3   OH2 1895   2.230   2.005   0.938
  630TIP3    H1 1896   2.322   2.018   0.957
  630TIP3    H2 1897   2.216   2.050   0.854
  631TIP3   OH2 1898   0.867   3.477   2.033
  631TIP3    H1 1899   0.884   3.406   1.971
  631TIP3    H2 1900   0.898   3.443   2.117
  632TIP3   OH2 1901   1.604   1.811   2.301
  632TIP3    H1 1902   1.604   1.719   2.329
  632TIP3    H2 1903   1.683   1.847   2.340
  633TIP3   OH2 1904   1.596   5.077   4.083
  633TIP3    H1 1905   1.620   5.170   4.082
  633TIP3    H2 1906   1.522   5.073   4.144
  634TIP3   OH2 1907   4.953   4.276   0.453
  634TIP3    H1 1908   4.913   4.335   0.388
  634TIP3    H2 1909   5.032   4.245   0.409
  635TIP3   OH2 1910   5.894   1.728   4.056
  635TIP3    H1 1911   5.838   1.735   4.133
  635TIP3    H2 1912   5.982   1.745   4.089
  636TIP3   OH2 1913   3.915   3.916   5.201
  636TIP3    H1 1914   3.878   4.001   5.223
  636TIP3    H2 1915   3.887   3.899   5.111
  637TIP3   OH2 1916   0.195   0.777   4.709
  637TIP3    H1 1917   0.106   0.777   4.743
  637TIP3    H2 1918   0.190   0.725   4.628
  638TIP3   OH2 1919   5.081   4.070   3.393
  638TIP3    H1 1920   5.176   4.070   3.402
  638TIP3    H2 1921   5.049   4.067   3.483
  639TIP3   OH2 1922   1.145   5.952   2.083
  639TIP3    H1 1923   1.146   6.022   2.148
  639TIP3    H2 1924   1.052   5.930   2.072
  640TIP3   OH2 1925   5.258   0.700   3.037
  640TIP3    H1 1926   5.207   0.780   3.053
  640TIP3    H2 1927   5.271   0.699   2.942
  641TIP3   OH2 1928   1.147   3.490   2.550
  641TIP3    H1 1929   1.147   3.394   2.545
  641TIP3    H2 1930   1.068   3.516   2.502
  642TIP3   OH2 1931   5.489   1.717   4.545
  642TIP3    H1 1932   5.484   1.624   4.564
  642TIP3    H2 1933   5.467   1.760   4.627
  643TIP3   OH2 1934   0.074   2.578   4.293
  643TIP3    H1 1935   0.085   2.617   4.380
  643TIP3    H2 1936   0.142   2.510   4.288
  644TIP3   OH2 1937   5.649   2.883   2.733
  644TIP3    H1 1938   5.640   2.888   2.828
  644TIP3    H2 1939   5.605   2.801   2.709
  645TIP3   OH2 1940   4.053   2.152   2.422
  645TIP3    H1 1941   4.053   2.061   2.454
  645TIP3    H2 1942   4.137   2.160   2.376
  646TIP3   OH2 1943   2.474   0.406   0.523
  646TIP3    H1 1944   2.467   0.485   0.470
  646TIP3    H2 1945   2.554   0.364   0.493
  647TIP3   OH2 1946   5.294   0.234   4.195
  647TIP3    H1 1947   5.282   0.213   4.102
  647TIP3    H2 1948   5.367   0.179   4.223
  648TIP3   OH2 1949   0.773   2.669   3.610
  648TIP3    H1 1950   0.728   2.640   3.690
  648TIP3    H2 1951   0.865   2.649   3.625
  649TIP3   OH2 1952   3.600   2.891   4.709
  649TIP3    H1 1953   3.652   2.948   4.765
  649TIP3    H2 1954   3.549   2.951   4.655
  650TIP3   OH2 1955   2.382   1.291   2.155
  650TIP3    H1 1956   2.336   1.375   2.162
  650TIP3    H2 1957   2.466   1.305   2.199
  651TIP3   OH2 1958   4.947   4.860   4.268
  651TIP3    H1 1959   4.965   4.938   4.321
  651TIP3    H2 1960   4.881   4.888   4.205
  652TIP3   OH2 1961   3.272   3.615   0.980
  652TIP3    H1 1962   3.198   3.567   0.943
  652TIP3    H2 1963   3.342   3.604   0.916
  653TIP3   OH2 1964   1.799   4.084   4.398
  653TIP3    H1 1965   1.711   4.066   4.366
  653TIP3    H2 1966   1.846   4.119   4.322
  654TIP3   OH2 1967   2.814   0.485   0.452
  654TIP3    H1 1968   2.777   0.490   0.364
  654TIP3    H2 1969   2.780   0.562   0.497
  655TIP3   OH2 1970   2.207   2.473   0.827
  655TIP3    H1 1971   2.246   2.427   0.901
  655TIP3    H2 1972   2.217   2.412   0.753
  656TIP3   OH2 1973   4.782   1.644   0.766
  656TIP3    H1 1974   4.754   1.735   0.777
  656TIP3    H2 1975   4.856   1.635   0.827
  657TIP3   OH2 1976   6.190   3.036   0.616
  657TIP3    H1 1977   6.145   2.965   0.569
  657TIP3    H2 1978   6.247   2.991   0.678
  658TIP3   OH2 1979   6.318   0.709   4.861
  658TIP3    H1 1980   6.392   0.683   4.917
  658TIP3    H2 1981   6.252   0.642   4.877
  659TIP3   OH2 1982   1.439   3.341   1.937
  659TIP3    H1 1983   1.438   3.383   1.851
  659TIP3    H2 1984   1.494   3.399   1.991
  660TIP3   OH2 1985   1.571   5.816   2.343
  660TIP3    H1 1986   1.571   5.774   2.257
  660TIP3    H2 1987   1.641   5.773   2.391
  661TIP3   OH2 1988   1.902   0.203   1.036
  661TIP3    H1 1989   1.956   0.282   1.029
  661TIP3    H2 1990   1.847   0.219   1.112
  662TIP3   OH2 1991   3.051   2.504   4.865
  662TIP3    H1 1992   3.000   2.545   4.795
  662TIP3    H2 1993   3.109   2.443   4.819
  663TIP3   OH2 1994   5.391   2.707   3.983
  663TIP3    H1 1995   5.447   2.653   4.040
  663TIP3    H2 1996   5.452   2.754   3.926
  664TIP3   OH2 1997   1.024   4.224   2.216
  664TIP3    H1 1998   1.038   4.318   2.231
  664TIP3    H2 1999   1.101   4.197   2.166
  665TIP3   OH2 2000   3.876   3.492   1.535
  665TIP3    H1 2001   3.956   3.455   1.496
  665TIP3    H2 2002   3.873   3.456   1.623
  666TIP3   OH2 2003   5.539   2.949   3.783
  666TIP3    H1 2004   5.585   2.868   3.803
  666TIP3    H2 2005   5.580   3.014   3.841
  667TIP3   OH2 2006   0.665   2.278   1.296
  667TIP3    H1 2007   0.747   2.322   1.320
  667TIP3    H2 2008   0.601   2.348   1.288
  668TIP3   OH2 2009   2.939   5.901   3.664
  668TIP3    H1 2010   2.875   5.967   3.634
  668TIP3    H2 2011   2.907   5.819   3.627
  669TIP3   OH2 2012   3.961   5.672   4.060
  669TIP3    H1 2013   3.920   5.719   3.988
  669TIP3    H2 2014   3.912   5.590   4.067
  670TIP3   OH2 2015   4.462   3.324   4.705
  670TIP3    H1 2016   4.456   3.245   4.759
  670TIP3    H2 2017   4.439   3.295   4.617
  671TIP3   OH2 2018   0.635   4.856   0.292
  671TIP3    H1 2019   0.723   4.885   0.267
  671TIP3    H2 2020   0.588   4.936   0.314
  672TIP3   OH2 2021   4.475   0.631   4.936
  672TIP3    H1 2022   4.384   0.655   4.919
  672TIP3    H2 2023   4.521   0.715   4.941
  673TIP3   OH2 2024   0.314   3.750   1.336
  673TIP3    H1 2025   0.367   3.802   1.397
  673TIP3    H2 2026   0.304   3.665   1.379
  674TIP3   OH2 2027   1.485   4.222   5.159
  674TIP3    H1 2028   1.473   4.196   5.067
  674TIP3    H2 2029   1.498   4.317   5.155
  675TIP3   OH2 2030   5.218   1.150   3.302
  675TIP3    H1 2031   5.229   1.132   3.395
  675TIP3    H2 2032   5.305   1.138   3.264
  676TIP3   OH2 2033   4.823   0.226   4.743
  676TIP3    H1 2034   4.822   0.184   4.657
  676TIP3    H2 2035   4.734   0.212   4.777
  677TIP3   OH2 2036   2.998   2.027   3.461
  677TIP3    H1 2037   3.072   2.066   3.508
  677TIP3    H2 2038   2.958   2.101   3.415
  678TIP3   OH2 2039   5.570   2.233   2.276
  678TIP3    H1 2040   5.656   2.256   2.242
  678TIP3    H2 2041   5.571   2.264   2.367
  679TIP3   OH2 2042   6.374   1.956   0.004
  679TIP3    H1 2043   6.333   1.979   0.087
  679TIP3    H2 2044   6.467   1.951   0.023
  680TIP3   OH2 2045   3.509   0.991   3.410
  680TIP3    H1 2046   3.475   1.081   3.410
  680TIP3    H2 2047   3.604   1.002   3.419
  681TIP3   OH2 2048   2.058   1.768   2.208
  681TIP3    H1 2049   1.974   1.724   2.197
  681TIP3    H2 2050   2.110   1.707   2.261
  682TIP3   OH2 2051   3.078   4.578   0.340
  682TIP3    H1 2052   3.011   4.534   0.289
  682TIP3    H2 2053   3.113   4.646   0.282
  683TIP3   OH2 2054   5.493   4.725   5.037
  683TIP3    H1 2055   5.561   4.680   4.987
  683TIP3    H2 2056   5.540   4.775   5.104
  684TIP3   OH2 2057   4.185   2.849   3.353
  684TIP3    H1 2058   4.099   2.892   3.351
  684TIP3    H2 2059   4.183   2.793   3.430
  685TIP3   OH2 2060   2.588   0.342   1.825
  685TIP3    H1 2061   2.550   0.403   1.887
  685TIP3    H2 2062   2.676   0.325   1.859
  686TIP3   OH2 2063   2.079   5.094   4.748
  686TIP3    H1 2064   2.015   5.042   4.797
  686TIP3    H2 2065   2.149   5.112   4.811
  687TIP3   OH2 2066   5.126   5.817   1.990
  687TIP3    H1 2067   5.037   5.849   1.972
  687TIP3    H2 2068   5.145   5.848   2.078
  688TIP3   OH2 2069   4.972   2.936   3.142
  688TIP3    H1 2070   5.004   3.003   3.203
  688TIP3    H2 2071   4.876   2.944   3.145
  689TIP3   OH2 2072   0.607   0.642   1.900
  689TIP3    H1 2073   0.627   0.572   1.962
  689TIP3    H2 2074   0.513   0.656   1.908
  690TIP3   OH2 2075   1.570   3.323   2.405
  690TIP3    H1 2076   1.611   3.371   2.333
  690TIP3    H2 2077   1.513   3.259   2.363
  691TIP3   OH2 2078   3.671   3.107   2.649
  691TIP3    H1 2079   3.658   3.189   2.602
  691TIP3    H2 2080   3.583   3.080   2.675
  692TIP3   OH2 2081   0.614   5.811   4.015
  692TIP3    H1 2082   0.536   5.757   4.024
  692TIP3    H2 2083   0.581   5.899   4.000
  693TIP3   OH2 2084   3.054   3.148   0.691
  693TIP3    H1 2085   3.035   3.146   0.597
  693TIP3    H2 2086   2.976   3.111   0.732
  694TIP3   OH2 2087   0.102   0.119   4.173
  694TIP3    H1 2088   0.145   0.175   4.237
  694TIP3    H2 2089   0.165   0.048   4.157
  695TIP3   OH2 2090   4.767   0.382   4.123
  695TIP3    H1 2091   4.763   0.453   4.187
  695TIP3    H2 2092   4.772   0.302   4.176
  696TIP3   OH2 2093   3.887   4.573   0.015
  696TIP3    H1 2094   3.862   4.491  -0.029
  696TIP3    H2 2095   3.873   4.555   0.108
  697TIP3   OH2 2096   5.914   2.917   3.810
  697TIP3    H1 2097   5.819   2.916   3.801
  697TIP3    H2 2098   5.937   2.829   3.838
  698TIP3   OH2 2099   1.491   5.411   4.039
  698TIP3    H1 2100   1.419   5.352   4.018
  698TIP3    H2 2101   1.516   5.450   3.956
  699TIP3   OH2 2102   1.808   5.989  -0.014
  699TIP3    H1 2103   1.813   5.910   0.039
  699TIP3    H2 2104   1.874   5.977  -0.082
  700TIP3   OH2 2105   3.661   4.367   1.765
  700TIP3    H1 2106   3.729   4.300   1.774
  700TIP3    H2 2107   3.708   4.450   1.764
  701TIP3   OH2 2108   1.238   1.996   4.953
  701TIP3    H1 2109   1.183   2.067   4.920
  701TIP3    H2 2110   1.327   2.030   4.945
  702TIP3   OH2 2111   1.641   0.306   2.368
  702TIP3    H1 2112   1.546   0.295   2.364
  702TIP3    H2 2113   1.666   0.332   2.280
  703TIP3   OH2 2114   5.571   5.795   2.729
  703TIP3    H1 2115   5.482   5.792   2.764
  703TIP3    H2 2116   5.602   5.882   2.753
  704TIP3   OH2 2117   3.442   5.098   3.472
  704TIP3    H1 2118   3.472   5.015   3.436
  704TIP3    H2 2119   3.463   5.163   3.405
  705TIP3   OH2 2120   5.537   0.835   2.175
  705TIP3    H1 2121   5.447   0.851   2.146
  705TIP3    H2 2122   5.573   0.778   2.107
  706TIP3   OH2 2123   1.207   4.457   2.305
  706TIP3    H1 2124   1.164   4.541   2.319
  706TIP3    H2 2125   1.199   4.411   2.388
  707TIP3   OH2 2126   4.181   2.218   4.513
  707TIP3    H1 2127   4.137   2.142   4.551
  707TIP3    H2 2128   4.265   2.185   4.483
  708TIP3   OH2 2129   4.383   0.307   2.119
  708TIP3    H1 2130   4.362   0.233   2.176
  708TIP3    H2 2131   4.382   0.271   2.031
  709TIP3   OH2 2132   5.502   3.991   1.279
  709TIP3    H1 2133   5.413   3.989   1.314
  709TIP3    H2 2134   5.492   4.030   1.191
  710TIP3   OH2 2135   4.811   3.962   4.128
  710TIP3    H1 2136   4.723   3.923   4.124
  710TIP3    H2 2137   4.824   3.999   4.040
  711TIP3   OH2 2138   4.858   0.096   3.614
  711TIP3    H1 2139   4.806   0.081   3.693
  711TIP3    H2 2140   4.876   0.190   3.615
  712TIP3   OH2 2141   5.066   3.366   1.975
  712TIP3    H1 2142   5.035   3.401   2.059
  712TIP3    H2 2143   5.146   3.319   1.997
  713TIP3   OH2 2144   1.969   2.184   0.296
  713TIP3    H1 2145   1.979   2.238   0.217
  713TIP3    H2 2146   1.926   2.242   0.359
  714TIP3   OH2 2147   1.497   1.411   0.051
  714TIP3    H1 2148   1.531   1.491   0.092
  714TIP3    H2 2149   1.535   1.340   0.102
  715TIP3   OH2 2150   0.618   5.200   4.600
  715TIP3    H1 2151   0.573   5.234   4.522
  715TIP3    H2 2152   0.591   5.259   4.671
  716TIP3   OH2 2153   5.420   4.081   0.205
  716TIP3    H1 2154   5.445   4.060   0.115
  716TIP3    H2 2155   5.475   4.024   0.259
  717TIP3   OH2 2156   2.141   3.571   2.883
  717TIP3    H1 2157   2.130   3.517   2.805
  717TIP3    H2 2158   2.071   3.543   2.942
  718TIP3   OH2 2159   1.222   1.780   3.165
  718TIP3    H1 2160   1.191   1.870   3.166
  718TIP3    H2 2161   1.306   1.783   3.119
  719TIP3   OH2 2162   1.472   4.170   4.090
  719TIP3    H1 2163   1.470   4.248   4.145
  719TIP3    H2 2164   1.564   4.157   4.069
  720TIP3   OH2 2165   1.874   3.517   2.968
  720TIP3    H1 2166   1.848   3.606   2.945
  720TIP3    H2 2167   1.844   3.464   2.894
  721TIP3   OH2 2168   3.062   5.544   0.851
  721TIP3    H1 2169   3.058   5.611   0.920
  721TIP3    H2 2170   3.137   5.490   0.874
  722TIP3   OH2 2171   5.349   2.445   4.748
  722TIP3    H1 2172   5.389   2.501   4.681
  722TIP3    H2 2173   5.399   2.463   4.827
  723TIP3   OH2 2174   5.925   1.968   3.573
  723TIP3    H1 2175   5.930   2.040   3.636
  723TIP3    H2 2176   6.006   1.974   3.523
  724TIP3   OH2 2177   1.421   4.537   3.362
  724TIP3    H1 2178   1.420   4.626   3.327
  724TIP3    H2 2179   1.487   4.491   3.310
  725TIP3   OH2 2180   5.855   4.698   4.627
  725TIP3    H1 2181   5.902   4.727   4.705
  725TIP3    H2 2182   5.765   4.727   4.642
  726TIP3   OH2 2183   3.821   5.006   3.435
  726TIP3    H1 2184   3.796   4.942   3.369
  726TIP3    H2 2185   3.796   5.090   3.398
  727TIP3   OH2 2186   1.871   5.425   0.352
  727TIP3    H1 2187   1.935   5.378   0.298
  727TIP3    H2 2188   1.923   5.483   0.407
  728TIP3   OH2 2189   0.368   0.465   2.357
  728TIP3    H1 2190   0.290   0.419   2.389
  728TIP3    H2 2191   0.412   0.495   2.437
  729TIP3   OH2 2192   2.627   5.807   0.146
  729TIP3    H1 2193   2.590   5.832   0.062
  729TIP3    H2 2194   2.710   5.856   0.151
  730TIP3   OH2 2195   0.918   5.764   3.604
  730TIP3    H1 2196   0.944   5.850   3.572
  730TIP3    H2 2197   0.835   5.780   3.649
  731TIP3   OH2 2198   3.958   1.511   1.117
  731TIP3    H1 2199   4.015   1.528   1.192
  731TIP3    H2 2200   4.004   1.444   1.066
  732TIP3   OH2 2201   0.592   0.541   4.331
  732TIP3    H1 2202   0.596   0.540   4.426
  732TIP3    H2 2203   0.513   0.591   4.310
  733TIP3   OH2 2204   3.284   4.616   2.088
  733TIP3    H1 2205   3.291   4.632   1.994
  733TIP3    H2 2206   3.205   4.562   2.097
  734TIP3   OH2 2207   4.864   5.958   0.534
  734TIP3    H1 2208   4.845   5.895   0.465
  734TIP3    H2 2209   4.934   5.916   0.586
  735TIP3   OH2 2210   1.794   4.435   0.918
  735TIP3    H1 2211   1.813   4.356   0.867
  735TIP3    H2 2212   1.880   4.475   0.932
  736TIP3   OH2 2213   6.035   2.693   1.886
  736TIP3    H1 2214   6.024   2.629   1.816
  736TIP3    H2 2215   6.130   2.697   1.900
  737TIP3   OH2 2216   5.344   1.335   0.374
  737TIP3    H1 2217   5.412   1.372   0.318
  737TIP3    H2 2218   5.390   1.271   0.428
  738TIP3   OH2 2219   1.030   2.987   3.588
  738TIP3    H1 2220   1.005   3.025   3.672
  738TIP3    H2 2221   1.113   2.943   3.606
  739TIP3   OH2 2222   3.551   4.057   2.122
  739TIP3    H1 2223   3.587   4.111   2.051
  739TIP3    H2 2224   3.519   4.120   2.186
  740TIP3   OH2 2225   6.285   4.101   3.439
  740TIP3    H1 2226   6.292   4.023   3.492
  740TIP3    H2 2227   6.362   4.098   3.382
  741TIP3   OH2 2228   0.572   5.940   3.389
  741TIP3    H1 2229   0.479   5.963   3.397
  741TIP3    H2 2230   0.589   5.945   3.295
  742TIP3   OH2 2231   5.795   3.909   5.090
  742TIP3    H1 2232   5.798   3.905   5.186
  742TIP3    H2 2233   5.883   3.885   5.062
  743TIP3   OH2 2234   0.029   1.020   0.923
  743TIP3    H1 2235   0.077   1.041   1.003
  743TIP3    H2 2236   0.097   1.002   0.858
  744TIP3   OH2 2237   1.096   4.242   1.624
  744TIP3    H1 2238   1.088   4.289   1.707
  744TIP3    H2 2239   1.181   4.267   1.589
  745TIP3   OH2 2240   1.746   3.794   4.368
  745TIP3    H1 2241   1.804   3.802   4.293
  745TIP3    H2 2242   1.658   3.807   4.333
  746TIP3   OH2 2243   0.783   5.458   4.028
  746TIP3    H1 2244   0.708   5.446   3.970
  746TIP3    H2 2245   0.806   5.550   4.019
  747TIP3   OH2 2246   5.326   2.158   0.170
  747TIP3    H1 2247   5.273   2.108   0.108
  747TIP3    H2 2248   5.309   2.117   0.255
  748TIP3   OH2 2249   6.338   5.793   0.412
  748TIP3    H1 2250   6.288   5.744   0.347
  748TIP3    H2 2251   6.314   5.753   0.496
  749TIP3   OH2 2252   3.571   4.838   3.007
  749TIP3    H1 2253   3.583   4.833   2.912
  749TIP3    H2 2254   3.545   4.750   3.033
  750TIP3   OH2 2255   0.355   0.844   0.273
  750TIP3    H1 2256   0.396   0.925   0.243
  750TIP3    H2 2257   0.369   0.782   0.201
  751TIP3   OH2 2258   5.198   5.348   3.294
  751TIP3    H1 2259   5.180   5.340   3.388
  751TIP3    H2 2260   5.113   5.368   3.255
  752TIP3   OH2 2261   0.816   3.954   2.142
  752TIP3    H1 2262   0.854   4.012   2.076
  752TIP3    H2 2263   0.846   3.989   2.226
  753TIP3   OH2 2264   2.729   1.459   1.480
  753TIP3    H1 2265   2.693   1.486   1.396
  753TIP3    H2 2266   2.741   1.540   1.528
  754TIP3   OH2 2267   1.491   1.345   4.505
  754TIP3    H1 2268   1.543   1.350   4.586
  754TIP3    H2 2269   1.552   1.311   4.440
  755TIP3   OH2 2270   3.083   0.406   1.149
  755TIP3    H1 2271   3.029   0.327   1.136
  755TIP3    H2 2272   3.116   0.426   1.061
  756TIP3   OH2 2273   3.009   3.021   3.315
  756TIP3    H1 2274   2.941   3.083   3.342
  756TIP3    H2 2275   3.028   2.971   3.395
  757TIP3   OH2 2276   3.814   1.184   1.223
  757TIP3    H1 2277   3.833   1.241   1.298
  757TIP3    H2 2278   3.735   1.136   1.249
  758TIP3   OH2 2279   3.604   5.134   3.032
  758TIP3    H1 2280   3.510   5.135   3.012
  758TIP3    H2 2281   3.626   5.042   3.042
  759TIP3   OH2 2282   3.171   0.646   3.348
  759TIP3    H1 2283   3.264   0.659   3.335
  759TIP3    H2 2284   3.162   0.551   3.363
  760TIP3   OH2 2285   0.756   0.799   0.138
  760TIP3    H1 2286   0.799   0.822   0.056
  760TIP3    H2 2287   0.684   0.742   0.112
  761TIP3   OH2 2288   1.306   5.641   5.102
  761TIP3    H1 2289   1.377   5.699   5.074
  761TIP3    H2 2290   1.227   5.680   5.065
  762TIP3   OH2 2291   4.195   4.502   0.022
  762TIP3    H1 2292   4.230   4.522   0.109
  762TIP3    H2 2293   4.100   4.502   0.034
  763TIP3   OH2 2294   1.613   2.815   2.516
  763TIP3    H1 2295   1.519   2.816   2.529
  763TIP3    H2 2296   1.650   2.834   2.602
  764TIP3   OH2 2297   5.562   3.154   4.004
  764TIP3    H1 2298   5.544   3.132   4.095
  764TIP3    H2 2299   5.496   3.220   3.982
  765TIP3   OH2 2300   0.258   5.394   0.200
  765TIP3    H1 2301   0.218   5.399   0.287
  765TIP3    H2 2302   0.337   5.343   0.212
  766TIP3   OH2 2303   4.688   3.331   2.442
  766TIP3    H1 2304   4.782   3.312   2.441
  766TIP3    H2 2305   4.679   3.412   2.392
  767TIP3   OH2 2306   1.538   1.893   1.680
  767TIP3    H1 2307   1.603   1.823   1.673
  767TIP3    H2 2308   1.570   1.949   1.750
  768TIP3   OH2 2309   0.500   1.649   3.522
  768TIP3    H1 2310   0.456   1.564   3.521
  768TIP3    H2 2311   0.430   1.712   3.508
  769TIP3   OH2 2312   3.349   3.578   4.663
  769TIP3    H1 2313   3.365   3.595   4.570
  769TIP3    H2 2314   3.284   3.644   4.688
  770TIP3   OH2 2315   6.309   2.338   3.935
  770TIP3    H1 2316   6.346   2.416   3.977
  770TIP3    H2 2317   6.215   2.346   3.946
  771TIP3   OH2 2318   1.651   1.906   4.342
  771TIP3    H1 2319   1.618   1.838   4.282
  771TIP3    H2 2320   1.586   1.908   4.412
  772TIP3   OH2 2321   5.653   2.949   2.984
  772TIP3    H1 2322   5.693   2.893   3.051
  772TIP3    H2 2323   5.560   2.951   3.008
  773TIP3   OH2 2324   0.275   1.498   3.260
  773TIP3    H1 2325   0.326   1.431   3.215
  773TIP3    H2 2326   0.282   1.476   3.353
  774TIP3   OH2 2327   5.518   3.333   4.360
  774TIP3    H1 2328   5.506   3.247   4.320
  774TIP3    H2 2329   5.610   3.336   4.383
  775TIP3   OH2 2330   1.419   5.515   4.703
  775TIP3    H1 2331   1.441   5.424   4.724
  775TIP3    H2 2332   1.477   5.537   4.630
  776TIP3   OH2 2333   1.249   0.393   0.122
  776TIP3    H1 2334   1.344   0.389   0.126
  776TIP3    H2 2335   1.221   0.407   0.212
  777TIP3   OH2 2336   0.571   5.941   4.569
  777TIP3    H1 2337   0.539   5.896   4.491
  777TIP3    H2 2338   0.545   6.033   4.556
  778TIP3   OH2 2339   3.477   5.021   1.072
  778TIP3    H1 2340   3.511   4.966   1.002
  778TIP3    H2 2341   3.497   5.111   1.045
  779TIP3   OH2 2342   0.823   0.294   5.037
  779TIP3    H1 2343   0.751   0.232   5.047
  779TIP3    H2 2344   0.817   0.352   5.112
  780TIP3   OH2 2345   2.133   0.421   3.730
  780TIP3    H1 2346   2.146   0.328   3.748
  780TIP3    H2 2347   2.056   0.424   3.674
  781TIP3   OH2 2348   3.489   4.602   4.902
  781TIP3    H1 2349   3.421   4.667   4.887
  781TIP3    H2 2350   3.568   4.653   4.918
  782TIP3   OH2 2351   0.995   0.352   1.192
  782TIP3    H1 2352   1.018   0.409   1.118
  782TIP3    H2 2353   0.932   0.403   1.243
  783TIP3   OH2 2354   6.046   1.049   2.910
  783TIP3    H1 2355   6.106   1.051   2.985
  783TIP3    H2 2356   6.044   1.140   2.879
  784TIP3   OH2 2357   4.410   1.397   4.597
  784TIP3    H1 2358   4.323   1.358   4.590
  784TIP3    H2 2359   4.443   1.364   4.681
  785TIP3   OH2 2360   3.781   3.072   1.572
  785TIP3    H1 2361   3.868   3.061   1.534
  785TIP3    H2 2362   3.760   2.986   1.609
  786TIP3   OH2 2363   1.795   5.164   2.014
  786TIP3    H1 2364   1.850   5.220   1.961
  786TIP3    H2 2365   1.708   5.172   1.975
  787TIP3   OH2 2366   2.840   3.504   1.402
  787TIP3    H1 2367   2.812   3.583   1.448
  787TIP3    H2 2368   2.802   3.433   1.453
  788TIP3   OH2 2369   4.896   2.909   4.287
  788TIP3    H1 2370   4.848   2.854   4.225
  788TIP3    H2 2371   4.887   2.864   4.371
  789TIP3   OH2 2372   4.713   1.809   5.135
  789TIP3    H1 2373   4.707   1.847   5.047
  789TIP3    H2 2374   4.798   1.838   5.168
  790TIP3   OH2 2375   0.457   5.815   5.025
  790TIP3    H1 2376   0.368   5.834   4.996
  790TIP3    H2 2377   0.488   5.747   4.965
  791TIP3   OH2 2378   3.607   5.273   2.644
  791TIP3    H1 2379   3.651   5.335   2.703
  791TIP3    H2 2380   3.678   5.238   2.590
  792TIP3   OH2 2381   0.091   0.104   0.903
  792TIP3    H1 2382   0.082   0.152   0.985
  792TIP3    H2 2383   0.003   0.105   0.865
  793TIP3   OH2 2384   1.836   3.116   1.282
  793TIP3    H1 2385   1.868   3.090   1.368
  793TIP3    H2 2386   1.758   3.063   1.268
  794TIP3   OH2 2387   4.941   4.318   1.373
  794TIP3    H1 2388   4.870   4.298   1.434
  794TIP3    H2 2389   5.020   4.292   1.419
  795TIP3   OH2 2390   4.180   1.353   0.480
  795TIP3    H1 2391   4.089   1.333   0.460
  795TIP3    H2 2392   4.231   1.299   0.419
  796TIP3   OH2 2393   3.514   5.421   4.491
  796TIP3    H1 2394   3.560   5.496   4.452
  796TIP3    H2 2395   3.448   5.398   4.426
  797TIP3   OH2 2396   2.610   4.872   3.761
  797TIP3    H1 2397   2.601   4.803   3.827
  797TIP3    H2 2398   2.561   4.839   3.686
  798TIP3   OH2 2399   2.724   1.866   0.942
  798TIP3    H1 2400   2.646   1.890   0.893
  798TIP3    H2 2401   2.718   1.772   0.954
  799TIP3   OH2 2402   5.662   0.714   2.396
  799TIP3    H1 2403   5.592   0.708   2.331
  799TIP3    H2 2404   5.734   0.756   2.350
  800TIP3   OH2 2405   5.924   3.459   0.058
  800TIP3    H1 2406   5.931   3.497   0.146
  800TIP3    H2 2407   5.905   3.533   0.001
  801TIP3   OH2 2408   2.578   4.425   0.497
  801TIP3    H1 2409   2.667   4.406   0.528
  801TIP3    H2 2410   2.531   4.450   0.577
  802TIP3   OH2 2411   1.072   3.177   2.096
  802TIP3    H1 2412   1.124   3.176   2.016
  802TIP3    H2 2413   1.002   3.114   2.079
  803TIP3   OH2 2414   3.732   0.084   3.324
  803TIP3    H1 2415   3.695   0.162   3.283
  803TIP3    H2 2416   3.818   0.073   3.283
  804TIP3   OH2 2417   3.293   3.076   1.029
  804TIP3    H1 2418   3.364   3.117   0.980
  804TIP3    H2 2419   3.248   3.149   1.071
  805TIP3   OH2 2420   4.184   0.991   3.369
  805TIP3    H1 2421   4.182   0.989   3.273
  805TIP3    H2 2422   4.104   0.947   3.396
  806TIP3   OH2 2423   2.065   2.370   1.234
  806TIP3    H1 2424   2.138   2.430   1.247
  806TIP3    H2 2425   2.105   2.286   1.215
  807TIP3   OH2 2426   4.589   2.076   1.470
  807TIP3    H1 2427   4.592   2.100   1.378
  807TIP3    H2 2428   4.531   2.000   1.473
  808TIP3   OH2 2429   1.949   4.750   3.959
  808TIP3    H1 2430   1.961   4.762   4.053
  808TIP3    H2 2431   1.862   4.787   3.940
  809TIP3   OH2 2432   0.144   5.852   1.055
  809TIP3    H1 2433   0.078   5.911   1.020
  809TIP3    H2 2434   0.094   5.778   1.090
  810TIP3   OH2 2435   1.332   5.344   1.816
  810TIP3    H1 2436   1.320   5.439   1.818
  810TIP3    H2 2437   1.243   5.309   1.827
  811TIP3   OH2 2438   3.469   4.795   0.220
  811TIP3    H1 2439   3.462   4.706   0.185
  811TIP3    H2 2440   3.475   4.784   0.315
  812TIP3   OH2 2441   3.148   0.357   3.433
  812TIP3    H1 2442   3.087   0.359   3.506
  812TIP3    H2 2443   3.216   0.295   3.460
  813TIP3   OH2 2444   3.523   2.963   5.161
  813TIP3    H1 2445   3.438   2.981   5.121
  813TIP3    H2 2446   3.551   2.880   5.122
  814TIP3   OH2 2447   0.674   3.370   4.921
  814TIP3    H1 2448   0.629   3.313   4.859
  814TIP3    H2 2449   0.683   3.318   5.001
  815TIP3   OH2 2450   3.533   3.888   2.779
  815TIP3    H1 2451   3.533   3.954   2.709
  815TIP3    H2 2452   3.454   3.907   2.830
  816TIP3   OH2 2453   5.246   3.864   4.755
  816TIP3    H1 2454   5.275   3.884   4.844
  816TIP3    H2 2455   5.197   3.782   4.763
  817TIP3   OH2 2456   4.352   1.437   0.707
  817TIP3    H1 2457   4.297   1.417   0.631
  817TIP3    H2 2458   4.404   1.358   0.721
  818TIP3   OH2 2459   4.656   2.938   0.935
  818TIP3    H1 2460   4.613   2.962   0.853
  818TIP3    H2 2461   4.669   3.021   0.981
  819TIP3   OH2 2462   4.860   1.874   4.017
  819TIP3    H1 2463   4.934   1.895   3.961
  819TIP3    H2 2464   4.807   1.953   4.018
  820TIP3   OH2 2465   0.462   1.428   3.052
  820TIP3    H1 2466   0.437   1.404   2.963
  820TIP3    H2 2467   0.541   1.481   3.042
  821TIP3   OH2 2468   0.631   1.160   0.291
  821TIP3    H1 2469   0.671   1.214   0.222
  821TIP3    H2 2470   0.695   1.091   0.307
  822TIP3   OH2 2471   3.634   1.444   2.703
  822TIP3    H1 2472   3.541   1.420   2.701
  822TIP3    H2 2473   3.675   1.378   2.759
  823TIP3   OH2 2474   2.137   1.479   2.299
  823TIP3    H1 2475   2.147   1.478   2.204
  823TIP3    H2 2476   2.118   1.388   2.322
  824TIP3   OH2 2477   4.925   2.969   1.869
  824TIP3    H1 2478   4.879   2.985   1.951
  824TIP3    H2 2479   4.928   3.054   1.826
  825TIP3   OH2 2480   5.855   0.699   4.477
  825TIP3    H1 2481   5.840   0.773   4.537
  825TIP3    H2 2482   5.940   0.718   4.437
  826TIP3   OH2 2483   0.363   4.682   3.971
  826TIP3    H1 2484   0.424   4.662   4.042
  826TIP3    H2 2485   0.411   4.657   3.891
  827TIP3   OH2 2486   1.308   4.625   4.411
  827TIP3    H1 2487   1.254   4.690   4.367
  827TIP3    H2 2488   1.255   4.546   4.412
  828TIP3   OH2 2489   2.722   4.348   1.829
  828TIP3    H1 2490   2.725   4.324   1.921
  828TIP3    H2 2491   2.629   4.340   1.805
  829TIP3   OH2 2492   0.161   0.946   3.558
  829TIP3    H1 2493   0.224   1.018   3.552
  829TIP3    H2 2494   0.214   0.866   3.549
  830TIP3   OH2 2495   1.763   4.874   3.274
  830TIP3    H1 2496   1.773   4.842   3.185
  830TIP3    H2 2497   1.817   4.954   3.277
  831TIP3   OH2 2498   0.219   3.190   4.252
  831TIP3    H1 2499   0.305   3.149   4.259
  831TIP3    H2 2500   0.238   3.281   4.230
  832TIP3   OH2 2501   4.161   1.570   4.629
  832TIP3    H1 2502   4.182   1.595   4.539
  832TIP3    H2 2503   4.168   1.652   4.679
  833TIP3   OH2 2504   1.307   0.542   4.386
  833TIP3    H1 2505   1.244   0.471   4.380
  833TIP3    H2 2506   1.254   0.621   4.396
  834TIP3   OH2 2507   4.667   3.746   0.114
  834TIP3    H1 2508   4.699   3.664   0.076
  834TIP3    H2 2509   4.652   3.725   0.206
  835TIP3   OH2 2510   0.618   4.398   3.134
  835TIP3    H1 2511   0.686   4.465   3.138
  835TIP3    H2 2512   0.643   4.335   3.202
  836TIP3   OH2 2513   5.981   3.527   0.304
  836TIP3    H1 2514   6.019   3.439   0.302
  836TIP3    H2 2515   6.046   3.580   0.351
  837TIP3   OH2 2516   1.021   5.510   2.458
  837TIP3    H1 2517   1.049   5.516   2.367
  837TIP3    H2 2518   1.006   5.601   2.485
  838TIP3   OH2 2519   0.897   1.415   3.405
  838TIP3    H1 2520   0.836   1.394   3.334
  838TIP3    H2 2521   0.845   1.468   3.465
  839TIP3   OH2 2522   4.722   3.046   2.067
  839TIP3    H1 2523   4.640   3.039   2.115
  839TIP3    H2 2524   4.745   3.139   2.074
  840TIP3   OH2 2525   5.888   4.377   4.799
  840TIP3    H1 2526   5.808   4.341   4.838
  840TIP3    H2 2527   5.922   4.306   4.744
  841TIP3   OH2 2528   5.315   5.721   5.164
  841TIP3    H1 2529   5.383   5.784   5.188
  841TIP3    H2 2530   5.327   5.708   5.070
  842TIP3   OH2 2531   3.856   3.742   0.522
  842TIP3    H1 2532   3.856   3.766   0.429
  842TIP3    H2 2533   3.941   3.770   0.554
  843TIP3   OH2 2534   5.898   0.257   2.315
  843TIP3    H1 2535   5.869   0.167   2.302
  843TIP3    H2 2536   5.989   0.250   2.342
  844TIP3   OH2 2537   3.758   2.019   2.808
  844TIP3    H1 2538   3.758   1.947   2.871
  844TIP3    H2 2539   3.678   2.005   2.757
  845TIP3   OH2 2540   2.839   1.605   5.034
  845TIP3    H1 2541   2.771   1.665   5.003
  845TIP3    H2 2542   2.920   1.657   5.029
  846TIP3   OH2 2543   2.440   2.516   4.932
  846TIP3    H1 2544   2.415   2.454   4.864
  846TIP3    H2 2545   2.379   2.589   4.922
  847TIP3   OH2 2546   3.412   2.283   1.263
  847TIP3    H1 2547   3.469   2.315   1.193
  847TIP3    H2 2548   3.472   2.244   1.327
  848TIP3   OH2 2549   2.451   4.744   4.094
  848TIP3    H1 2550   2.364   4.764   4.127
  848TIP3    H2 2551   2.464   4.652   4.115
  849TIP3   OH2 2552   0.121   0.686   2.367
  849TIP3    H1 2553   0.170   0.672   2.448
  849TIP3    H2 2554   0.073   0.767   2.382
  850TIP3   OH2 2555   2.121   3.101   2.149
  850TIP3    H1 2556   2.145   3.091   2.057
  850TIP3    H2 2557   2.040   3.152   2.147
  851TIP3   OH2 2558   4.031   4.799   3.820
  851TIP3    H1 2559   4.034   4.863   3.890
  851TIP3    H2 2560   4.008   4.717   3.863
  852TIP3   OH2 2561   5.305   3.732   1.926
  852TIP3    H1 2562   5.267   3.732   1.838
  852TIP3    H2 2563   5.367   3.659   1.926
  853TIP3   OH2 2564   0.042   2.042   2.174
  853TIP3    H1 2565   0.103   1.986   2.221
  853TIP3    H2 2566   0.097   2.091   2.112
  854TIP3   OH2 2567   2.395   4.408   1.411
  854TIP3    H1 2568   2.368   4.485   1.460
  854TIP3    H2 2569   2.316   4.354   1.406
  855TIP3   OH2 2570   2.777   5.156   2.329
  855TIP3    H1 2571   2.791   5.093   2.259
  855TIP3    H2 2572   2.807   5.239   2.293
  856TIP3   OH2 2573   1.604   5.596   3.821
  856TIP3    H1 2574   1.592   5.509   3.784
  856TIP3    H2 2575   1.571   5.656   3.753
  857TIP3   OH2 2576   0.417   2.639   3.247
  857TIP3    H1 2577   0.454   2.675   3.166
  857TIP3    H2 2578   0.491   2.636   3.308
  858TIP3   OH2 2579   1.920   5.069   0.747
  858TIP3    H1 2580   1.912   5.085   0.653
  858TIP3    H2 2581   1.863   5.135   0.787
  859TIP3   OH2 2582   0.517   5.545   1.035
  859TIP3    H1 2583   0.479   5.469   0.989
  859TIP3    H2 2584   0.569   5.506   1.106
  860TIP3   OH2 2585   2.737   5.107   3.731
  860TIP3    H1 2586   2.831   5.089   3.731
  860TIP3    H2 2587   2.697   5.024   3.754
  861TIP3   OH2 2588   0.023   5.922   4.816
  861TIP3    H1 2589  -0.068   5.927   4.844
  861TIP3    H2 2590   0.035   5.998   4.759
  862TIP3   OH2 2591   2.862   0.095   4.215
  862TIP3    H1 2592   2.883   0.143   4.136
  862TIP3    H2 2593   2.819   0.159   4.272
  863TIP3   OH2 2594   1.932   0.271   3.228
  863TIP3    H1 2595   1.862   0.207   3.239
  863TIP3    H2 2596   1.961   0.260   3.137
  864TIP3   OH2 2597   2.980   2.974   3.800
  864TIP3    H1 2598   3.050   2.911   3.815
  864TIP3    H2 2599   3.022   3.045   3.751
  865TIP3   OH2 2600   1.068   1.422   1.031
  865TIP3    H1 2601   0.985   1.464   1.006
  865TIP3    H2 2602   1.092   1.369   0.955
  866TIP3   OH2 2603   5.576   5.118   1.506
  866TIP3    H1 2604   5.588   5.105   1.412
  866TIP3    H2 2605   5.662   5.146   1.537
  867TIP3   OH2 2606   1.067   5.008   2.662
  867TIP3    H1 2607   1.071   5.103   2.671
  867TIP3    H2 2608   1.112   4.974   2.740
  868TIP3   OH2 2609   0.964   1.019   4.863
  868TIP3    H1 2610   1.040   0.988   4.813
  868TIP3    H2 2611   0.990   1.105   4.896
  869TIP3   OH2 2612   2.428   4.801   4.604
  869TIP3    H1 2613   2.369   4.744   4.653
  869TIP3    H2 2614   2.513   4.791   4.648
  870TIP3   OH2 2615   5.121   4.677   4.404
  870TIP3    H1 2616   5.034   4.673   4.366
  870TIP3    H2 2617   5.150   4.768   4.390
  871TIP3   OH2 2618   3.981   5.293   4.983
  871TIP3    H1 2619   4.059   5.346   4.998
  871TIP3    H2 2620   3.994   5.256   4.896
  872TIP3   OH2 2621   5.797   5.884   1.551
  872TIP3    H1 2622   5.858   5.814   1.577
  872TIP3    H2 2623   5.765   5.857   1.465
  873TIP3   OH2 2624   0.644   5.184   1.693
  873TIP3    H1 2625   0.552   5.162   1.710
  873TIP3    H2 2626   0.652   5.275   1.720
  874TIP3   OH2 2627   3.443   4.566   4.377
  874TIP3    H1 2628   3.358   4.596   4.346
  874TIP3    H2 2629   3.429   4.545   4.469
  875TIP3   OH2 2630   3.373   4.427   1.748
  875TIP3    H1 2631   3.468   4.438   1.738
  875TIP3    H2 2632   3.343   4.398   1.662
  876TIP3   OH2 2633   4.863   5.541   4.118
  876TIP3    H1 2634   4.933   5.496   4.165
  876TIP3    H2 2635   4.856   5.496   4.034
  877TIP3   OH2 2636   5.705   1.049   0.707
  877TIP3    H1 2637   5.663   1.059   0.792
  877TIP3    H2 2638   5.635   1.064   0.643
  878TIP3   OH2 2639   1.847   5.745   0.301
  878TIP3    H1 2640   1.813   5.781   0.382
  878TIP3    H2 2641   1.919   5.688   0.328
  879TIP3   OH2 2642   6.391   2.369   4.828
  879TIP3    H1 2643   6.318   2.407   4.877
  879TIP3    H2 2644   6.398   2.423   4.749
  880TIP3   OH2 2645   2.753   5.148   1.118
  880TIP3    H1 2646   2.721   5.090   1.049
  880TIP3    H2 2647   2.839   5.175   1.088
  881TIP3   OH2 2648   3.738   2.426   2.220
  881TIP3    H1 2649   3.811   2.425   2.158
  881TIP3    H2 2650   3.781   2.433   2.306
  882TIP3   OH2 2651   3.176   2.594   5.088
  882TIP3    H1 2652   3.174   2.502   5.114
  882TIP3    H2 2653   3.152   2.592   4.995
  883TIP3   OH2 2654   0.651   4.800   0.587
  883TIP3    H1 2655   0.556   4.810   0.594
  883TIP3    H2 2656   0.666   4.793   0.492
  884TIP3   OH2 2657   4.661   1.855   3.733
  884TIP3    H1 2658   4.659   1.949   3.750
  884TIP3    H2 2659   4.629   1.815   3.814
  885TIP3   OH2 2660   5.103   3.698   2.750
  885TIP3    H1 2661   5.026   3.663   2.705
  885TIP3    H2 2662   5.072   3.778   2.792
  886TIP3   OH2 2663   4.754   2.098   4.409
  886TIP3    H1 2664   4.820   2.164   4.388
  886TIP3    H2 2665   4.680   2.149   4.444
  887TIP3   OH2 2666   1.172   1.567   3.668
  887TIP3    H1 2667   1.094   1.547   3.720
  887TIP3    H2 2668   1.141   1.567   3.577
  888TIP3   OH2 2669   0.457   1.438   4.408
  888TIP3    H1 2670   0.373   1.404   4.440
  888TIP3    H2 2671   0.473   1.390   4.327
  889TIP3   OH2 2672   4.830   5.817   0.312
  889TIP3    H1 2673   4.905   5.782   0.264
  889TIP3    H2 2674   4.759   5.756   0.292
  890TIP3   OH2 2675   3.740   2.275   0.793
  890TIP3    H1 2676   3.805   2.326   0.745
  890TIP3    H2 2677   3.756   2.294   0.885
  891TIP3   OH2 2678   1.642   1.399   4.720
  891TIP3    H1 2679   1.733   1.388   4.749
  891TIP3    H2 2680   1.640   1.487   4.681
  892TIP3   OH2 2681   0.400   0.776   1.629
  892TIP3    H1 2682   0.433   0.863   1.652
  892TIP3    H2 2683   0.361   0.744   1.710
  893TIP3   OH2 2684   6.032   4.443   4.551
  893TIP3    H1 2685   6.002   4.361   4.591
  893TIP3    H2 2686   5.960   4.504   4.567
  894TIP3   OH2 2687   0.044   3.565   4.536
  894TIP3    H1 2688   0.131   3.597   4.511
  894TIP3    H2 2689  -0.015   3.601   4.469
  895TIP3   OH2 2690   3.895   0.284   2.281
  895TIP3    H1 2691   3.859   0.336   2.354
  895TIP3    H2 2692   3.966   0.234   2.320
  896TIP3   OH2 2693   3.424   0.481   4.224
  896TIP3    H1 2694   3.485   0.408   4.232
  896TIP3    H2 2695   3.339   0.444   4.247
  897TIP3   OH2 2696   0.347   4.906   3.272
  897TIP3    H1 2697   0.269   4.850   3.265
  897TIP3    H2 2698   0.419   4.851   3.245
  898TIP3   OH2 2699   4.594   1.738   2.360
  898TIP3    H1 2700   4.583   1.806   2.427
  898TIP3    H2 2701   4.552   1.774   2.282
  899TIP3   OH2 2702   5.474   1.335   1.877
  899TIP3    H1 2703   5.544   1.334   1.810
  899TIP3    H2 2704   5.490   1.257   1.930
  900TIP3   OH2 2705   5.557   4.740   0.580
  900TIP3    H1 2706   5.570   4.653   0.542
  900TIP3    H2 2707   5.571   4.727   0.674
  901TIP3   OH2 2708   2.186   0.993   3.968
  901TIP3    H1 2709   2.216   1.063   4.026
  901TIP3    H2 2710   2.223   0.913   4.006
  902TIP3   OH2 2711   6.157   0.950   1.189
  902TIP3    H1 2712   6.062   0.939   1.190
  902TIP3    H2 2713   6.172   1.033   1.145
  903TIP3   OH2 2714   3.517   2.163   5.143
  903TIP3    H1 2715   3.510   2.226   5.072
  903TIP3    H2 2716   3.549   2.083   5.100
  904TIP3   OH2 2717   3.578   1.274   0.472
  904TIP3    H1 2718   3.548   1.365   0.479
  904TIP3    H2 2719   3.629   1.259   0.552
  905TIP3   OH2 2720   0.344   5.123   2.648
  905TIP3    H1 2721   0.405   5.131   2.721
  905TIP3    H2 2722   0.342   5.029   2.629
  906TIP3   OH2 2723   4.904   5.515   1.694
  906TIP3    H1 2724   4.994   5.483   1.696
  906TIP3    H2 2725   4.857   5.452   1.640
  907TIP3   OH2 2726   0.213   1.851   1.495
  907TIP3    H1 2727   0.298   1.840   1.536
  907TIP3    H2 2728   0.153   1.867   1.568
  908TIP3   OH2 2729   3.426   1.966   4.154
  908TIP3    H1 2730   3.465   1.982   4.240
  908TIP3    H2 2731   3.496   1.991   4.092
  909TIP3   OH2 2732   0.254   4.064   4.275
  909TIP3    H1 2733   0.231   4.132   4.211
  909TIP3    H2 2734   0.309   4.110   4.339
  910TIP3   OH2 2735   3.396   3.254   3.576
  910TIP3    H1 2736   3.387   3.247   3.481
  910TIP3    H2 2737   3.460   3.323   3.590
  911TIP3   OH2 2738   3.176   1.355   1.996
  911TIP3    H1 2739   3.258   1.365   2.044
  911TIP3    H2 2740   3.108   1.379   2.058
  912TIP3   OH2 2741   0.647   4.383   0.371
  912TIP3    H1 2742   0.600   4.308   0.407
  912TIP3    H2 2743   0.683   4.428   0.448
  913TIP3   OH2 2744   4.786   2.551   2.662
  913TIP3    H1 2745   4.869   2.598   2.651
  913TIP3    H2 2746   4.748   2.588   2.742
  914TIP3   OH2 2747   3.041   4.488   2.019
  914TIP3    H1 2748   3.043   4.515   1.927
  914TIP3    H2 2749   3.033   4.392   2.015
  915TIP3   OH2 2750   5.997   1.313   2.815
  915TIP3    H1 2751   6.065   1.379   2.803
  915TIP3    H2 2752   5.961   1.299   2.727
  916TIP3   OH2 2753   5.880   1.789   1.897
  916TIP3    H1 2754   5.819   1.842   1.845
  916TIP3    H2 2755   5.828   1.757   1.970
  917TIP3   OH2 2756   1.336   3.366   4.400
  917TIP3    H1 2757   1.326   3.461   4.409
  917TIP3    H2 2758   1.393   3.355   4.324
  918TIP3   OH2 2759   4.786   4.942   3.466
  918TIP3    H1 2760   4.819   4.979   3.385
  918TIP3    H2 2761   4.692   4.928   3.450
  919TIP3   OH2 2762   1.727   2.340   4.341
  919TIP3    H1 2763   1.706   2.266   4.284
  919TIP3    H2 2764   1.748   2.299   4.425
  920TIP3   OH2 2765   1.835   4.961   4.224
  920TIP3    H1 2766   1.755   4.973   4.174
  920TIP3    H2 2767   1.807   4.958   4.316
  921TIP3   OH2 2768   3.017   5.576   3.957
  921TIP3    H1 2769   2.933   5.582   4.003
  921TIP3    H2 2770   3.070   5.646   3.994
  922TIP3   OH2 2771   0.556   1.926   2.613
  922TIP3    H1 2772   0.478   1.893   2.569
  922TIP3    H2 2773   0.629   1.881   2.569
  923TIP3   OH2 2774   3.660   4.586   2.087
  923TIP3    H1 2775   3.683   4.611   2.177
  923TIP3    H2 2776   3.611   4.661   2.054
  924TIP3   OH2 2777   2.256   2.086   4.059
  924TIP3    H1 2778   2.200   2.064   3.985
  924TIP3    H2 2779   2.225   2.030   4.130
  925TIP3   OH2 2780   1.337   3.419   0.921
  925TIP3    H1 2781   1.336   3.499   0.974
  925TIP3    H2 2782   1.363   3.350   0.983
  926TIP3   OH2 2783   0.429   1.307   4.176
  926TIP3    H1 2784   0.414   1.361   4.098
  926TIP3    H2 2785   0.411   1.218   4.147
  927TIP3   OH2 2786   2.928   2.186   2.278
  927TIP3    H1 2787   2.996   2.184   2.211
  927TIP3    H2 2788   2.931   2.275   2.313
  928TIP3   OH2 2789   4.197   4.619   0.280
  928TIP3    H1 2790   4.111   4.585   0.305
  928TIP3    H2 2791   4.249   4.613   0.360
  929TIP3   OH2 2792   5.893   5.524   0.869
  929TIP3    H1 2793   5.850   5.458   0.815
  929TIP3    H2 2794   5.987   5.508   0.856
  930TIP3   OH2 2795   2.077   2.706   3.648
  930TIP3    H1 2796   2.037   2.791   3.628
  930TIP3    H2 2797   2.162   2.708   3.604
  931TIP3   OH2 2798   2.356   5.752   1.827
  931TIP3    H1 2799   2.263   5.766   1.843
  931TIP3    H2 2800   2.380   5.683   1.889
  932TIP3   OH2 2801   1.272   5.287   1.212
  932TIP3    H1 2802   1.295   5.223   1.145
  932TIP3    H2 2803   1.177   5.294   1.206
  933TIP3   OH2 2804   4.557   0.096   3.190
  933TIP3    H1 2805   4.564   0.123   3.282
  933TIP3    H2 2806   4.604   0.164   3.142
  934TIP3   OH2 2807   0.220   2.894   4.115
  934TIP3    H1 2808   0.244   2.859   4.029
  934TIP3    H2 2809   0.127   2.916   4.107
  935TIP3   OH2 2810   6.045   1.423   2.454
  935TIP3    H1 2811   6.034   1.330   2.476
  935TIP3    H2 2812   5.956   1.457   2.448
  936TIP3   OH2 2813   2.570   3.539   0.377
  936TIP3    H1 2814   2.489   3.575   0.339
  936TIP3    H2 2815   2.605   3.481   0.309
  937TIP3   OH2 2816   1.572   2.844   2.039
  937TIP3    H1 2817   1.508   2.901   1.996
  937TIP3    H2 2818   1.655   2.862   1.994
  938TIP3   OH2 2819   1.466   0.331   4.549
  938TIP3    H1 2820   1.378   0.337   4.512
  938TIP3    H2 2821   1.524   0.360   4.478
  939TIP3   OH2 2822   1.402   0.514   2.705
  939TIP3    H1 2823   1.453   0.515   2.624
  939TIP3    H2 2824   1.469   0.509   2.774
  940TIP3   OH2 2825   1.783   4.197   3.245
  940TIP3    H1 2826   1.815   4.130   3.305
  940TIP3    H2 2827   1.723   4.151   3.187
  941TIP3   OH2 2828   5.208   2.110   1.436
  941TIP3    H1 2829   5.285   2.164   1.421
  941TIP3    H2 2830   5.192   2.116   1.530
  942TIP3   OH2 2831   5.330   4.439   0.835
  942TIP3    H1 2832   5.294   4.398   0.757
  942TIP3    H2 2833   5.254   4.468   0.885
  943TIP3   OH2 2834   3.111   0.592   2.433
  943TIP3    H1 2835   3.082   0.637   2.512
  943TIP3    H2 2836   3.194   0.550   2.459
  944TIP3   OH2 2837   0.405   4.997   0.398
  944TIP3    H1 2838   0.347   4.990   0.322
  944TIP3    H2 2839   0.394   5.086   0.429
  945TIP3   OH2 2840   0.780   4.795   3.756
  945TIP3    H1 2841   0.689   4.765   3.758
  945TIP3    H2 2842   0.829   4.724   3.799
  946TIP3   OH2 2843   3.175   4.556   2.379
  946TIP3    H1 2844   3.233   4.503   2.324
  946TIP3    H2 2845   3.227   4.631   2.404
  947TIP3   OH2 2846   2.215   2.608   2.620
  947TIP3    H1 2847   2.302   2.579   2.647
  947TIP3    H2 2848   2.198   2.559   2.539
  948TIP3   OH2 2849   5.182   4.242   2.859
  948TIP3    H1 2850   5.092   4.260   2.831
  948TIP3    H2 2851   5.173   4.216   2.951
  949TIP3   OH2 2852   5.764   4.583   3.461
  949TIP3    H1 2853   5.779   4.489   3.472
  949TIP3    H2 2854   5.825   4.609   3.391
  950TIP3   OH2 2855   1.138   3.715   0.413
  950TIP3    H1 2856   1.088   3.768   0.351
  950TIP3    H2 2857   1.133   3.626   0.378
  951TIP3   OH2 2858   0.581   0.331   1.284
  951TIP3    H1 2859   0.589   0.237   1.296
  951TIP3    H2 2860   0.534   0.340   1.201
  952TIP3   OH2 2861   2.001   3.881   3.879
  952TIP3    H1 2862   2.034   3.953   3.825
  952TIP3    H2 2863   1.939   3.835   3.822
  953TIP3   OH2 2864   3.598   0.408   1.036
  953TIP3    H1 2865   3.641   0.398   1.121
  953TIP3    H2 2866   3.507   0.428   1.057
  954TIP3   OH2 2867   1.601   5.147   2.596
  954TIP3    H1 2868   1.682   5.108   2.566
  954TIP3    H2 2869   1.602   5.134   2.691
  955TIP3   OH2 2870   5.942   0.499   4.117
  955TIP3    H1 2871   6.033   0.489   4.087
  955TIP3    H2 2872   5.949   0.509   4.212
  956TIP3   OH2 2873   2.917   5.556   2.593
  956TIP3    H1 2874   2.852   5.593   2.653
  956TIP3    H2 2875   2.982   5.514   2.650
  957TIP3   OH2 2876   5.933   2.683   0.132
  957TIP3    H1 2877   5.901   2.636   0.209
  957TIP3    H2 2878   5.922   2.776   0.154
  958TIP3   OH2 2879   0.533   2.193   0.819
  958TIP3    H1 2880   0.628   2.192   0.808
  958TIP3    H2 2881   0.518   2.149   0.903
  959TIP3   OH2 2882   3.015   1.283   4.702
  959TIP3    H1 2883   2.940   1.285   4.762
  959TIP3    H2 2884   3.087   1.319   4.754
  960TIP3   OH2 2885   6.067   2.487   2.459
  960TIP3    H1 2886   6.099   2.574   2.486
  960TIP3    H2 2887   6.103   2.475   2.371
  961TIP3   OH2 2888   1.784   1.656   1.192
  961TIP3    H1 2889   1.810   1.738   1.235
  961TIP3    H2 2890   1.709   1.681   1.137
  962TIP3   OH2 2891   4.018   5.185   0.379
  962TIP3    H1 2892   3.967   5.266   0.373
  962TIP3    H2 2893   3.956   5.120   0.411
  963TIP3   OH2 2894   5.364   0.480   0.372
  963TIP3    H1 2895   5.381   0.463   0.279
  963TIP3    H2 2896   5.279   0.525   0.373
  964TIP3   OH2 2897   1.512   4.336   0.761
  964TIP3    H1 2898   1.466   4.341   0.845
  964TIP3    H2 2899   1.584   4.275   0.777
  965TIP3   OH2 2900   0.051   1.174   1.610
  965TIP3    H1 2901   0.039   1.254   1.661
  965TIP3    H2 2902   0.141   1.147   1.627
  966TIP3   OH2 2903   6.273   4.723   3.032
  966TIP3    H1 2904   6.221   4.796   2.999
  966TIP3    H2 2905   6.351   4.721   2.976
  967TIP3   OH2 2906   3.613   3.192   3.331
  967TIP3    H1 2907   3.577   3.121   3.384
  967TIP3    H2 2908   3.598   3.163   3.241
  968TIP3   OH2 2909   5.621   2.927   4.642
  968TIP3    H1 2910   5.664   2.985   4.704
  968TIP3    H2 2911   5.620   2.841   4.685
  969TIP3   OH2 2912   2.990   5.617   1.913
  969TIP3    H1 2913   2.989   5.556   1.839
  969TIP3    H2 2914   3.030   5.696   1.879
  970TIP3   OH2 2915   0.016   5.071   3.281
  970TIP3    H1 2916   0.047   5.158   3.305
  970TIP3    H2 2917   0.072   5.044   3.208
  971TIP3   OH2 2918   6.030   3.679   1.467
  971TIP3    H1 2919   5.980   3.617   1.414
  971TIP3    H2 2920   6.099   3.711   1.408
  972TIP3   OH2 2921   0.699   2.710   4.275
  972TIP3    H1 2922   0.629   2.702   4.211
  972TIP3    H2 2923   0.779   2.721   4.222
  973TIP3   OH2 2924   4.060   0.608   2.469
  973TIP3    H1 2925   4.024   0.692   2.441
  973TIP3    H2 2926   4.138   0.597   2.415
  974TIP3   OH2 2927   5.081   0.254   0.282
  974TIP3    H1 2928   4.995   0.269   0.321
  974TIP3    H2 2929   5.133   0.214   0.352
  975TIP3   OH2 2930   5.202   5.066   2.113
  975TIP3    H1 2931   5.285   5.100   2.147
  975TIP3    H2 2932   5.223   5.035   2.025
  976TIP3   OH2 2933   5.763  -0.101   1.979
  976TIP3    H1 2934   5.825  -0.028   1.984
  976TIP3    H2 2935   5.679  -0.062   2.004
  977TIP3   OH2 2936   0.908   5.918   2.657
  977TIP3    H1 2937   0.964   5.878   2.590
  977TIP3    H2 2938   0.905   5.854   2.727
  978TIP3   OH2 2939   1.227   3.100   3.935
  978TIP3    H1 2940   1.153   3.135   3.886
  978TIP3    H2 2941   1.304   3.133   3.891
  979TIP3   OH2 2942   4.799   1.658   3.617
  979TIP3    H1 2943   4.771   1.664   3.525
  979TIP3    H2 2944   4.756   1.732   3.660
  980TIP3   OH2 2945   4.704   0.383   1.106
  980TIP3    H1 2946   4.611   0.363   1.094
  980TIP3    H2 2947   4.725   0.350   1.194
  981TIP3   OH2 2948   4.629   1.557   4.846
  981TIP3    H1 2949   4.591   1.636   4.808
  981TIP3    H2 2950   4.584   1.546   4.930
  982TIP3   OH2 2951   5.554   1.836   3.597
  982TIP3    H1 2952   5.519   1.923   3.578
  982TIP3    H2 2953   5.608   1.849   3.675
  983TIP3   OH2 2954   1.615   0.807   1.614
  983TIP3    H1 2955   1.594   0.793   1.706
  983TIP3    H2 2956   1.595   0.899   1.598
  984TIP3   OH2 2957   6.364   2.973   1.267
  984TIP3    H1 2958   6.302   2.900   1.266
  984TIP3    H2 2959   6.312   3.049   1.239
  985TIP3   OH2 2960   1.073   4.732   1.283
  985TIP3    H1 2961   1.156   4.770   1.254
  985TIP3    H2 2962   1.087   4.638   1.277
  986TIP3   OH2 2963   4.107   1.228   4.321
  986TIP3    H1 2964   4.137   1.316   4.299
  986TIP3    H2 2965   4.162   1.202   4.395
  987TIP3   OH2 2966   4.198   4.498   5.146
  987TIP3    H1 2967   4.262   4.548   5.095
  987TIP3    H2 2968   4.251   4.449   5.208
  988TIP3   OH2 2969   2.696   5.136   2.723
  988TIP3    H1 2970   2.692   5.041   2.708
  988TIP3    H2 2971   2.670   5.174   2.639
  989TIP3   OH2 2972   2.863   1.431   3.569
  989TIP3    H1 2973   2.833   1.374   3.639
  989TIP3    H2 2974   2.790   1.492   3.555
  990TIP3   OH2 2975   4.216   0.113   0.019
  990TIP3    H1 2976   4.181   0.196  -0.014
  990TIP3    H2 2977   4.169   0.098   0.101
  991TIP3   OH2 2978   2.489   4.588   0.292
  991TIP3    H1 2979   2.516   4.539   0.214
  991TIP3    H2 2980   2.540   4.549   0.363
  992TIP3   OH2 2981   5.205   4.531   1.509
  992TIP3    H1 2982   5.204   4.450   1.560
  992TIP3    H2 2983   5.266   4.513   1.437
  993TIP3   OH2 2984   2.207   4.201   1.393
  993TIP3    H1 2985   2.188   4.147   1.469
  993TIP3    H2 2986   2.135   4.182   1.332
  994TIP3   OH2 2987   3.625   3.810   2.026
  994TIP3    H1 2988   3.575   3.891   2.028
  994TIP3    H2 2989   3.659   3.805   1.937
  995TIP3   OH2 2990   0.050   1.570   3.657
  995TIP3    H1 2991   0.086   1.653   3.687
  995TIP3    H2 2992  -0.042   1.590   3.636
  996TIP3   OH2 2993   3.523   5.230   3.693
  996TIP3    H1 2994   3.537   5.307   3.637
  996TIP3    H2 2995   3.493   5.162   3.633
  997TIP3   OH2 2996   3.067   1.858   2.872
  997TIP3    H1 2997   3.161   1.856   2.891
  997TIP3    H2 2998   3.031   1.781   2.917
  998TIP3   OH2 2999   2.378   3.827   2.212
  998TIP3    H1 3000   2.323   3.881   2.269
  998TIP3    H2 3001   2.433   3.890   2.166
  999TIP3   OH2 3002   0.455   3.813   3.803
  999TIP3    H1 3003   0.396   3.746   3.768
  999TIP3    H2 3004   0.543   3.779   3.784
 1000TIP3   OH2 3005   1.831   4.166   2.356
 1000TIP3    H1 3006   1.840   4.209   2.271
 1000TIP3    H2 3007   1.736   4.160   2.370
 1001TIP3   OH2 3008   5.433   3.753   2.921
 1001TIP3    H1 3009   5.459   3.840   2.950
 1001TIP3    H2 3010   5.508   3.697   2.942
 1002TIP3   OH2 3011   2.471   4.323   2.105
 1002TIP3    H1 3012   2.410   4.308   2.178
 1002TIP3    H2 3013   2.451   4.412   2.075
 1003TIP3   OH2 3014   3.336   0.046   0.042
 1003TIP3    H1 3015   3.283   0.011  -0.030
 1003TIP3    H2 3016   3.403  -0.021   0.056
 1004TIP3   OH2 3017   5.305   0.930   3.943
 1004TIP3    H1 3018   5.216   0.959   3.922
 1004TIP3    H2 3019   5.345   0.911   3.858
 1005TIP3   OH2 3020   5.810   4.616   3.917
 1005TIP3    H1 3021   5.887   4.662   3.885
 1005TIP3    H2 3022   5.834   4.523   3.913
 1006TIP3   OH2 3023   2.518   1.840   2.720
 1006TIP3    H1 3024   2.464   1.761   2.730
 1006TIP3    H2 3025   2.571   1.822   2.642
 1007TIP3   OH2 3026   4.959   3.598   1.127
 1007TIP3    H1 3027   5.001   3.670   1.080
 1007TIP3    H2 3028   4.898   3.560   1.063
 1008TIP3   OH2 3029   2.198   3.133   1.203
 1008TIP3    H1 3030   2.156   3.047   1.204
 1008TIP3    H2 3031   2.128   3.193   1.179
 1009TIP3   OH2 3032   5.374   5.018   3.058
 1009TIP3    H1 3033   5.311   5.043   3.126
 1009TIP3    H2 3034   5.427   5.096   3.045
 1010TIP3   OH2 3035   4.038   4.172   4.212
 1010TIP3    H1 3036   3.943   4.180   4.202
 1010TIP3    H2 3037   4.068   4.137   4.128
 1011TIP3   OH2 3038   5.974   1.039   4.956
 1011TIP3    H1 3039   6.001   1.085   4.877
 1011TIP3    H2 3040   5.970   0.947   4.930
 1012TIP3   OH2 3041   3.916   5.247   0.997
 1012TIP3    H1 3042   3.919   5.240   0.902
 1012TIP3    H2 3043   3.967   5.325   1.017
 1013TIP3   OH2 3044   6.219   3.009   2.144
 1013TIP3    H1 3045   6.198   2.934   2.200
 1013TIP3    H2 3046   6.134   3.049   2.126
 1014TIP3   OH2 3047   3.747   3.707   2.639
 1014TIP3    H1 3048   3.656   3.735   2.623
 1014TIP3    H2 3049   3.753   3.622   2.595
 1015TIP3   OH2 3050   2.718   5.831   4.421
 1015TIP3    H1 3051   2.721   5.735   4.430
 1015TIP3    H2 3052   2.733   5.847   4.328
 1016TIP3   OH2 3053   5.756   5.895   2.442
 1016TIP3    H1 3054   5.768   5.968   2.502
 1016TIP3    H2 3055   5.813   5.826   2.476
 1017TIP3   OH2 3056   5.922   2.997   1.349
 1017TIP3    H1 3057   5.897   3.038   1.266
 1017TIP3    H2 3058   5.852   2.935   1.367
 1018TIP3   OH2 3059   0.504   0.168   3.753
 1018TIP3    H1 3060   0.413   0.143   3.770
 1018TIP3    H2 3061   0.516   0.149   3.659
 1019TIP3   OH2 3062   2.460   1.155   5.024
 1019TIP3    H1 3063   2.391   1.196   5.075
 1019TIP3    H2 3064   2.452   1.193   4.936
 1020TIP3   OH2 3065   2.631   3.720   4.039
 1020TIP3    H1 3066   2.613   3.646   3.981
 1020TIP3    H2 3067   2.720   3.704   4.071
 1021TIP3   OH2 3068   0.187   5.939   5.056
 1021TIP3    H1 3069   0.099   5.902   5.066
 1021TIP3    H2 3070   0.193   5.961   4.963
 1022TIP3   OH2 3071   5.245   3.908   5.040
 1022TIP3    H1 3072   5.306   3.961   5.091
 1022TIP3    H2 3073   5.182   3.970   5.005
 1023TIP3   OH2 3074   2.520   2.915   3.341
 1023TIP3    H1 3075   2.597   2.938   3.392
 1023TIP3    H2 3076   2.446   2.939   3.397
 1024TIP3   OH2 3077   4.315   1.221   0.270
 1024TIP3    H1 3078   4.297   1.130   0.248
 1024TIP3    H2 3079   4.410   1.230   0.260
 1025TIP3   OH2 3080   6.211   3.858   2.569
 1025TIP3    H1 3081   6.235   3.949   2.587
 1025TIP3    H2 3082   6.158   3.831   2.645
 1026TIP3   OH2 3083   5.480   0.754   1.843
 1026TIP3    H1 3084   5.505   0.827   1.787
 1026TIP3    H2 3085   5.562   0.721   1.879
 1027TIP3   OH2 3086   3.327   0.491   3.152
 1027TIP3    H1 3087   3.293   0.573   3.116
 1027TIP3    H2 3088   3.395   0.518   3.213
 1028TIP3   OH2 3089   0.532   1.042   4.345
 1028TIP3    H1 3090   0.577   1.124   4.324
 1028TIP3    H2 3091   0.584   1.004   4.416
 1029TIP3   OH2 3092   3.710   1.226   4.820
 1029TIP3    H1 3093   3.775   1.206   4.888
 1029TIP3    H2 3094   3.633   1.255   4.868
 1030TIP3   OH2 3095   4.422   1.116   2.310
 1030TIP3    H1 3096   4.331   1.144   2.321
 1030TIP3    H2 3097   4.444   1.074   2.393
 1031TIP3   OH2 3098   5.982   4.520   1.451
 1031TIP3    H1 3099   5.949   4.446   1.502
 1031TIP3    H2 3100   6.076   4.521   1.468
 1032TIP3   OH2 3101   0.437   2.117   4.320
 1032TIP3    H1 3102   0.469   2.197   4.361
 1032TIP3    H2 3103   0.484   2.111   4.237
 1033TIP3   OH2 3104   1.778   3.411   1.802
 1033TIP3    H1 3105   1.776   3.503   1.830
 1033TIP3    H2 3106   1.687   3.390   1.783
 1034TIP3   OH2 3107   5.534   4.243   2.555
 1034TIP3    H1 3108   5.475   4.292   2.497
 1034TIP3    H2 3109   5.619   4.248   2.512
 1035TIP3   OH2 3110   0.902   5.059   1.786
 1035TIP3    H1 3111   0.861   4.974   1.769
 1035TIP3    H2 3112   0.828   5.120   1.790
 1036TIP3   OH2 3113   3.170   0.699   0.617
 1036TIP3    H1 3114   3.237   0.650   0.665
 1036TIP3    H2 3115   3.167   0.658   0.531
 1037TIP3   OH2 3116   1.949   4.503   3.847
 1037TIP3    H1 3117   1.862   4.463   3.849
 1037TIP3    H2 3118   1.937   4.587   3.891
 1038TIP3   OH2 3119   1.151   5.923   1.637
 1038TIP3    H1 3120   1.205   5.913   1.715
 1038TIP3    H2 3121   1.121   5.835   1.616
 1039TIP3   OH2 3122   2.987   0.787   2.073
 1039TIP3    H1 3123   3.013   0.768   2.163
 1039TIP3    H2 3124   2.932   0.713   2.048
 1040TIP3   OH2 3125   4.897   0.947   0.275
 1040TIP3    H1 3126   4.834   0.921   0.343
 1040TIP3    H2 3127   4.961   0.875   0.273
 1041TIP3   OH2 3128   0.760   3.899   4.118
 1041TIP3    H1 3129   0.695   3.922   4.051
 1041TIP3    H2 3130   0.834   3.865   4.068
 1042TIP3   OH2 3131   0.479   3.643   1.776
 1042TIP3    H1 3132   0.436   3.703   1.715
 1042TIP3    H2 3133   0.518   3.576   1.721
 1043TIP3   OH2 3134   3.430   1.069   2.454
 1043TIP3    H1 3135   3.494   1.074   2.525
 1043TIP3    H2 3136   3.392   1.156   2.449
 1044TIP3   OH2 3137   5.764   1.353   0.316
 1044TIP3    H1 3138   5.849   1.346   0.272
 1044TIP3    H2 3139   5.740   1.445   0.307
 1045TIP3   OH2 3140   1.990   1.192   2.140
 1045TIP3    H1 3141   2.047   1.178   2.216
 1045TIP3    H2 3142   2.044   1.171   2.064
 1046TIP3   OH2 3143   4.699   5.840   4.349
 1046TIP3    H1 3144   4.767   5.861   4.412
 1046TIP3    H2 3145   4.742   5.849   4.263
 1047TIP3   OH2 3146   2.883   3.525   2.714
 1047TIP3    H1 3147   2.931   3.473   2.779
 1047TIP3    H2 3148   2.791   3.502   2.728
 1048TIP3   OH2 3149   4.704   4.481   0.538
 1048TIP3    H1 3150   4.787   4.529   0.544
 1048TIP3    H2 3151   4.677   4.469   0.629
 1049TIP3   OH2 3152   5.224   3.976   3.653
 1049TIP3    H1 3153   5.234   4.056   3.705
 1049TIP3    H2 3154   5.244   3.905   3.714
 1050TIP3   OH2 3155   2.431   5.404   4.457
 1050TIP3    H1 3156   2.386   5.364   4.531
 1050TIP3    H2 3157   2.464   5.330   4.406
 1051TIP3   OH2 3158   0.648   2.504   2.292
 1051TIP3    H1 3159   0.616   2.582   2.247
 1051TIP3    H2 3160   0.641   2.525   2.385
 1052TIP3   OH2 3161   1.791   2.114   1.664
 1052TIP3    H1 3162   1.807   2.176   1.593
 1052TIP3    H2 3163   1.863   2.130   1.726
 1053TIP3   OH2 3164   3.317   5.561   0.101
 1053TIP3    H1 3165   3.257   5.609   0.158
 1053TIP3    H2 3166   3.291   5.469   0.109
 1054TIP3   OH2 3167   3.815   5.322   2.476
 1054TIP3    H1 3168   3.754   5.294   2.408
 1054TIP3    H2 3169   3.872   5.386   2.433
 1055TIP3   OH2 3170   6.351   4.867   4.703
 1055TIP3    H1 3171   6.339   4.850   4.797
 1055TIP3    H2 3172   6.312   4.791   4.660
 1056TIP3   OH2 3173   4.089   2.414   5.003
 1056TIP3    H1 3174   4.140   2.446   5.077
 1056TIP3    H2 3175   4.042   2.491   4.971
 1057TIP3   OH2 3176   2.527   2.663  -0.022
 1057TIP3    H1 3177   2.449   2.611  -0.042
 1057TIP3    H2 3178   2.596   2.624  -0.076
 1058TIP3   OH2 3179   3.473   1.691   5.072
 1058TIP3    H1 3180   3.439   1.678   5.161
 1058TIP3    H2 3181   3.537   1.622   5.060
 1059TIP3   OH2 3182   1.585   2.292   1.952
 1059TIP3    H1 3183   1.643   2.335   1.889
 1059TIP3    H2 3184   1.634   2.290   2.034
 1060TIP3   OH2 3185   4.968   1.612   4.049
 1060TIP3    H1 3186   4.935   1.692   4.009
 1060TIP3    H2 3187   4.939   1.616   4.140
 1061TIP3   OH2 3188   5.379   0.786   0.858
 1061TIP3    H1 3189   5.470   0.761   0.845
 1061TIP3    H2 3190   5.366   0.779   0.953
 1062TIP3   OH2 3191   0.442   2.596   4.155
 1062TIP3    H1 3192   0.518   2.570   4.104
 1062TIP3    H2 3193   0.370   2.599   4.091
 1063TIP3   OH2 3194   3.544   2.422   1.091
 1063TIP3    H1 3195   3.497   2.401   1.010
 1063TIP3    H2 3196   3.615   2.479   1.063
 1064TIP3   OH2 3197   3.685   2.315   1.872
 1064TIP3    H1 3198   3.642   2.394   1.902
 1064TIP3    H2 3199   3.725   2.339   1.788
 1065TIP3   OH2 3200   6.253   0.486   1.678
 1065TIP3    H1 3201   6.271   0.551   1.745
 1065TIP3    H2 3202   6.289   0.404   1.713
 1066TIP3   OH2 3203   2.975   4.754   2.141
 1066TIP3    H1 3204   3.008   4.665   2.131
 1066TIP3    H2 3205   2.931   4.754   2.226
 1067TIP3   OH2 3206   4.271   2.780   3.739
 1067TIP3    H1 3207   4.340   2.775   3.673
 1067TIP3    H2 3208   4.317   2.803   3.820
 1068TIP3   OH2 3209   6.305   0.152   1.579
 1068TIP3    H1 3210   6.307   0.060   1.604
 1068TIP3    H2 3211   6.233   0.159   1.517
 1069TIP3   OH2 3212   5.881   0.974   2.721
 1069TIP3    H1 3213   5.943   0.983   2.794
 1069TIP3    H2 3214   5.861   0.881   2.718
 1070TIP3   OH2 3215   0.119   3.249   3.061
 1070TIP3    H1 3216   0.055   3.305   3.018
 1070TIP3    H2 3217   0.150   3.300   3.136
 1071TIP3   OH2 3218   5.184   0.419   1.770
 1071TIP3    H1 3219   5.198   0.454   1.857
 1071TIP3    H2 3220   5.134   0.486   1.724
 1072TIP3   OH2 3221   4.112   1.852   3.219
 1072TIP3    H1 3222   4.178   1.829   3.153
 1072TIP3    H2 3223   4.047   1.903   3.171
 1073TIP3   OH2 3224   6.147   4.653   4.260
 1073TIP3    H1 3225   6.108   4.572   4.226
 1073TIP3    H2 3226   6.072   4.708   4.284
 1074TIP3   OH2 3227   1.396   5.455   1.388
 1074TIP3    H1 3228   1.381   5.421   1.300
 1074TIP3    H2 3229   1.459   5.526   1.376
 1075TIP3   OH2 3230   2.420   3.168   1.814
 1075TIP3    H1 3231   2.483   3.126   1.873
 1075TIP3    H2 3232   2.335   3.155   1.855
 1076TIP3   OH2 3233   0.742   4.176   3.796
 1076TIP3    H1 3234   0.664   4.140   3.838
 1076TIP3    H2 3235   0.809   4.177   3.864
 1077TIP3   OH2 3236   3.653   4.010   0.105
 1077TIP3    H1 3237   3.727   3.954   0.129
 1077TIP3    H2 3238   3.671   4.034   0.014
 1078TIP3   OH2 3239   1.120   1.433   4.034
 1078TIP3    H1 3240   1.079   1.515   4.007
 1078TIP3    H2 3241   1.182   1.458   4.102
 1079TIP3   OH2 3242   5.686   4.788   1.058
 1079TIP3    H1 3243   5.752   4.754   1.119
 1079TIP3    H2 3244   5.701   4.882   1.057
 1080TIP3   OH2 3245   4.918   5.040   2.142
 1080TIP3    H1 3246   4.913   5.039   2.238
 1080TIP3    H2 3247   5.009   5.063   2.123
 1081TIP3   OH2 3248   3.601   4.455   1.173
 1081TIP3    H1 3249   3.556   4.439   1.090
 1081TIP3    H2 3250   3.579   4.546   1.195
 1082TIP3   OH2 3251   1.569   3.726   2.266
 1082TIP3    H1 3252   1.520   3.667   2.323
 1082TIP3    H2 3253   1.556   3.813   2.305
 1083TIP3   OH2 3254   1.432   2.327   1.096
 1083TIP3    H1 3255   1.418   2.232   1.093
 1083TIP3    H2 3256   1.381   2.361   1.023
 1084TIP3   OH2 3257   5.842   3.230   3.494
 1084TIP3    H1 3258   5.913   3.167   3.507
 1084TIP3    H2 3259   5.885   3.309   3.462
 1085TIP3   OH2 3260   2.259   5.614   4.761
 1085TIP3    H1 3261   2.201   5.547   4.726
 1085TIP3    H2 3262   2.346   5.574   4.761
 1086TIP3   OH2 3263   4.301   0.618   2.321
 1086TIP3    H1 3264   4.382   0.652   2.282
 1086TIP3    H2 3265   4.238   0.618   2.249
 1087TIP3   OH2 3266   3.704   3.849   3.387
 1087TIP3    H1 3267   3.640   3.790   3.348
 1087TIP3    H2 3268   3.704   3.828   3.480
 1088TIP3   OH2 3269   6.302   2.723   0.045
 1088TIP3    H1 3270   6.259   2.643   0.073
 1088TIP3    H2 3271   6.306   2.777   0.124
 1089TIP3   OH2 3272   2.301   1.619   2.460
 1089TIP3    H1 3273   2.341   1.699   2.424
 1089TIP3    H2 3274   2.252   1.582   2.387
 1090TIP3   OH2 3275   4.941   5.310   2.328
 1090TIP3    H1 3276   4.924   5.375   2.396
 1090TIP3    H2 3277   5.005   5.352   2.271
 1091TIP3   OH2 3278   0.180   4.045   0.600
 1091TIP3    H1 3279   0.122   4.079   0.532
 1091TIP3    H2 3280   0.265   4.038   0.557
 1092TIP3   OH2 3281   4.888   4.650   3.410
 1092TIP3    H1 3282   4.921   4.709   3.478
 1092TIP3    H2 3283   4.805   4.617   3.444
 1093TIP3   OH2 3284   5.267   0.079   2.131
 1093TIP3    H1 3285   5.269  -0.016   2.142
 1093TIP3    H2 3286   5.345   0.098   2.080
 1094TIP3   OH2 3287   0.266   2.259   1.117
 1094TIP3    H1 3288   0.283   2.170   1.086
 1094TIP3    H2 3289   0.315   2.264   1.200
 1095TIP3   OH2 3290   3.675   2.000   3.085
 1095TIP3    H1 3291   3.770   2.009   3.084
 1095TIP3    H2 3292   3.655   1.966   3.172
 1096TIP3   OH2 3293   0.186   5.271   3.556
 1096TIP3    H1 3294   0.151   5.186   3.580
 1096TIP3    H2 3295   0.171   5.326   3.633
 1097TIP3   OH2 3296   3.688   1.150   0.250
 1097TIP3    H1 3297   3.690   1.213   0.177
 1097TIP3    H2 3298   3.623   1.187   0.310
 1098TIP3   OH2 3299   1.788   5.767   3.948
 1098TIP3    H1 3300   1.703   5.811   3.945
 1098TIP3    H2 3301   1.778   5.693   3.887
 1099TIP3   OH2 3302   5.157   5.600   3.581
 1099TIP3    H1 3303   5.169   5.656   3.504
 1099TIP3    H2 3304   5.111   5.656   3.644
 1100TIP3   OH2 3305   1.791   0.290   0.412
 1100TIP3    H1 3306   1.777   0.369   0.464
 1100TIP3    H2 3307   1.845   0.234   0.468
 1101TIP3   OH2 3308   1.760   4.181   0.806
 1101TIP3    H1 3309   1.723   4.093   0.799
 1101TIP3    H2 3310   1.829   4.184   0.740
 1102TIP3   OH2 3311   1.255   5.025   4.961
 1102TIP3    H1 3312   1.162   5.003   4.964
 1102TIP3    H2 3313   1.264   5.084   4.887
 1103TIP3   OH2 3314   1.137   3.116   1.456
 1103TIP3    H1 3315   1.059   3.077   1.495
 1103TIP3    H2 3316   1.104   3.175   1.388
 1104TIP3   OH2 3317   1.909   0.203   2.245
 1104TIP3    H1 3318   1.826   0.224   2.287
 1104TIP3    H2 3319   1.886   0.182   2.155
 1105TIP3   OH2 3320   5.002   1.913   1.744
 1105TIP3    H1 3321   5.057   1.988   1.766
 1105TIP3    H2 3322   4.963   1.887   1.828
 1106TIP3   OH2 3323   1.225   0.605   3.539
 1106TIP3    H1 3324   1.196   0.514   3.530
 1106TIP3    H2 3325   1.319   0.602   3.523
 1107TIP3   OH2 3326   6.035   0.491   4.547
 1107TIP3    H1 3327   6.075   0.490   4.634
 1107TIP3    H2 3328   5.950   0.533   4.560
 1108TIP3   OH2 3329   4.324   3.228   3.082
 1108TIP3    H1 3330   4.255   3.255   3.142
 1108TIP3    H2 3331   4.341   3.136   3.104
 1109TIP3   OH2 3332   2.091   1.042   2.662
 1109TIP3    H1 3333   2.072   1.134   2.678
 1109TIP3    H2 3334   2.181   1.031   2.694
 1110TIP3   OH2 3335   4.229   1.860   1.247
 1110TIP3    H1 3336   4.269   1.825   1.167
 1110TIP3    H2 3337   4.137   1.875   1.224
 1111TIP3   OH2 3338   5.386   3.378   3.973
 1111TIP3    H1 3339   5.373   3.420   3.888
 1111TIP3    H2 3340   5.314   3.409   4.027
 1112TIP3   OH2 3341   2.442   5.830   2.600
 1112TIP3    H1 3342   2.471   5.902   2.544
 1112TIP3    H2 3343   2.380   5.781   2.547
 1113TIP3   OH2 3344   1.063   4.913   4.222
 1113TIP3    H1 3345   0.982   4.949   4.186
 1113TIP3    H2 3346   1.040   4.886   4.311
 1114TIP3   OH2 3347   6.064   3.725   4.092
 1114TIP3    H1 3348   6.003   3.743   4.021
 1114TIP3    H2 3349   6.124   3.660   4.056
 1115TIP3   OH2 3350   2.481   2.563   1.065
 1115TIP3    H1 3351   2.403   2.508   1.067
 1115TIP3    H2 3352   2.543   2.515   1.008
 1116TIP3   OH2 3353   2.446   1.831   2.367
 1116TIP3    H1 3354   2.456   1.893   2.294
 1116TIP3    H2 3355   2.533   1.824   2.405
 1117TIP3   OH2 3356   1.747   0.862   4.699
 1117TIP3    H1 3357   1.716   0.810   4.773
 1117TIP3    H2 3358   1.799   0.801   4.647
 1118TIP3   OH2 3359   1.585   1.406   3.245
 1118TIP3    H1 3360   1.638   1.419   3.166
 1118TIP3    H2 3361   1.497   1.389   3.212
 1119TIP3   OH2 3362   2.174   2.185   2.874
 1119TIP3    H1 3363   2.240   2.122   2.901
 1119TIP3    H2 3364   2.213   2.270   2.897
 1120TIP3   OH2 3365   0.224   3.147   3.940
 1120TIP3    H1 3366   0.304   3.125   3.892
 1120TIP3    H2 3367   0.238   3.112   4.028
 1121TIP3   OH2 3368   2.065   3.466   0.500
 1121TIP3    H1 3369   2.116   3.471   0.581
 1121TIP3    H2 3370   2.078   3.376   0.469
 1122TIP3   OH2 3371   2.550   2.427   3.675
 1122TIP3    H1 3372   2.495   2.350   3.692
 1122TIP3    H2 3373   2.639   2.394   3.679
 1123TIP3   OH2 3374   2.293   2.516   4.349
 1123TIP3    H1 3375   2.355   2.503   4.421
 1123TIP3    H2 3376   2.320   2.452   4.283
 1124TIP3   OH2 3377   4.313   1.128   1.767
 1124TIP3    H1 3378   4.236   1.183   1.756
 1124TIP3    H2 3379   4.294   1.049   1.716
 1125TIP3   OH2 3380   2.801   5.569   0.299
 1125TIP3    H1 3381   2.725   5.593   0.352
 1125TIP3    H2 3382   2.764   5.519   0.226
 1126TIP3   OH2 3383   2.561   5.825   0.772
 1126TIP3    H1 3384   2.549   5.839   0.678
 1126TIP3    H2 3385   2.604   5.740   0.778
 1127TIP3   OH2 3386   5.758   2.209   3.486
 1127TIP3    H1 3387   5.844   2.234   3.520
 1127TIP3    H2 3388   5.732   2.281   3.430
 1128TIP3   OH2 3389   4.791   4.084   3.424
 1128TIP3    H1 3390   4.844   4.161   3.404
 1128TIP3    H2 3391   4.850   4.025   3.470
 1129TIP3   OH2 3392   0.308   2.703   4.499
 1129TIP3    H1 3393   0.214   2.717   4.491
 1129TIP3    H2 3394   0.343   2.788   4.528
 1130TIP3   OH2 3395   0.433   3.373   4.013
 1130TIP3    H1 3396   0.489   3.296   4.004
 1130TIP3    H2 3397   0.482   3.431   4.071
 1131TIP3   OH2 3398   2.697   3.065   0.422
 1131TIP3    H1 3399   2.702   2.988   0.366
 1131TIP3    H2 3400   2.714   3.031   0.510
 1132TIP3   OH2 3401   4.653   0.601   3.003
 1132TIP3    H1 3402   4.650   0.510   3.034
 1132TIP3    H2 3403   4.677   0.651   3.081
 1133TIP3   OH2 3404   2.024   3.572   1.377
 1133TIP3    H1 3405   1.969   3.505   1.418
 1133TIP3    H2 3406   2.071   3.612   1.450
 1134TIP3   OH2 3407   1.800   4.931   2.607
 1134TIP3    H1 3408   1.725   4.893   2.561
 1134TIP3    H2 3409   1.876   4.883   2.573
 1135TIP3   OH2 3410   4.168   1.422   1.582
 1135TIP3    H1 3411   4.232   1.365   1.539
 1135TIP3    H2 3412   4.220   1.475   1.643
 1136TIP3   OH2 3413   2.307   3.825   3.832
 1136TIP3    H1 3414   2.267   3.840   3.917
 1136TIP3    H2 3415   2.258   3.752   3.794
 1137TIP3   OH2 3416   5.341   1.353   5.119
 1137TIP3    H1 3417   5.305   1.412   5.185
 1137TIP3    H2 3418   5.434   1.373   5.116
 1138TIP3   OH2 3419   3.947   4.002   2.989
 1138TIP3    H1 3420   4.023   4.060   2.993
 1138TIP3    H2 3421   3.946   3.970   2.898
 1139TIP3   OH2 3422   4.324   0.732   3.603
 1139TIP3    H1 3423   4.234   0.733   3.635
 1139TIP3    H2 3424   4.317   0.704   3.512
 1140TIP3   OH2 3425   4.046   5.440   3.373
 1140TIP3    H1 3426   3.998   5.439   3.456
 1140TIP3    H2 3427   4.067   5.348   3.356
 1141TIP3   OH2 3428   5.133   1.265   3.704
 1141TIP3    H1 3429   5.109   1.188   3.756
 1141TIP3    H2 3430   5.050   1.307   3.683
 1142TIP3   OH2 3431   0.021   4.784   2.771
 1142TIP3    H1 3432   0.008   4.860   2.714
 1142TIP3    H2 3433   0.116   4.776   2.779
 1143TIP3   OH2 3434   4.792   3.324   2.143
 1143TIP3    H1 3435   4.749   3.349   2.061
 1143TIP3    H2 3436   4.814   3.408   2.185
 1144TIP3   OH2 3437   1.065   4.824   0.618
 1144TIP3    H1 3438   1.077   4.730   0.607
 1144TIP3    H2 3439   1.050   4.835   0.712
 1145TIP3   OH2 3440   3.374   5.878   1.006
 1145TIP3    H1 3441   3.387   5.960   1.055
 1145TIP3    H2 3442   3.283   5.854   1.023
 1146TIP3   OH2 3443   5.756   5.738   4.019
 1146TIP3    H1 3444   5.790   5.652   3.991
 1146TIP3    H2 3445   5.791   5.799   3.954
 1147TIP3   OH2 3446   0.546   5.147   3.830
 1147TIP3    H1 3447   0.567   5.076   3.891
 1147TIP3    H2 3448   0.459   5.125   3.797
 1148TIP3   OH2 3449   0.224   1.772   4.852
 1148TIP3    H1 3450   0.149   1.733   4.897
 1148TIP3    H2 3451   0.199   1.864   4.840
 1149TIP3   OH2 3452   5.862   0.186   3.684
 1149TIP3    H1 3453   5.948   0.227   3.695
 1149TIP3    H2 3454   5.882   0.094   3.665
 1150TIP3   OH2 3455   3.661   2.438   1.427
 1150TIP3    H1 3456   3.591   2.399   1.481
 1150TIP3    H2 3457   3.620   2.515   1.388
 1151TIP3   OH2 3458   2.318   1.229   4.757
 1151TIP3    H1 3459   2.367   1.154   4.722
 1151TIP3    H2 3460   2.260   1.256   4.686
 1152TIP3   OH2 3461   5.764   0.890   4.637
 1152TIP3    H1 3462   5.837   0.941   4.672
 1152TIP3    H2 3463   5.697   0.955   4.616
 1153TIP3   OH2 3464   0.738   3.408   3.172
 1153TIP3    H1 3465   0.699   3.401   3.259
 1153TIP3    H2 3466   0.754   3.317   3.146
 1154TIP3   OH2 3467   3.518   0.791   2.580
 1154TIP3    H1 3468   3.432   0.828   2.601
 1154TIP3    H2 3469   3.499   0.722   2.517
 1155TIP3   OH2 3470   1.110   0.288   3.542
 1155TIP3    H1 3471   1.118   0.242   3.625
 1155TIP3    H2 3472   1.178   0.249   3.486
 1156TIP3   OH2 3473   3.823   0.581   2.861
 1156TIP3    H1 3474   3.910   0.604   2.827
 1156TIP3    H2 3475   3.807   0.645   2.930
 1157TIP3   OH2 3476   6.300   2.514   0.839
 1157TIP3    H1 3477   6.223   2.567   0.816
 1157TIP3    H2 3478   6.269   2.423   0.833
 1158TIP3   OH2 3479   0.542   3.369   3.707
 1158TIP3    H1 3480   0.461   3.408   3.738
 1158TIP3    H2 3481   0.541   3.383   3.612
 1159TIP3   OH2 3482   0.943   0.032   1.226
 1159TIP3    H1 3483   0.956   0.119   1.187
 1159TIP3    H2 3484   0.908   0.051   1.313
 1160TIP3   OH2 3485   3.245   0.465   3.712
 1160TIP3    H1 3486   3.185   0.516   3.766
 1160TIP3    H2 3487   3.293   0.410   3.773
 1161TIP3   OH2 3488   1.930   1.233   0.758
 1161TIP3    H1 3489   1.934   1.232   0.662
 1161TIP3    H2 3490   1.961   1.320   0.782
 1162TIP3   OH2 3491   4.466   0.636   2.780
 1162TIP3    H1 3492   4.526   0.618   2.853
 1162TIP3    H2 3493   4.524   0.650   2.705
 1163TIP3   OH2 3494   3.908   0.833   3.421
 1163TIP3    H1 3495   3.850   0.758   3.409
 1163TIP3    H2 3496   3.951   0.817   3.505
 1164TIP3   OH2 3497   6.116   2.278   0.017
 1164TIP3    H1 3498   6.159   2.295  -0.067
 1164TIP3    H2 3499   6.147   2.348   0.075
 1165TIP3   OH2 3500   4.113   2.325   2.692
 1165TIP3    H1 3501   4.128   2.359   2.780
 1165TIP3    H2 3502   4.029   2.279   2.697
 1166TIP3   OH2 3503   5.178   3.265   2.586
 1166TIP3    H1 3504   5.217   3.323   2.651
 1166TIP3    H2 3505   5.086   3.259   2.612
 1167TIP3   OH2 3506   2.590   2.199   3.124
 1167TIP3    H1 3507   2.622   2.111   3.108
 1167TIP3    H2 3508   2.566   2.199   3.217
 1168TIP3   OH2 3509   0.886   0.409   2.230
 1168TIP3    H1 3510   0.902   0.374   2.317
 1168TIP3    H2 3511   0.862   0.501   2.245
 1169TIP3   OH2 3512   0.111   5.821   2.434
 1169TIP3    H1 3513   0.168   5.864   2.370
 1169TIP3    H2 3514   0.024   5.821   2.394
 1170TIP3   OH2 3515   2.211   5.230   2.085
 1170TIP3    H1 3516   2.264   5.304   2.115
 1170TIP3    H2 3517   2.244   5.155   2.135
 1171TIP3   OH2 3518   0.319   2.782   0.540
 1171TIP3    H1 3519   0.283   2.694   0.557
 1171TIP3    H2 3520   0.278   2.809   0.458
 1172TIP3   OH2 3521   5.241   2.123   2.156
 1172TIP3    H1 3522   5.314   2.092   2.210
 1172TIP3    H2 3523   5.174   2.149   2.219
 1173TIP3   OH2 3524   1.396   2.706   2.849
 1173TIP3    H1 3525   1.486   2.679   2.834
 1173TIP3    H2 3526   1.366   2.737   2.764
 1174TIP3   OH2 3527   3.543   5.892   0.363
 1174TIP3    H1 3528   3.454   5.920   0.340
 1174TIP3    H2 3529   3.600   5.945   0.306
 1175TIP3   OH2 3530   4.057   4.572   4.774
 1175TIP3    H1 3531   4.082   4.648   4.721
 1175TIP3    H2 3532   3.965   4.556   4.750
 1176TIP3   OH2 3533   5.581   0.661   4.324
 1176TIP3    H1 3534   5.672   0.683   4.343
 1176TIP3    H2 3535   5.551   0.730   4.265
 1177TIP3   OH2 3536   6.034   3.198   2.623
 1177TIP3    H1 3537   5.982   3.278   2.615
 1177TIP3    H2 3538   6.053   3.192   2.717
 1178TIP3   OH2 3539   4.020   5.222   1.386
 1178TIP3    H1 3540   4.089   5.217   1.319
 1178TIP3    H2 3541   4.047   5.295   1.442
 1179TIP3   OH2 3542   0.888   2.741   1.230
 1179TIP3    H1 3543   0.821   2.762   1.164
 1179TIP3    H2 3544   0.957   2.805   1.215
 1180TIP3   OH2 3545   3.205   1.447   5.034
 1180TIP3    H1 3546   3.278   1.398   4.996
 1180TIP3    H2 3547   3.207   1.424   5.127
 1181TIP3   OH2 3548   5.544   1.178   3.865
 1181TIP3    H1 3549   5.460   1.132   3.873
 1181TIP3    H2 3550   5.520   1.264   3.830
 1182TIP3   OH2 3551   3.753   1.236   0.672
 1182TIP3    H1 3552   3.818   1.179   0.714
 1182TIP3    H2 3553   3.753   1.316   0.725
 1183TIP3   OH2 3554   5.840   2.836   4.982
 1183TIP3    H1 3555   5.817   2.926   5.004
 1183TIP3    H2 3556   5.874   2.800   5.063
 1184TIP3   OH2 3557   6.226   3.609   2.431
 1184TIP3    H1 3558   6.149   3.582   2.381
 1184TIP3    H2 3559   6.192   3.672   2.494
 1185TIP3   OH2 3560   2.248   5.703   2.426
 1185TIP3    H1 3561   2.233   5.644   2.352
 1185TIP3    H2 3562   2.165   5.751   2.435
 1186TIP3   OH2 3563   4.526   1.457   3.392
 1186TIP3    H1 3564   4.467   1.493   3.458
 1186TIP3    H2 3565   4.537   1.365   3.416
 1187TIP3   OH2 3566   3.456   0.106   1.529
 1187TIP3    H1 3567   3.377   0.051   1.532
 1187TIP3    H2 3568   3.527   0.045   1.511
 1188TIP3   OH2 3569   5.102   1.361   1.069
 1188TIP3    H1 3570   5.042   1.374   1.143
 1188TIP3    H2 3571   5.056   1.401   0.994
 1189TIP3   OH2 3572   3.410   1.997   1.583
 1189TIP3    H1 3573   3.423   1.919   1.529
 1189TIP3    H2 3574   3.321   1.988   1.617
 1190TIP3   OH2 3575   5.531   0.792   0.057
 1190TIP3    H1 3576   5.574   0.789  -0.029
 1190TIP3    H2 3577   5.602   0.786   0.120
 1191TIP3   OH2 3578   2.794   3.726   0.323
 1191TIP3    H1 3579   2.723   3.759   0.268
 1191TIP3    H2 3580   2.749   3.687   0.398
 1192TIP3   OH2 3581   4.209   1.181   2.036
 1192TIP3    H1 3582   4.133   1.190   2.093
 1192TIP3    H2 3583   4.173   1.172   1.948
 1193TIP3   OH2 3584   6.185   3.443   0.810
 1193TIP3    H1 3585   6.227   3.404   0.734
 1193TIP3    H2 3586   6.132   3.372   0.847
 1194TIP3   OH2 3587   1.208   0.452   0.379
 1194TIP3    H1 3588   1.162   0.536   0.376
 1194TIP3    H2 3589   1.143   0.391   0.413
 1195TIP3   OH2 3590   3.049   3.053   5.093
 1195TIP3    H1 3591   3.096   2.979   5.056
 1195TIP3    H2 3592   3.112   3.125   5.092
 1196TIP3   OH2 3593   5.469   1.435   3.821
 1196TIP3    H1 3594   5.525   1.512   3.830
 1196TIP3    H2 3595   5.385   1.461   3.858
 1197TIP3   OH2 3596   3.112   4.957   2.542
 1197TIP3    H1 3597   3.051   4.901   2.494
 1197TIP3    H2 3598   3.151   4.898   2.607
 1198TIP3   OH2 3599   2.796   0.972   2.977
 1198TIP3    H1 3600   2.846   0.900   2.938
 1198TIP3    H2 3601   2.708   0.937   2.988
 1199TIP3   OH2 3602   5.686   1.806   4.216
 1199TIP3    H1 3603   5.596   1.791   4.187
 1199TIP3    H2 3604   5.687   1.897   4.243
 1200TIP3   OH2 3605   5.353   4.728   1.133
 1200TIP3    H1 3606   5.437   4.704   1.173
 1200TIP3    H2 3607   5.297   4.748   1.208
 1201TIP3   OH2 3608   5.393   1.950   4.399
 1201TIP3    H1 3609   5.320   1.902   4.362
 1201TIP3    H2 3610   5.441   1.886   4.451
 1202TIP3   OH2 3611   5.682   3.339   3.687
 1202TIP3    H1 3612   5.729   3.295   3.615
 1202TIP3    H2 3613   5.707   3.289   3.765
 1203TIP3   OH2 3614   4.975   0.259   3.905
 1203TIP3    H1 3615   4.892   0.286   3.864
 1203TIP3    H2 3616   4.959   0.268   3.999
 1204TIP3   OH2 3617   2.478   3.265   2.816
 1204TIP3    H1 3618   2.437   3.209   2.750
 1204TIP3    H2 3619   2.473   3.214   2.897
 1205TIP3   OH2 3620   4.401   4.390   1.383
 1205TIP3    H1 3621   4.326   4.347   1.343
 1205TIP3    H2 3622   4.363   4.453   1.444
 1206TIP3   OH2 3623   2.587   1.023   3.230
 1206TIP3    H1 3624   2.525   0.951   3.240
 1206TIP3    H2 3625   2.557   1.070   3.153
 1207TIP3   OH2 3626   0.106   1.018   3.243
 1207TIP3    H1 3627   0.199   1.022   3.221
 1207TIP3    H2 3628   0.095   1.078   3.317
 1208TIP3   OH2 3629   4.625   4.427   1.950
 1208TIP3    H1 3630   4.608   4.373   2.027
 1208TIP3    H2 3631   4.545   4.479   1.940
 1209TIP3   OH2 3632   1.511   5.287   1.604
 1209TIP3    H1 3633   1.477   5.336   1.529
 1209TIP3    H2 3634   1.436   5.277   1.662
 1210TIP3   OH2 3635   1.776   2.408   1.806
 1210TIP3    H1 3636   1.864   2.371   1.804
 1210TIP3    H2 3637   1.762   2.442   1.717
 1211TIP3   OH2 3638   5.159   2.201   4.771
 1211TIP3    H1 3639   5.212   2.122   4.765
 1211TIP3    H2 3640   5.222   2.273   4.766
 1212TIP3   OH2 3641   1.848   1.189   0.055
 1212TIP3    H1 3642   1.854   1.258  -0.011
 1212TIP3    H2 3643   1.776   1.215   0.111
 1213TIP3   OH2 3644   0.271   3.380   3.291
 1213TIP3    H1 3645   0.192   3.434   3.297
 1213TIP3    H2 3646   0.314   3.391   3.376
 1214TIP3   OH2 3647   2.488   3.472   1.221
 1214TIP3    H1 3648   2.438   3.461   1.302
 1214TIP3    H2 3649   2.462   3.558   1.189
 1215TIP3   OH2 3650   0.890   5.164   5.032
 1215TIP3    H1 3651   0.925   5.076   5.043
 1215TIP3    H2 3652   0.844   5.162   4.948
 1216TIP3   OH2 3653   4.924   1.759   0.308
 1216TIP3    H1 3654   4.961   1.760   0.220
 1216TIP3    H2 3655   4.993   1.723   0.363
 1217TIP3   OH2 3656   6.082   5.150   3.319
 1217TIP3    H1 3657   6.151   5.084   3.329
 1217TIP3    H2 3658   6.129   5.231   3.300
 1218TIP3   OH2 3659   0.818   2.807   0.563
 1218TIP3    H1 3660   0.748   2.824   0.501
 1218TIP3    H2 3661   0.898   2.834   0.518
 1219TIP3   OH2 3662   5.767   1.515   4.797
 1219TIP3    H1 3663   5.820   1.498   4.719
 1219TIP3    H2 3664   5.676   1.511   4.765
 1220TIP3   OH2 3665   4.738   5.043   1.944
 1220TIP3    H1 3666   4.700   4.956   1.957
 1220TIP3    H2 3667   4.795   5.057   2.019
 1221TIP3   OH2 3668   4.655   3.215   0.997
 1221TIP3    H1 3669   4.720   3.285   0.999
 1221TIP3    H2 3670   4.573   3.259   0.974
 1222TIP3   OH2 3671   5.948   5.374   3.708
 1222TIP3    H1 3672   5.922   5.374   3.800
 1222TIP3    H2 3673   6.042   5.391   3.710
 1223TIP3   OH2 3674   6.140   5.578   3.433
 1223TIP3    H1 3675   6.167   5.654   3.382
 1223TIP3    H2 3676   6.175   5.503   3.385
 1224TIP3   OH2 3677   0.771   5.094   2.748
 1224TIP3    H1 3678   0.847   5.046   2.783
 1224TIP3    H2 3679   0.810   5.163   2.694
 1225TIP3   OH2 3680   0.236   1.556   1.669
 1225TIP3    H1 3681   0.177   1.510   1.728
 1225TIP3    H2 3682   0.223   1.649   1.689
 1226TIP3   OH2 3683   5.514   3.029   0.159
 1226TIP3    H1 3684   5.556   2.981   0.087
 1226TIP3    H2 3685   5.420   3.018   0.143
 1227TIP3   OH2 3686   1.115   5.517   4.595
 1227TIP3    H1 3687   1.069   5.599   4.580
 1227TIP3    H2 3688   1.207   5.537   4.577
 1228TIP3   OH2 3689   1.490   2.563   3.877
 1228TIP3    H1 3690   1.522   2.472   3.883
 1228TIP3    H2 3691   1.472   2.587   3.967
 1229TIP3   OH2 3692   3.121   2.243   1.065
 1229TIP3    H1 3693   3.085   2.312   1.120
 1229TIP3    H2 3694   3.160   2.289   0.991
 1230TIP3   OH2 3695   6.315   2.062   2.802
 1230TIP3    H1 3696   6.364   2.118   2.741
 1230TIP3    H2 3697   6.231   2.047   2.758
 1231TIP3   OH2 3698   5.939   1.103   4.702
 1231TIP3    H1 3699   5.931   1.198   4.691
 1231TIP3    H2 3700   6.019   1.080   4.655
 1232TIP3   OH2 3701   2.322   0.345   1.690
 1232TIP3    H1 3702   2.371   0.352   1.608
 1232TIP3    H2 3703   2.378   0.384   1.756
 1233TIP3   OH2 3704   2.734   1.733   1.487
 1233TIP3    H1 3705   2.763   1.714   1.398
 1233TIP3    H2 3706   2.667   1.800   1.476
 1234TIP3   OH2 3707   0.483   4.329   4.766
 1234TIP3    H1 3708   0.466   4.310   4.859
 1234TIP3    H2 3709   0.562   4.280   4.746
 1235TIP3   OH2 3710   4.818   4.283   4.969
 1235TIP3    H1 3711   4.729   4.273   5.003
 1235TIP3    H2 3712   4.807   4.294   4.875
 1236TIP3   OH2 3713   4.535   3.952   4.199
 1236TIP3    H1 3714   4.512   3.981   4.287
 1236TIP3    H2 3715   4.459   3.902   4.169
 1237TIP3   OH2 3716   3.448   5.517   2.175
 1237TIP3    H1 3717   3.481   5.575   2.244
 1237TIP3    H2 3718   3.372   5.474   2.215
 1238TIP3   OH2 3719   1.152   0.297   4.840
 1238TIP3    H1 3720   1.231   0.285   4.892
 1238TIP3    H2 3721   1.134   0.210   4.803
 1239TIP3   OH2 3722   0.008   2.921   0.779
 1239TIP3    H1 3723   0.051   3.001   0.808
 1239TIP3    H2 3724   0.076   2.854   0.780
 1240TIP3   OH2 3725   5.885   1.606   3.213
 1240TIP3    H1 3726   5.871   1.550   3.137
 1240TIP3    H2 3727   5.898   1.693   3.177
 1241TIP3   OH2 3728   0.159   4.031   1.721
 1241TIP3    H1 3729   0.099   3.971   1.677
 1241TIP3    H2 3730   0.217   4.062   1.651
 1242TIP3   OH2 3731   1.233   2.459   2.777
 1242TIP3    H1 3732   1.294   2.516   2.824
 1242TIP3    H2 3733   1.288   2.414   2.712
 1243TIP3   OH2 3734   2.711   2.840   3.876
 1243TIP3    H1 3735   2.802   2.858   3.851
 1243TIP3    H2 3736   2.684   2.917   3.926
 1244TIP3   OH2 3737   0.469   2.286   1.900
 1244TIP3    H1 3738   0.522   2.310   1.976
 1244TIP3    H2 3739   0.532   2.256   1.835
 1245TIP3   OH2 3740   1.460   4.210   0.347
 1245TIP3    H1 3741   1.506   4.128   0.325
 1245TIP3    H2 3742   1.373   4.182   0.373
 1246TIP3   OH2 3743   6.195   0.446   3.978
 1246TIP3    H1 3744   6.260   0.482   4.037
 1246TIP3    H2 3745   6.232   0.362   3.948
 1247TIP3   OH2 3746   5.828   5.485   3.949
 1247TIP3    H1 3747   5.830   5.474   4.044
 1247TIP3    H2 3748   5.746   5.444   3.921
 1248TIP3   OH2 3749   2.436   0.095   2.269
 1248TIP3    H1 3750   2.455   0.006   2.237
 1248TIP3    H2 3751   2.518   0.143   2.257
 1249TIP3   OH2 3752   3.369   5.211   0.420
 1249TIP3    H1 3753   3.440   5.151   0.398
 1249TIP3    H2 3754   3.385   5.288   0.366
 1250TIP3   OH2 3755   0.706   3.451   2.584
 1250TIP3    H1 3756   0.780   3.410   2.540
 1250TIP3    H2 3757   0.746   3.514   2.644
 1251TIP3   OH2 3758   3.944   0.207   1.857
 1251TIP3    H1 3759   3.976   0.206   1.947
 1251TIP3    H2 3760   4.020   0.229   1.804
 1252TIP3   OH2 3761   2.648   5.094   0.262
 1252TIP3    H1 3762   2.599   5.019   0.230
 1252TIP3    H2 3763   2.663   5.075   0.355
 1253TIP3   OH2 3764   0.241   0.792   0.815
 1253TIP3    H1 3765   0.179   0.725   0.787
 1253TIP3    H2 3766   0.230   0.797   0.910
 1254TIP3   OH2 3767   0.621   5.957   1.019
 1254TIP3    H1 3768   0.579   5.889   1.070
 1254TIP3    H2 3769   0.580   6.038   1.048
 1255TIP3   OH2 3770   1.864   1.327   0.452
 1255TIP3    H1 3771   1.772   1.347   0.437
 1255TIP3    H2 3772   1.912   1.386   0.393
 1256TIP3   OH2 3773   0.271   0.548   0.355
 1256TIP3    H1 3774   0.333   0.478   0.375
 1256TIP3    H2 3775   0.302   0.584   0.272
 1257TIP3   OH2 3776   5.303   5.412   1.836
 1257TIP3    H1 3777   5.238   5.345   1.818
 1257TIP3    H2 3778   5.344   5.385   1.918
 1258TIP3   OH2 3779   4.778   4.366   0.258
 1258TIP3    H1 3780   4.783   4.380   0.164
 1258TIP3    H2 3781   4.743   4.448   0.293
 1259TIP3   OH2 3782   4.918   0.558   1.218
 1259TIP3    H1 3783   4.918   0.571   1.123
 1259TIP3    H2 3784   4.826   0.540   1.240
 1260TIP3   OH2 3785   3.868   2.485   3.071
 1260TIP3    H1 3786   3.925   2.439   3.011
 1260TIP3    H2 3787   3.927   2.533   3.129
 1261TIP3   OH2 3788   2.312   1.960   2.896
 1261TIP3    H1 3789   2.400   1.933   2.872
 1261TIP3    H2 3790   2.256   1.924   2.827
 1262TIP3   OH2 3791   5.494   1.968   3.235
 1262TIP3    H1 3792   5.566   1.914   3.270
 1262TIP3    H2 3793   5.522   2.058   3.250
 1263TIP3   OH2 3794   4.047   0.092   3.447
 1263TIP3    H1 3795   3.978   0.086   3.381
 1263TIP3    H2 3796   4.052   0.004   3.484
 1264TIP3   OH2 3797   4.082   0.679   3.947
 1264TIP3    H1 3798   4.114   0.703   4.034
 1264TIP3    H2 3799   4.022   0.607   3.962
 1265TIP3   OH2 3800   2.470   5.159   1.034
 1265TIP3    H1 3801   2.541   5.150   0.971
 1265TIP3    H2 3802   2.493   5.100   1.106
 1266TIP3   OH2 3803   1.446   3.005   4.944
 1266TIP3    H1 3804   1.449   2.909   4.935
 1266TIP3    H2 3805   1.387   3.020   5.017
 1267TIP3   OH2 3806   1.762   4.417   5.165
 1267TIP3    H1 3807   1.795   4.378   5.084
 1267TIP3    H2 3808   1.702   4.485   5.137
 1268TIP3   OH2 3809   1.876   1.593   3.901
 1268TIP3    H1 3810   1.849   1.561   3.815
 1268TIP3    H2 3811   1.833   1.535   3.964
 1269TIP3   OH2 3812   4.767   2.717   1.674
 1269TIP3    H1 3813   4.734   2.654   1.609
 1269TIP3    H2 3814   4.841   2.759   1.631
 1270TIP3   OH2 3815   3.182   3.174   3.689
 1270TIP3    H1 3816   3.246   3.220   3.634
 1270TIP3    H2 3817   3.206   3.197   3.779
 1271TIP3   OH2 3818   0.568   0.474   5.094
 1271TIP3    H1 3819   0.576   0.494   5.000
 1271TIP3    H2 3820   0.657   0.485   5.128
 1272TIP3   OH2 3821   2.128   5.367   4.686
 1272TIP3    H1 3822   2.036   5.360   4.660
 1272TIP3    H2 3823   2.142   5.293   4.744
 1273TIP3   OH2 3824   2.788   3.778   1.395
 1273TIP3    H1 3825   2.859   3.787   1.331
 1273TIP3    H2 3826   2.824   3.813   1.476
 1274TIP3   OH2 3827   6.217   2.195   1.021
 1274TIP3    H1 3828   6.128   2.208   1.053
 1274TIP3    H2 3829   6.213   2.221   0.929
 1275TIP3   OH2 3830   1.305   0.717   3.958
 1275TIP3    H1 3831   1.325   0.685   3.870
 1275TIP3    H2 3832   1.216   0.688   3.975
 1276TIP3   OH2 3833   1.767   5.534   5.065
 1276TIP3    H1 3834   1.710   5.600   5.104
 1276TIP3    H2 3835   1.847   5.582   5.043
 1277TIP3   OH2 3836   6.030   0.809   4.808
 1277TIP3    H1 3837   6.029   0.861   4.727
 1277TIP3    H2 3838   6.123   0.794   4.826
 1278TIP3   OH2 3839   3.084   0.711   1.177
 1278TIP3    H1 3840   3.067   0.618   1.193
 1278TIP3    H2 3841   3.136   0.739   1.252
 1279TIP3   OH2 3842   3.604   0.320   1.676
 1279TIP3    H1 3843   3.551   0.357   1.606
 1279TIP3    H2 3844   3.556   0.243   1.705
 1280TIP3   OH2 3845   0.339   4.405   3.515
 1280TIP3    H1 3846   0.393   4.339   3.560
 1280TIP3    H2 3847   0.285   4.442   3.584
 1281TIP3   OH2 3848   2.342   2.444   0.085
 1281TIP3    H1 3849   2.392   2.363   0.097
 1281TIP3    H2 3850   2.306   2.464   0.172
 1282TIP3   OH2 3851   0.514   4.862   1.561
 1282TIP3    H1 3852   0.480   4.781   1.525
 1282TIP3    H2 3853   0.587   4.835   1.616
 1283TIP3   OH2 3854   0.910   0.722   0.584
 1283TIP3    H1 3855   0.963   0.766   0.517
 1283TIP3    H2 3856   0.847   0.788   0.612
 1284TIP3   OH2 3857   0.389   1.286   0.257
 1284TIP3    H1 3858   0.464   1.278   0.316
 1284TIP3    H2 3859   0.326   1.340   0.305
 1285TIP3   OH2 3860   0.934   3.758   0.602
 1285TIP3    H1 3861   0.906   3.808   0.679
 1285TIP3    H2 3862   0.987   3.820   0.551
 1286TIP3   OH2 3863   4.811   0.454   2.746
 1286TIP3    H1 3864   4.881   0.388   2.746
 1286TIP3    H2 3865   4.832   0.511   2.672
 1287TIP3   OH2 3866   2.421   1.980   4.667
 1287TIP3    H1 3867   2.359   2.053   4.659
 1287TIP3    H2 3868   2.374   1.905   4.631
 1288TIP3   OH2 3869   4.484   3.665   3.785
 1288TIP3    H1 3870   4.514   3.574   3.777
 1288TIP3    H2 3871   4.472   3.694   3.695
 1289TIP3   OH2 3872   5.399   0.718   4.717
 1289TIP3    H1 3873   5.322   0.725   4.773
 1289TIP3    H2 3874   5.470   0.757   4.769
 1290TIP3   OH2 3875   1.345   2.150   0.795
 1290TIP3    H1 3876   1.283   2.214   0.829
 1290TIP3    H2 3877   1.362   2.091   0.868
 1291TIP3   OH2 3878   5.543   0.125   4.844
 1291TIP3    H1 3879   5.545   0.220   4.858
 1291TIP3    H2 3880   5.507   0.090   4.925
 1292TIP3   OH2 3881   3.545   5.448   3.526
 1292TIP3    H1 3882   3.599   5.448   3.448
 1292TIP3    H2 3883   3.458   5.475   3.495
 1293TIP3   OH2 3884   4.168   3.387   1.170
 1293TIP3    H1 3885   4.131   3.335   1.242
 1293TIP3    H2 3886   4.162   3.477   1.200
 1294TIP3   OH2 3887   0.719   4.544   2.782
 1294TIP3    H1 3888   0.787   4.602   2.817
 1294TIP3    H2 3889   0.766   4.465   2.757
 1295TIP3   OH2 3890   4.078   5.371   2.073
 1295TIP3    H1 3891   4.034   5.430   2.135
 1295TIP3    H2 3892   4.008   5.336   2.019
 1296TIP3   OH2 3893   0.920   5.548   1.291
 1296TIP3    H1 3894   0.832   5.522   1.262
 1296TIP3    H2 3895   0.976   5.533   1.215
 1297TIP3   OH2 3896   3.892   1.200   5.066
 1297TIP3    H1 3897   3.803   1.223   5.091
 1297TIP3    H2 3898   3.922   1.140   5.135
 1298TIP3   OH2 3899   4.883   4.521   4.383
 1298TIP3    H1 3900   4.891   4.427   4.369
 1298TIP3    H2 3901   4.870   4.557   4.296
 1299TIP3   OH2 3902   1.710   1.839   0.801
 1299TIP3    H1 3903   1.754   1.755   0.808
 1299TIP3    H2 3904   1.627   1.826   0.848
 1300TIP3   OH2 3905   5.208   1.341   2.422
 1300TIP3    H1 3906   5.215   1.436   2.416
 1300TIP3    H2 3907   5.223   1.310   2.333
 1301TIP3   OH2 3908   1.330   2.902   1.109
 1301TIP3    H1 3909   1.415   2.923   1.069
 1301TIP3    H2 3910   1.305   2.819   1.068
 1302TIP3   OH2 3911   3.735   5.424   5.029
 1302TIP3    H1 3912   3.798   5.356   5.005
 1302TIP3    H2 3913   3.790   5.499   5.054
 1303TIP3   OH2 3914   3.717   4.366   0.351
 1303TIP3    H1 3915   3.736   4.289   0.405
 1303TIP3    H2 3916   3.650   4.336   0.290
 1304TIP3   OH2 3917   1.208   4.031   1.781
 1304TIP3    H1 3918   1.250   3.961   1.732
 1304TIP3    H2 3919   1.155   4.078   1.716
 1305TIP3   OH2 3920   1.809   0.744   2.828
 1305TIP3    H1 3921   1.858   0.735   2.910
 1305TIP3    H2 3922   1.767   0.830   2.834
 1306TIP3   OH2 3923   6.326   0.439   0.780
 1306TIP3    H1 3924   6.364   0.465   0.697
 1306TIP3    H2 3925   6.290   0.352   0.765
 1307TIP3   OH2 3926   5.660   1.269   3.195
 1307TIP3    H1 3927   5.734   1.209   3.207
 1307TIP3    H2 3928   5.689   1.329   3.126
 1308TIP3   OH2 3929   5.650   5.288   3.339
 1308TIP3    H1 3930   5.587   5.334   3.395
 1308TIP3    H2 3931   5.730   5.283   3.392
 1309TIP3   OH2 3932   2.728   5.308   3.547
 1309TIP3    H1 3933   2.800   5.363   3.577
 1309TIP3    H2 3934   2.721   5.238   3.612
 1310TIP3   OH2 3935   0.159  -0.039   0.430
 1310TIP3    H1 3936   0.196   0.042   0.465
 1310TIP3    H2 3937   0.099  -0.070   0.497
 1311TIP3   OH2 3938   0.734   2.475   0.988
 1311TIP3    H1 3939   0.825   2.461   0.963
 1311TIP3    H2 3940   0.720   2.569   0.979
 1312TIP3   OH2 3941   0.159   2.319   3.456
 1312TIP3    H1 3942   0.085   2.363   3.413
 1312TIP3    H2 3943   0.233   2.334   3.397
 1313TIP3   OH2 3944   3.837   5.814   3.395
 1313TIP3    H1 3945   3.745   5.798   3.414
 1313TIP3    H2 3946   3.868   5.732   3.356
 1314TIP3   OH2 3947   5.656   5.492   5.152
 1314TIP3    H1 3948   5.650   5.587   5.164
 1314TIP3    H2 3949   5.677   5.458   5.239
 1315TIP3   OH2 3950   1.194   1.772   0.298
 1315TIP3    H1 3951   1.119   1.789   0.241
 1315TIP3    H2 3952   1.159   1.720   0.370
 1316TIP3   OH2 3953   1.324   1.449   4.233
 1316TIP3    H1 3954   1.347   1.441   4.326
 1316TIP3    H2 3955   1.399   1.492   4.193
 1317TIP3   OH2 3956   0.845   1.828   2.252
 1317TIP3    H1 3957   0.898   1.807   2.176
 1317TIP3    H2 3958   0.781   1.891   2.221
 1318TIP3   OH2 3959   0.545   4.278   1.084
 1318TIP3    H1 3960   0.623   4.333   1.092
 1318TIP3    H2 3961   0.517   4.289   0.993
 1319TIP3   OH2 3962   5.189   2.729   4.450
 1319TIP3    H1 3963   5.203   2.785   4.373
 1319TIP3    H2 3964   5.179   2.641   4.413
 1320TIP3   OH2 3965   2.806   2.305   3.618
 1320TIP3    H1 3966   2.796   2.225   3.669
 1320TIP3    H2 3967   2.850   2.278   3.538
 1321TIP3   OH2 3968   0.884   3.756   1.950
 1321TIP3    H1 3969   0.874   3.823   2.017
 1321TIP3    H2 3970   0.893   3.674   1.998
 1322TIP3   OH2 3971   3.847   2.713   2.041
 1322TIP3    H1 3972   3.821   2.701   1.950
 1322TIP3    H2 3973   3.765   2.708   2.090
 1323TIP3   OH2 3974   3.703   1.182   1.697
 1323TIP3    H1 3975   3.761   1.182   1.773
 1323TIP3    H2 3976   3.654   1.264   1.704
 1324TIP3   OH2 3977   4.861   3.826   5.059
 1324TIP3    H1 3978   4.954   3.808   5.046
 1324TIP3    H2 3979   4.859   3.905   5.114
 1325TIP3   OH2 3980   1.608   5.219   0.162
 1325TIP3    H1 3981   1.696   5.226   0.126
 1325TIP3    H2 3982   1.601   5.128   0.190
 1326TIP3   OH2 3983   5.709   3.336   0.466
 1326TIP3    H1 3984   5.631   3.310   0.418
 1326TIP3    H2 3985   5.720   3.429   0.444
 1327TIP3   OH2 3986   5.869   1.189   2.222
 1327TIP3    H1 3987   5.955   1.172   2.183
 1327TIP3    H2 3988   5.834   1.263   2.172
 1328TIP3   OH2 3989   4.071   4.249   4.518
 1328TIP3    H1 3990   4.069   4.235   4.423
 1328TIP3    H2 3991   4.137   4.186   4.549
 1329TIP3   OH2 3992   5.394   1.062   3.511
 1329TIP3    H1 3993   5.472   1.058   3.456
 1329TIP3    H2 3994   5.394   1.152   3.546
 1330TIP3   OH2 3995   3.830   1.116   3.328
 1330TIP3    H1 3996   3.808   1.152   3.414
 1330TIP3    H2 3997   3.828   1.021   3.341
 1331TIP3   OH2 3998   5.549   4.884   2.285
 1331TIP3    H1 3999   5.546   4.889   2.189
 1331TIP3    H2 4000   5.619   4.944   2.310
 1332TIP3   OH2 4001   0.955   1.821   3.523
 1332TIP3    H1 4002   0.922   1.860   3.442
 1332TIP3    H2 4003   0.955   1.894   3.586
 1333TIP3   OH2 4004   1.749   1.617   3.341
 1333TIP3    H1 4005   1.678   1.674   3.371
 1333TIP3    H2 4006   1.707   1.549   3.290
 1334TIP3   OH2 4007   0.954   4.542   1.711
 1334TIP3    H1 4008   1.002   4.466   1.744
 1334TIP3    H2 4009   1.015   4.583   1.649
 1335TIP3   OH2 4010   2.823   2.831   2.630
 1335TIP3    H1 4011   2.804   2.896   2.698
 1335TIP3    H2 4012   2.899   2.783   2.664
 1336TIP3   OH2 4013   2.826   2.464   1.252
 1336TIP3    H1 4014   2.845   2.556   1.234
 1336TIP3    H2 4015   2.779   2.464   1.335
 1337TIP3   OH2 4016   5.066   5.825   1.070
 1337TIP3    H1 4017   4.995   5.775   1.109
 1337TIP3    H2 4018   5.083   5.897   1.130
 1338TIP3   OH2 4019   5.912   0.984   0.051
 1338TIP3    H1 4020   5.865   1.052   0.003
 1338TIP3    H2 4021   6.003   1.011   0.047
 1339TIP3   OH2 4022   1.909   3.575   4.533
 1339TIP3    H1 4023   1.987   3.631   4.530
 1339TIP3    H2 4024   1.839   3.631   4.500
 1340TIP3   OH2 4025   0.153   0.423   1.013
 1340TIP3    H1 4026   0.080   0.457   0.963
 1340TIP3    H2 4027   0.231   0.456   0.968
 1341TIP3   OH2 4028   3.738   1.145   2.498
 1341TIP3    H1 4029   3.791   1.114   2.425
 1341TIP3    H2 4030   3.720   1.067   2.550
 1342TIP3   OH2 4031   2.114   0.691   1.157
 1342TIP3    H1 4032   2.103   0.622   1.092
 1342TIP3    H2 4033   2.170   0.652   1.224
 1343TIP3   OH2 4034   6.329   4.442   4.146
 1343TIP3    H1 4035   6.331   4.531   4.182
 1343TIP3    H2 4036   6.264   4.396   4.200
 1344TIP3   OH2 4037   1.868   0.552   4.211
 1344TIP3    H1 4038   1.892   0.630   4.161
 1344TIP3    H2 4039   1.906   0.479   4.163
 1345TIP3   OH2 4040   1.420   0.981   0.821
 1345TIP3    H1 4041   1.374   0.898   0.814
 1345TIP3    H2 4042   1.469   0.974   0.903
 1346TIP3   OH2 4043   6.219   3.152   1.785
 1346TIP3    H1 4044   6.174   3.133   1.702
 1346TIP3    H2 4045   6.270   3.231   1.767
 1347TIP3   OH2 4046   0.187   4.295   4.078
 1347TIP3    H1 4047   0.154   4.369   4.129
 1347TIP3    H2 4048   0.109   4.248   4.050
 1348TIP3   OH2 4049   3.554   0.155   1.978
 1348TIP3    H1 4050   3.614   0.216   2.020
 1348TIP3    H2 4051   3.467   0.190   1.998
 1349TIP3   OH2 4052   4.348   5.553   0.696
 1349TIP3    H1 4053   4.286   5.498   0.647
 1349TIP3    H2 4054   4.295   5.591   0.766
 1350TIP3   OH2 4055   2.520   0.500   4.913
 1350TIP3    H1 4056   2.485   0.455   4.990
 1350TIP3    H2 4057   2.591   0.554   4.947
 1351TIP3   OH2 4058   5.995   2.838   0.539
 1351TIP3    H1 4059   5.917   2.849   0.594
 1351TIP3    H2 4060   6.023   2.748   0.556
 1352TIP3   OH2 4061   4.518   4.136   3.271
 1352TIP3    H1 4062   4.581   4.207   3.285
 1352TIP3    H2 4063   4.446   4.177   3.224
 1353TIP3   OH2 4064   2.566   5.833   3.463
 1353TIP3    H1 4065   2.496   5.803   3.405
 1353TIP3    H2 4066   2.534   5.915   3.500
 1354TIP3   OH2 4067   0.053   2.579   4.022
 1354TIP3    H1 4068   0.148   2.571   4.014
 1354TIP3    H2 4069   0.036   2.568   4.116
 1355TIP3   OH2 4070   3.828   0.378   4.809
 1355TIP3    H1 4071   3.908   0.425   4.785
 1355TIP3    H2 4072   3.855   0.318   4.878
 1356TIP3   OH2 4073   2.646   0.514   1.059
 1356TIP3    H1 4074   2.680   0.454   0.994
 1356TIP3    H2 4075   2.551   0.510   1.049
 1357TIP3   OH2 4076   0.388   4.709   5.180
 1357TIP3    H1 4077   0.399   4.754   5.096
 1357TIP3    H2 4078   0.300   4.673   5.177
 1358TIP3   OH2 4079   4.736   4.739   3.802
 1358TIP3    H1 4080   4.740   4.828   3.766
 1358TIP3    H2 4081   4.678   4.692   3.742
 1359TIP3   OH2 4082   1.145   3.814   0.894
 1359TIP3    H1 4083   1.131   3.724   0.864
 1359TIP3    H2 4084   1.070   3.832   0.950
 1360TIP3   OH2 4085   5.849   4.033   0.452
 1360TIP3    H1 4086   5.820   4.111   0.405
 1360TIP3    H2 4087   5.945   4.040   0.454
 1361TIP3   OH2 4088   0.185   2.602   1.994
 1361TIP3    H1 4089   0.127   2.630   1.924
 1361TIP3    H2 4090   0.237   2.531   1.956
 1362TIP3   OH2 4091   3.772   0.137   2.897
 1362TIP3    H1 4092   3.832   0.202   2.932
 1362TIP3    H2 4093   3.799   0.124   2.806
 1363TIP3   OH2 4094   4.326   0.075   2.278
 1363TIP3    H1 4095   4.290  -0.005   2.240
 1363TIP3    H2 4096   4.411   0.049   2.314
 1364TIP3   OH2 4097   3.449   1.495   3.987
 1364TIP3    H1 4098   3.391   1.569   3.969
 1364TIP3    H2 4099   3.409   1.450   4.061
 1365TIP3   OH2 4100   1.383   4.770   4.756
 1365TIP3    H1 4101   1.310   4.813   4.711
 1365TIP3    H2 4102   1.348   4.746   4.842
 1366TIP3   OH2 4103   4.620   4.597   3.571
 1366TIP3    H1 4104   4.530   4.629   3.568
 1366TIP3    H2 4105   4.614   4.510   3.611
 1367TIP3   OH2 4106   3.057   2.449   1.569
 1367TIP3    H1 4107   2.996   2.500   1.515
 1367TIP3    H2 4108   3.012   2.437   1.652
 1368TIP3   OH2 4109   2.521   4.066   2.060
 1368TIP3    H1 4110   2.504   4.159   2.075
 1368TIP3    H2 4111   2.506   4.054   1.967
 1369TIP3   OH2 4112   2.163   2.311   3.488
 1369TIP3    H1 4113   2.180   2.295   3.396
 1369TIP3    H2 4114   2.071   2.289   3.500
 1370TIP3   OH2 4115   4.630   2.866   3.142
 1370TIP3    H1 4116   4.652   2.793   3.199
 1370TIP3    H2 4117   4.568   2.918   3.194
 1371TIP3   OH2 4118   5.335   3.242   2.043
 1371TIP3    H1 4119   5.412   3.249   1.987
 1371TIP3    H2 4120   5.318   3.148   2.051
 1372TIP3   OH2 4121   1.345   4.549   3.647
 1372TIP3    H1 4122   1.259   4.510   3.631
 1372TIP3    H2 4123   1.392   4.537   3.564
 1373TIP3   OH2 4124   6.113   0.924   3.355
 1373TIP3    H1 4125   6.151   0.989   3.296
 1373TIP3    H2 4126   6.061   0.975   3.417
 1374TIP3   OH2 4127   1.433   5.060   4.298
 1374TIP3    H1 4128   1.356   5.056   4.355
 1374TIP3    H2 4129   1.501   5.101   4.351
 1375TIP3   OH2 4130   1.048   2.497   1.133
 1375TIP3    H1 4131   0.970   2.503   1.187
 1375TIP3    H2 4132   1.056   2.583   1.091
 1376TIP3   OH2 4133   0.412   1.907   3.108
 1376TIP3    H1 4134   0.442   1.891   3.019
 1376TIP3    H2 4135   0.402   1.820   3.146
 1377TIP3   OH2 4136   0.406   0.916   0.588
 1377TIP3    H1 4137   0.384   0.904   0.496
 1377TIP3    H2 4138   0.333   0.876   0.635
 1378TIP3   OH2 4139   3.325   5.887   2.456
 1378TIP3    H1 4140   3.238   5.888   2.496
 1378TIP3    H2 4141   3.383   5.923   2.523
 1379TIP3   OH2 4142   1.546   3.905   1.321
 1379TIP3    H1 4143   1.522   3.834   1.381
 1379TIP3    H2 4144   1.548   3.864   1.235
 1380TIP3   OH2 4145   0.635   5.756   1.334
 1380TIP3    H1 4146   0.554   5.730   1.289
 1380TIP3    H2 4147   0.606   5.812   1.405
 1381TIP3   OH2 4148   1.787   2.921   4.924
 1381TIP3    H1 4149   1.823   2.902   4.838
 1381TIP3    H2 4150   1.763   3.014   4.920
 1382TIP3   OH2 4151   5.993   5.218   1.250
 1382TIP3    H1 4152   6.039   5.211   1.166
 1382TIP3    H2 4153   6.056   5.259   1.309
 1383TIP3   OH2 4154   3.134   5.933   4.725
 1383TIP3    H1 4155   3.102   5.884   4.650
 1383TIP3    H2 4156   3.061   5.988   4.752
 1384TIP3   OH2 4157   1.584   3.126   2.640
 1384TIP3    H1 4158   1.651   3.177   2.685
 1384TIP3    H2 4159   1.572   3.172   2.556
 1385TIP3   OH2 4160   5.149   2.771   1.184
 1385TIP3    H1 4161   5.114   2.827   1.115
 1385TIP3    H2 4162   5.180   2.832   1.251
 1386TIP3   OH2 4163   5.694   3.291   5.189
 1386TIP3    H1 4164   5.727   3.208   5.223
 1386TIP3    H2 4165   5.700   3.282   5.094
 1387TIP3   OH2 4166   2.631   2.497   1.784
 1387TIP3    H1 4167   2.563   2.504   1.851
 1387TIP3    H2 4168   2.703   2.452   1.827
 1388TIP3   OH2 4169   1.025   1.052   3.248
 1388TIP3    H1 4170   1.112   1.078   3.277
 1388TIP3    H2 4171   1.038   1.020   3.158
 1389TIP3   OH2 4172   5.432   0.364   3.019
 1389TIP3    H1 4173   5.412   0.442   3.070
 1389TIP3    H2 4174   5.369   0.365   2.947
 1390TIP3   OH2 4175   3.550   2.473   5.202
 1390TIP3    H1 4176   3.586   2.421   5.130
 1390TIP3    H2 4177   3.456   2.475   5.185
 1391TIP3   OH2 4178   1.781   5.631   4.327
 1391TIP3    H1 4179   1.695   5.649   4.287
 1391TIP3    H2 4180   1.806   5.546   4.291
 1392TIP3   OH2 4181   3.149   5.863   1.853
 1392TIP3    H1 4182   3.160   5.838   1.761
 1392TIP3    H2 4183   3.153   5.958   1.853
 1393TIP3   OH2 4184   1.325   5.777   4.781
 1393TIP3    H1 4185   1.408   5.824   4.781
 1393TIP3    H2 4186   1.346   5.689   4.750
 1394TIP3   OH2 4187   0.745   4.652   2.012
 1394TIP3    H1 4188   0.670   4.630   1.958
 1394TIP3    H2 4189   0.756   4.747   2.000
 1395TIP3   OH2 4190   3.107   5.901   2.616
 1395TIP3    H1 4191   3.139   5.834   2.677
 1395TIP3    H2 4192   3.012   5.897   2.623
 1396TIP3   OH2 4193   6.355   5.151   1.793
 1396TIP3    H1 4194   6.281   5.093   1.776
 1396TIP3    H2 4195   6.335   5.193   1.876
 1397TIP3   OH2 4196   0.806   0.003   2.186
 1397TIP3    H1 4197   0.854  -0.049   2.249
 1397TIP3    H2 4198   0.750   0.060   2.239
 1398TIP3   OH2 4199   5.651   2.882   1.666
 1398TIP3    H1 4200   5.676   2.933   1.589
 1398TIP3    H2 4201   5.586   2.820   1.633
 1399TIP3   OH2 4202   2.327   4.683   0.543
 1399TIP3    H1 4203   2.238   4.651   0.559
 1399TIP3    H2 4204   2.348   4.650   0.456
 1400TIP3   OH2 4205   0.728   1.836   4.135
 1400TIP3    H1 4206   0.728   1.859   4.227
 1400TIP3    H2 4207   0.700   1.744   4.133
 1401TIP3   OH2 4208   0.182   1.778   4.338
 1401TIP3    H1 4209   0.132   1.747   4.413
 1401TIP3    H2 4210   0.262   1.816   4.377
 1402TIP3   OH2 4211   5.209   5.738   3.348
 1402TIP3    H1 4212   5.232   5.696   3.265
 1402TIP3    H2 4213   5.159   5.816   3.322
 1403TIP3   OH2 4214   0.154   5.576   2.134
 1403TIP3    H1 4215   0.082   5.640   2.135
 1403TIP3    H2 4216   0.161   5.548   2.225
 1404TIP3   OH2 4217   4.540   1.032   0.105
 1404TIP3    H1 4218   4.451   1.018   0.136
 1404TIP3    H2 4219   4.560   1.123   0.130
 1405TIP3   OH2 4220   5.698   5.736   4.291
 1405TIP3    H1 4221   5.707   5.761   4.199
 1405TIP3    H2 4222   5.788   5.732   4.323
 1406TIP3   OH2 4223   0.312   5.000   3.703
 1406TIP3    H1 4224   0.268   4.950   3.772
 1406TIP3    H2 4225   0.263   4.979   3.624
 1407TIP3   OH2 4226   4.077   1.476   1.938
 1407TIP3    H1 4227   4.146   1.518   1.887
 1407TIP3    H2 4228   4.065   1.391   1.896
 1408TIP3   OH2 4229   1.124   3.365   1.793
 1408TIP3    H1 4230   1.177   3.318   1.729
 1408TIP3    H2 4231   1.036   3.328   1.783
 1409TIP3   OH2 4232   4.827   1.528   0.008
 1409TIP3    H1 4233   4.852   1.501   0.096
 1409TIP3    H2 4234   4.755   1.590   0.020
 1410TIP3   OH2 4235   4.636   4.243   2.955
 1410TIP3    H1 4236   4.643   4.149   2.972
 1410TIP3    H2 4237   4.561   4.250   2.896
 1411TIP3   OH2 4238   1.310   3.731   4.185
 1411TIP3    H1 4239   1.263   3.810   4.158
 1411TIP3    H2 4240   1.401   3.748   4.161
 1412TIP3   OH2 4241   4.542   5.491   4.492
 1412TIP3    H1 4242   4.510   5.503   4.403
 1412TIP3    H2 4243   4.536   5.397   4.507
 1413TIP3   OH2 4244   1.114   5.389   4.864
 1413TIP3    H1 4245   1.121   5.295   4.853
 1413TIP3    H2 4246   1.105   5.423   4.775
 1414TIP3   OH2 4247   4.643   3.318   0.211
 1414TIP3    H1 4248   4.622   3.236   0.165
 1414TIP3    H2 4249   4.640   3.295   0.304
 1415TIP3   OH2 4250   2.168   5.485   2.766
 1415TIP3    H1 4251   2.097   5.540   2.735
 1415TIP3    H2 4252   2.186   5.517   2.855
 1416TIP3   OH2 4253   2.600   1.427   1.232
 1416TIP3    H1 4254   2.510   1.424   1.263
 1416TIP3    H2 4255   2.613   1.344   1.187
 1417TIP3   OH2 4256   1.903   2.541   3.423
 1417TIP3    H1 4257   1.981   2.557   3.370
 1417TIP3    H2 4258   1.896   2.445   3.426
 1418TIP3   OH2 4259   2.822   2.374   2.622
 1418TIP3    H1 4260   2.875   2.298   2.597
 1418TIP3    H2 4261   2.791   2.409   2.539
 1419TIP3   OH2 4262   0.702   4.828   2.307
 1419TIP3    H1 4263   0.731   4.740   2.331
 1419TIP3    H2 4264   0.758   4.887   2.358
 1420TIP3   OH2 4265   0.407   1.874   4.464
 1420TIP3    H1 4266   0.418   1.893   4.557
 1420TIP3    H2 4267   0.423   1.958   4.420
 1421TIP3   OH2 4268   3.455   4.513   2.277
 1421TIP3    H1 4269   3.534   4.566   2.290
 1421TIP3    H2 4270   3.399   4.568   2.222
 1422TIP3   OH2 4271   6.190   4.726   5.087
 1422TIP3    H1 4272   6.208   4.812   5.127
 1422TIP3    H2 4273   6.148   4.748   5.004
 1423TIP3   OH2 4274   2.582   4.882   2.901
 1423TIP3    H1 4275   2.487   4.884   2.888
 1423TIP3    H2 4276   2.618   4.879   2.812
 1424TIP3   OH2 4277   4.290   1.722   1.009
 1424TIP3    H1 4278   4.264   1.757   0.924
 1424TIP3    H2 4279   4.293   1.627   0.996
 1425TIP3   OH2 4280   2.796   2.257   1.806
 1425TIP3    H1 4281   2.839   2.172   1.816
 1425TIP3    H2 4282   2.859   2.320   1.841
 1426TIP3   OH2 4283   5.233   4.287   0.629
 1426TIP3    H1 4284   5.256   4.367   0.581
 1426TIP3    H2 4285   5.144   4.266   0.600
 1427TIP3   OH2 4286   3.355   5.217   2.700
 1427TIP3    H1 4287   3.361   5.154   2.772
 1427TIP3    H2 4288   3.446   5.240   2.682
 1428TIP3   OH2 4289   2.719   3.094   2.796
 1428TIP3    H1 4290   2.709   3.036   2.871
 1428TIP3    H2 4291   2.656   3.164   2.810
 1429TIP3   OH2 4292   0.433   5.339   0.646
 1429TIP3    H1 4293   0.421   5.352   0.740
 1429TIP3    H2 4294   0.495   5.266   0.640
 1430TIP3   OH2 4295   4.945   5.044   0.251
 1430TIP3    H1 4296   4.873   5.054   0.312
 1430TIP3    H2 4297   4.981   4.957   0.270
 1431TIP3   OH2 4298   2.055   4.520   1.213
 1431TIP3    H1 4299   2.041   4.568   1.131
 1431TIP3    H2 4300   2.029   4.581   1.282
 1432TIP3   OH2 4301   6.126   5.454   0.302
 1432TIP3    H1 4302   6.160   5.406   0.227
 1432TIP3    H2 4303   6.161   5.543   0.292
 1433TIP3   OH2 4304   1.855   1.881   0.244
 1433TIP3    H1 4305   1.938   1.876   0.196
 1433TIP3    H2 4306   1.834   1.974   0.246
 1434TIP3   OH2 4307   5.071   1.038   3.872
 1434TIP3    H1 4308   4.981   1.037   3.837
 1434TIP3    H2 4309   5.068   1.100   3.945
 1435TIP3   OH2 4310   0.953   4.155   0.692
 1435TIP3    H1 4311   0.981   4.193   0.775
 1435TIP3    H2 4312   0.889   4.217   0.657
 1436TIP3   OH2 4313   3.603   0.801   3.764
 1436TIP3    H1 4314   3.520   0.776   3.723
 1436TIP3    H2 4315   3.647   0.719   3.783
 1437TIP3   OH2 4316   3.660   0.024   0.055
 1437TIP3    H1 4317   3.748  -0.012   0.051
 1437TIP3    H2 4318   3.603  -0.046   0.024
 1438TIP3   OH2 4319   0.619   1.373   2.168
 1438TIP3    H1 4320   0.613   1.418   2.083
 1438TIP3    H2 4321   0.636   1.282   2.146
 1439TIP3   OH2 4322   6.345   2.669   1.837
 1439TIP3    H1 4323   6.345   2.653   1.742
 1439TIP3    H2 4324   6.332   2.764   1.845
 1440TIP3   OH2 4325   0.286   4.607   0.008
 1440TIP3    H1 4326   0.307   4.557   0.087
 1440TIP3    H2 4327   0.365   4.657  -0.011
 1441TIP3   OH2 4328   5.737   0.989   3.773
 1441TIP3    H1 4329   5.656   1.034   3.798
 1441TIP3    H2 4330   5.807   1.044   3.808
 1442TIP3   OH2 4331   1.573   5.953   3.580
 1442TIP3    H1 4332   1.488   5.912   3.567
 1442TIP3    H2 4333   1.598   5.986   3.493
 1443TIP3   OH2 4334   5.388   1.053   0.638
 1443TIP3    H1 4335   5.335   0.984   0.679
 1443TIP3    H2 4336   5.353   1.135   0.673
 1444TIP3   OH2 4337   5.647   3.015   0.976
 1444TIP3    H1 4338   5.615   2.975   1.057
 1444TIP3    H2 4339   5.583   3.084   0.956
 1445TIP3   OH2 4340   5.661   2.436   3.347
 1445TIP3    H1 4341   5.735   2.490   3.319
 1445TIP3    H2 4342   5.593   2.499   3.370
 1446TIP3   OH2 4343   0.086   4.333   1.555
 1446TIP3    H1 4344   0.036   4.298   1.628
 1446TIP3    H2 4345   0.137   4.259   1.523
 1447TIP3   OH2 4346   4.360   0.994   2.546
 1447TIP3    H1 4347   4.265   0.983   2.542
 1447TIP3    H2 4348   4.385   0.964   2.633
 1448TIP3   OH2 4349   3.306   3.870   3.561
 1448TIP3    H1 4350   3.284   3.961   3.543
 1448TIP3    H2 4351   3.221   3.826   3.566
 1449TIP3   OH2 4352   5.376   1.677   2.358
 1449TIP3    H1 4353   5.358   1.620   2.284
 1449TIP3    H2 4354   5.295   1.676   2.410
 1450TIP3   OH2 4355   4.580   0.093   4.101
 1450TIP3    H1 4356   4.632   0.126   4.175
 1450TIP3    H2 4357   4.491   0.087   4.136
 1451TIP3   OH2 4358   3.139   4.177   1.425
 1451TIP3    H1 4359   3.154   4.091   1.463
 1451TIP3    H2 4360   3.076   4.218   1.484
 1452TIP3   OH2 4361   5.260   1.489   2.156
 1452TIP3    H1 4362   5.261   1.393   2.152
 1452TIP3    H2 4363   5.201   1.515   2.085
 1453TIP3   OH2 4364   3.468   2.451   4.637
 1453TIP3    H1 4365   3.526   2.395   4.586
 1453TIP3    H2 4366   3.397   2.394   4.665
 1454TIP3   OH2 4367   5.132   3.140   5.087
 1454TIP3    H1 4368   5.200   3.204   5.064
 1454TIP3    H2 4369   5.167   3.057   5.054
 1455TIP3   OH2 4370   5.436   2.795   1.436
 1455TIP3    H1 4371   5.422   2.701   1.450
 1455TIP3    H2 4372   5.355   2.835   1.465
 1456TIP3   OH2 4373   4.836   4.135   4.650
 1456TIP3    H1 4374   4.756   4.105   4.608
 1456TIP3    H2 4375   4.903   4.074   4.619
 1457TIP3   OH2 4376   4.067   2.824   1.876
 1457TIP3    H1 4377   3.979   2.799   1.905
 1457TIP3    H2 4378   4.073   2.791   1.786
 1458TIP3   OH2 4379   3.373   4.930   2.234
 1458TIP3    H1 4380   3.288   4.934   2.190
 1458TIP3    H2 4381   3.433   4.977   2.175
 1459TIP3   OH2 4382   2.023   5.462   2.407
 1459TIP3    H1 4383   2.017   5.548   2.450
 1459TIP3    H2 4384   1.936   5.423   2.419
 1460TIP3   OH2 4385   3.334   4.084   2.783
 1460TIP3    H1 4386   3.285   4.013   2.825
 1460TIP3    H2 4387   3.360   4.141   2.856
 1461TIP3   OH2 4388   0.028   1.646   1.366
 1461TIP3    H1 4389  -0.030   1.722   1.357
 1461TIP3    H2 4390   0.094   1.674   1.429
 1462TIP3   OH2 4391   1.893   2.767   3.904
 1462TIP3    H1 4392   1.815   2.821   3.892
 1462TIP3    H2 4393   1.893   2.745   3.997
 1463TIP3   OH2 4394   6.280   4.413   1.308
 1463TIP3    H1 4395   6.365   4.386   1.271
 1463TIP3    H2 4396   6.234   4.331   1.324
 1464TIP3   OH2 4397   5.659   2.530   4.397
 1464TIP3    H1 4398   5.692   2.476   4.469
 1464TIP3    H2 4399   5.572   2.558   4.426
 1465TIP3   OH2 4400   2.782   4.091   3.847
 1465TIP3    H1 4401   2.767   4.062   3.937
 1465TIP3    H2 4402   2.820   4.015   3.803
 1466TIP3   OH2 4403   1.558   5.086   1.289
 1466TIP3    H1 4404   1.466   5.107   1.306
 1466TIP3    H2 4405   1.579   5.017   1.352
 1467TIP3   OH2 4406   1.616   2.596   3.412
 1467TIP3    H1 4407   1.559   2.519   3.410
 1467TIP3    H2 4408   1.704   2.562   3.396
 1468TIP3   OH2 4409   4.826   0.747   4.534
 1468TIP3    H1 4410   4.790   0.800   4.605
 1468TIP3    H2 4411   4.847   0.663   4.574
 1469TIP3   OH2 4412   3.889   4.712   0.570
 1469TIP3    H1 4413   3.984   4.717   0.575
 1469TIP3    H2 4414   3.862   4.674   0.654
 1470TIP3   OH2 4415   6.116   0.678   2.597
 1470TIP3    H1 4416   6.147   0.710   2.682
 1470TIP3    H2 4417   6.157   0.736   2.533
 1471TIP3   OH2 4418   5.052   1.226   4.092
 1471TIP3    H1 4419   5.044   1.224   4.187
 1471TIP3    H2 4420   4.987   1.291   4.064
 1472TIP3   OH2 4421   3.834   5.449   4.212
 1472TIP3    H1 4422   3.894   5.397   4.159
 1472TIP3    H2 4423   3.751   5.447   4.163
 1473TIP3   OH2 4424   5.807   3.286   1.899
 1473TIP3    H1 4425   5.712   3.284   1.887
 1473TIP3    H2 4426   5.824   3.373   1.937
 1474TIP3   OH2 4427   3.628   4.994   1.769
 1474TIP3    H1 4428   3.688   4.926   1.740
 1474TIP3    H2 4429   3.551   4.984   1.713
 1475TIP3   OH2 4430   2.241   5.637   3.883
 1475TIP3    H1 4431   2.232   5.544   3.906
 1475TIP3    H2 4432   2.322   5.642   3.833
 1476TIP3   OH2 4433   2.998   1.878   2.272
 1476TIP3    H1 4434   3.055   1.934   2.219
 1476TIP3    H2 4435   2.909   1.910   2.254
 1477TIP3   OH2 4436   0.649   4.134   2.373
 1477TIP3    H1 4437   0.705   4.066   2.411
 1477TIP3    H2 4438   0.574   4.140   2.432
 1478TIP3   OH2 4439   2.484   0.097   3.624
 1478TIP3    H1 4440   2.556   0.110   3.686
 1478TIP3    H2 4441   2.430   0.030   3.664
 1479TIP3   OH2 4442   3.675   5.662   4.866
 1479TIP3    H1 4443   3.754   5.676   4.815
 1479TIP3    H2 4444   3.679   5.570   4.893
 1480TIP3   OH2 4445   4.580   1.961   4.147
 1480TIP3    H1 4446   4.572   1.878   4.101
 1480TIP3    H2 4447   4.616   2.021   4.082
 1481TIP3   OH2 4448   1.040   5.396   1.082
 1481TIP3    H1 4449   0.984   5.442   1.019
 1481TIP3    H2 4450   1.120   5.448   1.087
 1482TIP3   OH2 4451   1.632   5.826   0.868
 1482TIP3    H1 4452   1.593   5.835   0.955
 1482TIP3    H2 4453   1.638   5.916   0.835
 1483TIP3   OH2 4454   2.855   2.126   0.851
 1483TIP3    H1 4455   2.804   2.130   0.771
 1483TIP3    H2 4456   2.838   2.209   0.895
 1484TIP3   OH2 4457   5.127   2.685   3.941
 1484TIP3    H1 4458   5.099   2.739   4.015
 1484TIP3    H2 4459   5.223   2.689   3.944
 1485TIP3   OH2 4460   5.203   4.060   1.330
 1485TIP3    H1 4461   5.143   3.995   1.364
 1485TIP3    H2 4462   5.204   4.129   1.396
 1486TIP3   OH2 4463   5.311   5.977   4.886
 1486TIP3    H1 4464   5.232   5.925   4.868
 1486TIP3    H2 4465   5.348   5.994   4.800
 1487TIP3   OH2 4466   2.082   1.208   2.400
 1487TIP3    H1 4467   2.127   1.205   2.484
 1487TIP3    H2 4468   1.990   1.194   2.422
 1488TIP3   OH2 4469   1.724   0.455   2.153
 1488TIP3    H1 4470   1.745   0.397   2.080
 1488TIP3    H2 4471   1.809   0.489   2.181
 1489TIP3   OH2 4472   2.807   5.853   4.914
 1489TIP3    H1 4473   2.844   5.938   4.937
 1489TIP3    H2 4474   2.883   5.796   4.903
 1490TIP3   OH2 4475   3.809   5.113   1.554
 1490TIP3    H1 4476   3.881   5.155   1.507
 1490TIP3    H2 4477   3.818   5.020   1.532
 1491TIP3   OH2 4478   1.749   4.473   4.671
 1491TIP3    H1 4479   1.819   4.499   4.611
 1491TIP3    H2 4480   1.680   4.537   4.657
 1492TIP3   OH2 4481   3.105   1.496   3.471
 1492TIP3    H1 4482   3.143   1.475   3.556
 1492TIP3    H2 4483   3.010   1.489   3.484
 1493TIP3   OH2 4484   0.396   2.689   1.063
 1493TIP3    H1 4485   0.329   2.651   1.006
 1493TIP3    H2 4486   0.367   2.780   1.075
 1494TIP3   OH2 4487   3.469   2.143   4.728
 1494TIP3    H1 4488   3.402   2.103   4.673
 1494TIP3    H2 4489   3.548   2.144   4.673
 1495TIP3   OH2 4490   0.054   1.040   0.173
 1495TIP3    H1 4491   0.067   1.019   0.265
 1495TIP3    H2 4492   0.140   1.031   0.133
 1496TIP3   OH2 4493   1.273   5.720   1.141
 1496TIP3    H1 4494   1.305   5.658   1.075
 1496TIP3    H2 4495   1.352   5.747   1.189
 1497TIP3   OH2 4496   0.571   3.389   1.659
 1497TIP3    H1 4497   0.616   3.343   1.731
 1497TIP3    H2 4498   0.594   3.338   1.581
 1498TIP3   OH2 4499   2.511   4.391   0.094
 1498TIP3    H1 4500   2.575   4.374   0.025
 1498TIP3    H2 4501   2.483   4.304   0.122
 1499TIP3   OH2 4502   3.077   0.462   2.152
 1499TIP3    H1 4503   3.088   0.528   2.221
 1499TIP3    H2 4504   2.999   0.412   2.179
 1500TIP3   OH2 4505   2.699   5.058   0.839
 1500TIP3    H1 4506   2.621   5.087   0.792
 1500TIP3    H2 4507   2.770   5.070   0.777
 1501TIP3   OH2 4508   0.464   3.316   2.586
 1501TIP3    H1 4509   0.547   3.362   2.586
 1501TIP3    H2 4510   0.415   3.353   2.659
 1502TIP3   OH2 4511   6.260   3.485   3.698
 1502TIP3    H1 4512   6.174   3.467   3.737
 1502TIP3    H2 4513   6.306   3.402   3.702
 1503TIP3   OH2 4514   1.166   1.397   3.358
 1503TIP3    H1 4515   1.199   1.308   3.374
 1503TIP3    H2 4516   1.073   1.392   3.378
 1504TIP3   OH2 4517   5.227   3.570   1.655
 1504TIP3    H1 4518   5.298   3.507   1.639
 1504TIP3    H2 4519   5.230   3.628   1.578
 1505TIP3   OH2 4520   3.096   1.700   4.990
 1505TIP3    H1 4521   3.163   1.767   4.975
 1505TIP3    H2 4522   3.146   1.620   5.010
 1506TIP3   OH2 4523   1.196   4.196   3.533
 1506TIP3    H1 4524   1.147   4.153   3.463
 1506TIP3    H2 4525   1.267   4.241   3.487
 1507TIP3   OH2 4526   0.066   1.039   0.474
 1507TIP3    H1 4527   0.100   0.950   0.478
 1507TIP3    H2 4528  -0.029   1.028   0.481
 1508TIP3   OH2 4529   1.604   2.820   0.828
 1508TIP3    H1 4530   1.515   2.815   0.794
 1508TIP3    H2 4531   1.657   2.845   0.753
 1509TIP3   OH2 4532   6.295   2.105   1.273
 1509TIP3    H1 4533   6.206   2.129   1.299
 1509TIP3    H2 4534   6.294   2.108   1.178
 1510TIP3   OH2 4535   5.268   4.962   1.839
 1510TIP3    H1 4536   5.344   5.020   1.848
 1510TIP3    H2 4537   5.299   4.892   1.782
 1511TIP3   OH2 4538   2.269   2.925   0.610
 1511TIP3    H1 4539   2.332   2.995   0.593
 1511TIP3    H2 4540   2.313   2.846   0.579
 1512TIP3   OH2 4541   3.368   2.793   0.535
 1512TIP3    H1 4542   3.362   2.787   0.631
 1512TIP3    H2 4543   3.386   2.885   0.518
 1513TIP3   OH2 4544   4.704   1.940   3.349
 1513TIP3    H1 4545   4.704   1.993   3.269
 1513TIP3    H2 4546   4.666   1.857   3.323
 1514TIP3   OH2 4547   5.745   3.708   2.608
 1514TIP3    H1 4548   5.763   3.802   2.610
 1514TIP3    H2 4549   5.831   3.667   2.596
 1515TIP3   OH2 4550   4.559   2.679   4.239
 1515TIP3    H1 4551   4.620   2.679   4.165
 1515TIP3    H2 4552   4.587   2.753   4.293
 1516TIP3   OH2 4553   1.318   5.980   5.067
 1516TIP3    H1 4554   1.233   5.939   5.050
 1516TIP3    H2 4555   1.382   5.915   5.037
 1517TIP3   OH2 4556   5.845   4.502   0.760
 1517TIP3    H1 4557   5.788   4.569   0.797
 1517TIP3    H2 4558   5.785   4.431   0.735
 1518TIP3   OH2 4559   0.733   1.532   1.945
 1518TIP3    H1 4560   0.726   1.620   1.982
 1518TIP3    H2 4561   0.686   1.537   1.861
 1519TIP3   OH2 4562   0.617   3.213   2.795
 1519TIP3    H1 4563   0.644   3.200   2.704
 1519TIP3    H2 4564   0.589   3.126   2.825
 1520TIP3   OH2 4565   0.547   3.098   0.043
 1520TIP3    H1 4566   0.548   3.126   0.135
 1520TIP3    H2 4567   0.638   3.102   0.015
 1521TIP3   OH2 4568   3.969   4.786   3.323
 1521TIP3    H1 4569   4.060   4.763   3.343
 1521TIP3    H2 4570   3.917   4.721   3.370
 1522TIP3   OH2 4571   6.197   5.332   1.386
 1522TIP3    H1 4572   6.254   5.363   1.316
 1522TIP3    H2 4573   6.240   5.252   1.419
 1523TIP3   OH2 4574   6.019   3.236   0.409
 1523TIP3    H1 4575   6.096   3.188   0.439
 1523TIP3    H2 4576   5.946   3.201   0.460
 1524TIP3   OH2 4577   5.146   4.663   4.141
 1524TIP3    H1 4578   5.175   4.749   4.112
 1524TIP3    H2 4579   5.159   4.664   4.236
 1525TIP3   OH2 4580   3.697   4.686   4.456
 1525TIP3    H1 4581   3.672   4.778   4.455
 1525TIP3    H2 4582   3.624   4.640   4.415
 1526TIP3   OH2 4583   1.254   3.447   3.879
 1526TIP3    H1 4584   1.294   3.526   3.841
 1526TIP3    H2 4585   1.206   3.407   3.806
 1527TIP3   OH2 4586   6.231   1.867   2.029
 1527TIP3    H1 4587   6.284   1.937   2.067
 1527TIP3    H2 4588   6.193   1.822   2.105
 1528TIP3   OH2 4589   2.194   4.793   1.097
 1528TIP3    H1 4590   2.133   4.858   1.060
 1528TIP3    H2 4591   2.201   4.818   1.189
 1529TIP3   OH2 4592   5.855   3.788   0.074
 1529TIP3    H1 4593   5.788   3.843   0.116
 1529TIP3    H2 4594   5.842   3.701   0.112
 1530TIP3   OH2 4595   3.979   0.426   4.010
 1530TIP3    H1 4596   3.970   0.331   4.014
 1530TIP3    H2 4597   4.058   0.440   3.956
 1531TIP3   OH2 4598   3.305   5.611   4.847
 1531TIP3    H1 4599   3.230   5.624   4.789
 1531TIP3    H2 4600   3.346   5.531   4.815
 1532TIP3   OH2 4601   2.608   4.689   1.216
 1532TIP3    H1 4602   2.547   4.663   1.147
 1532TIP3    H2 4603   2.651   4.607   1.241
 1533TIP3   OH2 4604   2.212   3.358   4.032
 1533TIP3    H1 4605   2.238   3.281   4.083
 1533TIP3    H2 4606   2.118   3.365   4.044
 1534TIP3   OH2 4607   3.982   5.616   0.314
 1534TIP3    H1 4608   4.074   5.605   0.337
 1534TIP3    H2 4609   3.941   5.656   0.391
 1535TIP3   OH2 4610   2.009   5.371   1.650
 1535TIP3    H1 4611   1.955   5.371   1.571
 1535TIP3    H2 4612   2.099   5.371   1.618
 1536TIP3   OH2 4613   1.803   3.441   0.670
 1536TIP3    H1 4614   1.778   3.364   0.620
 1536TIP3    H2 4615   1.894   3.457   0.646
 1537TIP3   OH2 4616   5.307   4.900   4.928
 1537TIP3    H1 4617   5.360   4.821   4.935
 1537TIP3    H2 4618   5.274   4.915   5.016
 1538TIP3   OH2 4619   2.475   5.862   4.654
 1538TIP3    H1 4620   2.400   5.837   4.601
 1538TIP3    H2 4621   2.544   5.882   4.591
 1539TIP3   OH2 4622   1.563   0.418   3.411
 1539TIP3    H1 4623   1.643   0.446   3.366
 1539TIP3    H2 4624   1.525   0.351   3.354
 1540TIP3   OH2 4625   5.243   2.948   2.940
 1540TIP3    H1 4626   5.157   2.939   2.981
 1540TIP3    H2 4627   5.228   2.929   2.848
 1541TIP3   OH2 4628   0.707   2.631   1.428
 1541TIP3    H1 4629   0.659   2.592   1.355
 1541TIP3    H2 4630   0.761   2.699   1.388
 1542TIP3   OH2 4631   1.762   2.592   2.041
 1542TIP3    H1 4632   1.773   2.498   2.055
 1542TIP3    H2 4633   1.731   2.600   1.951
 1543TIP3   OH2 4634   1.858   2.941   4.669
 1543TIP3    H1 4635   1.901   2.875   4.615
 1543TIP3    H2 4636   1.930   2.985   4.715
 1544TIP3   OH2 4637   5.037   0.180   3.110
 1544TIP3    H1 4638   5.124   0.216   3.128
 1544TIP3    H2 4639   5.027   0.109   3.174
 1545TIP3   OH2 4640   1.631   2.038   4.818
 1545TIP3    H1 4641   1.692   2.018   4.746
 1545TIP3    H2 4642   1.623   1.955   4.866
 1546TIP3   OH2 4643   0.987   1.258   5.036
 1546TIP3    H1 4644   0.988   1.193   5.106
 1546TIP3    H2 4645   0.909   1.311   5.052
 1547TIP3   OH2 4646   4.955   3.018   0.329
 1547TIP3    H1 4647   4.885   2.953   0.323
 1547TIP3    H2 4648   4.955   3.061   0.244
 1548TIP3   OH2 4649   2.287   3.021   3.521
 1548TIP3    H1 4650   2.228   3.096   3.518
 1548TIP3    H2 4651   2.262   2.968   3.446
 1549TIP3   OH2 4652   0.727   2.848   1.898
 1549TIP3    H1 4653   0.639   2.824   1.929
 1549TIP3    H2 4654   0.715   2.863   1.804
 1550TIP3   OH2 4655   3.375   4.178   4.801
 1550TIP3    H1 4656   3.371   4.086   4.825
 1550TIP3    H2 4657   3.375   4.225   4.884
 1551TIP3   OH2 4658   5.222   2.189   0.463
 1551TIP3    H1 4659   5.199   2.177   0.556
 1551TIP3    H2 4660   5.276   2.268   0.461
 1552TIP3   OH2 4661   4.477   3.248   4.432
 1552TIP3    H1 4662   4.570   3.232   4.414
 1552TIP3    H2 4663   4.440   3.161   4.445
 1553TIP3   OH2 4664   0.873   3.292   0.869
 1553TIP3    H1 4665   0.875   3.375   0.822
 1553TIP3    H2 4666   0.889   3.225   0.802
 1554TIP3   OH2 4667   4.247   2.259   1.300
 1554TIP3    H1 4668   4.210   2.170   1.299
 1554TIP3    H2 4669   4.183   2.311   1.349
 1555TIP3   OH2 4670   6.025   3.757   3.538
 1555TIP3    H1 4671   5.973   3.808   3.601
 1555TIP3    H2 4672   6.013   3.666   3.566
 1556TIP3   OH2 4673   3.697   0.433   1.276
 1556TIP3    H1 4674   3.618   0.395   1.316
 1556TIP3    H2 4675   3.726   0.500   1.338
 1557TIP3   OH2 4676   6.232   0.863   1.516
 1557TIP3    H1 4677   6.214   0.952   1.486
 1557TIP3    H2 4678   6.310   0.872   1.570
 1558TIP3   OH2 4679   1.476   0.750   1.216
 1558TIP3    H1 4680   1.446   0.814   1.281
 1558TIP3    H2 4681   1.420   0.765   1.140
 1559TIP3   OH2 4682   2.755   5.902   0.437
 1559TIP3    H1 4683   2.845   5.934   0.428
 1559TIP3    H2 4684   2.758   5.812   0.404
 1560TIP3   OH2 4685   4.818   0.335   2.011
 1560TIP3    H1 4686   4.870   0.270   2.058
 1560TIP3    H2 4687   4.859   0.419   2.032
 1561TIP3   OH2 4688   3.761   2.229   4.669
 1561TIP3    H1 4689   3.727   2.257   4.584
 1561TIP3    H2 4690   3.742   2.302   4.727
 1562TIP3   OH2 4691   5.894   1.113   4.391
 1562TIP3    H1 4692   5.951   1.085   4.462
 1562TIP3    H2 4693   5.906   1.048   4.322
 1563TIP3   OH2 4694   6.182   1.156   1.443
 1563TIP3    H1 4695   6.201   1.215   1.370
 1563TIP3    H2 4696   6.261   1.158   1.497
 1564TIP3   OH2 4697   2.678   1.864   0.282
 1564TIP3    H1 4698   2.696   1.850   0.375
 1564TIP3    H2 4699   2.644   1.780   0.252
 1565TIP3   OH2 4700   5.310   5.719   2.794
 1565TIP3    H1 4701   5.217   5.727   2.772
 1565TIP3    H2 4702   5.342   5.650   2.735
 1566TIP3   OH2 4703   1.055   1.896   2.505
 1566TIP3    H1 4704   0.972   1.855   2.482
 1566TIP3    H2 4705   1.120   1.827   2.493
 1567TIP3   OH2 4706   4.990   6.050   4.646
 1567TIP3    H1 4707   5.030   6.011   4.723
 1567TIP3    H2 4708   4.949   5.977   4.600
 1568TIP3   OH2 4709   0.421   5.814   0.801
 1568TIP3    H1 4710   0.466   5.841   0.881
 1568TIP3    H2 4711   0.443   5.881   0.736
 1569TIP3   OH2 4712   1.962   2.958   3.593
 1569TIP3    H1 4713   1.957   2.999   3.507
 1569TIP3    H2 4714   1.871   2.956   3.624
 1570TIP3   OH2 4715   2.382   0.870   5.094
 1570TIP3    H1 4716   2.411   0.959   5.077
 1570TIP3    H2 4717   2.420   0.848   5.179
 1571TIP3   OH2 4718   4.517   1.147   3.385
 1571TIP3    H1 4719   4.546   1.060   3.411
 1571TIP3    H2 4720   4.433   1.133   3.340
 1572TIP3   OH2 4721   3.893   5.585   2.918
 1572TIP3    H1 4722   3.825   5.518   2.916
 1572TIP3    H2 4723   3.963   5.550   2.862
 1573TIP3   OH2 4724   3.794   3.424   2.554
 1573TIP3    H1 4725   3.885   3.441   2.577
 1573TIP3    H2 4726   3.799   3.372   2.474
 1574TIP3   OH2 4727   0.534   2.875   4.857
 1574TIP3    H1 4728   0.621   2.837   4.845
 1574TIP3    H2 4729   0.495   2.872   4.769
 1575TIP3   OH2 4730   1.574   4.798   1.777
 1575TIP3    H1 4731   1.632   4.856   1.728
 1575TIP3    H2 4732   1.558   4.843   1.860
 1576TIP3   OH2 4733   0.369   1.550   4.852
 1576TIP3    H1 4734   0.401   1.552   4.762
 1576TIP3    H2 4735   0.317   1.629   4.861
 1577TIP3   OH2 4736   4.359   5.894   0.162
 1577TIP3    H1 4737   4.288   5.946   0.126
 1577TIP3    H2 4738   4.394   5.947   0.234
 1578TIP3   OH2 4739   3.099   2.687   2.020
 1578TIP3    H1 4740   3.023   2.730   2.059
 1578TIP3    H2 4741   3.147   2.758   1.977
 1579TIP3   OH2 4742   1.158   3.946   2.860
 1579TIP3    H1 4743   1.203   4.027   2.886
 1579TIP3    H2 4744   1.135   3.904   2.943
 1580TIP3   OH2 4745   4.719   1.005   1.875
 1580TIP3    H1 4746   4.726   0.910   1.873
 1580TIP3    H2 4747   4.691   1.025   1.965
 1581TIP3   OH2 4748   0.295   4.302   2.284
 1581TIP3    H1 4749   0.289   4.206   2.286
 1581TIP3    H2 4750   0.349   4.324   2.359
 1582TIP3   OH2 4751   5.953   5.644   4.357
 1582TIP3    H1 4752   5.911   5.560   4.377
 1582TIP3    H2 4753   6.018   5.656   4.427
 1583TIP3   OH2 4754   5.368   5.256   2.712
 1583TIP3    H1 4755   5.337   5.326   2.654
 1583TIP3    H2 4756   5.328   5.276   2.797
 1584TIP3   OH2 4757   4.338   2.104   5.155
 1584TIP3    H1 4758   4.360   2.197   5.149
 1584TIP3    H2 4759   4.242   2.101   5.152
 1585TIP3   OH2 4760   4.777   5.012   0.448
 1585TIP3    H1 4761   4.688   5.001   0.482
 1585TIP3    H2 4762   4.834   4.995   0.524
 1586TIP3   OH2 4763   6.288   0.987   4.821
 1586TIP3    H1 4764   6.308   0.900   4.855
 1586TIP3    H2 4765   6.242   0.971   4.739
 1587TIP3   OH2 4766   3.280   1.128   3.677
 1587TIP3    H1 4767   3.223   1.192   3.719
 1587TIP3    H2 4768   3.278   1.052   3.736
 1588TIP3   OH2 4769   1.439   0.931   3.778
 1588TIP3    H1 4770   1.485   1.015   3.785
 1588TIP3    H2 4771   1.485   0.873   3.839
 1589TIP3   OH2 4772   5.104   2.526   4.668
 1589TIP3    H1 4773   5.070   2.552   4.754
 1589TIP3    H2 4774   5.190   2.488   4.688
 1590TIP3   OH2 4775   2.424   2.878   5.057
 1590TIP3    H1 4776   2.513   2.843   5.051
 1590TIP3    H2 4777   2.397   2.860   5.147
 1591TIP3   OH2 4778   5.735   2.770   1.382
 1591TIP3    H1 4779   5.737   2.718   1.462
 1591TIP3    H2 4780   5.643   2.797   1.373
 1592TIP3   OH2 4781   4.558   3.966   2.987
 1592TIP3    H1 4782   4.466   3.968   3.015
 1592TIP3    H2 4783   4.554   3.962   2.892
 1593TIP3   OH2 4784   3.711   1.668   2.210
 1593TIP3    H1 4785   3.786   1.682   2.152
 1593TIP3    H2 4786   3.661   1.598   2.168
 1594TIP3   OH2 4787   5.902   4.784   1.828
 1594TIP3    H1 4788   5.907   4.790   1.733
 1594TIP3    H2 4789   5.809   4.769   1.847
 1595TIP3   OH2 4790   0.415   3.110   3.348
 1595TIP3    H1 4791   0.321   3.096   3.362
 1595TIP3    H2 4792   0.422   3.126   3.254
 1596TIP3   OH2 4793   2.960   5.699   0.077
 1596TIP3    H1 4794   2.908   5.657   0.145
 1596TIP3    H2 4795   3.042   5.722   0.120
 1597TIP3   OH2 4796   1.084   0.681   1.951
 1597TIP3    H1 4797   1.122   0.609   2.001
 1597TIP3    H2 4798   1.054   0.641   1.870
 1598TIP3   OH2 4799   4.226   3.376   0.060
 1598TIP3    H1 4800   4.147   3.369   0.005
 1598TIP3    H2 4801   4.247   3.470   0.058
 1599TIP3   OH2 4802   0.392   4.177   4.474
 1599TIP3    H1 4803   0.419   4.251   4.529
 1599TIP3    H2 4804   0.401   4.100   4.531
 1600TIP3   OH2 4805   2.369   1.610   2.775
 1600TIP3    H1 4806   2.368   1.579   2.865
 1600TIP3    H2 4807   2.374   1.531   2.721
 1601TIP3   OH2 4808   4.394   0.111   3.769
 1601TIP3    H1 4809   4.381   0.050   3.842
 1601TIP3    H2 4810   4.366   0.196   3.802
 1602TIP3   OH2 4811   5.334   5.756   1.207
 1602TIP3    H1 4812   5.269   5.819   1.241
 1602TIP3    H2 4813   5.362   5.794   1.124
 1603TIP3   OH2 4814   5.704   2.460   3.976
 1603TIP3    H1 4815   5.648   2.431   4.048
 1603TIP3    H2 4816   5.689   2.396   3.907
 1604TIP3   OH2 4817   2.509   5.975   0.519
 1604TIP3    H1 4818   2.479   6.066   0.524
 1604TIP3    H2 4819   2.591   5.979   0.470
 1605TIP3   OH2 4820   1.464   2.087   5.151
 1605TIP3    H1 4821   1.465   1.998   5.117
 1605TIP3    H2 4822   1.551   2.099   5.190
 1606TIP3   OH2 4823   2.132   5.980   1.010
 1606TIP3    H1 4824   2.062   6.045   1.015
 1606TIP3    H2 4825   2.095   5.909   0.958
 1607TIP3   OH2 4826   2.540   4.035   4.661
 1607TIP3    H1 4827   2.593   3.958   4.678
 1607TIP3    H2 4828   2.524   4.033   4.567
 1608TIP3   OH2 4829   3.551   0.426   0.688
 1608TIP3    H1 4830   3.568   0.364   0.759
 1608TIP3    H2 4831   3.544   0.372   0.610
 1609TIP3   OH2 4832   6.217   4.236   0.233
 1609TIP3    H1 4833   6.169   4.164   0.193
 1609TIP3    H2 4834   6.155   4.274   0.296
 1610TIP3   OH2 4835   5.903   5.376   1.875
 1610TIP3    H1 4836   5.918   5.291   1.918
 1610TIP3    H2 4837   5.987   5.421   1.882
 1611TIP3   OH2 4838   5.578   5.525   2.601
 1611TIP3    H1 4839   5.571   5.616   2.630
 1611TIP3    H2 4840   5.607   5.477   2.678
 1612TIP3   OH2 4841   0.479   5.329   2.469
 1612TIP3    H1 4842   0.430   5.310   2.390
 1612TIP3    H2 4843   0.453   5.261   2.531
 1613TIP3   OH2 4844   0.818   4.107   3.534
 1613TIP3    H1 4845   0.837   4.014   3.539
 1613TIP3    H2 4846   0.785   4.130   3.621
 1614TIP3   OH2 4847   3.788   0.752   0.489
 1614TIP3    H1 4848   3.695   0.757   0.468
 1614TIP3    H2 4849   3.832   0.749   0.404
 1615TIP3   OH2 4850   4.616   2.508   4.743
 1615TIP3    H1 4851   4.545   2.470   4.794
 1615TIP3    H2 4852   4.693   2.498   4.798
 1616TIP3   OH2 4853   0.428   1.120   3.971
 1616TIP3    H1 4854   0.468   1.042   3.931
 1616TIP3    H2 4855   0.340   1.124   3.932
 1617TIP3   OH2 4856   1.518   0.514   4.828
 1617TIP3    H1 4857   1.484   0.451   4.891
 1617TIP3    H2 4858   1.528   0.464   4.747
 1618TIP3   OH2 4859   0.580   5.638   3.350
 1618TIP3    H1 4860   0.515   5.693   3.308
 1618TIP3    H2 4861   0.659   5.692   3.353
 1619TIP3   OH2 4862   3.051   3.802   1.237
 1619TIP3    H1 4863   3.066   3.876   1.178
 1619TIP3    H2 4864   3.012   3.734   1.181
 1620TIP3   OH2 4865   5.735   4.828   2.746
 1620TIP3    H1 4866   5.772   4.781   2.672
 1620TIP3    H2 4867   5.642   4.836   2.726
 1621TIP3   OH2 4868   2.747   0.547   2.295
 1621TIP3    H1 4869   2.725   0.628   2.341
 1621TIP3    H2 4870   2.742   0.571   2.202
 1622TIP3   OH2 4871   4.798   0.984   0.010
 1622TIP3    H1 4872   4.835   0.987   0.098
 1622TIP3    H2 4873   4.705   1.003   0.023
 1623TIP3   OH2 4874   4.480   2.643   5.003
 1623TIP3    H1 4875   4.464   2.732   5.033
 1623TIP3    H2 4876   4.564   2.619   5.044
 1624TIP3   OH2 4877   2.572   4.480   5.072
 1624TIP3    H1 4878   2.662   4.488   5.101
 1624TIP3    H2 4879   2.549   4.566   5.038
 1625TIP3   OH2 4880   0.049   2.391   1.101
 1625TIP3    H1 4881  -0.015   2.354   1.040
 1625TIP3    H2 4882   0.127   2.338   1.088
 1626TIP3   OH2 4883   4.562   5.009   0.870
 1626TIP3    H1 4884   4.640   5.064   0.882
 1626TIP3    H2 4885   4.547   4.970   0.957
 1627TIP3   OH2 4886   1.706   0.705   3.980
 1627TIP3    H1 4887   1.697   0.642   4.052
 1627TIP3    H2 4888   1.772   0.667   3.922
 1628TIP3   OH2 4889   6.305   5.899   0.793
 1628TIP3    H1 4890   6.378   5.837   0.798
 1628TIP3    H2 4891   6.270   5.901   0.882
 1629TIP3   OH2 4892   5.586   5.688   2.100
 1629TIP3    H1 4893   5.609   5.779   2.120
 1629TIP3    H2 4894   5.567   5.648   2.185
 1630TIP3   OH2 4895   2.423   4.604   2.054
 1630TIP3    H1 4896   2.331   4.618   2.031
 1630TIP3    H2 4897   2.429   4.629   2.146
 1631TIP3   OH2 4898   4.591   5.829   3.035
 1631TIP3    H1 4899   4.539   5.776   2.974
 1631TIP3    H2 4900   4.535   5.839   3.112
 1632TIP3   OH2 4901   4.206   0.875   3.062
 1632TIP3    H1 4902   4.157   0.794   3.050
 1632TIP3    H2 4903   4.177   0.931   2.990
 1633TIP3   OH2 4904   5.528   5.241   3.095
 1633TIP3    H1 4905   5.466   5.313   3.081
 1633TIP3    H2 4906   5.580   5.269   3.170
 1634TIP3   OH2 4907   0.709   1.921   1.802
 1634TIP3    H1 4908   0.782   1.930   1.741
 1634TIP3    H2 4909   0.733   1.974   1.877
 1635TIP3   OH2 4910   0.152   0.373   3.901
 1635TIP3    H1 4911   0.224   0.326   3.943
 1635TIP3    H2 4912   0.078   0.313   3.905
 1636TIP3   OH2 4913   2.660   4.655   3.280
 1636TIP3    H1 4914   2.686   4.737   3.240
 1636TIP3    H2 4915   2.613   4.680   3.360
 1637TIP3   OH2 4916   3.857   1.468   2.992
 1637TIP3    H1 4917   3.925   1.486   3.056
 1637TIP3    H2 4918   3.789   1.423   3.041
 1638TIP3   OH2 4919   5.188   4.397   4.230
 1638TIP3    H1 4920   5.131   4.361   4.299
 1638TIP3    H2 4921   5.139   4.471   4.195
 1639TIP3   OH2 4922   4.955   3.049   2.612
 1639TIP3    H1 4923   4.890   3.066   2.681
 1639TIP3    H2 4924   4.925   3.103   2.538
 1640TIP3   OH2 4925   2.947   2.327   4.181
 1640TIP3    H1 4926   2.914   2.384   4.251
 1640TIP3    H2 4927   2.913   2.367   4.100
 1641TIP3   OH2 4928   1.169   5.011   1.221
 1641TIP3    H1 4929   1.231   5.035   1.152
 1641TIP3    H2 4930   1.219   5.015   1.302
 1642TIP3   OH2 4931   5.498   3.831   0.607
 1642TIP3    H1 4932   5.577   3.799   0.563
 1642TIP3    H2 4933   5.449   3.877   0.539
 1643TIP3   OH2 4934   1.175   0.770   4.351
 1643TIP3    H1 4935   1.105   0.762   4.415
 1643TIP3    H2 4936   1.223   0.849   4.378
 1644TIP3   OH2 4937   1.961   5.292   2.754
 1644TIP3    H1 4938   1.951   5.277   2.660
 1644TIP3    H2 4939   2.049   5.329   2.763
 1645TIP3   OH2 4940   0.360   4.073   3.517
 1645TIP3    H1 4941   0.325   4.098   3.431
 1645TIP3    H2 4942   0.434   4.133   3.531
 1646TIP3   OH2 4943   0.773   3.720   0.982
 1646TIP3    H1 4944   0.858   3.678   0.998
 1646TIP3    H2 4945   0.784   3.764   0.898
 1647TIP3   OH2 4946   3.815   2.442   5.214
 1647TIP3    H1 4947   3.741   2.428   5.273
 1647TIP3    H2 4948   3.826   2.358   5.169
 1648TIP3   OH2 4949   4.518   4.472   0.359
 1648TIP3    H1 4950   4.585   4.491   0.424
 1648TIP3    H2 4951   4.532   4.535   0.289
 1649TIP3   OH2 4952   0.207   3.778   2.885
 1649TIP3    H1 4953   0.258   3.755   2.807
 1649TIP3    H2 4954   0.128   3.724   2.878
 1650TIP3   OH2 4955   5.657   5.759   5.113
 1650TIP3    H1 4956   5.607   5.834   5.145
 1650TIP3    H2 4957   5.685   5.785   5.025
 1651TIP3   OH2 4958   2.633   2.702   2.485
 1651TIP3    H1 4959   2.700   2.730   2.547
 1651TIP3    H2 4960   2.669   2.621   2.447
 1652TIP3   OH2 4961   5.404   0.008   0.277
 1652TIP3    H1 4962   5.384   0.034   0.367
 1652TIP3    H2 4963   5.422   0.091   0.232
 1653TIP3   OH2 4964   5.126   5.923   4.212
 1653TIP3    H1 4965   5.157   5.992   4.153
 1653TIP3    H2 4966   5.041   5.899   4.176
 1654TIP3   OH2 4967   6.162   0.980   0.510
 1654TIP3    H1 4968   6.080   1.029   0.513
 1654TIP3    H2 4969   6.147   0.912   0.444
 1655TIP3   OH2 4970   4.156   1.478   3.598
 1655TIP3    H1 4971   4.173   1.407   3.660
 1655TIP3    H2 4972   4.068   1.509   3.620
 1656TIP3   OH2 4973   4.130   3.277   5.016
 1656TIP3    H1 4974   4.078   3.342   5.063
 1656TIP3    H2 4975   4.129   3.306   4.925
 1657TIP3   OH2 4976   4.745   1.154   1.383
 1657TIP3    H1 4977   4.676   1.102   1.424
 1657TIP3    H2 4978   4.704   1.238   1.363
 1658TIP3   OH2 4979   3.778   4.635   3.204
 1658TIP3    H1 4980   3.835   4.711   3.220
 1658TIP3    H2 4981   3.811   4.568   3.264
 1659TIP3   OH2 4982   3.358   5.036   2.934
 1659TIP3    H1 4983   3.334   5.055   3.025
 1659TIP3    H2 4984   3.292   4.972   2.905
 1660TIP3   OH2 4985   3.431   4.167   1.189
 1660TIP3    H1 4986   3.406   4.256   1.211
 1660TIP3    H2 4987   3.527   4.167   1.192
 1661TIP3   OH2 4988   1.011   1.936   1.834
 1661TIP3    H1 4989   1.105   1.941   1.819
 1661TIP3    H2 4990   0.977   2.020   1.804
 1662TIP3   OH2 4991   1.899   1.587   4.422
 1662TIP3    H1 4992   1.817   1.626   4.454
 1662TIP3    H2 4993   1.891   1.588   4.327
 1663TIP3   OH2 4994   5.487   1.253   4.320
 1663TIP3    H1 4995   5.509   1.343   4.298
 1663TIP3    H2 4996   5.426   1.226   4.251
 1664TIP3   OH2 4997   1.759   5.305   3.894
 1664TIP3    H1 4998   1.809   5.258   3.961
 1664TIP3    H2 4999   1.820   5.368   3.857
 1665TIP3   OH2 5000   6.133   1.220   4.075
 1665TIP3    H1 5001   6.124   1.138   4.122
 1665TIP3    H2 5002   6.199   1.269   4.124
 1666TIP3   OH2 5003   4.434   3.193   3.421
 1666TIP3    H1 5004   4.350   3.239   3.424
 1666TIP3    H2 5005   4.495   3.259   3.389
 1667TIP3   OH2 5006   4.668   4.055   2.669
 1667TIP3    H1 5007   4.743   3.999   2.688
 1667TIP3    H2 5008   4.596   3.994   2.654
 1668TIP3   OH2 5009   4.384   0.692   1.964
 1668TIP3    H1 5010   4.360   0.781   1.992
 1668TIP3    H2 5011   4.418   0.650   2.043
 1669TIP3   OH2 5012   5.711   5.159   4.469
 1669TIP3    H1 5013   5.664   5.098   4.412
 1669TIP3    H2 5014   5.803   5.150   4.443
 1670TIP3   OH2 5015   1.488   0.574   4.132
 1670TIP3    H1 5016   1.435   0.640   4.087
 1670TIP3    H2 5017   1.433   0.546   4.205
 1671TIP3   OH2 5018   1.173   4.780   3.390
 1671TIP3    H1 5019   1.119   4.858   3.381
 1671TIP3    H2 5020   1.152   4.747   3.477
 1672TIP3   OH2 5021   6.040   2.391   3.941
 1672TIP3    H1 5022   6.033   2.379   4.036
 1672TIP3    H2 5023   5.981   2.464   3.923
 1673TIP3   OH2 5024   1.749   3.121   4.483
 1673TIP3    H1 5025   1.810   3.067   4.534
 1673TIP3    H2 5026   1.675   3.063   4.465
 1674TIP3   OH2 5027   1.386   1.922  -0.018
 1674TIP3    H1 5028   1.451   1.992  -0.014
 1674TIP3    H2 5029   1.305   1.967  -0.043
 1675TIP3   OH2 5030   6.300   0.970   3.906
 1675TIP3    H1 5031   6.299   0.903   3.838
 1675TIP3    H2 5032   6.310   1.052   3.858
 1676TIP3   OH2 5033   2.583   3.127   1.234
 1676TIP3    H1 5034   2.579   3.158   1.143
 1676TIP3    H2 5035   2.559   3.035   1.229
 1677TIP3   OH2 5036   3.399   3.496   3.158
 1677TIP3    H1 5037   3.455   3.476   3.233
 1677TIP3    H2 5038   3.371   3.410   3.125
 1678TIP3   OH2 5039   4.347   0.135   2.906
 1678TIP3    H1 5040   4.405   0.199   2.863
 1678TIP3    H2 5041   4.395   0.053   2.903
 1679TIP3   OH2 5042   4.680   0.769   1.347
 1679TIP3    H1 5043   4.634   0.837   1.396
 1679TIP3    H2 5044   4.610   0.719   1.304
 1680TIP3   OH2 5045   4.717   3.150   2.720
 1680TIP3    H1 5046   4.678   3.146   2.807
 1680TIP3    H2 5047   4.652   3.194   2.666
 1681TIP3   OH2 5048   3.289   5.342   1.693
 1681TIP3    H1 5049   3.360   5.398   1.663
 1681TIP3    H2 5050   3.308   5.326   1.785
 1682TIP3   OH2 5051   5.024   3.888   1.441
 1682TIP3    H1 5052   4.976   3.823   1.390
 1682TIP3    H2 5053   5.018   3.857   1.532
 1683TIP3   OH2 5054   1.173   2.799   2.127
 1683TIP3    H1 5055   1.268   2.803   2.135
 1683TIP3    H2 5056   1.141   2.870   2.183
 1684TIP3   OH2 5057   2.358   0.947   4.392
 1684TIP3    H1 5058   2.275   0.936   4.344
 1684TIP3    H2 5059   2.416   0.989   4.329
 1685TIP3   OH2 5060   5.447   4.524   3.413
 1685TIP3    H1 5061   5.361   4.565   3.405
 1685TIP3    H2 5062   5.508   4.587   3.376
 1686TIP3   OH2 5063   2.890   3.457   0.059
 1686TIP3    H1 5064   2.949   3.483   0.130
 1686TIP3    H2 5065   2.816   3.416   0.103
 1687TIP3   OH2 5066   1.869   1.047   4.876
 1687TIP3    H1 5067   1.857   0.964   4.830
 1687TIP3    H2 5068   1.872   1.023   4.969
 1688TIP3   OH2 5069   0.546   3.686   3.507
 1688TIP3    H1 5070   0.476   3.750   3.512
 1688TIP3    H2 5071   0.588   3.702   3.423
 1689TIP3   OH2 5072  -0.001   1.290   2.661
 1689TIP3    H1 5073   0.037   1.228   2.598
 1689TIP3    H2 5074  -0.048   1.353   2.606
 1690TIP3   OH2 5075   5.579   0.981   4.288
 1690TIP3    H1 5076   5.666   1.010   4.316
 1690TIP3    H2 5077   5.524   1.059   4.295
 1691TIP3   OH2 5078   2.705   2.531   4.897
 1691TIP3    H1 5079   2.612   2.515   4.913
 1691TIP3    H2 5080   2.709   2.623   4.869
 1692TIP3   OH2 5081   2.757   5.850   1.946
 1692TIP3    H1 5082   2.777   5.907   1.872
 1692TIP3    H2 5083   2.797   5.766   1.922
 1693TIP3   OH2 5084   1.650   3.385   1.426
 1693TIP3    H1 5085   1.619   3.304   1.467
 1693TIP3    H2 5086   1.745   3.374   1.419
 1694TIP3   OH2 5087   4.375   2.490   2.326
 1694TIP3    H1 5088   4.353   2.543   2.249
 1694TIP3    H2 5089   4.325   2.528   2.397
 1695TIP3   OH2 5090   3.859   0.404   3.099
 1695TIP3    H1 5091   3.925   0.369   3.039
 1695TIP3    H2 5092   3.785   0.426   3.042
 1696TIP3   OH2 5093   3.467   3.017   1.573
 1696TIP3    H1 5094   3.535   3.080   1.549
 1696TIP3    H2 5095   3.477   3.006   1.668
 1697TIP3   OH2 5096   1.782   1.201   2.716
 1697TIP3    H1 5097   1.709   1.262   2.708
 1697TIP3    H2 5098   1.795   1.167   2.627
 1698TIP3   OH2 5099   3.740   3.840   3.674
 1698TIP3    H1 5100   3.759   3.769   3.735
 1698TIP3    H2 5101   3.665   3.886   3.713
 1699TIP3   OH2 5102   6.313   4.367   2.941
 1699TIP3    H1 5103   6.405   4.392   2.953
 1699TIP3    H2 5104   6.276   4.435   2.886
 1700TIP3   OH2 5105   4.237   1.101   3.630
 1700TIP3    H1 5106   4.178   1.097   3.705
 1700TIP3    H2 5107   4.197   1.042   3.566
 1701TIP3   OH2 5108   1.901   0.893   0.498
 1701TIP3    H1 5109   1.872   0.821   0.441
 1701TIP3    H2 5110   1.841   0.890   0.572
 1702TIP3   OH2 5111   2.977   5.054   4.787
 1702TIP3    H1 5112   2.952   5.146   4.794
 1702TIP3    H2 5113   3.072   5.054   4.794
 1703TIP3   OH2 5114   1.038   5.649   0.077
 1703TIP3    H1 5115   1.092   5.682   0.149
 1703TIP3    H2 5116   1.100   5.632   0.006
 1704TIP3   OH2 5117   2.972   5.686   0.627
 1704TIP3    H1 5118   3.019   5.646   0.700
 1704TIP3    H2 5119   3.002   5.777   0.626
 1705TIP3   OH2 5120   1.446   2.226   0.143
 1705TIP3    H1 5121   1.400   2.235   0.226
 1705TIP3    H2 5122   1.512   2.295   0.143
 1706TIP3   OH2 5123   0.283   0.484   2.926
 1706TIP3    H1 5124   0.336   0.405   2.931
 1706TIP3    H2 5125   0.198   0.454   2.893
 1707TIP3   OH2 5126   0.151   4.302   1.187
 1707TIP3    H1 5127   0.113   4.284   1.100
 1707TIP3    H2 5128   0.179   4.216   1.219
 1708TIP3   OH2 5129   0.136   0.758   0.494
 1708TIP3    H1 5130   0.184   0.687   0.451
 1708TIP3    H2 5131   0.068   0.713   0.544
 1709TIP3   OH2 5132   3.271   5.867   4.957
 1709TIP3    H1 5133   3.230   5.893   4.875
 1709TIP3    H2 5134   3.295   5.775   4.944
 1710TIP3   OH2 5135   5.445   5.889   3.324
 1710TIP3    H1 5136   5.370   5.831   3.340
 1710TIP3    H2 5137   5.435   5.917   3.233
 1711TIP3   OH2 5138   2.180   0.017   3.082
 1711TIP3    H1 5139   2.156   0.012   3.174
 1711TIP3    H2 5140   2.158  -0.069   3.047
 1712TIP3   OH2 5141   0.286   0.026   1.882
 1712TIP3    H1 5142   0.363  -0.005   1.930
 1712TIP3    H2 5143   0.305   0.118   1.864
 1713TIP3   OH2 5144   4.688   3.567   2.321
 1713TIP3    H1 5145   4.677   3.648   2.370
 1713TIP3    H2 5146   4.699   3.596   2.230
 1714TIP3   OH2 5147   5.694   1.191   4.100
 1714TIP3    H1 5148   5.632   1.199   4.027
 1714TIP3    H2 5149   5.695   1.277   4.141
 1715TIP3   OH2 5150   6.325   4.945   2.293
 1715TIP3    H1 5151   6.249   4.925   2.348
 1715TIP3    H2 5152   6.294   5.010   2.231
 1716TIP3   OH2 5153   3.029   5.821   4.356
 1716TIP3    H1 5154   2.959   5.866   4.308
 1716TIP3    H2 5155   3.075   5.891   4.402
 1717TIP3   OH2 5156   1.913   5.794   1.545
 1717TIP3    H1 5157   1.931   5.726   1.610
 1717TIP3    H2 5158   1.981   5.782   1.479
 1718TIP3   OH2 5159   2.450   0.455   1.449
 1718TIP3    H1 5160   2.394   0.405   1.389
 1718TIP3    H2 5161   2.454   0.542   1.410
 1719TIP3   OH2 5162   5.443   1.861   0.769
 1719TIP3    H1 5163   5.421   1.838   0.678
 1719TIP3    H2 5164   5.403   1.792   0.821
 1720TIP3   OH2 5165   3.467   4.874   4.907
 1720TIP3    H1 5166   3.478   4.904   4.997
 1720TIP3    H2 5167   3.372   4.875   4.893
 1721TIP3   OH2 5168   0.247   4.596   1.685
 1721TIP3    H1 5169   0.157   4.566   1.676
 1721TIP3    H2 5170   0.299   4.516   1.689
 1722TIP3   OH2 5171   3.868   2.629   0.231
 1722TIP3    H1 5172   3.866   2.693   0.302
 1722TIP3    H2 5173   3.849   2.545   0.273
 1723TIP3   OH2 5174   1.146   2.301   0.961
 1723TIP3    H1 5175   1.130   2.363   1.033
 1723TIP3    H2 5176   1.086   2.329   0.892
 1724TIP3   OH2 5177   2.205   0.951   2.145
 1724TIP3    H1 5178   2.216   0.939   2.239
 1724TIP3    H2 5179   2.112   0.933   2.129
 1725TIP3   OH2 5180   3.012   2.669   4.649
 1725TIP3    H1 5181   3.074   2.742   4.648
 1725TIP3    H2 5182   3.023   2.628   4.563
 1726TIP3   OH2 5183   4.152   0.461   1.044
 1726TIP3    H1 5184   4.094   0.446   0.969
 1726TIP3    H2 5185   4.101   0.431   1.120
 1727TIP3   OH2 5186   5.642   5.928   0.616
 1727TIP3    H1 5187   5.684   5.884   0.691
 1727TIP3    H2 5188   5.683   6.014   0.614
 1728TIP3   OH2 5189   1.046   5.820   4.102
 1728TIP3    H1 5190   1.033   5.850   4.192
 1728TIP3    H2 5191   1.109   5.881   4.065
 1729TIP3   OH2 5192   4.034   3.309   3.071
 1729TIP3    H1 5193   4.118   3.334   3.032
 1729TIP3    H2 5194   3.972   3.318   2.999
 1730TIP3   OH2 5195   0.734   3.028   2.219
 1730TIP3    H1 5196   0.672   3.059   2.153
 1730TIP3    H2 5197   0.807   2.993   2.169
 1731TIP3   OH2 5198   1.750   0.923   3.759
 1731TIP3    H1 5199   1.839   0.917   3.726
 1731TIP3    H2 5200   1.737   0.842   3.809
 1732TIP3   OH2 5201   0.896   4.739   0.994
 1732TIP3    H1 5202   0.916   4.832   0.985
 1732TIP3    H2 5203   0.930   4.715   1.080
 1733TIP3   OH2 5204   4.352   0.275   1.294
 1733TIP3    H1 5205   4.365   0.296   1.386
 1733TIP3    H2 5206   4.316   0.187   1.293
 1734TIP3   OH2 5207   1.299   2.936   3.573
 1734TIP3    H1 5208   1.315   2.957   3.481
 1734TIP3    H2 5209   1.347   2.854   3.587
 1735TIP3   OH2 5210   0.202   4.993   3.047
 1735TIP3    H1 5211   0.239   4.914   3.009
 1735TIP3    H2 5212   0.273   5.029   3.101
 1736TIP3   OH2 5213   0.948   2.552   4.941
 1736TIP3    H1 5214   0.898   2.627   4.909
 1736TIP3    H2 5215   1.028   2.590   4.977
 1737TIP3   OH2 5216   1.947   0.406   3.511
 1737TIP3    H1 5217   1.885   0.414   3.439
 1737TIP3    H2 5218   2.027   0.374   3.470
 1738TIP3   OH2 5219   2.870   4.036   2.669
 1738TIP3    H1 5220   2.875   3.947   2.703
 1738TIP3    H2 5221   2.779   4.063   2.685
 1739TIP3   OH2 5222   1.349   5.574   0.895
 1739TIP3    H1 5223   1.371   5.598   0.805
 1739TIP3    H2 5224   1.291   5.499   0.886
 1740TIP3   OH2 5225   4.511   3.346   1.663
 1740TIP3    H1 5226   4.498   3.294   1.743
 1740TIP3    H2 5227   4.566   3.291   1.608
 1741TIP3   OH2 5228   3.879   4.997   2.746
 1741TIP3    H1 5229   3.932   4.924   2.714
 1741TIP3    H2 5230   3.795   4.988   2.700
 1742TIP3   OH2 5231   2.641   1.368   3.165
 1742TIP3    H1 5232   2.606   1.322   3.242
 1742TIP3    H2 5233   2.612   1.315   3.091
 1743TIP3   OH2 5234   5.933   5.324   3.111
 1743TIP3    H1 5235   5.841   5.331   3.134
 1743TIP3    H2 5236   5.971   5.269   3.179
 1744TIP3   OH2 5237   3.689   5.611   2.395
 1744TIP3    H1 5238   3.600   5.598   2.429
 1744TIP3    H2 5239   3.738   5.644   2.470
 1745TIP3   OH2 5240   6.108   2.590   4.500
 1745TIP3    H1 5241   6.051   2.621   4.570
 1745TIP3    H2 5242   6.106   2.659   4.434
 1746TIP3   OH2 5243   4.359   4.695   3.619
 1746TIP3    H1 5244   4.328   4.613   3.659
 1746TIP3    H2 5245   4.367   4.756   3.693
 1747TIP3   OH2 5246   1.292   1.269   5.092
 1747TIP3    H1 5247   1.301   1.218   5.012
 1747TIP3    H2 5248   1.198   1.285   5.100
 1748TIP3   OH2 5249   1.522   0.880   4.043
 1748TIP3    H1 5250   1.447   0.821   4.044
 1748TIP3    H2 5251   1.598   0.822   4.038
 1749TIP3   OH2 5252   0.490   1.880   0.084
 1749TIP3    H1 5253   0.555   1.873   0.014
 1749TIP3    H2 5254   0.489   1.973   0.107
 1750TIP3   OH2 5255   2.143   2.739   2.375
 1750TIP3    H1 5256   2.124   2.733   2.468
 1750TIP3    H2 5257   2.065   2.705   2.332
 1751TIP3   OH2 5258   0.312   1.380   2.843
 1751TIP3    H1 5259   0.260   1.306   2.874
 1751TIP3    H2 5260   0.339   1.354   2.755
 1752TIP3   OH2 5261   6.093   5.808   3.842
 1752TIP3    H1 5262   6.121   5.848   3.924
 1752TIP3    H2 5263   5.998   5.824   3.839
 1753TIP3   OH2 5264   0.430   1.070   4.992
 1753TIP3    H1 5265   0.523   1.047   4.997
 1753TIP3    H2 5266   0.390   1.023   5.065
 1754TIP3   OH2 5267   4.704   0.326   3.872
 1754TIP3    H1 5268   4.667   0.238   3.866
 1754TIP3    H2 5269   4.709   0.343   3.966
 1755TIP3   OH2 5270   0.818   3.441   3.755
 1755TIP3    H1 5271   0.890   3.446   3.693
 1755TIP3    H2 5272   0.753   3.385   3.713
 1756TIP3   OH2 5273   1.792   5.689   2.475
 1756TIP3    H1 5274   1.841   5.730   2.546
 1756TIP3    H2 5275   1.761   5.606   2.513
 1757TIP3   OH2 5276   4.806   3.432   1.502
 1757TIP3    H1 5277   4.870   3.455   1.569
 1757TIP3    H2 5278   4.858   3.408   1.426
 1758TIP3   OH2 5279   0.617   5.778   2.247
 1758TIP3    H1 5280   0.605   5.826   2.165
 1758TIP3    H2 5281   0.600   5.687   2.225
 1759TIP3   OH2 5282   6.187   3.900   3.911
 1759TIP3    H1 5283   6.139   3.821   3.935
 1759TIP3    H2 5284   6.171   3.961   3.983
 1760TIP3   OH2 5285   5.890   5.286   3.463
 1760TIP3    H1 5286   5.974   5.246   3.441
 1760TIP3    H2 5287   5.902   5.319   3.552
 1761TIP3   OH2 5288   1.321   3.458   5.064
 1761TIP3    H1 5289   1.346   3.467   4.972
 1761TIP3    H2 5290   1.401   3.477   5.113
 1762TIP3   OH2 5291   1.239   4.558   2.902
 1762TIP3    H1 5292   1.292   4.609   2.963
 1762TIP3    H2 5293   1.280   4.573   2.817
 1763TIP3   OH2 5294   0.571   4.903   3.956
 1763TIP3    H1 5295   0.583   4.915   4.050
 1763TIP3    H2 5296   0.505   4.834   3.949
 1764TIP3   OH2 5297   3.717   3.785   1.776
 1764TIP3    H1 5298   3.802   3.787   1.731
 1764TIP3    H2 5299   3.678   3.702   1.750
 1765TIP3   OH2 5300   4.379   4.876   1.777
 1765TIP3    H1 5301   4.454   4.859   1.720
 1765TIP3    H2 5302   4.376   4.800   1.835
 1766TIP3   OH2 5303   2.231   3.983   1.834
 1766TIP3    H1 5304   2.310   4.004   1.785
 1766TIP3    H2 5305   2.234   4.042   1.910
 1767TIP3   OH2 5306   3.634   2.467   3.530
 1767TIP3    H1 5307   3.692   2.543   3.534
 1767TIP3    H2 5308   3.554   2.495   3.575
 1768TIP3   OH2 5309   5.106   4.692   5.195
 1768TIP3    H1 5310   5.072   4.780   5.178
 1768TIP3    H2 5311   5.092   4.645   5.113
 1769TIP3   OH2 5312   2.437   2.171   3.773
 1769TIP3    H1 5313   2.402   2.095   3.727
 1769TIP3    H2 5314   2.487   2.135   3.846
 1770TIP3   OH2 5315   1.970   1.853   3.164
 1770TIP3    H1 5316   1.980   1.802   3.244
 1770TIP3    H2 5317   1.990   1.791   3.093
 1771TIP3   OH2 5318   6.052   5.191   0.357
 1771TIP3    H1 5319   6.066   5.286   0.360
 1771TIP3    H2 5320   5.962   5.181   0.326
 1772TIP3   OH2 5321   4.915   5.598   2.034
 1772TIP3    H1 5322   4.922   5.503   2.024
 1772TIP3    H2 5323   5.003   5.626   2.059
 1773TIP3   OH2 5324   5.835   4.432   2.698
 1773TIP3    H1 5325   5.885   4.356   2.668
 1773TIP3    H2 5326   5.747   4.399   2.714
 1774TIP3   OH2 5327   5.854   2.870   4.486
 1774TIP3    H1 5328   5.919   2.820   4.536
 1774TIP3    H2 5329   5.778   2.875   4.544
 1775TIP3   OH2 5330   5.429   2.301   4.111
 1775TIP3    H1 5331   5.344   2.257   4.104
 1775TIP3    H2 5332   5.493   2.231   4.121
 1776TIP3   OH2 5333   4.738   4.306   0.002
 1776TIP3    H1 5334   4.824   4.274  -0.027
 1776TIP3    H2 5335   4.676   4.265  -0.059
 1777TIP3   OH2 5336   1.520   5.457   0.284
 1777TIP3    H1 5337   1.605   5.442   0.324
 1777TIP3    H2 5338   1.511   5.388   0.219
 1778TIP3   OH2 5339   5.738   3.631   1.689
 1778TIP3    H1 5340   5.740   3.597   1.599
 1778TIP3    H2 5341   5.821   3.602   1.727
 1779TIP3   OH2 5342   1.523   3.453   1.706
 1779TIP3    H1 5343   1.581   3.476   1.633
 1779TIP3    H2 5344   1.435   3.472   1.674
 1780TIP3   OH2 5345   4.335   0.170   0.533
 1780TIP3    H1 5346   4.379   0.182   0.449
 1780TIP3    H2 5347   4.327   0.258   0.569
 1781TIP3   OH2 5348   4.780   3.672   1.815
 1781TIP3    H1 5349   4.752   3.703   1.728
 1781TIP3    H2 5350   4.875   3.670   1.810
 1782TIP3   OH2 5351   4.433   3.832   4.998
 1782TIP3    H1 5352   4.343   3.805   5.012
 1782TIP3    H2 5353   4.448   3.819   4.904
 1783TIP3   OH2 5354   0.842   3.935   5.102
 1783TIP3    H1 5355   0.902   3.868   5.069
 1783TIP3    H2 5356   0.807   3.898   5.183
 1784TIP3   OH2 5357   0.876   3.209   1.875
 1784TIP3    H1 5358   0.805   3.188   1.935
 1784TIP3    H2 5359   0.842   3.188   1.788
 1785TIP3   OH2 5360   0.418   3.998   4.712
 1785TIP3    H1 5361   0.405   3.907   4.735
 1785TIP3    H2 5362   0.450   4.040   4.792
 1786TIP3   OH2 5363   4.374   4.310  -0.052
 1786TIP3    H1 5364   4.401   4.320   0.039
 1786TIP3    H2 5365   4.301   4.371  -0.062
 1787TIP3   OH2 5366   2.353   3.146   0.193
 1787TIP3    H1 5367   2.341   3.061   0.234
 1787TIP3    H2 5368   2.447   3.162   0.198
 1788TIP3   OH2 5369   3.182   2.904   3.520
 1788TIP3    H1 5370   3.233   2.984   3.534
 1788TIP3    H2 5371   3.198   2.852   3.599
 1789TIP3   OH2 5372   3.377   5.349   1.937
 1789TIP3    H1 5373   3.359   5.311   2.024
 1789TIP3    H2 5374   3.437   5.421   1.955
 1790TIP3   OH2 5375   0.202   4.157   2.578
 1790TIP3    H1 5376   0.164   4.103   2.508
 1790TIP3    H2 5377   0.293   4.129   2.583
 1791TIP3   OH2 5378   0.925   2.138   3.110
 1791TIP3    H1 5379   0.840   2.118   3.073
 1791TIP3    H2 5380   0.955   2.216   3.063
 1792TIP3   OH2 5381   4.765   4.886   1.274
 1792TIP3    H1 5382   4.797   4.899   1.363
 1792TIP3    H2 5383   4.841   4.905   1.218
 1793TIP3   OH2 5384   2.141   5.162   4.310
 1793TIP3    H1 5385   2.115   5.253   4.326
 1793TIP3    H2 5386   2.188   5.137   4.390
 1794TIP3   OH2 5387   4.285   4.208   3.835
 1794TIP3    H1 5388   4.295   4.166   3.750
 1794TIP3    H2 5389   4.206   4.169   3.872
 1795TIP3   OH2 5390   5.686   1.210   2.426
 1795TIP3    H1 5391   5.765   1.228   2.375
 1795TIP3    H2 5392   5.616   1.204   2.361
 1796TIP3   OH2 5393   3.118   4.471   3.251
 1796TIP3    H1 5394   3.099   4.548   3.198
 1796TIP3    H2 5395   3.056   4.476   3.324
 1797TIP3   OH2 5396   1.723   1.664   1.655
 1797TIP3    H1 5397   1.740   1.585   1.604
 1797TIP3    H2 5398   1.776   1.653   1.734
 1798TIP3   OH2 5399   6.011   0.173   4.058
 1798TIP3    H1 5400   6.095   0.181   4.012
 1798TIP3    H2 5401   6.031   0.198   4.148
 1799TIP3   OH2 5402   3.982   0.734   4.971
 1799TIP3    H1 5403   3.964   0.655   4.920
 1799TIP3    H2 5404   4.016   0.797   4.907
 1800TIP3   OH2 5405   2.431   3.928   3.081
 1800TIP3    H1 5406   2.358   3.988   3.098
 1800TIP3    H2 5407   2.389   3.843   3.067
 1801TIP3   OH2 5408   3.775   4.246   4.217
 1801TIP3    H1 5409   3.744   4.169   4.169
 1801TIP3    H2 5410   3.707   4.263   4.282
 1802TIP3   OH2 5411   0.473   1.425   1.884
 1802TIP3    H1 5412   0.503   1.472   1.806
 1802TIP3    H2 5413   0.524   1.344   1.884
 1803TIP3   OH2 5414   0.208   0.090   3.807
 1803TIP3    H1 5415   0.214   0.066   3.900
 1803TIP3    H2 5416   0.148   0.164   3.805
 1804TIP3   OH2 5417   5.327   0.137   3.098
 1804TIP3    H1 5418   5.375   0.218   3.084
 1804TIP3    H2 5419   5.303   0.107   3.010
 1805TIP3   OH2 5420   0.152   4.384   4.423
 1805TIP3    H1 5421   0.119   4.337   4.499
 1805TIP3    H2 5422   0.229   4.334   4.396
 1806TIP3   OH2 5423   1.123   2.233   3.879
 1806TIP3    H1 5424   1.055   2.300   3.877
 1806TIP3    H2 5425   1.193   2.268   3.825
 1807TIP3   OH2 5426   6.142   4.866   0.075
 1807TIP3    H1 5427   6.047   4.857   0.063
 1807TIP3    H2 5428   6.156   4.960   0.085
 1808TIP3   OH2 5429   2.119   0.799   0.648
 1808TIP3    H1 5430   2.029   0.791   0.617
 1808TIP3    H2 5431   2.155   0.873   0.599
 1809TIP3   OH2 5432   1.434   1.974   4.011
 1809TIP3    H1 5433   1.388   2.044   4.057
 1809TIP3    H2 5434   1.428   1.998   3.919
 1810TIP3   OH2 5435   2.761   2.624   0.941
 1810TIP3    H1 5436   2.839   2.619   0.886
 1810TIP3    H2 5437   2.766   2.710   0.982
 1811TIP3   OH2 5438   5.817   1.435   3.008
 1811TIP3    H1 5439   5.892   1.382   2.980
 1811TIP3    H2 5440   5.798   1.491   2.933
 1812TIP3   OH2 5441   3.708   3.299   4.371
 1812TIP3    H1 5442   3.771   3.313   4.442
 1812TIP3    H2 5443   3.641   3.366   4.385
 1813TIP3   OH2 5444   4.260   1.424   4.197
 1813TIP3    H1 5445   4.257   1.347   4.140
 1813TIP3    H2 5446   4.255   1.498   4.137
 1814TIP3   OH2 5447   3.477   2.145   0.425
 1814TIP3    H1 5448   3.545   2.196   0.467
 1814TIP3    H2 5449   3.418   2.209   0.385
 1815TIP3   OH2 5450   4.921   0.438   5.051
 1815TIP3    H1 5451   4.863   0.430   4.975
 1815TIP3    H2 5452   5.008   0.450   5.013
 1816TIP3   OH2 5453   5.785   2.532   2.467
 1816TIP3    H1 5454   5.748   2.453   2.505
 1816TIP3    H2 5455   5.878   2.527   2.486
 1817TIP3   OH2 5456   3.063   2.605   3.256
 1817TIP3    H1 5457   3.022   2.615   3.343
 1817TIP3    H2 5458   3.099   2.517   3.258
 1818TIP3   OH2 5459   3.984   4.442   2.046
 1818TIP3    H1 5460   4.073   4.426   2.074
 1818TIP3    H2 5461   3.987   4.529   2.006
 1819TIP3   OH2 5462   1.383   1.934   2.498
 1819TIP3    H1 5463   1.465   1.909   2.541
 1819TIP3    H2 5464   1.343   1.852   2.472
 1820TIP3   OH2 5465   5.395   3.212   3.667
 1820TIP3    H1 5466   5.457   3.147   3.700
 1820TIP3    H2 5467   5.420   3.224   3.575
 1821TIP3   OH2 5468   3.351   1.725   0.707
 1821TIP3    H1 5469   3.382   1.815   0.700
 1821TIP3    H2 5470   3.353   1.706   0.800
 1822TIP3   OH2 5471   2.732   0.745   1.269
 1822TIP3    H1 5472   2.638   0.732   1.263
 1822TIP3    H2 5473   2.770   0.662   1.242
 1823TIP3   OH2 5474   3.533   2.936   3.441
 1823TIP3    H1 5475   3.469   2.880   3.396
 1823TIP3    H2 5476   3.542   2.897   3.528
 1824TIP3   OH2 5477   0.030   2.353   2.435
 1824TIP3    H1 5478   0.124   2.367   2.450
 1824TIP3    H2 5479   0.013   2.395   2.351
 1825TIP3   OH2 5480   4.710   2.203   0.658
 1825TIP3    H1 5481   4.731   2.215   0.565
 1825TIP3    H2 5482   4.654   2.125   0.659
 1826TIP3   OH2 5483   3.586   5.804   3.688
 1826TIP3    H1 5484   3.544   5.797   3.602
 1826TIP3    H2 5485   3.542   5.737   3.741
 1827TIP3   OH2 5486   0.583   3.215   0.643
 1827TIP3    H1 5487   0.664   3.165   0.646
 1827TIP3    H2 5488   0.518   3.152   0.610
 1828TIP3   OH2 5489   6.289   2.050   3.769
 1828TIP3    H1 5490   6.354   2.076   3.704
 1828TIP3    H2 5491   6.290   2.120   3.834
 1829TIP3   OH2 5492   2.191   5.729   3.465
 1829TIP3    H1 5493   2.257   5.664   3.443
 1829TIP3    H2 5494   2.241   5.804   3.497
 1830TIP3   OH2 5495   3.763   5.214   3.266
 1830TIP3    H1 5496   3.729   5.303   3.271
 1830TIP3    H2 5497   3.752   5.189   3.174
 1831TIP3   OH2 5498   4.762   0.642   4.247
 1831TIP3    H1 5499   4.781   0.687   4.329
 1831TIP3    H2 5500   4.808   0.692   4.180
 1832TIP3   OH2 5501   1.031   0.795   4.115
 1832TIP3    H1 5502   1.049   0.709   4.077
 1832TIP3    H2 5503   1.088   0.799   4.193
 1833TIP3   OH2 5504   2.421   5.602   0.188
 1833TIP3    H1 5505   2.470   5.528   0.224
 1833TIP3    H2 5506   2.488   5.661   0.153
 1834TIP3   OH2 5507   0.889   2.906   2.897
 1834TIP3    H1 5508   0.985   2.908   2.896
 1834TIP3    H2 5509   0.867   2.843   2.965
 1835TIP3   OH2 5510   2.602   3.337   3.111
 1835TIP3    H1 5511   2.629   3.246   3.096
 1835TIP3    H2 5512   2.514   3.330   3.148
 1836TIP3   OH2 5513   2.952   0.184   1.077
 1836TIP3    H1 5514   3.018   0.122   1.046
 1836TIP3    H2 5515   2.882   0.129   1.111
 1837TIP3   OH2 5516   3.613   4.491   3.470
 1837TIP3    H1 5517   3.639   4.422   3.409
 1837TIP3    H2 5518   3.659   4.469   3.551
 1838TIP3   OH2 5519   1.313   5.281   0.553
 1838TIP3    H1 5520   1.225   5.316   0.542
 1838TIP3    H2 5521   1.301   5.187   0.564
 1839TIP3   OH2 5522   1.955   5.504   0.730
 1839TIP3    H1 5523   1.954   5.505   0.826
 1839TIP3    H2 5524   1.877   5.455   0.706
 1840TIP3   OH2 5525   3.519   3.061   1.833
 1840TIP3    H1 5526   3.567   3.040   1.913
 1840TIP3    H2 5527   3.490   3.152   1.845
 1841TIP3   OH2 5528   1.249   2.819   1.823
 1841TIP3    H1 5529   1.187   2.808   1.750
 1841TIP3    H2 5530   1.209   2.886   1.878
 1842TIP3   OH2 5531   4.070   5.205   3.238
 1842TIP3    H1 5532   3.999   5.179   3.179
 1842TIP3    H2 5533   4.071   5.137   3.305
 1843TIP3   OH2 5534   0.501   3.697   0.943
 1843TIP3    H1 5535   0.523   3.637   0.871
 1843TIP3    H2 5536   0.586   3.730   0.974
 1844TIP3   OH2 5537   3.232   1.518   4.429
 1844TIP3    H1 5538   3.228   1.429   4.462
 1844TIP3    H2 5539   3.201   1.572   4.502
 1845TIP3   OH2 5540   1.262   3.916   3.764
 1845TIP3    H1 5541   1.348   3.953   3.744
 1845TIP3    H2 5542   1.208   3.991   3.786
 1846TIP3   OH2 5543   4.391   1.624   3.574
 1846TIP3    H1 5544   4.318   1.567   3.597
 1846TIP3    H2 5545   4.357   1.712   3.586
 1847TIP3   OH2 5546   1.331   2.163   4.178
 1847TIP3    H1 5547   1.343   2.117   4.261
 1847TIP3    H2 5548   1.327   2.255   4.202
 1848TIP3   OH2 5549   2.214   0.299   3.379
 1848TIP3    H1 5550   2.167   0.316   3.298
 1848TIP3    H2 5551   2.207   0.205   3.391
 1849TIP3   OH2 5552   6.194   5.099   4.604
 1849TIP3    H1 5553   6.244   5.018   4.589
 1849TIP3    H2 5554   6.108   5.069   4.633
 1850TIP3   OH2 5555   2.278   2.909   2.218
 1850TIP3    H1 5556   2.236   2.987   2.183
 1850TIP3    H2 5557   2.224   2.884   2.293
 1851TIP3   OH2 5558   1.167   0.176   0.906
 1851TIP3    H1 5559   1.178   0.195   0.999
 1851TIP3    H2 5560   1.104   0.104   0.903
 1852TIP3   OH2 5561  -0.052   2.902   0.286
 1852TIP3    H1 5562  -0.063   2.819   0.332
 1852TIP3    H2 5563   0.043   2.914   0.281
 1853TIP3   OH2 5564   3.161   3.571   2.270
 1853TIP3    H1 5565   3.128   3.600   2.355
 1853TIP3    H2 5566   3.252   3.602   2.268
 1854TIP3   OH2 5567   0.639   2.278   3.634
 1854TIP3    H1 5568   0.599   2.248   3.552
 1854TIP3    H2 5569   0.585   2.238   3.702
 1855TIP3   OH2 5570   6.270   4.151   3.148
 1855TIP3    H1 5571   6.282   4.201   3.068
 1855TIP3    H2 5572   6.357   4.146   3.188
 1856TIP3   OH2 5573   5.122   2.153   1.764
 1856TIP3    H1 5574   5.084   2.197   1.840
 1856TIP3    H2 5575   5.213   2.137   1.790
 1857TIP3   OH2 5576   2.352   4.243   2.535
 1857TIP3    H1 5577   2.346   4.317   2.595
 1857TIP3    H2 5578   2.442   4.211   2.546
 1858TIP3   OH2 5579   3.846   2.502   4.236
 1858TIP3    H1 5580   3.868   2.545   4.153
 1858TIP3    H2 5581   3.912   2.434   4.246
 1859TIP3   OH2 5582   0.524   4.031   3.146
 1859TIP3    H1 5583   0.516   3.977   3.067
 1859TIP3    H2 5584   0.461   4.101   3.134
 1860TIP3   OH2 5585   5.173   1.894   2.842
 1860TIP3    H1 5586   5.218   1.894   2.926
 1860TIP3    H2 5587   5.244   1.894   2.777
 1861TIP3   OH2 5588   1.768   1.188   3.763
 1861TIP3    H1 5589   1.845   1.191   3.820
 1861TIP3    H2 5590   1.751   1.095   3.750
 1862TIP3   OH2 5591   2.203   1.115   3.346
 1862TIP3    H1 5592   2.112   1.116   3.376
 1862TIP3    H2 5593   2.254   1.090   3.423
 1863TIP3   OH2 5594   3.831   2.892   5.079
 1863TIP3    H1 5595   3.793   2.820   5.130
 1863TIP3    H2 5596   3.895   2.932   5.138
 1864TIP3   OH2 5597   1.199   3.935   1.402
 1864TIP3    H1 5598   1.265   3.907   1.466
 1864TIP3    H2 5599   1.189   4.029   1.417
 1865TIP3   OH2 5600   2.675   5.695   3.705
 1865TIP3    H1 5601   2.611   5.761   3.679
 1865TIP3    H2 5602   2.622   5.623   3.741
 1866TIP3   OH2 5603   6.355   2.483   4.577
 1866TIP3    H1 5604   6.357   2.402   4.526
 1866TIP3    H2 5605   6.265   2.515   4.569
 1867TIP3   OH2 5606   1.593   3.360   1.159
 1867TIP3    H1 5607   1.672   3.374   1.106
 1867TIP3    H2 5608   1.621   3.381   1.248
 1868TIP3   OH2 5609   3.720   2.340   3.781
 1868TIP3    H1 5610   3.675   2.374   3.703
 1868TIP3    H2 5611   3.709   2.245   3.776
 1869TIP3   OH2 5612   0.227   4.374   5.147
 1869TIP3    H1 5613   0.195   4.464   5.143
 1869TIP3    H2 5614   0.162   4.323   5.100
 1870TIP3   OH2 5615   3.526   0.479   3.341
 1870TIP3    H1 5616   3.534   0.443   3.429
 1870TIP3    H2 5617   3.488   0.566   3.355
 1871TIP3   OH2 5618   2.215   0.678   1.899
 1871TIP3    H1 5619   2.275   0.677   1.974
 1871TIP3    H2 5620   2.266   0.719   1.829
 1872TIP3   OH2 5621   5.942   1.015   3.539
 1872TIP3    H1 5622   5.913   1.105   3.526
 1872TIP3    H2 5623   5.870   0.973   3.587
 1873TIP3   OH2 5624   3.504   4.250   0.171
 1873TIP3    H1 5625   3.502   4.284   0.081
 1873TIP3    H2 5626   3.558   4.171   0.166
 1874TIP3   OH2 5627   1.808   0.569   1.861
 1874TIP3    H1 5628   1.718   0.574   1.829
 1874TIP3    H2 5629   1.859   0.615   1.795
 1875TIP3   OH2 5630   3.708   1.551   4.883
 1875TIP3    H1 5631   3.779   1.534   4.821
 1875TIP3    H2 5632   3.656   1.471   4.883
 1876TIP3   OH2 5633   5.509   0.307   1.966
 1876TIP3    H1 5634   5.453   0.379   1.996
 1876TIP3    H2 5635   5.523   0.253   2.044
 1877TIP3   OH2 5636   4.887   1.378   3.216
 1877TIP3    H1 5637   4.809   1.428   3.192
 1877TIP3    H2 5638   4.857   1.287   3.220
 1878TIP3   OH2 5639   0.782   3.046   0.684
 1878TIP3    H1 5640   0.875   3.067   0.674
 1878TIP3    H2 5641   0.779   2.950   0.682
 1879TIP3   OH2 5642   2.833   4.335   3.264
 1879TIP3    H1 5643   2.881   4.328   3.181
 1879TIP3    H2 5644   2.833   4.246   3.299
 1880TIP3   OH2 5645   2.885   4.298   2.994
 1880TIP3    H1 5646   2.934   4.302   2.912
 1880TIP3    H2 5647   2.829   4.221   2.984
 1881TIP3   OH2 5648   5.991   4.444   4.194
 1881TIP3    H1 5649   5.910   4.494   4.208
 1881TIP3    H2 5650   5.976   4.362   4.241
 1882TIP3   OH2 5651   5.439   5.335   2.073
 1882TIP3    H1 5652   5.524   5.376   2.084
 1882TIP3    H2 5653   5.447   5.249   2.115
 1883TIP3   OH2 5654   2.178   4.875   3.839
 1883TIP3    H1 5655   2.129   4.828   3.906
 1883TIP3    H2 5656   2.253   4.818   3.818
 1884TIP3   OH2 5657   0.237   2.839   0.285
 1884TIP3    H1 5658   0.290   2.911   0.252
 1884TIP3    H2 5659   0.229   2.779   0.211
 1885TIP3   OH2 5660   3.143   1.711   2.065
 1885TIP3    H1 5661   3.174   1.800   2.086
 1885TIP3    H2 5662   3.106   1.680   2.148
 1886TIP3   OH2 5663   5.835   4.317   3.415
 1886TIP3    H1 5664   5.794   4.315   3.329
 1886TIP3    H2 5665   5.897   4.244   3.414
 1887TIP3   OH2 5666   5.671   2.460   5.146
 1887TIP3    H1 5667   5.618   2.397   5.195
 1887TIP3    H2 5668   5.608   2.511   5.096
 1888TIP3   OH2 5669   5.215   5.865   2.365
 1888TIP3    H1 5670   5.304   5.854   2.397
 1888TIP3    H2 5671   5.159   5.846   2.441
 1889TIP3   OH2 5672   1.949   1.190   1.403
 1889TIP3    H1 5673   1.891   1.148   1.339
 1889TIP3    H2 5674   1.933   1.142   1.484
 1890TIP3   OH2 5675   1.084   4.445   3.626
 1890TIP3    H1 5676   1.004   4.461   3.576
 1890TIP3    H2 5677   1.106   4.354   3.607
 1891TIP3   OH2 5678   3.095   0.723   4.125
 1891TIP3    H1 5679   3.139   0.807   4.138
 1891TIP3    H2 5680   3.026   0.722   4.191
 1892TIP3   OH2 5681   5.133   2.340   3.719
 1892TIP3    H1 5682   5.136   2.249   3.747
 1892TIP3    H2 5683   5.216   2.355   3.673
 1893TIP3   OH2 5684   5.827   2.577   0.363
 1893TIP3    H1 5685   5.789   2.620   0.439
 1893TIP3    H2 5686   5.785   2.491   0.360
 1894TIP3   OH2 5687   1.878   4.018   2.871
 1894TIP3    H1 5688   1.940   4.005   2.800
 1894TIP3    H2 5689   1.810   4.074   2.834
 1895TIP3   OH2 5690   1.848   0.128   0.167
 1895TIP3    H1 5691   1.839   0.160   0.256
 1895TIP3    H2 5692   1.776   0.066   0.156
 1896TIP3   OH2 5693   4.002   4.398   0.306
 1896TIP3    H1 5694   3.906   4.394   0.311
 1896TIP3    H2 5695   4.031   4.352   0.385
 1897TIP3   OH2 5696   3.993   3.586   4.361
 1897TIP3    H1 5697   3.905   3.558   4.387
 1897TIP3    H2 5698   3.984   3.679   4.339
 1898TIP3   OH2 5699   2.631   3.430   3.402
 1898TIP3    H1 5700   2.545   3.435   3.360
 1898TIP3    H2 5701   2.612   3.419   3.495
 1899TIP3   OH2 5702   5.938   1.404   1.601
 1899TIP3    H1 5703   5.964   1.475   1.661
 1899TIP3    H2 5704   5.937   1.445   1.515
 1900TIP3   OH2 5705   3.528   1.552   4.635
 1900TIP3    H1 5706   3.500   1.471   4.592
 1900TIP3    H2 5707   3.466   1.564   4.707
 1901TIP3   OH2 5708   4.140   3.753   4.775
 1901TIP3    H1 5709   4.151   3.771   4.682
 1901TIP3    H2 5710   4.222   3.714   4.803
 1902TIP3   OH2 5711   6.294   2.887   2.540
 1902TIP3    H1 5712   6.343   2.814   2.502
 1902TIP3    H2 5713   6.219   2.846   2.583
 1903TIP3   OH2 5714   0.319   2.229   0.418
 1903TIP3    H1 5715   0.283   2.307   0.375
 1903TIP3    H2 5716   0.354   2.176   0.347
 1904TIP3   OH2 5717   3.096   3.420   1.447
 1904TIP3    H1 5718   3.020   3.454   1.400
 1904TIP3    H2 5719   3.163   3.487   1.433
 1905TIP3   OH2 5720   5.901   2.023   2.087
 1905TIP3    H1 5721   5.808   2.010   2.067
 1905TIP3    H2 5722   5.945   1.950   2.045
 1906TIP3   OH2 5723   5.622   4.489   0.490
 1906TIP3    H1 5724   5.640   4.444   0.573
 1906TIP3    H2 5725   5.590   4.419   0.432
 1907TIP3   OH2 5726   4.803   2.977   1.278
 1907TIP3    H1 5727   4.731   2.947   1.222
 1907TIP3    H2 5728   4.776   3.063   1.308
 1908TIP3   OH2 5729   2.901   5.619   1.473
 1908TIP3    H1 5730   2.945   5.550   1.424
 1908TIP3    H2 5731   2.812   5.620   1.438
 1909TIP3   OH2 5732   0.728   4.362   4.454
 1909TIP3    H1 5733   0.717   4.312   4.535
 1909TIP3    H2 5734   0.640   4.394   4.433
 1910TIP3   OH2 5735   1.183   4.647   1.575
 1910TIP3    H1 5736   1.225   4.726   1.611
 1910TIP3    H2 5737   1.145   4.676   1.492
 1911TIP3   OH2 5738   5.833   1.357   2.028
 1911TIP3    H1 5739   5.917   1.396   2.003
 1911TIP3    H2 5740   5.831   1.274   1.982
 1912TIP3   OH2 5741   5.945   4.272   1.626
 1912TIP3    H1 5742   5.922   4.294   1.716
 1912TIP3    H2 5743   5.865   4.233   1.590
 1913TIP3   OH2 5744   3.634   2.941   1.129
 1913TIP3    H1 5745   3.563   2.976   1.185
 1913TIP3    H2 5746   3.700   3.010   1.129
 1914TIP3   OH2 5747   3.164   5.765   4.116
 1914TIP3    H1 5748   3.214   5.839   4.083
 1914TIP3    H2 5749   3.118   5.799   4.193
 1915TIP3   OH2 5750   6.150   4.149   0.841
 1915TIP3    H1 5751   6.091   4.084   0.879
 1915TIP3    H2 5752   6.124   4.231   0.883
 1916TIP3   OH2 5753   4.813   2.439   4.903
 1916TIP3    H1 5754   4.899   2.448   4.943
 1916TIP3    H2 5755   4.755   2.418   4.977
 1917TIP3   OH2 5756   4.062   5.053   3.925
 1917TIP3    H1 5757   4.041   5.117   3.992
 1917TIP3    H2 5758   4.044   5.097   3.842
 1918TIP3   OH2 5759   5.288   1.030   4.702
 1918TIP3    H1 5760   5.254   0.956   4.652
 1918TIP3    H2 5761   5.271   1.106   4.646
 1919TIP3   OH2 5762   0.973   3.156   3.823
 1919TIP3    H1 5763   0.951   3.250   3.824
 1919TIP3    H2 5764   0.903   3.115   3.875
 1920TIP3   OH2 5765   4.529   0.045   5.112
 1920TIP3    H1 5766   4.605   0.087   5.153
 1920TIP3    H2 5767   4.567  -0.012   5.045
 1921TIP3   OH2 5768   0.427   1.824   2.848
 1921TIP3    H1 5769   0.357   1.760   2.839
 1921TIP3    H2 5770   0.470   1.824   2.762
 1922TIP3   OH2 5771   3.525   2.633   3.033
 1922TIP3    H1 5772   3.545   2.580   3.110
 1922TIP3    H2 5773   3.432   2.618   3.017
 1923TIP3   OH2 5774   3.477   0.267   5.039
 1923TIP3    H1 5775   3.446   0.177   5.051
 1923TIP3    H2 5776   3.432   0.317   5.107
 1924TIP3   OH2 5777   2.733   3.519   2.947
 1924TIP3    H1 5778   2.670   3.567   2.893
 1924TIP3    H2 5779   2.680   3.455   2.995
 1925TIP3   OH2 5780   1.624   5.638   1.397
 1925TIP3    H1 5781   1.593   5.701   1.332
 1925TIP3    H2 5782   1.720   5.645   1.393
 1926TIP3   OH2 5783   3.237   2.901   4.954
 1926TIP3    H1 5784   3.264   2.959   4.883
 1926TIP3    H2 5785   3.285   2.820   4.939
 1927TIP3   OH2 5786   2.071   0.912   3.719
 1927TIP3    H1 5787   2.093   0.954   3.802
 1927TIP3    H2 5788   2.125   0.956   3.654
 1928TIP3   OH2 5789   0.823   0.981   0.312
 1928TIP3    H1 5790   0.781   0.909   0.265
 1928TIP3    H2 5791   0.916   0.959   0.312
 1929TIP3   OH2 5792   3.288   3.097   4.761
 1929TIP3    H1 5793   3.352   3.151   4.807
 1929TIP3    H2 5794   3.228   3.159   4.720
 1930TIP3   OH2 5795   0.239   1.811   1.779
 1930TIP3    H1 5796   0.267   1.814   1.870
 1930TIP3    H2 5797   0.319   1.832   1.729
 1931TIP3   OH2 5798   1.760   0.149   1.263
 1931TIP3    H1 5799   1.706   0.138   1.341
 1931TIP3    H2 5800   1.848   0.127   1.291
 1932TIP3   OH2 5801  -0.039   3.256   0.998
 1932TIP3    H1 5802  -0.008   3.197   0.929
 1932TIP3    H2 5803  -0.044   3.342   0.955
 1933TIP3   OH2 5804   4.735   1.714   1.579
 1933TIP3    H1 5805   4.750   1.776   1.507
 1933TIP3    H2 5806   4.686   1.764   1.644
 1934TIP3   OH2 5807   5.197   4.439   3.632
 1934TIP3    H1 5808   5.222   4.499   3.561
 1934TIP3    H2 5809   5.275   4.432   3.686
 1935TIP3   OH2 5810   3.268   2.192   2.740
 1935TIP3    H1 5811   3.345   2.163   2.790
 1935TIP3    H2 5812   3.241   2.273   2.783
 1936TIP3   OH2 5813   4.931   3.432   2.977
 1936TIP3    H1 5814   4.885   3.507   3.017
 1936TIP3    H2 5815   5.024   3.452   2.990
 1937TIP3   OH2 5816   5.338   5.487   0.244
 1937TIP3    H1 5817   5.377   5.450   0.165
 1937TIP3    H2 5818   5.358   5.581   0.239
 1938TIP3   OH2 5819   2.626   5.065   4.385
 1938TIP3    H1 5820   2.667   4.993   4.338
 1938TIP3    H2 5821   2.579   5.114   4.318
 1939TIP3   OH2 5822   4.976   2.408   2.233
 1939TIP3    H1 5823   5.029   2.484   2.256
 1939TIP3    H2 5824   4.950   2.371   2.318
 1940TIP3   OH2 5825   5.180   0.602   4.237
 1940TIP3    H1 5826   5.228   0.573   4.314
 1940TIP3    H2 5827   5.236   0.579   4.163
 1941TIP3   OH2 5828   1.899   5.189   2.508
 1941TIP3    H1 5829   1.872   5.211   2.419
 1941TIP3    H2 5830   1.901   5.093   2.510
 1942TIP3   OH2 5831   5.115   5.199   5.032
 1942TIP3    H1 5832   5.029   5.224   5.068
 1942TIP3    H2 5833   5.127   5.108   5.059
 1943TIP3   OH2 5834   0.360   3.523   1.495
 1943TIP3    H1 5835   0.320   3.477   1.569
 1943TIP3    H2 5836   0.444   3.478   1.482
 1944TIP3   OH2 5837   0.532   5.660   2.844
 1944TIP3    H1 5838   0.495   5.573   2.854
 1944TIP3    H2 5839   0.458   5.720   2.856
 1945TIP3   OH2 5840   1.614   2.550   1.596
 1945TIP3    H1 5841   1.564   2.602   1.658
 1945TIP3    H2 5842   1.548   2.503   1.545
 1946TIP3   OH2 5843   2.409   0.350   3.681
 1946TIP3    H1 5844   2.424   0.259   3.654
 1946TIP3    H2 5845   2.335   0.379   3.629
 1947TIP3   OH2 5846   0.368   3.888   4.089
 1947TIP3    H1 5847   0.324   3.919   4.168
 1947TIP3    H2 5848   0.300   3.887   4.022
 1948TIP3   OH2 5849   1.722   2.898   2.784
 1948TIP3    H1 5850   1.664   2.964   2.821
 1948TIP3    H2 5851   1.810   2.928   2.806
 1949TIP3   OH2 5852   4.392   4.087   1.712
 1949TIP3    H1 5853   4.300   4.072   1.691
 1949TIP3    H2 5854   4.399   4.182   1.720
 1950TIP3   OH2 5855   2.455   5.962   1.973
 1950TIP3    H1 5856   2.523   5.958   2.041
 1950TIP3    H2 5857   2.441   5.870   1.949
 1951TIP3   OH2 5858   1.547   5.299   0.839
 1951TIP3    H1 5859   1.459   5.261   0.845
 1951TIP3    H2 5860   1.589   5.275   0.922
 1952TIP3   OH2 5861   3.754   2.700   1.763
 1952TIP3    H1 5862   3.669   2.700   1.807
 1952TIP3    H2 5863   3.739   2.750   1.683
 1953TIP3   OH2 5864   3.992   2.035   1.619
 1953TIP3    H1 5865   4.017   2.078   1.701
 1953TIP3    H2 5866   4.003   1.942   1.637
 1954TIP3   OH2 5867   5.829   0.142   0.903
 1954TIP3    H1 5868   5.787   0.061   0.874
 1954TIP3    H2 5869   5.908   0.149   0.849
 1955TIP3   OH2 5870   4.053   5.392   1.589
 1955TIP3    H1 5871   4.064   5.487   1.594
 1955TIP3    H2 5872   4.121   5.357   1.647
 1956TIP3   OH2 5873   0.891   2.390   1.362
 1956TIP3    H1 5874   0.877   2.478   1.398
 1956TIP3    H2 5875   0.985   2.386   1.345
 1957TIP3   OH2 5876   5.576   4.105   2.917
 1957TIP3    H1 5877   5.517   4.070   2.983
 1957TIP3    H2 5878   5.663   4.101   2.957
 1958TIP3   OH2 5879   5.138   5.035   2.748
 1958TIP3    H1 5880   5.227   5.060   2.773
 1958TIP3    H2 5881   5.119   5.086   2.670
 1959TIP3   OH2 5882   5.644   2.733   3.177
 1959TIP3    H1 5883   5.706   2.743   3.250
 1959TIP3    H2 5884   5.562   2.767   3.212
 1960TIP3   OH2 5885   0.526   2.520   1.223
 1960TIP3    H1 5886   0.454   2.575   1.192
 1960TIP3    H2 5887   0.567   2.487   1.143
 1961TIP3   OH2 5888   0.636   4.480   3.460
 1961TIP3    H1 5889   0.724   4.444   3.447
 1961TIP3    H2 5890   0.593   4.418   3.519
 1962TIP3   OH2 5891   0.939   2.606   2.829
 1962TIP3    H1 5892   0.952   2.601   2.924
 1962TIP3    H2 5893   0.850   2.640   2.819
 1963TIP3   OH2 5894   4.264   1.941   4.249
 1963TIP3    H1 5895   4.186   1.986   4.216
 1963TIP3    H2 5896   4.230   1.856   4.280
 1964TIP3   OH2 5897   0.401   3.796   4.884
 1964TIP3    H1 5898   0.403   3.712   4.931
 1964TIP3    H2 5899   0.335   3.848   4.930
 1965TIP3   OH2 5900   3.061   1.896   0.873
 1965TIP3    H1 5901   3.092   1.931   0.790
 1965TIP3    H2 5902   3.139   1.862   0.916
 1966TIP3   OH2 5903   4.839   3.500   3.694
 1966TIP3    H1 5904   4.840   3.583   3.742
 1966TIP3    H2 5905   4.871   3.522   3.607
 1967TIP3   OH2 5906   2.714   5.842   3.082
 1967TIP3    H1 5907   2.787   5.792   3.045
 1967TIP3    H2 5908   2.750   5.880   3.163
 1968TIP3   OH2 5909   4.176   2.704   2.132
 1968TIP3    H1 5910   4.269   2.683   2.120
 1968TIP3    H2 5911   4.143   2.715   2.044
 1969TIP3   OH2 5912   4.414   2.320   2.980
 1969TIP3    H1 5913   4.458   2.327   2.895
 1969TIP3    H2 5914   4.458   2.386   3.034
 1970TIP3   OH2 5915   6.241   2.751   3.881
 1970TIP3    H1 5916   6.227   2.711   3.795
 1970TIP3    H2 5917   6.293   2.686   3.929
 1971TIP3   OH2 5918   5.624   0.058   2.864
 1971TIP3    H1 5919   5.661   0.120   2.927
 1971TIP3    H2 5920   5.535   0.089   2.850
 1972TIP3   OH2 5921   4.243   1.336   3.817
 1972TIP3    H1 5922   4.186   1.306   3.888
 1972TIP3    H2 5923   4.316   1.274   3.818
 1973TIP3   OH2 5924   2.802   0.606   1.967
 1973TIP3    H1 5925   2.707   0.612   1.959
 1973TIP3    H2 5926   2.820   0.513   1.975
 1974TIP3   OH2 5927   1.577   3.731   4.121
 1974TIP3    H1 5928   1.635   3.661   4.091
 1974TIP3    H2 5929   1.628   3.811   4.108
 1975TIP3   OH2 5930   5.128   0.291   1.229
 1975TIP3    H1 5931   5.106   0.203   1.261
 1975TIP3    H2 5932   5.052   0.345   1.253
 1976TIP3   OH2 5933   5.176   5.575   2.352
 1976TIP3    H1 5934   5.114   5.645   2.330
 1976TIP3    H2 5935   5.172   5.515   2.277
 1977TIP3   OH2 5936   2.391   1.502   3.038
 1977TIP3    H1 5937   2.480   1.470   3.047
 1977TIP3    H2 5938   2.337   1.440   3.086
 1978TIP3   OH2 5939   1.843   4.363   1.794
 1978TIP3    H1 5940   1.900   4.402   1.727
 1978TIP3    H2 5941   1.758   4.406   1.781
 1979TIP3   OH2 5942   4.283   3.561   4.155
 1979TIP3    H1 5943   4.327   3.490   4.109
 1979TIP3    H2 5944   4.191   3.538   4.154
 1980TIP3   OH2 5945   4.235   5.518   0.373
 1980TIP3    H1 5946   4.250   5.486   0.284
 1980TIP3    H2 5947   4.309   5.484   0.423
 1981TIP3   OH2 5948   3.255   3.201   2.700
 1981TIP3    H1 5949   3.227   3.177   2.611
 1981TIP3    H2 5950   3.319   3.133   2.724
 1982TIP3   OH2 5951   5.062   3.676   4.545
 1982TIP3    H1 5952   5.051   3.581   4.540
 1982TIP3    H2 5953   5.054   3.706   4.455
 1983TIP3   OH2 5954   0.895   2.346   4.750
 1983TIP3    H1 5955   0.919   2.263   4.791
 1983TIP3    H2 5956   0.904   2.410   4.821
 1984TIP3   OH2 5957   5.862   3.931   2.276
 1984TIP3    H1 5958   5.838   4.006   2.222
 1984TIP3    H2 5959   5.933   3.962   2.331
 1985TIP3   OH2 5960   6.064   4.707   3.849
 1985TIP3    H1 5961   6.109   4.628   3.819
 1985TIP3    H2 5962   6.134   4.764   3.881
 1986TIP3   OH2 5963   6.301   0.373   4.424
 1986TIP3    H1 5964   6.304   0.425   4.343
 1986TIP3    H2 5965   6.365   0.414   4.482
 1987TIP3   OH2 5966   1.017   2.282   1.999
 1987TIP3    H1 5967   1.005   2.283   1.904
 1987TIP3    H2 5968   1.041   2.192   2.019
 1988TIP3   OH2 5969   0.352   0.829   3.907
 1988TIP3    H1 5970   0.356   0.871   3.993
 1988TIP3    H2 5971   0.362   0.735   3.926
 1989TIP3   OH2 5972   3.894   0.817   2.341
 1989TIP3    H1 5973   3.901   0.908   2.314
 1989TIP3    H2 5974   3.838   0.777   2.275
 1990TIP3   OH2 5975   2.578   1.578   2.202
 1990TIP3    H1 5976   2.617   1.536   2.125
 1990TIP3    H2 5977   2.610   1.527   2.276
 1991TIP3   OH2 5978   3.840   2.523   3.940
 1991TIP3    H1 5979   3.815   2.444   3.892
 1991TIP3    H2 5980   3.925   2.547   3.903
 1992TIP3   OH2 5981   4.789   3.638   3.102
 1992TIP3    H1 5982   4.704   3.612   3.138
 1992TIP3    H2 5983   4.778   3.731   3.080
 1993TIP3   OH2 5984   3.728   2.036   0.692
 1993TIP3    H1 5985   3.801   2.047   0.632
 1993TIP3    H2 5986   3.731   2.113   0.749
 1994TIP3   OH2 5987   4.844   1.357   2.470
 1994TIP3    H1 5988   4.750   1.341   2.455
 1994TIP3    H2 5989   4.847   1.439   2.519
 1995TIP3   OH2 5990   0.662   2.792   2.336
 1995TIP3    H1 5991   0.591   2.774   2.275
 1995TIP3    H2 5992   0.704   2.871   2.301
 1996TIP3   OH2 5993   2.985   2.786   2.845
 1996TIP3    H1 5994   2.995   2.820   2.934
 1996TIP3    H2 5995   2.926   2.711   2.854
 1997TIP3   OH2 5996   6.117   0.010   2.398
 1997TIP3    H1 5997   6.097  -0.035   2.316
 1997TIP3    H2 5998   6.156   0.093   2.372
 1998TIP3   OH2 5999   6.264   5.423   3.005
 1998TIP3    H1 6000   6.345   5.420   2.954
 1998TIP3    H2 6001   6.206   5.360   2.962
 1999TIP3   OH2 6002   6.003   3.096   1.952
 1999TIP3    H1 6003   6.074   3.116   1.891
 1999TIP3    H2 6004   5.941   3.168   1.942
 2000TIP3   OH2 6005   4.212   5.420   3.899
 2000TIP3    H1 6006   4.248   5.493   3.850
 2000TIP3    H2 6007   4.198   5.351   3.834
 2001TIP3   OH2 6008   2.882   2.720   2.257
 2001TIP3    H1 6009   2.824   2.779   2.304
 2001TIP3    H2 6010   2.844   2.712   2.169
 2002TIP3   OH2 6011   5.612   0.367   3.553
 2002TIP3    H1 6012   5.683   0.343   3.613
 2002TIP3    H2 6013   5.575   0.283   3.525
 2003TIP3   OH2 6014   5.255   3.215   2.320
 2003TIP3    H1 6015   5.220   3.138   2.275
 2003TIP3    H2 6016   5.192   3.231   2.391
 2004TIP3   OH2 6017   2.545   1.054   2.453
 2004TIP3    H1 6018   2.555   1.140   2.494
 2004TIP3    H2 6019   2.552   1.072   2.359
 2005TIP3   OH2 6020   6.260   4.911   3.904
 2005TIP3    H1 6021   6.318   4.850   3.949
 2005TIP3    H2 6022   6.273   4.995   3.949
 2006TIP3   OH2 6023   2.295   3.615   3.446
 2006TIP3    H1 6024   2.238   3.628   3.521
 2006TIP3    H2 6025   2.350   3.693   3.443
 2007TIP3   OH2 6026   1.097   1.400   4.522
 2007TIP3    H1 6027   1.134   1.316   4.498
 2007TIP3    H2 6028   1.075   1.391   4.615
 2008TIP3   OH2 6029   5.173   5.829   0.370
 2008TIP3    H1 6030   5.124   5.805   0.292
 2008TIP3    H2 6031   5.141   5.770   0.438
 2009TIP3   OH2 6032   5.161   2.488   4.305
 2009TIP3    H1 6033   5.070   2.459   4.299
 2009TIP3    H2 6034   5.211   2.407   4.316
 2010TIP3   OH2 6035   2.269   5.144   0.442
 2010TIP3    H1 6036   2.226   5.174   0.522
 2010TIP3    H2 6037   2.342   5.206   0.430
 2011TIP3   OH2 6038   3.288   2.482   2.997
 2011TIP3    H1 6039   3.219   2.440   3.048
 2011TIP3    H2 6040   3.266   2.462   2.906
 2012TIP3   OH2 6041   1.103   2.374   3.001
 2012TIP3    H1 6042   1.189   2.383   3.043
 2012TIP3    H2 6043   1.118   2.400   2.910
 2013TIP3   OH2 6044   2.348   5.223   2.734
 2013TIP3    H1 6045   2.416   5.237   2.668
 2013TIP3    H2 6046   2.300   5.306   2.737
 2014TIP3   OH2 6047   2.038   5.116   3.822
 2014TIP3    H1 6048   2.099   5.044   3.807
 2014TIP3    H2 6049   2.010   5.105   3.912
 2015TIP3   OH2 6050   2.179   0.436   3.119
 2015TIP3    H1 6051   2.163   0.530   3.122
 2015TIP3    H2 6052   2.174   0.413   3.027
 2016TIP3   OH2 6053   0.865   0.176   1.454
 2016TIP3    H1 6054   0.840   0.127   1.532
 2016TIP3    H2 6055   0.785   0.179   1.401
 2017TIP3   OH2 6056   1.937   2.717   0.135
 2017TIP3    H1 6057   1.887   2.794   0.108
 2017TIP3    H2 6058   2.013   2.716   0.077
 2018TIP3   OH2 6059   0.904   0.190   1.980
 2018TIP3    H1 6060   0.968   0.131   1.940
 2018TIP3    H2 6061   0.861   0.137   2.047
 2019TIP3   OH2 6062   3.283   5.469   1.283
 2019TIP3    H1 6063   3.361   5.522   1.301
 2019TIP3    H2 6064   3.308   5.381   1.309
 2020TIP3   OH2 6065   4.267   4.125   2.009
 2020TIP3    H1 6066   4.325   4.141   1.935
 2020TIP3    H2 6067   4.264   4.209   2.055
 2021TIP3   OH2 6068   0.766   5.720   1.774
 2021TIP3    H1 6069   0.796   5.696   1.687
 2021TIP3    H2 6070   0.816   5.799   1.796
 2022TIP3   OH2 6071   0.674   1.189   0.930
 2022TIP3    H1 6072   0.599   1.234   0.890
 2022TIP3    H2 6073   0.655   1.096   0.920
 2023TIP3   OH2 6074   0.645   1.770   0.872
 2023TIP3    H1 6075   0.675   1.829   0.803
 2023TIP3    H2 6076   0.650   1.822   0.952
 2024TIP3   OH2 6077   5.779   5.423   4.496
 2024TIP3    H1 6078   5.744   5.339   4.525
 2024TIP3    H2 6079   5.775   5.419   4.401
 2025TIP3   OH2 6080   3.710   5.384   2.962
 2025TIP3    H1 6081   3.627   5.429   2.977
 2025TIP3    H2 6082   3.685   5.292   2.950
 2026TIP3   OH2 6083   4.090   0.234   2.078
 2026TIP3    H1 6084   4.141   0.308   2.045
 2026TIP3    H2 6085   4.116   0.226   2.170
 2027TIP3   OH2 6086   0.953   1.763   1.250
 2027TIP3    H1 6087   0.955   1.834   1.314
 2027TIP3    H2 6088   0.988   1.687   1.298
 2028TIP3   OH2 6089   2.505   3.391   0.633
 2028TIP3    H1 6090   2.544   3.464   0.585
 2028TIP3    H2 6091   2.430   3.430   0.678
 2029TIP3   OH2 6092   3.225   5.100   1.593
 2029TIP3    H1 6093   3.159   5.144   1.538
 2029TIP3    H2 6094   3.269   5.172   1.639
 2030TIP3   OH2 6095   0.105   5.689   4.246
 2030TIP3    H1 6096   0.011   5.684   4.228
 2030TIP3    H2 6097   0.147   5.663   4.163
 2031TIP3   OH2 6098   5.389   1.661   4.981
 2031TIP3    H1 6099   5.446   1.586   5.001
 2031TIP3    H2 6100   5.339   1.674   5.062
 2032TIP3   OH2 6101   1.314   3.183   1.647
 2032TIP3    H1 6102   1.406   3.162   1.630
 2032TIP3    H2 6103   1.267   3.148   1.572
 2033TIP3   OH2 6104   2.196   4.578   2.538
 2033TIP3    H1 6105   2.134   4.513   2.506
 2033TIP3    H2 6106   2.216   4.551   2.628
 2034TIP3   OH2 6107   4.572   3.691   0.391
 2034TIP3    H1 6108   4.537   3.777   0.413
 2034TIP3    H2 6109   4.604   3.656   0.474
 2035TIP3   OH2 6110   1.773   3.347   0.932
 2035TIP3    H1 6111   1.771   3.407   0.857
 2035TIP3    H2 6112   1.732   3.267   0.899
 2036TIP3   OH2 6113   0.566   3.265   0.354
 2036TIP3    H1 6114   0.502   3.313   0.407
 2036TIP3    H2 6115   0.616   3.333   0.309
 2037TIP3   OH2 6116   1.987   1.719   3.416
 2037TIP3    H1 6117   1.902   1.679   3.400
 2037TIP3    H2 6118   1.985   1.745   3.508
 2038TIP3   OH2 6119   0.472   1.917   1.677
 2038TIP3    H1 6120   0.471   2.005   1.641
 2038TIP3    H2 6121   0.557   1.909   1.720
 2039TIP3   OH2 6122   1.143   4.470   1.262
 2039TIP3    H1 6123   1.193   4.427   1.332
 2039TIP3    H2 6124   1.094   4.399   1.221
 2040TIP3   OH2 6125   4.752   1.294   5.063
 2040TIP3    H1 6126   4.742   1.323   5.154
 2040TIP3    H2 6127   4.841   1.320   5.039
 2041TIP3   OH2 6128   4.520   5.091   3.237
 2041TIP3    H1 6129   4.535   5.046   3.154
 2041TIP3    H2 6130   4.476   5.172   3.212
 2042TIP3   OH2 6131   5.653   2.414   1.140
 2042TIP3    H1 6132   5.714   2.401   1.213
 2042TIP3    H2 6133   5.607   2.330   1.133
 2043TIP3   OH2 6134   3.292   1.249   1.517
 2043TIP3    H1 6135   3.319   1.271   1.606
 2043TIP3    H2 6136   3.224   1.312   1.496
 2044TIP3   OH2 6137   3.336   4.372   0.340
 2044TIP3    H1 6138   3.389   4.327   0.274
 2044TIP3    H2 6139   3.388   4.449   0.363
 2045TIP3   OH2 6140   5.235   1.027   1.288
 2045TIP3    H1 6141   5.224   1.112   1.331
 2045TIP3    H2 6142   5.159   0.976   1.316
 2046TIP3   OH2 6143   5.268   2.246   2.868
 2046TIP3    H1 6144   5.354   2.204   2.873
 2046TIP3    H2 6145   5.256   2.262   2.774
 2047TIP3   OH2 6146   3.017   1.020   3.484
 2047TIP3    H1 6147   3.097   1.050   3.528
 2047TIP3    H2 6148   2.989   1.095   3.432
 2048TIP3   OH2 6149   4.241   4.754   3.349
 2048TIP3    H1 6150   4.307   4.731   3.283
 2048TIP3    H2 6151   4.289   4.750   3.432
 2049TIP3   OH2 6152   2.409   0.751   2.093
 2049TIP3    H1 6153   2.329   0.803   2.084
 2049TIP3    H2 6154   2.445   0.777   2.177
 2050TIP3   OH2 6155   5.297   4.770   1.658
 2050TIP3    H1 6156   5.279   4.847   1.603
 2050TIP3    H2 6157   5.258   4.697   1.611
 2051TIP3   OH2 6158   0.508   5.268   4.370
 2051TIP3    H1 6159   0.475   5.347   4.327
 2051TIP3    H2 6160   0.493   5.198   4.306
 2052TIP3   OH2 6161   2.992   4.206   2.045
 2052TIP3    H1 6162   3.013   4.160   2.126
 2052TIP3    H2 6163   2.917   4.261   2.069
 2053TIP3   OH2 6164   3.429   5.557   4.104
 2053TIP3    H1 6165   3.497   5.618   4.074
 2053TIP3    H2 6166   3.416   5.578   4.196
 2054TIP3   OH2 6167   5.780   3.445   0.706
 2054TIP3    H1 6168   5.691   3.448   0.742
 2054TIP3    H2 6169   5.774   3.384   0.633
 2055TIP3   OH2 6170   5.645   3.771   0.978
 2055TIP3    H1 6171   5.613   3.681   0.970
 2055TIP3    H2 6172   5.578   3.824   0.934
 2056TIP3   OH2 6173   4.444   3.350   0.874
 2056TIP3    H1 6174   4.495   3.374   0.796
 2056TIP3    H2 6175   4.356   3.383   0.856
 2057TIP3   OH2 6176   1.023   4.911   4.994
 2057TIP3    H1 6177   0.950   4.885   4.938
 2057TIP3    H2 6178   1.052   4.829   5.035
 2058TIP3   OH2 6179   4.647   4.386   3.301
 2058TIP3    H1 6180   4.632   4.481   3.293
 2058TIP3    H2 6181   4.742   4.378   3.303
 2059TIP3   OH2 6182   5.836   2.019   2.437
 2059TIP3    H1 6183   5.813   1.954   2.370
 2059TIP3    H2 6184   5.842   2.102   2.389
 2060TIP3   OH2 6185   4.292   5.007   5.122
 2060TIP3    H1 6186   4.283   4.950   5.045
 2060TIP3    H2 6187   4.203   5.037   5.140
 2061TIP3   OH2 6188   6.021   3.647   1.755
 2061TIP3    H1 6189   6.038   3.683   1.668
 2061TIP3    H2 6190   6.074   3.701   1.814
 2062TIP3   OH2 6191   3.516   5.822   3.156
 2062TIP3    H1 6192   3.429   5.861   3.164
 2062TIP3    H2 6193   3.526   5.802   3.063
 2063TIP3   OH2 6194   2.117   4.651   0.281
 2063TIP3    H1 6195   2.114   4.746   0.265
 2063TIP3    H2 6196   2.029   4.629   0.311
 2064TIP3   OH2 6197   6.200   2.119   4.799
 2064TIP3    H1 6198   6.170   2.193   4.747
 2064TIP3    H2 6199   6.260   2.157   4.863
 2065TIP3   OH2 6200   4.618   0.051   1.151
 2065TIP3    H1 6201   4.643   0.119   1.087
 2065TIP3    H2 6202   4.698  -0.001   1.162
 2066TIP3   OH2 6203   5.189   0.312   0.037
 2066TIP3    H1 6204   5.212   0.402   0.059
 2066TIP3    H2 6205   5.164   0.272   0.121
 2067TIP3   OH2 6206   1.885   1.902   1.536
 2067TIP3    H1 6207   1.860   1.980   1.586
 2067TIP3    H2 6208   1.842   1.829   1.582
 2068TIP3   OH2 6209   3.658   2.708   1.269
 2068TIP3    H1 6210   3.668   2.782   1.210
 2068TIP3    H2 6211   3.674   2.631   1.214
 2069TIP3   OH2 6212   0.474   3.615   4.141
 2069TIP3    H1 6213   0.447   3.704   4.119
 2069TIP3    H2 6214   0.567   3.623   4.160
 2070TIP3   OH2 6215   4.804   0.305   3.138
 2070TIP3    H1 6216   4.847   0.368   3.196
 2070TIP3    H2 6217   4.869   0.237   3.123
 2071TIP3   OH2 6218   2.021   3.650   0.905
 2071TIP3    H1 6219   2.043   3.589   0.834
 2071TIP3    H2 6220   1.971   3.719   0.863
 2072TIP3   OH2 6221   0.933   4.530   4.399
 2072TIP3    H1 6222   0.855   4.477   4.414
 2072TIP3    H2 6223   1.006   4.471   4.418
 2073TIP3   OH2 6224   0.048   0.221   1.165
 2073TIP3    H1 6225   0.096   0.303   1.151
 2073TIP3    H2 6226  -0.030   0.246   1.213
 2074TIP3   OH2 6227   6.099   0.309   3.735
 2074TIP3    H1 6228   6.130   0.375   3.673
 2074TIP3    H2 6229   6.108   0.349   3.821
 2075TIP3   OH2 6230   6.014   5.429   2.645
 2075TIP3    H1 6231   6.101   5.415   2.609
 2075TIP3    H2 6232   6.024   5.413   2.739
 2076TIP3   OH2 6233   0.959   2.113   1.453
 2076TIP3    H1 6234   0.937   2.185   1.394
 2076TIP3    H2 6235   1.051   2.094   1.435
 2077TIP3   OH2 6236   4.141   2.051   1.954
 2077TIP3    H1 6237   4.193   2.094   2.022
 2077TIP3    H2 6238   4.071   2.113   1.935
 2078TIP3   OH2 6239   3.372   1.758   1.870
 2078TIP3    H1 6240   3.297   1.698   1.870
 2078TIP3    H2 6241   3.334   1.844   1.883
 2079TIP3   OH2 6242   0.023   5.905   1.743
 2079TIP3    H1 6243  -0.018   5.956   1.813
 2079TIP3    H2 6244   0.086   5.849   1.788
 2080TIP3   OH2 6245   3.765   2.790   1.509
 2080TIP3    H1 6246   3.699   2.757   1.448
 2080TIP3    H2 6247   3.843   2.806   1.456
 2081TIP3   OH2 6248   2.380   0.397   5.118
 2081TIP3    H1 6249   2.419   0.310   5.130
 2081TIP3    H2 6250   2.321   0.407   5.192
 2082TIP3   OH2 6251   5.023   2.716   3.369
 2082TIP3    H1 6252   5.010   2.697   3.462
 2082TIP3    H2 6253   5.002   2.809   3.360
 2083TIP3   OH2 6254   1.991   5.686   3.766
 2083TIP3    H1 6255   2.077   5.670   3.805
 2083TIP3    H2 6256   1.947   5.744   3.828
 2084TIP3   OH2 6257   5.583   5.964   1.709
 2084TIP3    H1 6258   5.647   5.944   1.641
 2084TIP3    H2 6259   5.519   5.893   1.703
 2085TIP3   OH2 6260   6.336   0.685   2.138
 2085TIP3    H1 6261   6.245   0.705   2.163
 2085TIP3    H2 6262   6.380   0.669   2.221
 2086TIP3   OH2 6263   0.203   5.321   3.295
 2086TIP3    H1 6264   0.195   5.296   3.387
 2086TIP3    H2 6265   0.297   5.327   3.279
 2087TIP3   OH2 6266   3.404   5.211   0.702
 2087TIP3    H1 6267   3.395   5.116   0.696
 2087TIP3    H2 6268   3.368   5.244   0.619
 2088TIP3   OH2 6269   2.069   5.490   3.313
 2088TIP3    H1 6270   2.039   5.476   3.403
 2088TIP3    H2 6271   2.058   5.584   3.298
 2089TIP3   OH2 6272   3.706   1.676  -0.013
 2089TIP3    H1 6273   3.625   1.727  -0.025
 2089TIP3    H2 6274   3.761   1.732   0.043
 2090TIP3   OH2 6275   2.490   4.834   0.885
 2090TIP3    H1 6276   2.536   4.806   0.806
 2090TIP3    H2 6277   2.409   4.873   0.854
 2091TIP3   OH2 6278   0.958   5.353   2.936
 2091TIP3    H1 6279   0.897   5.376   2.867
 2091TIP3    H2 6280   0.939   5.413   3.007
 2092TIP3   OH2 6281   6.371   4.378   2.640
 2092TIP3    H1 6282   6.374   4.312   2.709
 2092TIP3    H2 6283   6.312   4.445   2.675
 2093TIP3   OH2 6284   2.596   3.092   3.044
 2093TIP3    H1 6285   2.663   3.024   3.054
 2093TIP3    H2 6286   2.514   3.047   3.064
 2094TIP3   OH2 6287   2.336   3.386   4.399
 2094TIP3    H1 6288   2.293   3.368   4.483
 2094TIP3    H2 6289   2.380   3.304   4.377
 2095TIP3   OH2 6290   0.214   2.723   0.048
 2095TIP3    H1 6291   0.265   2.653   0.006
 2095TIP3    H2 6292   0.123   2.703   0.026
 2096TIP3   OH2 6293   3.548   2.329   4.927
 2096TIP3    H1 6294   3.630   2.365   4.894
 2096TIP3    H2 6295   3.504   2.295   4.849
 2097TIP3   OH2 6296   6.108   0.523   4.872
 2097TIP3    H1 6297   6.039   0.569   4.919
 2097TIP3    H2 6298   6.120   0.442   4.920
 2098TIP3   OH2 6299   3.427   3.301   4.485
 2098TIP3    H1 6300   3.349   3.344   4.522
 2098TIP3    H2 6301   3.433   3.336   4.396
 2099TIP3   OH2 6302   4.177   2.930   2.489
 2099TIP3    H1 6303   4.209   2.939   2.578
 2099TIP3    H2 6304   4.087   2.964   2.492
 2100TIP3   OH2 6305   1.557   1.204   1.992
 2100TIP3    H1 6306   1.483   1.227   1.936
 2100TIP3    H2 6307   1.549   1.110   2.005
 2101TIP3   OH2 6308   3.236   2.490   1.163
 2101TIP3    H1 6309   3.260   2.583   1.168
 2101TIP3    H2 6310   3.311   2.444   1.201
 2102TIP3   OH2 6311   2.198   2.238   2.198
 2102TIP3    H1 6312   2.283   2.246   2.242
 2102TIP3    H2 6313   2.194   2.314   2.140
 2103TIP3   OH2 6314   3.113   1.642   4.200
 2103TIP3    H1 6315   3.020   1.622   4.209
 2103TIP3    H2 6316   3.156   1.591   4.268
 2104TIP3   OH2 6317   3.996   0.153   3.696
 2104TIP3    H1 6318   4.079   0.197   3.716
 2104TIP3    H2 6319   4.001   0.137   3.601
 2105TIP3   OH2 6320   6.185   5.091   2.100
 2105TIP3    H1 6321   6.122   5.151   2.141
 2105TIP3    H2 6322   6.135   5.011   2.086
 2106TIP3   OH2 6323   2.984   4.285   1.620
 2106TIP3    H1 6324   2.947   4.353   1.675
 2106TIP3    H2 6325   3.022   4.222   1.681
 2107TIP3   OH2 6326   5.952   5.652   1.708
 2107TIP3    H1 6327   5.921   5.582   1.765
 2107TIP3    H2 6328   5.962   5.611   1.623
 2108TIP3   OH2 6329   4.080   2.395   1.511
 2108TIP3    H1 6330   4.165   2.393   1.556
 2108TIP3    H2 6331   4.016   2.395   1.582
 2109TIP3   OH2 6332   3.818   0.706   1.853
 2109TIP3    H1 6333   3.806   0.615   1.827
 2109TIP3    H2 6334   3.778   0.757   1.782
 2110TIP3   OH2 6335   2.711   0.357   4.252
 2110TIP3    H1 6336   2.631   0.407   4.232
 2110TIP3    H2 6337   2.775   0.386   4.187
 2111TIP3   OH2 6338   2.582   3.635   4.890
 2111TIP3    H1 6339   2.497   3.667   4.921
 2111TIP3    H2 6340   2.587   3.545   4.921
 2112TIP3   OH2 6341   6.023   2.476   2.154
 2112TIP3    H1 6342   6.065   2.475   2.068
 2112TIP3    H2 6343   5.930   2.493   2.135
 2113TIP3   OH2 6344   3.900   3.006   3.994
 2113TIP3    H1 6345   3.950   2.946   4.049
 2113TIP3    H2 6346   3.822   2.958   3.969
 2114TIP3   OH2 6347   4.544   1.716   3.999
 2114TIP3    H1 6348   4.559   1.660   3.923
 2114TIP3    H2 6349   4.457   1.753   3.986
 2115TIP3   OH2 6350   5.547   4.544   2.001
 2115TIP3    H1 6351   5.601   4.605   1.951
 2115TIP3    H2 6352   5.457   4.564   1.976
 2116TIP3   OH2 6353   2.827   4.725   2.886
 2116TIP3    H1 6354   2.749   4.775   2.907
 2116TIP3    H2 6355   2.844   4.673   2.965
 2117TIP3   OH2 6356   3.383   3.320   0.097
 2117TIP3    H1 6357   3.350   3.394   0.045
 2117TIP3    H2 6358   3.330   3.245   0.067
 2118TIP3   OH2 6359   2.814   2.489   5.145
 2118TIP3    H1 6360   2.803   2.503   5.051
 2118TIP3    H2 6361   2.849   2.400   5.152
 2119TIP3   OH2 6362   6.238   0.776   2.825
 2119TIP3    H1 6363   6.213   0.726   2.903
 2119TIP3    H2 6364   6.192   0.859   2.834
 2120TIP3   OH2 6365   1.960   4.351   0.084
 2120TIP3    H1 6366   1.960   4.412   0.011
 2120TIP3    H2 6367   2.041   4.300   0.073
 2121TIP3   OH2 6368   3.279   2.327   5.229
 2121TIP3    H1 6369   3.203   2.293   5.183
 2121TIP3    H2 6370   3.341   2.254   5.229
 2122TIP3   OH2 6371   1.293   0.859   2.390
 2122TIP3    H1 6372   1.284   0.938   2.337
 2122TIP3    H2 6373   1.318   0.891   2.477
 2123TIP3   OH2 6374   4.217   3.110   1.009
 2123TIP3    H1 6375   4.283   3.043   1.031
 2123TIP3    H2 6376   4.241   3.185   1.063
 2124TIP3   OH2 6377   0.304   5.841   0.470
 2124TIP3    H1 6378   0.324   5.749   0.485
 2124TIP3    H2 6379   0.384   5.887   0.494
 2125TIP3   OH2 6380   3.902   1.778   1.718
 2125TIP3    H1 6381   3.812   1.798   1.743
 2125TIP3    H2 6382   3.895   1.698   1.665
 2126TIP3   OH2 6383   4.747   1.403   4.005
 2126TIP3    H1 6384   4.742   1.444   3.919
 2126TIP3    H2 6385   4.803   1.462   4.056
 2127TIP3   OH2 6386   1.420   0.090   4.348
 2127TIP3    H1 6387   1.369   0.051   4.276
 2127TIP3    H2 6388   1.374   0.171   4.369
 2128TIP3   OH2 6389   0.641   4.182   3.338
 2128TIP3    H1 6390   0.625   4.103   3.287
 2128TIP3    H2 6391   0.715   4.160   3.394
 2129TIP3   OH2 6392   1.684   3.702   4.851
 2129TIP3    H1 6393   1.605   3.708   4.903
 2129TIP3    H2 6394   1.653   3.699   4.760
 2130TIP3   OH2 6395   0.771   1.319   3.185
 2130TIP3    H1 6396   0.706   1.252   3.203
 2130TIP3    H2 6397   0.801   1.300   3.096
 2131TIP3   OH2 6398   2.634   5.058   4.660
 2131TIP3    H1 6399   2.637   5.042   4.565
 2131TIP3    H2 6400   2.657   4.974   4.699
 2132TIP3   OH2 6401   2.470   3.058   3.717
 2132TIP3    H1 6402   2.403   3.030   3.655
 2132TIP3    H2 6403   2.426   3.060   3.802
 2133TIP3   OH2 6404   4.227   2.569   2.540
 2133TIP3    H1 6405   4.210   2.479   2.567
 2133TIP3    H2 6406   4.264   2.610   2.618
 2134TIP3   OH2 6407   2.868   1.724   1.934
 2134TIP3    H1 6408   2.843   1.632   1.933
 2134TIP3    H2 6409   2.963   1.723   1.942
 2135TIP3   OH2 6410   1.389   4.574   0.460
 2135TIP3    H1 6411   1.301   4.553   0.493
 2135TIP3    H2 6412   1.421   4.641   0.519
 2136TIP3   OH2 6413   4.335   2.487   4.298
 2136TIP3    H1 6414   4.270   2.525   4.357
 2136TIP3    H2 6415   4.413   2.539   4.311
 2137TIP3   OH2 6416   0.277   4.191   2.851
 2137TIP3    H1 6417   0.252   4.153   2.767
 2137TIP3    H2 6418   0.369   4.215   2.840
 2138TIP3   OH2 6419   0.831   2.982   4.352
 2138TIP3    H1 6420   0.796   2.895   4.333
 2138TIP3    H2 6421   0.769   3.020   4.413
 2139TIP3   OH2 6422   1.721   4.038   4.036
 2139TIP3    H1 6423   1.702   4.055   3.944
 2139TIP3    H2 6424   1.792   4.099   4.058
 2140TIP3   OH2 6425   4.898   4.218   1.108
 2140TIP3    H1 6426   4.912   4.244   1.199
 2140TIP3    H2 6427   4.820   4.265   1.081
 2141TIP3   OH2 6428   5.294   1.881   3.428
 2141TIP3    H1 6429   5.327   1.941   3.361
 2141TIP3    H2 6430   5.303   1.794   3.389
 2142TIP3   OH2 6431   0.888   0.753   5.005
 2142TIP3    H1 6432   0.949   0.728   4.936
 2142TIP3    H2 6433   0.937   0.743   5.086
 2143TIP3   OH2 6434   2.097   5.916   0.503
 2143TIP3    H1 6435   2.009   5.952   0.495
 2143TIP3    H2 6436   2.155   5.988   0.479
 2144TIP3   OH2 6437   2.953   0.216   2.261
 2144TIP3    H1 6438   2.904   0.248   2.337
 2144TIP3    H2 6439   2.890   0.162   2.213
 2145TIP3   OH2 6440   3.431   0.359   3.875
 2145TIP3    H1 6441   3.478   0.289   3.831
 2145TIP3    H2 6442   3.494   0.395   3.938
 2146TIP3   OH2 6443   0.823   0.816   4.715
 2146TIP3    H1 6444   0.896   0.756   4.731
 2146TIP3    H2 6445   0.853   0.900   4.752
 2147TIP3   OH2 6446   1.642   4.349   1.558
 2147TIP3    H1 6447   1.627   4.343   1.463
 2147TIP3    H2 6448   1.656   4.442   1.574
 2148TIP3   OH2 6449   1.531   3.586   2.043
 2148TIP3    H1 6450   1.542   3.663   2.098
 2148TIP3    H2 6451   1.468   3.613   1.976
 2149TIP3   OH2 6452   5.929   4.915   3.704
 2149TIP3    H1 6453   5.947   4.843   3.764
 2149TIP3    H2 6454   5.868   4.971   3.752
 2150TIP3   OH2 6455   2.737   5.323   4.632
 2150TIP3    H1 6456   2.744   5.364   4.719
 2150TIP3    H2 6457   2.710   5.233   4.650
 2151TIP3   OH2 6458   0.847   5.071   0.101
 2151TIP3    H1 6459   0.760   5.105   0.081
 2151TIP3    H2 6460   0.852   5.074   0.197
 2152TIP3   OH2 6461   3.303   5.377   3.938
 2152TIP3    H1 6462   3.378   5.337   3.893
 2152TIP3    H2 6463   3.341   5.446   3.992
 2153TIP3   OH2 6464   4.236   0.294   4.422
 2153TIP3    H1 6465   4.144   0.319   4.426
 2153TIP3    H2 6466   4.251   0.242   4.502
 2154TIP3   OH2 6467   2.024   4.795   3.533
 2154TIP3    H1 6468   1.976   4.863   3.581
 2154TIP3    H2 6469   2.016   4.717   3.588
 2155TIP3   OH2 6470   4.235   1.330   3.017
 2155TIP3    H1 6471   4.315   1.283   2.992
 2155TIP3    H2 6472   4.178   1.262   3.054
 2156TIP3   OH2 6473   3.939   2.230   1.940
 2156TIP3    H1 6474   3.972   2.304   1.992
 2156TIP3    H2 6475   3.858   2.263   1.900
 2157TIP3   OH2 6476   6.010   4.108   3.305
 2157TIP3    H1 6477   6.017   4.164   3.227
 2157TIP3    H2 6478   6.100   4.098   3.335
 2158TIP3   OH2 6479   1.492   4.231   1.772
 2158TIP3    H1 6480   1.410   4.278   1.755
 2158TIP3    H2 6481   1.543   4.241   1.691
 2159TIP3   OH2 6482   2.377   3.468   2.495
 2159TIP3    H1 6483   2.332   3.386   2.475
 2159TIP3    H2 6484   2.316   3.537   2.467
 2160TIP3   OH2 6485   5.762   0.449   2.749
 2160TIP3    H1 6486   5.717   0.375   2.709
 2160TIP3    H2 6487   5.692   0.501   2.789
 2161TIP3   OH2 6488   0.169   4.946   1.465
 2161TIP3    H1 6489   0.085   4.921   1.502
 2161TIP3    H2 6490   0.232   4.883   1.501
 2162TIP3   OH2 6491   2.127   5.073   3.034
 2162TIP3    H1 6492   2.063   5.026   2.981
 2162TIP3    H2 6493   2.075   5.133   3.087
 2163TIP3   OH2 6494   2.543   4.633   1.556
 2163TIP3    H1 6495   2.608   4.651   1.624
 2163TIP3    H2 6496   2.586   4.657   1.474
 2164TIP3   OH2 6497   4.651   3.954   2.166
 2164TIP3    H1 6498   4.694   3.941   2.251
 2164TIP3    H2 6499   4.690   3.887   2.109
 2165TIP3   OH2 6500   2.167   4.291   4.794
 2165TIP3    H1 6501   2.214   4.368   4.761
 2165TIP3    H2 6502   2.125   4.254   4.716
 2166TIP3   OH2 6503   1.239   5.316   4.254
 2166TIP3    H1 6504   1.228   5.401   4.212
 2166TIP3    H2 6505   1.274   5.259   4.185
 2167TIP3   OH2 6506   1.313   3.656   3.696
 2167TIP3    H1 6507   1.305   3.750   3.710
 2167TIP3    H2 6508   1.392   3.646   3.642
 2168TIP3   OH2 6509   0.115   3.846   3.966
 2168TIP3    H1 6510   0.019   3.844   3.965
 2168TIP3    H2 6511   0.141   3.781   3.900
 2169TIP3   OH2 6512   2.457   2.757   3.804
 2169TIP3    H1 6513   2.439   2.761   3.710
 2169TIP3    H2 6514   2.550   2.737   3.811
 2170TIP3   OH2 6515   4.029   2.287   4.245
 2170TIP3    H1 6516   4.084   2.286   4.167
 2170TIP3    H2 6517   4.090   2.279   4.318
 2171TIP3   OH2 6518   2.013   3.209   4.417
 2171TIP3    H1 6519   2.085   3.149   4.436
 2171TIP3    H2 6520   1.946   3.189   4.482
 2172TIP3   OH2 6521   0.642   1.308   0.530
 2172TIP3    H1 6522   0.612   1.235   0.476
 2172TIP3    H2 6523   0.709   1.271   0.587
 2173TIP3   OH2 6524   4.838   2.385   3.360
 2173TIP3    H1 6525   4.831   2.453   3.428
 2173TIP3    H2 6526   4.814   2.304   3.406
 2174TIP3   OH2 6527   3.066   1.422   1.442
 2174TIP3    H1 6528   3.013   1.362   1.389
 2174TIP3    H2 6529   3.021   1.506   1.435
 2175TIP3   OH2 6530   3.767   2.088   2.517
 2175TIP3    H1 6531   3.724   2.062   2.436
 2175TIP3    H2 6532   3.848   2.131   2.490
 2176TIP3   OH2 6533   5.036   1.175   2.529
 2176TIP3    H1 6534   4.962   1.214   2.483
 2176TIP3    H2 6535   5.111   1.228   2.503
 2177TIP3   OH2 6536   3.663   1.635   3.595
 2177TIP3    H1 6537   3.586   1.620   3.540
 2177TIP3    H2 6538   3.626   1.655   3.682
 2178TIP3   OH2 6539   4.650   5.353   1.983
 2178TIP3    H1 6540   4.644   5.429   2.041
 2178TIP3    H2 6541   4.589   5.289   2.020
 2179TIP3   OH2 6542   0.211   3.456   4.157
 2179TIP3    H1 6543   0.132   3.422   4.114
 2179TIP3    H2 6544   0.283   3.433   4.098
 2180TIP3   OH2 6545   5.603   5.457   4.789
 2180TIP3    H1 6546   5.636   5.371   4.766
 2180TIP3    H2 6547   5.613   5.462   4.884
 2181TIP3   OH2 6548   4.976   0.861   0.572
 2181TIP3    H1 6549   5.042   0.850   0.641
 2181TIP3    H2 6550   4.892   0.846   0.616
 2182TIP3   OH2 6551   0.981   3.372   2.257
 2182TIP3    H1 6552   1.009   3.292   2.213
 2182TIP3    H2 6553   0.916   3.343   2.321
 2183TIP3   OH2 6554   3.921   5.168   1.784
 2183TIP3    H1 6555   3.860   5.166   1.710
 2183TIP3    H2 6556   4.004   5.138   1.747
 2184TIP3   OH2 6557   1.235   1.070   4.906
 2184TIP3    H1 6558   1.223   1.034   4.994
 2184TIP3    H2 6559   1.274   0.999   4.856
 2185TIP3   OH2 6560   3.814   1.095   2.803
 2185TIP3    H1 6561   3.725   1.082   2.837
 2185TIP3    H2 6562   3.828   1.021   2.744
 2186TIP3   OH2 6563   4.415   1.635   1.294
 2186TIP3    H1 6564   4.417   1.555   1.243
 2186TIP3    H2 6565   4.484   1.690   1.257
 2187TIP3   OH2 6566   0.765   5.982   0.144
 2187TIP3    H1 6567   0.760   6.071   0.179
 2187TIP3    H2 6568   0.829   5.987   0.073
 2188TIP3   OH2 6569   2.741   5.588   1.697
 2188TIP3    H1 6570   2.793   5.526   1.644
 2188TIP3    H2 6571   2.679   5.532   1.744
 2189TIP3   OH2 6572   0.396   5.259   1.735
 2189TIP3    H1 6573   0.458   5.332   1.744
 2189TIP3    H2 6574   0.345   5.280   1.657
 2190TIP3   OH2 6575   3.002   1.042   5.091
 2190TIP3    H1 6576   2.979   0.963   5.140
 2190TIP3    H2 6577   3.096   1.033   5.073
 2191TIP3   OH2 6578   1.417   3.791   4.995
 2191TIP3    H1 6579   1.341   3.793   4.937
 2191TIP3    H2 6580   1.467   3.869   4.973
 2192TIP3   OH2 6581   1.169   2.629   1.366
 2192TIP3    H1 6582   1.167   2.562   1.297
 2192TIP3    H2 6583   1.260   2.661   1.365
 2193TIP3   OH2 6584   2.772   5.620   4.061
 2193TIP3    H1 6585   2.712   5.694   4.071
 2193TIP3    H2 6586   2.730   5.549   4.110
 2194TIP3   OH2 6587   3.997   1.596   0.567
 2194TIP3    H1 6588   3.998   1.643   0.484
 2194TIP3    H2 6589   4.001   1.504   0.544
 2195TIP3   OH2 6590   4.258   5.689   1.085
 2195TIP3    H1 6591   4.263   5.784   1.094
 2195TIP3    H2 6592   4.344   5.657   1.114
 2196TIP3   OH2 6593   0.679   2.544   1.736
 2196TIP3    H1 6594   0.730   2.571   1.659
 2196TIP3    H2 6595   0.593   2.584   1.722
 2197TIP3   OH2 6596   5.024   5.708   0.592
 2197TIP3    H1 6597   5.076   5.628   0.604
 2197TIP3    H2 6598   5.027   5.751   0.678
 2198TIP3   OH2 6599   2.790   4.857   4.743
 2198TIP3    H1 6600   2.824   4.773   4.772
 2198TIP3    H2 6601   2.857   4.921   4.768
 2199TIP3   OH2 6602   4.656   1.988   4.887
 2199TIP3    H1 6603   4.563   1.986   4.863
 2199TIP3    H2 6604   4.702   1.998   4.804
 2200TIP3   OH2 6605   2.413   0.483   0.217
 2200TIP3    H1 6606   2.492   0.463   0.166
 2200TIP3    H2 6607   2.398   0.576   0.203
 2201TIP3   OH2 6608   0.618   5.756   2.510
 2201TIP3    H1 6609   0.552   5.688   2.525
 2201TIP3    H2 6610   0.609   5.778   2.417
 2202TIP3   OH2 6611   3.814   0.728   4.158
 2202TIP3    H1 6612   3.787   0.715   4.067
 2202TIP3    H2 6613   3.749   0.681   4.210
 2203TIP3   OH2 6614   2.464   0.809   3.629
 2203TIP3    H1 6615   2.404   0.735   3.622
 2203TIP3    H2 6616   2.542   0.781   3.579
 2204TIP3   OH2 6617   1.958   1.167   3.960
 2204TIP3    H1 6618   2.040   1.118   3.963
 2204TIP3    H2 6619   1.903   1.125   4.026
 2205TIP3   OH2 6620   5.760   2.288   0.333
 2205TIP3    H1 6621   5.717   2.243   0.406
 2205TIP3    H2 6622   5.835   2.233   0.312
 2206TIP3   OH2 6623   1.874   1.619   0.356
 2206TIP3    H1 6624   1.879   1.715   0.346
 2206TIP3    H2 6625   1.829   1.589   0.277
 2207TIP3   OH2 6626   0.461   4.794   4.922
 2207TIP3    H1 6627   0.502   4.880   4.931
 2207TIP3    H2 6628   0.388   4.809   4.861
 2208TIP3   OH2 6629   5.162   1.822   2.114
 2208TIP3    H1 6630   5.154   1.727   2.107
 2208TIP3    H2 6631   5.244   1.843   2.069
 2209TIP3   OH2 6632   1.663   5.771   0.110
 2209TIP3    H1 6633   1.733   5.747   0.171
 2209TIP3    H2 6634   1.586   5.727   0.145
 2210TIP3   OH2 6635   0.465   3.105   1.851
 2210TIP3    H1 6636   0.485   3.082   1.760
 2210TIP3    H2 6637   0.380   3.063   1.868
 2211TIP3   OH2 6638   2.717   2.968   3.547
 2211TIP3    H1 6639   2.645   2.979   3.610
 2211TIP3    H2 6640   2.775   3.042   3.563
 2212TIP3   OH2 6641   3.815   2.092   4.216
 2212TIP3    H1 6642   3.801   2.076   4.309
 2212TIP3    H2 6643   3.869   2.171   4.214
 2213TIP3   OH2 6644   2.933   2.058   1.117
 2213TIP3    H1 6645   2.889   2.074   1.201
 2213TIP3    H2 6646   2.988   2.136   1.103
 2214TIP3   OH2 6647   4.970   1.796   3.370
 2214TIP3    H1 6648   4.969   1.788   3.274
 2214TIP3    H2 6649   4.881   1.823   3.392
 2215TIP3   OH2 6650   2.037   5.771   3.233
 2215TIP3    H1 6651   2.046   5.847   3.175
 2215TIP3    H2 6652   2.108   5.781   3.296
 2216TIP3   OH2 6653   2.031   0.905   2.421
 2216TIP3    H1 6654   2.021   0.951   2.504
 2216TIP3    H2 6655   1.946   0.862   2.407
 2217TIP3   OH2 6656   6.140   1.545   2.718
 2217TIP3    H1 6657   6.072   1.589   2.769
 2217TIP3    H2 6658   6.124   1.572   2.628
 2218TIP3   OH2 6659   5.743   5.869   4.859
 2218TIP3    H1 6660   5.834   5.871   4.831
 2218TIP3    H2 6661   5.696   5.828   4.787
 2219TIP3   OH2 6662   0.239   4.671   3.678
 2219TIP3    H1 6663   0.216   4.627   3.760
 2219TIP3    H2 6664   0.169   4.649   3.618
 2220TIP3   OH2 6665   3.543   4.194   4.037
 2220TIP3    H1 6666   3.453   4.222   4.024
 2220TIP3    H2 6667   3.595   4.274   4.026
 2221TIP3   OH2 6668   1.642   1.707   3.640
 2221TIP3    H1 6669   1.712   1.642   3.635
 2221TIP3    H2 6670   1.562   1.656   3.644
 2222TIP3   OH2 6671   1.870   5.259   4.608
 2222TIP3    H1 6672   1.923   5.194   4.654
 2222TIP3    H2 6673   1.836   5.316   4.676
 2223TIP3   OH2 6674   2.910   5.408   2.163
 2223TIP3    H1 6675   2.944   5.477   2.107
 2223TIP3    H2 6676   2.851   5.453   2.223
 2224TIP3   OH2 6677   0.145   5.732   0.765
 2224TIP3    H1 6678   0.234   5.742   0.797
 2224TIP3    H2 6679   0.150   5.663   0.699
 2225TIP3   OH2 6680   4.280   0.406   3.149
 2225TIP3    H1 6681   4.268   0.362   3.233
 2225TIP3    H2 6682   4.320   0.340   3.093
 2226TIP3   OH2 6683   4.892   3.441   0.340
 2226TIP3    H1 6684   4.813   3.462   0.390
 2226TIP3    H2 6685   4.934   3.525   0.324
 2227TIP3   OH2 6686   1.381   4.269   1.068
 2227TIP3    H1 6687   1.401   4.224   1.150
 2227TIP3    H2 6688   1.299   4.229   1.038
 2228TIP3   OH2 6689   3.045   5.470   3.502
 2228TIP3    H1 6690   2.988   5.547   3.503
 2228TIP3    H2 6691   3.086   5.470   3.589
 2229TIP3   OH2 6692   2.763   4.369   2.102
 2229TIP3    H1 6693   2.767   4.463   2.118
 2229TIP3    H2 6694   2.715   4.334   2.177
 2230TIP3   OH2 6695   0.248   4.582   0.629
 2230TIP3    H1 6696   0.299   4.663   0.638
 2230TIP3    H2 6697   0.214   4.565   0.717
 2231TIP3   OH2 6698   4.892   0.772   4.053
 2231TIP3    H1 6699   4.915   0.781   3.960
 2231TIP3    H2 6700   4.968   0.804   4.100
 2232TIP3   OH2 6701   2.781   2.447   1.535
 2232TIP3    H1 6702   2.750   2.358   1.556
 2232TIP3    H2 6703   2.750   2.500   1.608
 2233TIP3   OH2 6704   1.092   4.087   3.302
 2233TIP3    H1 6705   1.093   4.009   3.247
 2233TIP3    H2 6706   1.007   4.128   3.284
 2234TIP3   OH2 6707   5.879   2.959   2.489
 2234TIP3    H1 6708   5.877   2.900   2.414
 2234TIP3    H2 6709   5.936   3.031   2.461
 2235TIP3   OH2 6710   1.427   3.552   1.407
 2235TIP3    H1 6711   1.512   3.515   1.380
 2235TIP3    H2 6712   1.363   3.487   1.377
 2236TIP3   OH2 6713   0.092   4.104   2.137
 2236TIP3    H1 6714   0.162   4.131   2.077
 2236TIP3    H2 6715   0.050   4.186   2.162
 2237TIP3   OH2 6716   3.537   3.552   2.502
 2237TIP3    H1 6717   3.607   3.500   2.541
 2237TIP3    H2 6718   3.478   3.572   2.575
 2238TIP3   OH2 6719   3.085   4.217   4.071
 2238TIP3    H1 6720   3.090   4.133   4.026
 2238TIP3    H2 6721   3.031   4.272   4.013
 2239TIP3   OH2 6722   2.350   1.716   0.628
 2239TIP3    H1 6723   2.335   1.679   0.541
 2239TIP3    H2 6724   2.270   1.765   0.648
 2240TIP3   OH2 6725   5.734   5.958   0.970
 2240TIP3    H1 6726   5.799   5.900   0.931
 2240TIP3    H2 6727   5.657   5.950   0.913
 2241TIP3   OH2 6728   0.856   5.128   0.877
 2241TIP3    H1 6729   0.871   5.102   0.968
 2241TIP3    H2 6730   0.761   5.120   0.865
 2242TIP3   OH2 6731   6.133   3.963   4.421
 2242TIP3    H1 6732   6.056   3.934   4.372
 2242TIP3    H2 6733   6.187   4.008   4.357
 2243TIP3   OH2 6734   1.488   3.150   0.325
 2243TIP3    H1 6735   1.425   3.090   0.364
 2243TIP3    H2 6736   1.520   3.104   0.247
 2244TIP3   OH2 6737   0.958   5.143   4.550
 2244TIP3    H1 6738   0.963   5.216   4.489
 2244TIP3    H2 6739   0.864   5.127   4.561
 2245TIP3   OH2 6740   1.441   1.905   1.398
 2245TIP3    H1 6741   1.449   2.000   1.412
 2245TIP3    H2 6742   1.481   1.867   1.477
 2246TIP3   OH2 6743   1.008   3.560   3.928
 2246TIP3    H1 6744   1.086   3.506   3.937
 2246TIP3    H2 6745   0.945   3.504   3.883
 2247TIP3   OH2 6746   1.777   0.460   0.849
 2247TIP3    H1 6747   1.863   0.428   0.874
 2247TIP3    H2 6748   1.786   0.486   0.757
 2248TIP3   OH2 6749   3.078   4.965   1.825
 2248TIP3    H1 6750   2.983   4.977   1.817
 2248TIP3    H2 6751   3.113   4.991   1.740
 2249TIP3   OH2 6752   5.982   4.882   4.178
 2249TIP3    H1 6753   6.057   4.841   4.134
 2249TIP3    H2 6754   5.907   4.829   4.151
 2250TIP3   OH2 6755   0.733   3.417   4.440
 2250TIP3    H1 6756   0.820   3.413   4.401
 2250TIP3    H2 6757   0.736   3.494   4.497
 2251TIP3   OH2 6758   4.932   2.683   0.398
 2251TIP3    H1 6759   4.909   2.608   0.453
 2251TIP3    H2 6760   4.986   2.646   0.328
 2252TIP3   OH2 6761   5.870   0.190   5.128
 2252TIP3    H1 6762   5.866   0.235   5.043
 2252TIP3    H2 6763   5.915   0.252   5.186
 2253TIP3   OH2 6764   1.104   0.553   3.991
 2253TIP3    H1 6765   1.173   0.510   3.940
 2253TIP3    H2 6766   1.049   0.481   4.022
 2254TIP3   OH2 6767   2.431   5.255   1.289
 2254TIP3    H1 6768   2.396   5.332   1.335
 2254TIP3    H2 6769   2.443   5.284   1.199
 2255TIP3   OH2 6770   3.844   0.397   4.267
 2255TIP3    H1 6771   3.905   0.425   4.199
 2255TIP3    H2 6772   3.893   0.409   4.349
 2256TIP3   OH2 6773   5.585   3.549   4.178
 2256TIP3    H1 6774   5.501   3.593   4.165
 2256TIP3    H2 6775   5.563   3.468   4.223
 2257TIP3   OH2 6776   5.267   1.046   4.976
 2257TIP3    H1 6777   5.287   1.028   4.884
 2257TIP3    H2 6778   5.350   1.076   5.013
 2258TIP3   OH2 6779   2.648   1.633   3.542
 2258TIP3    H1 6780   2.562   1.612   3.505
 2258TIP3    H2 6781   2.647   1.728   3.551
 2259TIP3   OH2 6782   2.429   4.032   3.681
 2259TIP3    H1 6783   2.446   3.978   3.604
 2259TIP3    H2 6784   2.388   3.972   3.744
 2260TIP3   OH2 6785   0.244   2.116   1.981
 2260TIP3    H1 6786   0.284   2.033   2.009
 2260TIP3    H2 6787   0.316   2.179   1.983
 2261TIP3   OH2 6788   4.745   2.518   3.562
 2261TIP3    H1 6789   4.805   2.491   3.631
 2261TIP3    H2 6790   4.682   2.447   3.555
 2262TIP3   OH2 6791   5.605   3.759   4.641
 2262TIP3    H1 6792   5.537   3.819   4.610
 2262TIP3    H2 6793   5.565   3.672   4.634
 2263TIP3   OH2 6794   2.798   2.082   2.493
 2263TIP3    H1 6795   2.827   2.114   2.408
 2263TIP3    H2 6796   2.878   2.053   2.536
 2264TIP3   OH2 6797   3.364   0.533   0.279
 2264TIP3    H1 6798   3.286   0.524   0.334
 2264TIP3    H2 6799   3.376   0.446   0.241
 2265TIP3   OH2 6800   6.004   4.057   1.070
 2265TIP3    H1 6801   5.967   3.978   1.032
 2265TIP3    H2 6802   5.940   4.085   1.136
 2266TIP3   OH2 6803   3.032   5.825   1.590
 2266TIP3    H1 6804   2.970   5.872   1.646
 2266TIP3    H2 6805   2.977   5.771   1.533
 2267TIP3   OH2 6806   5.480   4.376   1.062
 2267TIP3    H1 6807   5.411   4.339   1.007
 2267TIP3    H2 6808   5.436   4.397   1.144
 2268TIP3   OH2 6809   3.628   3.899   0.946
 2268TIP3    H1 6810   3.572   3.857   1.012
 2268TIP3    H2 6811   3.664   3.826   0.896
 2269TIP3   OH2 6812   4.387   3.579   4.833
 2269TIP3    H1 6813   4.378   3.539   4.920
 2269TIP3    H2 6814   4.450   3.523   4.787
 2270TIP3   OH2 6815   4.136   2.200   0.238
 2270TIP3    H1 6816   4.219   2.228   0.278
 2270TIP3    H2 6817   4.122   2.111   0.270
 2271TIP3   OH2 6818   0.357   1.227   1.047
 2271TIP3    H1 6819   0.298   1.199   0.977
 2271TIP3    H2 6820   0.344   1.162   1.116
 2272TIP3   OH2 6821   3.598   2.344   0.549
 2272TIP3    H1 6822   3.634   2.344   0.638
 2272TIP3    H2 6823   3.514   2.390   0.558
 2273TIP3   OH2 6824   5.660   4.724   0.331
 2273TIP3    H1 6825   5.599   4.653   0.352
 2273TIP3    H2 6826   5.626   4.800   0.378
 2274TIP3   OH2 6827   6.253   2.492   2.974
 2274TIP3    H1 6828   6.163   2.510   2.946
 2274TIP3    H2 6829   6.243   2.430   3.046
 2275TIP3   OH2 6830   3.369   5.609   5.149
 2275TIP3    H1 6831   3.346   5.537   5.208
 2275TIP3    H2 6832   3.363   5.570   5.061
 2276TIP3   OH2 6833   4.219   4.699   1.281
 2276TIP3    H1 6834   4.188   4.661   1.363
 2276TIP3    H2 6835   4.252   4.785   1.306
 2277TIP3   OH2 6836   0.853   1.622   0.979
 2277TIP3    H1 6837   0.846   1.600   1.072
 2277TIP3    H2 6838   0.786   1.689   0.966
 2278TIP3   OH2 6839   0.778   1.696   5.103
 2278TIP3    H1 6840   0.854   1.714   5.048
 2278TIP3    H2 6841   0.719   1.770   5.089
 2279TIP3   OH2 6842   0.351   2.770   1.442
 2279TIP3    H1 6843   0.267   2.737   1.473
 2279TIP3    H2 6844   0.329   2.829   1.369
 2280TIP3   OH2 6845   2.321   5.521   1.006
 2280TIP3    H1 6846   2.313   5.616   1.004
 2280TIP3    H2 6847   2.411   5.504   0.980
 2281TIP3   OH2 6848   0.924   1.359   2.093
 2281TIP3    H1 6849   0.873   1.280   2.111
 2281TIP3    H2 6850   0.861   1.420   2.055
 2282TIP3   OH2 6851   0.666   0.874   0.653
 2282TIP3    H1 6852   0.637   0.838   0.736
 2282TIP3    H2 6853   0.587   0.907   0.611
 2283TIP3   OH2 6854   4.049   2.190   3.217
 2283TIP3    H1 6855   3.996   2.223   3.290
 2283TIP3    H2 6856   4.077   2.268   3.170
 2284TIP3   OH2 6857   1.012   2.699   0.937
 2284TIP3    H1 6858   0.977   2.657   0.859
 2284TIP3    H2 6859   1.106   2.706   0.922
 2285TIP3   OH2 6860   4.114   4.860   0.861
 2285TIP3    H1 6861   4.159   4.814   0.789
 2285TIP3    H2 6862   4.035   4.809   0.875
 2286TIP3   OH2 6863   0.454   4.097   2.586
 2286TIP3    H1 6864   0.492   4.013   2.562
 2286TIP3    H2 6865   0.519   4.138   2.643
 2287TIP3   OH2 6866   3.559   3.542   0.932
 2287TIP3    H1 6867   3.626   3.561   0.867
 2287TIP3    H2 6868   3.588   3.588   1.011
 2288TIP3   OH2 6869   0.694   0.398   4.123
 2288TIP3    H1 6870   0.673   0.457   4.050
 2288TIP3    H2 6871   0.664   0.444   4.201
 2289TIP3   OH2 6872   3.246   4.188   0.809
 2289TIP3    H1 6873   3.269   4.096   0.816
 2289TIP3    H2 6874   3.213   4.198   0.719
 2290TIP3   OH2 6875   1.358   0.125   1.306
 2290TIP3    H1 6876   1.265   0.136   1.326
 2290TIP3    H2 6877   1.374   0.186   1.234
 2291TIP3   OH2 6878   2.849   4.103   0.050
 2291TIP3    H1 6879   2.780   4.104   0.117
 2291TIP3    H2 6880   2.807   4.063  -0.026
 2292TIP3   OH2 6881   1.461   2.670   1.785
 2292TIP3    H1 6882   1.377   2.713   1.771
 2292TIP3    H2 6883   1.453   2.629   1.871
 2293TIP3   OH2 6884   3.135   3.238   4.184
 2293TIP3    H1 6885   3.062   3.299   4.174
 2293TIP3    H2 6886   3.106   3.159   4.137
 2294TIP3   OH2 6887   0.053   3.449   2.295
 2294TIP3    H1 6888   0.001   3.516   2.339
 2294TIP3    H2 6889   0.056   3.477   2.204
 2295TIP3   OH2 6890   4.043   5.459   4.726
 2295TIP3    H1 6891   3.988   5.527   4.687
 2295TIP3    H2 6892   4.067   5.493   4.812
 2296TIP3   OH2 6893   3.544   4.019   4.333
 2296TIP3    H1 6894   3.458   4.002   4.371
 2296TIP3    H2 6895   3.544   4.113   4.314
 2297TIP3   OH2 6896   2.598   5.507   1.398
 2297TIP3    H1 6897   2.636   5.495   1.311
 2297TIP3    H2 6898   2.562   5.596   1.397
 2298TIP3   OH2 6899   3.473   2.514   2.273
 2298TIP3    H1 6900   3.544   2.449   2.270
 2298TIP3    H2 6901   3.473   2.544   2.364
 2299TIP3   OH2 6902   2.902   2.784   4.216
 2299TIP3    H1 6903   2.941   2.732   4.286
 2299TIP3    H2 6904   2.809   2.787   4.237
 2300TIP3   OH2 6905   4.221   2.725   5.157
 2300TIP3    H1 6906   4.188   2.760   5.074
 2300TIP3    H2 6907   4.297   2.779   5.178
 2301TIP3   OH2 6908   4.546   4.534   3.950
 2301TIP3    H1 6909   4.603   4.601   3.987
 2301TIP3    H2 6910   4.462   4.577   3.940
 2302TIP3   OH2 6911   0.208   1.338   4.775
 2302TIP3    H1 6912   0.273   1.268   4.765
 2302TIP3    H2 6913   0.259   1.415   4.801
 2303TIP3   OH2 6914   3.206   2.004   2.124
 2303TIP3    H1 6915   3.222   2.088   2.166
 2303TIP3    H2 6916   3.237   2.016   2.034
 2304TIP3   OH2 6917   0.273   1.450   3.532
 2304TIP3    H1 6918   0.320   1.389   3.589
 2304TIP3    H2 6919   0.196   1.476   3.584
 2305TIP3   OH2 6920   2.338   1.449   1.300
 2305TIP3    H1 6921   2.280   1.374   1.314
 2305TIP3    H2 6922   2.278   1.523   1.286
 2306TIP3   OH2 6923   3.340   2.725   1.651
 2306TIP3    H1 6924   3.373   2.729   1.741
 2306TIP3    H2 6925   3.327   2.817   1.627
 2307TIP3   OH2 6926   1.903   0.451   5.102
 2307TIP3    H1 6927   1.942   0.526   5.056
 2307TIP3    H2 6928   1.873   0.487   5.185
 2308TIP3   OH2 6929   5.499   5.645   1.831
 2308TIP3    H1 6930   5.487   5.558   1.793
 2308TIP3    H2 6931   5.541   5.629   1.916
 2309TIP3   OH2 6932   1.738   2.105   4.187
 2309TIP3    H1 6933   1.827   2.108   4.223
 2309TIP3    H2 6934   1.696   2.033   4.234
 2310TIP3   OH2 6935   2.505   0.684   4.415
 2310TIP3    H1 6936   2.458   0.767   4.410
 2310TIP3    H2 6937   2.564   0.695   4.489
 2311TIP3   OH2 6938   0.247   1.999   1.246
 2311TIP3    H1 6939   0.157   2.017   1.220
 2311TIP3    H2 6940   0.241   1.971   1.337
 2312TIP3   OH2 6941   6.356   3.620   2.754
 2312TIP3    H1 6942   6.263   3.629   2.734
 2312TIP3    H2 6943   6.400   3.637   2.671
 2313TIP3   OH2 6944   3.142   4.738   2.982
 2313TIP3    H1 6945   3.193   4.722   2.902
 2313TIP3    H2 6946   3.051   4.732   2.954
 2314TIP3   OH2 6947   4.888   4.460   2.472
 2314TIP3    H1 6948   4.858   4.369   2.477
 2314TIP3    H2 6949   4.974   4.455   2.431
 2315TIP3   OH2 6950   3.305   5.426   0.839
 2315TIP3    H1 6951   3.353   5.432   0.922
 2315TIP3    H2 6952   3.326   5.339   0.805
 2316TIP3   OH2 6953   5.894   1.634   4.447
 2316TIP3    H1 6954   5.983   1.614   4.478
 2316TIP3    H2 6955   5.863   1.553   4.409
 2317TIP3   OH2 6956   5.720   5.126   5.006
 2317TIP3    H1 6957   5.656   5.192   5.033
 2317TIP3    H2 6958   5.722   5.133   4.910
 2318TIP3   OH2 6959   3.568   5.553   2.746
 2318TIP3    H1 6960   3.646   5.607   2.731
 2318TIP3    H2 6961   3.522   5.553   2.662
 2319TIP3   OH2 6962   2.178   2.880   2.905
 2319TIP3    H1 6963   2.143   2.791   2.906
 2319TIP3    H2 6964   2.252   2.876   2.845
 2320TIP3   OH2 6965   6.251   0.992   3.080
 2320TIP3    H1 6966   6.233   0.898   3.078
 2320TIP3    H2 6967   6.339   0.999   3.117
 2321TIP3   OH2 6968   6.125   5.338   4.305
 2321TIP3    H1 6969   6.163   5.361   4.390
 2321TIP3    H2 6970   6.183   5.270   4.271
 2322TIP3   OH2 6971   2.061   0.075   0.012
 2322TIP3    H1 6972   1.990   0.077   0.075
 2322TIP3    H2 6973   2.039   0.141  -0.053
 2323TIP3   OH2 6974   2.316   0.472   2.514
 2323TIP3    H1 6975   2.321   0.509   2.602
 2323TIP3    H2 6976   2.224   0.477   2.491
 2324TIP3   OH2 6977   4.488   1.763   4.735
 2324TIP3    H1 6978   4.469   1.854   4.758
 2324TIP3    H2 6979   4.436   1.712   4.797
 2325TIP3   OH2 6980   4.048   3.027   1.513
 2325TIP3    H1 6981   4.119   3.055   1.572
 2325TIP3    H2 6982   4.059   2.932   1.507
 2326TIP3   OH2 6983   1.445   4.813   3.691
 2326TIP3    H1 6984   1.487   4.845   3.611
 2326TIP3    H2 6985   1.441   4.718   3.680
 2327TIP3   OH2 6986   1.822   3.922   1.379
 2327TIP3    H1 6987   1.866   3.945   1.461
 2327TIP3    H2 6988   1.732   3.954   1.390
 2328TIP3   OH2 6989   1.847   1.330   1.683
 2328TIP3    H1 6990   1.837   1.365   1.594
 2328TIP3    H2 6991   1.849   1.235   1.671
 2329TIP3   OH2 6992   5.596   2.970   2.433
 2329TIP3    H1 6993   5.591   2.877   2.413
 2329TIP3    H2 6994   5.675   2.978   2.487
 2330TIP3   OH2 6995   5.097   5.326   3.587
 2330TIP3    H1 6996   5.009   5.330   3.624
 2330TIP3    H2 6997   5.140   5.406   3.618
 2331TIP3   OH2 6998   2.617   1.283   2.634
 2331TIP3    H1 6999   2.671   1.355   2.600
 2331TIP3    H2 7000   2.527   1.312   2.619
 2332TIP3   OH2 7001   3.781   1.709   0.878
 2332TIP3    H1 7002   3.804   1.714   0.971
 2332TIP3    H2 7003   3.834   1.777   0.836
 2333TIP3   OH2 7004   4.427   2.659   2.063
 2333TIP3    H1 7005   4.415   2.691   1.973
 2333TIP3    H2 7006   4.502   2.708   2.095
 2334TIP3   OH2 7007   1.965   1.489   1.868
 2334TIP3    H1 7008   2.005   1.413   1.912
 2334TIP3    H2 7009   1.906   1.450   1.803
 2335TIP3   OH2 7010   0.448   5.474   4.590
 2335TIP3    H1 7011   0.373   5.531   4.607
 2335TIP3    H2 7012   0.455   5.472   4.495
 2336TIP3   OH2 7013   3.713   0.898   1.663
 2336TIP3    H1 7014   3.745   0.883   1.574
 2336TIP3    H2 7015   3.655   0.973   1.655
 2337TIP3   OH2 7016   3.432   2.678   4.807
 2337TIP3    H1 7017   3.477   2.741   4.751
 2337TIP3    H2 7018   3.430   2.598   4.756
 2338TIP3   OH2 7019   0.503   0.096   3.079
 2338TIP3    H1 7020   0.489   0.156   3.007
 2338TIP3    H2 7021   0.441   0.025   3.064
 2339TIP3   OH2 7022   2.374   4.918   1.559
 2339TIP3    H1 7023   2.334   4.934   1.473
 2339TIP3    H2 7024   2.454   4.970   1.558
 2340TIP3   OH2 7025   0.522   5.156   2.831
 2340TIP3    H1 7026   0.614   5.150   2.808
 2340TIP3    H2 7027   0.513   5.103   2.911
 2341TIP3   OH2 7028   1.506   3.992   3.666
 2341TIP3    H1 7029   1.532   4.068   3.718
 2341TIP3    H2 7030   1.587   3.943   3.653
 2342TIP3   OH2 7031   5.043   5.573   3.080
 2342TIP3    H1 7032   5.100   5.649   3.087
 2342TIP3    H2 7033   4.972   5.601   3.022
 2343TIP3   OH2 7034   0.414   1.641   1.348
 2343TIP3    H1 7035   0.363   1.598   1.279
 2343TIP3    H2 7036   0.361   1.717   1.372
 2344TIP3   OH2 7037   3.703   0.616   0.897
 2344TIP3    H1 7038   3.648   0.654   0.828
 2344TIP3    H2 7039   3.660   0.534   0.920
 2345TIP3   OH2 7040   4.248   3.399   3.636
 2345TIP3    H1 7041   4.280   3.309   3.634
 2345TIP3    H2 7042   4.232   3.418   3.729
 2346TIP3   OH2 7043   0.069   1.725   4.014
 2346TIP3    H1 7044   0.164   1.720   4.002
 2346TIP3    H2 7045   0.037   1.765   3.933
 2347TIP3   OH2 7046   0.225   1.118   2.583
 2347TIP3    H1 7047   0.233   1.040   2.638
 2347TIP3    H2 7048   0.315   1.147   2.568
 2348TIP3   OH2 7049   6.048   2.852   3.464
 2348TIP3    H1 7050   6.055   2.944   3.491
 2348TIP3    H2 7051   6.129   2.812   3.496
 2349TIP3   OH2 7052   3.717   0.855   4.990
 2349TIP3    H1 7053   3.709   0.847   5.085
 2349TIP3    H2 7054   3.804   0.819   4.970
 2350TIP3   OH2 7055   3.375   2.447   1.597
 2350TIP3    H1 7056   3.369   2.541   1.614
 2350TIP3    H2 7057   3.310   2.409   1.656
 2351TIP3   OH2 7058   0.821   5.674   1.517
 2351TIP3    H1 7059   0.776   5.726   1.450
 2351TIP3    H2 7060   0.860   5.601   1.468
 2352TIP3   OH2 7061   0.193   4.480   2.974
 2352TIP3    H1 7062   0.270   4.532   2.996
 2352TIP3    H2 7063   0.228   4.400   2.935
 2353TIP3   OH2 7064   4.244   4.978   0.464
 2353TIP3    H1 7065   4.224   5.020   0.381
 2353TIP3    H2 7066   4.200   5.032   0.530
 2354TIP3   OH2 7067   4.926   5.005   1.495
 2354TIP3    H1 7068   4.941   5.071   1.428
 2354TIP3    H2 7069   4.886   5.053   1.568
 2355TIP3   OH2 7070   5.123   5.400   2.155
 2355TIP3    H1 7071   5.203   5.349   2.162
 2355TIP3    H2 7072   5.077   5.362   2.080
 2356TIP3   OH2 7073   5.446   2.361   0.572
 2356TIP3    H1 7074   5.458   2.445   0.527
 2356TIP3    H2 7075   5.406   2.384   0.656
 2357TIP3   OH2 7076   0.370   2.844   5.100
 2357TIP3    H1 7077   0.420   2.834   5.019
 2357TIP3    H2 7078   0.313   2.767   5.104
 2358TIP3   OH2 7079   6.250   4.518   1.560
 2358TIP3    H1 7080   6.322   4.467   1.598
 2358TIP3    H2 7081   6.241   4.484   1.471
 2359TIP3   OH2 7082   0.026   5.630   4.547
 2359TIP3    H1 7083   0.042   5.656   4.457
 2359TIP3    H2 7084  -0.023   5.548   4.540
 2360TIP3   OH2 7085  -0.034   1.394   4.637
 2360TIP3    H1 7086   0.046   1.384   4.689
 2360TIP3    H2 7087  -0.043   1.310   4.591
 2361TIP3   OH2 7088  -0.033   3.450   1.810
 2361TIP3    H1 7089  -0.023   3.459   1.905
 2361TIP3    H2 7090   0.025   3.517   1.774
 2362TIP3   OH2 7091   3.090   0.082   1.456
 2362TIP3    H1 7092   3.150   0.020   1.496
 2362TIP3    H2 7093   3.052   0.035   1.382
 2363TIP3   OH2 7094   6.187   2.403   5.000
 2363TIP3    H1 7095   6.243   2.367   5.069
 2363TIP3    H2 7096   6.101   2.413   5.041
 2364TIP3   OH2 7097   5.750   1.145   1.886
 2364TIP3    H1 7098   5.682   1.185   1.830
 2364TIP3    H2 7099   5.705   1.127   1.969
 2365TIP3   OH2 7100   5.436   3.015   4.837
 2365TIP3    H1 7101   5.454   2.991   4.747
 2365TIP3    H2 7102   5.498   3.086   4.855
 2366TIP3   OH2 7103   5.290   0.602   3.458
 2366TIP3    H1 7104   5.238   0.681   3.472
 2366TIP3    H2 7105   5.373   0.619   3.502
 2367TIP3   OH2 7106   4.896   5.971   1.919
 2367TIP3    H1 7107   4.865   6.048   1.967
 2367TIP3    H2 7108   4.935   6.007   1.839
 2368TIP3   OH2 7109  -0.026   1.159   4.511
 2368TIP3    H1 7110   0.045   1.129   4.567
 2368TIP3    H2 7111  -0.095   1.094   4.520
 2369TIP3   OH2 7112   5.909   3.036   3.157
 2369TIP3    H1 7113   5.982   3.060   3.213
 2369TIP3    H2 7114   5.944   3.041   3.068
 2370TIP3   OH2 7115   0.403   2.951   2.878
 2370TIP3    H1 7116   0.388   2.857   2.881
 2370TIP3    H2 7117   0.336   2.984   2.818
 2371TIP3   OH2 7118   2.396   1.058   1.979
 2371TIP3    H1 7119   2.324   1.032   2.036
 2371TIP3    H2 7120   2.422   1.145   2.011
 2372TIP3   OH2 7121   1.186   0.785   2.996
 2372TIP3    H1 7122   1.150   0.746   2.916
 2372TIP3    H2 7123   1.151   0.874   2.997
 2373TIP3   OH2 7124   1.526   2.935   3.020
 2373TIP3    H1 7125   1.438   2.925   3.056
 2373TIP3    H2 7126   1.579   2.872   3.069
 2374TIP3   OH2 7127   0.855   5.350   2.597
 2374TIP3    H1 7128   0.818   5.420   2.651
 2374TIP3    H2 7129   0.925   5.393   2.548
 2375TIP3   OH2 7130   4.946   1.975   2.008
 2375TIP3    H1 7131   5.025   1.937   2.045
 2375TIP3    H2 7132   4.900   2.013   2.083
 2376TIP3   OH2 7133   3.555   1.039   2.982
 2376TIP3    H1 7134   3.461   1.055   2.973
 2376TIP3    H2 7135   3.564   0.944   2.982
 2377TIP3   OH2 7136   2.521   1.005   0.154
 2377TIP3    H1 7137   2.459   1.055   0.100
 2377TIP3    H2 7138   2.531   1.058   0.233
 2378TIP3   OH2 7139   3.547   0.595   2.389
 2378TIP3    H1 7140   3.542   0.566   2.298
 2378TIP3    H2 7141   3.609   0.534   2.430
 2379TIP3   OH2 7142   2.454   5.919   1.626
 2379TIP3    H1 7143   2.541   5.878   1.623
 2379TIP3    H2 7144   2.407   5.868   1.692
 2380TIP3   OH2 7145   1.113   2.996   4.346
 2380TIP3    H1 7146   1.021   2.970   4.342
 2380TIP3    H2 7147   1.111   3.084   4.385
 2381TIP3   OH2 7148   6.047   5.625   4.795
 2381TIP3    H1 7149   6.002   5.689   4.740
 2381TIP3    H2 7150   6.086   5.677   4.865
 2382TIP3   OH2 7151   6.068   5.120   2.512
 2382TIP3    H1 7152   6.110   5.034   2.508
 2382TIP3    H2 7153   5.994   5.108   2.571
 2383TIP3   OH2 7154   0.039   3.677   3.549
 2383TIP3    H1 7155   0.008   3.766   3.566
 2383TIP3    H2 7156  -0.007   3.622   3.613
 2384TIP3   OH2 7157   3.784   2.551   1.084
 2384TIP3    H1 7158   3.814   2.470   1.044
 2384TIP3    H2 7159   3.865   2.596   1.112
 2385TIP3   OH2 7160   5.537   0.844   4.973
 2385TIP3    H1 7161   5.515   0.934   4.997
 2385TIP3    H2 7162   5.596   0.813   5.041
 2386TIP3   OH2 7163   5.708   6.054   2.992
 2386TIP3    H1 7164   5.661   6.059   2.909
 2386TIP3    H2 7165   5.715   5.961   3.010
 2387TIP3   OH2 7166   3.951   1.387   4.024
 2387TIP3    H1 7167   3.867   1.393   3.977
 2387TIP3    H2 7168   3.930   1.411   4.114
 2388TIP3   OH2 7169   6.033   1.904   4.527
 2388TIP3    H1 7170   6.038   1.812   4.500
 2388TIP3    H2 7171   5.939   1.922   4.534
 2389TIP3   OH2 7172   1.674   0.240   3.602
 2389TIP3    H1 7173   1.613   0.167   3.615
 2389TIP3    H2 7174   1.631   0.296   3.537
 2390TIP3   OH2 7175   5.997   1.301   0.215
 2390TIP3    H1 7176   6.004   1.348   0.133
 2390TIP3    H2 7177   6.078   1.250   0.221
 2391TIP3   OH2 7178   6.285   2.918   1.904
 2391TIP3    H1 7179   6.266   2.950   1.992
 2391TIP3    H2 7180   6.236   2.976   1.846
 2392TIP3   OH2 7181   5.648   5.959   2.202
 2392TIP3    H1 7182   5.580   5.971   2.268
 2392TIP3    H2 7183   5.725   5.933   2.252
 2393TIP3   OH2 7184   5.532   4.366   0.247
 2393TIP3    H1 7185   5.503   4.278   0.225
 2393TIP3    H2 7186   5.456   4.421   0.231
 2394TIP3   OH2 7187   1.743   3.523   4.058
 2394TIP3    H1 7188   1.678   3.463   4.022
 2394TIP3    H2 7189   1.754   3.495   4.149
 2395TIP3   OH2 7190   1.921   3.001   0.995
 2395TIP3    H1 7191   1.898   3.077   1.050
 2395TIP3    H2 7192   1.839   2.976   0.954
 2396TIP3   OH2 7193   1.810   2.089   3.259
 2396TIP3    H1 7194   1.729   2.060   3.217
 2396TIP3    H2 7195   1.874   2.021   3.238
 2397TIP3   OH2 7196   1.256   1.082   2.232
 2397TIP3    H1 7197   1.268   1.167   2.190
 2397TIP3    H2 7198   1.170   1.087   2.273
 2398TIP3   OH2 7199   1.975   1.753   1.802
 2398TIP3    H1 7200   2.048   1.796   1.758
 2398TIP3    H2 7201   1.999   1.661   1.805
 2399TIP3   OH2 7202   3.956   2.850   0.857
 2399TIP3    H1 7203   3.935   2.876   0.947
 2399TIP3    H2 7204   4.052   2.857   0.852
 2400TIP3   OH2 7205   3.532   0.722   1.210
 2400TIP3    H1 7206   3.612   0.672   1.193
 2400TIP3    H2 7207   3.506   0.697   1.298
 2401TIP3   OH2 7208   2.559   2.303   2.770
 2401TIP3    H1 7209   2.649   2.277   2.790
 2401TIP3    H2 7210   2.535   2.252   2.693
 2402TIP3   OH2 7211   0.942   4.099   1.945
 2402TIP3    H1 7212   1.037   4.106   1.943
 2402TIP3    H2 7213   0.912   4.184   1.976
 2403TIP3   OH2 7214   4.366   5.591   3.751
 2403TIP3    H1 7215   4.367   5.681   3.719
 2403TIP3    H2 7216   4.411   5.541   3.683
 2404TIP3   OH2 7217   4.892   3.953   0.322
 2404TIP3    H1 7218   4.950   4.012   0.371
 2404TIP3    H2 7219   4.832   4.012   0.275
 2405TIP3   OH2 7220   3.998   0.441   4.497
 2405TIP3    H1 7221   4.007   0.520   4.443
 2405TIP3    H2 7222   4.016   0.471   4.586
 2406TIP3   OH2 7223   2.782   3.259   2.416
 2406TIP3    H1 7224   2.753   3.275   2.506
 2406TIP3    H2 7225   2.877   3.270   2.420
 2407TIP3   OH2 7226   2.602   1.212   3.437
 2407TIP3    H1 7227   2.584   1.129   3.393
 2407TIP3    H2 7228   2.517   1.256   3.443
 2408TIP3   OH2 7229   5.061   4.814   1.974
 2408TIP3    H1 7230   5.142   4.857   1.947
 2408TIP3    H2 7231   5.000   4.829   1.902
 2409TIP3   OH2 7232   5.169   4.357   2.463
 2409TIP3    H1 7233   5.154   4.262   2.456
 2409TIP3    H2 7234   5.247   4.373   2.411
 2410TIP3   OH2 7235   2.335   0.450   4.525
 2410TIP3    H1 7236   2.415   0.465   4.576
 2410TIP3    H2 7237   2.366   0.407   4.445
 2411TIP3   OH2 7238   0.376   0.093   2.245
 2411TIP3    H1 7239   0.426   0.125   2.170
 2411TIP3    H2 7240   0.291   0.137   2.239
 2412TIP3   OH2 7241   4.871   5.664   4.992
 2412TIP3    H1 7242   4.941   5.600   4.991
 2412TIP3    H2 7243   4.814   5.639   4.920
 2413TIP3   OH2 7244   1.979   5.644   2.672
 2413TIP3    H1 7245   1.911   5.616   2.734
 2413TIP3    H2 7246   2.028   5.711   2.719
 2414TIP3   OH2 7247   3.424   4.308   1.502
 2414TIP3    H1 7248   3.353   4.253   1.468
 2414TIP3    H2 7249   3.501   4.251   1.502
 2415TIP3   OH2 7250   0.014   0.817   4.362
 2415TIP3    H1 7251   0.044   0.898   4.320
 2415TIP3    H2 7252  -0.045   0.846   4.431
 2416TIP3   OH2 7253   4.125   1.918   3.486
 2416TIP3    H1 7254   4.109   1.886   3.397
 2416TIP3    H2 7255   4.163   2.005   3.473
 2417TIP3   OH2 7256   5.101   5.481   4.911
 2417TIP3    H1 7257   5.177   5.498   4.855
 2417TIP3    H2 7258   5.110   5.389   4.937
 2418TIP3   OH2 7259   4.472   1.216   0.688
 2418TIP3    H1 7260   4.517   1.211   0.603
 2418TIP3    H2 7261   4.505   1.141   0.737
 2419TIP3   OH2 7262   0.657   5.813   3.653
 2419TIP3    H1 7263   0.617   5.844   3.572
 2419TIP3    H2 7264   0.589   5.759   3.693
 2420TIP3   OH2 7265   0.988   5.753   1.049
 2420TIP3    H1 7266   1.079   5.775   1.071
 2420TIP3    H2 7267   0.968   5.806   0.972
 2421TIP3   OH2 7268   2.960   3.972   2.994
 2421TIP3    H1 7269   2.927   3.917   2.923
 2421TIP3    H2 7270   2.898   4.044   2.999
 2422TIP3   OH2 7271   4.599   5.022   2.298
 2422TIP3    H1 7272   4.533   5.083   2.330
 2422TIP3    H2 7273   4.604   5.039   2.204
 2423TIP3   OH2 7274   5.649   2.166   0.569
 2423TIP3    H1 7275   5.585   2.095   0.573
 2423TIP3    H2 7276   5.596   2.245   0.561
 2424TIP3   OH2 7277   0.757   4.741   1.680
 2424TIP3    H1 7278   0.682   4.702   1.725
 2424TIP3    H2 7279   0.828   4.678   1.694
 2425TIP3   OH2 7280   1.619   1.208   0.217
 2425TIP3    H1 7281   1.605   1.250   0.302
 2425TIP3    H2 7282   1.589   1.118   0.230
 2426TIP3   OH2 7283   4.483   5.694   2.823
 2426TIP3    H1 7284   4.421   5.766   2.808
 2426TIP3    H2 7285   4.432   5.627   2.868
 2427TIP3   OH2 7286   2.851   3.691   0.756
 2427TIP3    H1 7287   2.761   3.710   0.728
 2427TIP3    H2 7288   2.844   3.607   0.802
 2428TIP3   OH2 7289   2.526   3.596   2.277
 2428TIP3    H1 7290   2.494   3.567   2.363
 2428TIP3    H2 7291   2.461   3.660   2.248
 2429TIP3   OH2 7292   0.412   4.982   2.040
 2429TIP3    H1 7293   0.347   4.957   2.106
 2429TIP3    H2 7294   0.361   5.021   1.969
 2430TIP3   OH2 7295   0.770   1.795   0.230
 2430TIP3    H1 7296   0.697   1.759   0.180
 2430TIP3    H2 7297   0.823   1.718   0.253
 2431TIP3   OH2 7298   2.601   3.097   0.079
 2431TIP3    H1 7299   2.650   3.026   0.120
 2431TIP3    H2 7300   2.540   3.054   0.020
 2432TIP3   OH2 7301   2.623   2.218   1.498
 2432TIP3    H1 7302   2.551   2.206   1.560
 2432TIP3    H2 7303   2.597   2.294   1.446
 2433TIP3   OH2 7304   4.559   5.523   1.476
 2433TIP3    H1 7305   4.552   5.466   1.553
 2433TIP3    H2 7306   4.612   5.597   1.505
 2434TIP3   OH2 7307   2.298   3.942   0.271
 2434TIP3    H1 7308   2.376   3.899   0.305
 2434TIP3    H2 7309   2.248   3.966   0.350
 2435TIP3   OH2 7310   1.656   0.532   2.780
 2435TIP3    H1 7311   1.714   0.598   2.817
 2435TIP3    H2 7312   1.703   0.500   2.703
 2436TIP3   OH2 7313   4.618   1.993   1.994
 2436TIP3    H1 7314   4.714   1.990   1.994
 2436TIP3    H2 7315   4.594   2.016   1.905
 2437TIP3   OH2 7316   6.204   1.449   1.337
 2437TIP3    H1 7317   6.127   1.485   1.380
 2437TIP3    H2 7318   6.274   1.510   1.357
 2438TIP3   OH2 7319   0.590   5.851   1.963
 2438TIP3    H1 7320   0.622   5.809   1.883
 2438TIP3    H2 7321   0.498   5.870   1.944
 2439TIP3   OH2 7322   1.030   3.775   4.387
 2439TIP3    H1 7323   0.988   3.689   4.383
 2439TIP3    H2 7324   1.052   3.794   4.295
 2440TIP3   OH2 7325   3.722   3.060   4.889
 2440TIP3    H1 7326   3.792   3.109   4.846
 2440TIP3    H2 7327   3.767   3.005   4.953
 2441TIP3   OH2 7328   3.347   2.962   4.325
 2441TIP3    H1 7329   3.407   2.921   4.263
 2441TIP3    H2 7330   3.279   2.896   4.340
 2442TIP3   OH2 7331   0.823   5.502   4.518
 2442TIP3    H1 7332   0.888   5.536   4.578
 2442TIP3    H2 7333   0.873   5.449   4.456
 2443TIP3   OH2 7334   0.450   3.099   1.564
 2443TIP3    H1 7335   0.403   3.163   1.618
 2443TIP3    H2 7336   0.391   3.083   1.490
 2444TIP3   OH2 7337   6.052   2.508   1.687
 2444TIP3    H1 7338   6.141   2.478   1.669
 2444TIP3    H2 7339   5.996   2.441   1.648
 2445TIP3   OH2 7340   1.690   4.631   3.756
 2445TIP3    H1 7341   1.747   4.706   3.769
 2445TIP3    H2 7342   1.675   4.627   3.661
 2446TIP3   OH2 7343   1.835   4.333   4.925
 2446TIP3    H1 7344   1.846   4.389   4.848
 2446TIP3    H2 7345   1.824   4.245   4.889
 2447TIP3   OH2 7346   2.307   1.044   3.588
 2447TIP3    H1 7347   2.331   1.107   3.656
 2447TIP3    H2 7348   2.367   0.971   3.601
 2448TIP3   OH2 7349   1.690   0.994   2.904
 2448TIP3    H1 7350   1.726   1.058   2.842
 2448TIP3    H2 7351   1.703   1.034   2.990
 2449TIP3   OH2 7352   3.768   0.889   2.591
 2449TIP3    H1 7353   3.800   0.865   2.504
 2449TIP3    H2 7354   3.682   0.847   2.597
 2450TIP3   OH2 7355   4.168   0.915   0.888
 2450TIP3    H1 7356   4.172   1.009   0.872
 2450TIP3    H2 7357   4.196   0.875   0.806
 2451TIP3   OH2 7358   2.693   4.612   2.275
 2451TIP3    H1 7359   2.734   4.680   2.329
 2451TIP3    H2 7360   2.599   4.628   2.283
 2452TIP3   OH2 7361   4.186   2.898   4.932
 2452TIP3    H1 7362   4.124   2.962   4.895
 2452TIP3    H2 7363   4.270   2.922   4.893
 2453TIP3   OH2 7364   5.022   4.562   1.722
 2453TIP3    H1 7365   5.093   4.545   1.659
 2453TIP3    H2 7366   5.004   4.655   1.713
 2454TIP3   OH2 7367   3.057   4.038   2.467
 2454TIP3    H1 7368   3.063   4.129   2.440
 2454TIP3    H2 7369   2.989   4.037   2.534
 2455TIP3   OH2 7370   2.832   0.935   4.244
 2455TIP3    H1 7371   2.911   0.981   4.272
 2455TIP3    H2 7372   2.835   0.851   4.289
 2456TIP3   OH2 7373   3.748   3.218   0.733
 2456TIP3    H1 7374   3.697   3.223   0.652
 2456TIP3    H2 7375   3.839   3.213   0.704
 2457TIP3   OH2 7376   5.564   1.522   4.254
 2457TIP3    H1 7377   5.528   1.580   4.321
 2457TIP3    H2 7378   5.652   1.556   4.238
 2458TIP3   OH2 7379   1.488   2.894   0.427
 2458TIP3    H1 7380   1.567   2.890   0.480
 2458TIP3    H2 7381   1.497   2.822   0.364
 2459TIP3   OH2 7382   4.916   4.834   2.514
 2459TIP3    H1 7383   4.878   4.919   2.493
 2459TIP3    H2 7384   4.905   4.826   2.608
 2460TIP3   OH2 7385   3.783   1.711   1.140
 2460TIP3    H1 7386   3.851   1.644   1.143
 2460TIP3    H2 7387   3.762   1.728   1.232
 2461TIP3   OH2 7388   0.269   4.777   2.885
 2461TIP3    H1 7389   0.349   4.790   2.835
 2461TIP3    H2 7390   0.288   4.702   2.942
 2462TIP3   OH2 7391   0.695   0.942   5.025
 2462TIP3    H1 7392   0.756   0.996   4.974
 2462TIP3    H2 7393   0.743   0.860   5.039
 2463TIP3   OH2 7394   4.872   0.516   4.684
 2463TIP3    H1 7395   4.776   0.505   4.683
 2463TIP3    H2 7396   4.906   0.428   4.698
 2464TIP3   OH2 7397   4.801   5.330   3.954
 2464TIP3    H1 7398   4.873   5.268   3.948
 2464TIP3    H2 7399   4.752   5.303   4.032
 2465TIP3   OH2 7400   5.628   5.030   4.266
 2465TIP3    H1 7401   5.596   4.941   4.254
 2465TIP3    H2 7402   5.691   5.042   4.195
 2466TIP3   OH2 7403   3.263   3.231   5.097
 2466TIP3    H1 7404   3.301   3.306   5.142
 2466TIP3    H2 7405   3.330   3.205   5.034
 2467TIP3   OH2 7406   3.723   0.629   3.545
 2467TIP3    H1 7407   3.791   0.570   3.577
 2467TIP3    H2 7408   3.641   0.594   3.579
 2468TIP3   OH2 7409   3.950   3.865   2.733
 2468TIP3    H1 7410   3.874   3.819   2.696
 2468TIP3    H2 7411   3.951   3.949   2.688
 2469TIP3   OH2 7412   4.135   0.373   0.002
 2469TIP3    H1 7413   4.150   0.451  -0.052
 2469TIP3    H2 7414   4.041   0.374   0.019
 2470TIP3   OH2 7415   1.632   4.394   0.378
 2470TIP3    H1 7416   1.577   4.318   0.360
 2470TIP3    H2 7417   1.571   4.462   0.405
 2471TIP3   OH2 7418   5.845   5.563   3.494
 2471TIP3    H1 7419   5.881   5.544   3.581
 2471TIP3    H2 7420   5.885   5.497   3.437
 2472TIP3   OH2 7421   3.529   2.713   5.055
 2472TIP3    H1 7422   3.494   2.680   4.972
 2472TIP3    H2 7423   3.582   2.640   5.088
 2473TIP3   OH2 7424   0.827   3.320   0.577
 2473TIP3    H1 7425   0.825   3.295   0.484
 2473TIP3    H2 7426   0.735   3.323   0.603
 2474TIP3   OH2 7427   6.092   1.485   4.292
 2474TIP3    H1 7428   6.152   1.537   4.346
 2474TIP3    H2 7429   6.138   1.403   4.278
 2475TIP3   OH2 7430   1.612   1.355   5.180
 2475TIP3    H1 7431   1.604   1.334   5.273
 2475TIP3    H2 7432   1.645   1.275   5.140
 2476TIP3   OH2 7433   1.576   5.024   4.724
 2476TIP3    H1 7434   1.604   5.075   4.800
 2476TIP3    H2 7435   1.519   4.956   4.761
 2477TIP3   OH2 7436   0.802   4.222   4.970
 2477TIP3    H1 7437   0.841   4.270   5.042
 2477TIP3    H2 7438   0.786   4.134   5.005
 2478TIP3   OH2 7439   2.889   0.540   3.752
 2478TIP3    H1 7440   2.883   0.454   3.711
 2478TIP3    H2 7441   2.890   0.602   3.679
 2479TIP3   OH2 7442   5.169   0.659   0.424
 2479TIP3    H1 7443   5.179   0.754   0.418
 2479TIP3    H2 7444   5.075   0.644   0.416
 2480TIP3   OH2 7445   1.948   1.292   2.915
 2480TIP3    H1 7446   1.905   1.265   2.834
 2480TIP3    H2 7447   1.887   1.354   2.955
 2481TIP3   OH2 7448   5.111   3.516   2.443
 2481TIP3    H1 7449   5.116   3.435   2.494
 2481TIP3    H2 7450   5.044   3.569   2.486
 2482TIP3   OH2 7451   6.248   2.700   5.084
 2482TIP3    H1 7452   6.248   2.649   5.165
 2482TIP3    H2 7453   6.240   2.635   5.015
 2483TIP3   OH2 7454   4.716   2.843   0.455
 2483TIP3    H1 7455   4.785   2.778   0.466
 2483TIP3    H2 7456   4.641   2.806   0.502
 2484TIP3   OH2 7457   4.111   0.924   2.671
 2484TIP3    H1 7458   4.078   0.979   2.743
 2484TIP3    H2 7459   4.127   0.839   2.712
 2485TIP3   OH2 7460   3.762   5.909   1.552
 2485TIP3    H1 7461   3.679   5.930   1.593
 2485TIP3    H2 7462   3.828   5.939   1.615
 2486TIP3   OH2 7463   4.668   0.092   0.868
 2486TIP3    H1 7464   4.578   0.113   0.843
 2486TIP3    H2 7465   4.681   0.002   0.836
 2487TIP3   OH2 7466   4.356   3.314   2.155
 2487TIP3    H1 7467   4.410   3.234   2.150
 2487TIP3    H2 7468   4.378   3.352   2.239
 2488TIP3   OH2 7469   3.600   4.717   2.744
 2488TIP3    H1 7470   3.611   4.793   2.686
 2488TIP3    H2 7471   3.605   4.641   2.686
 2489TIP3   OH2 7472   4.823   1.497   0.513
 2489TIP3    H1 7473   4.787   1.517   0.599
 2489TIP3    H2 7474   4.824   1.581   0.467
 2490TIP3   OH2 7475   2.901   0.453   1.555
 2490TIP3    H1 7476   2.892   0.468   1.461
 2490TIP3    H2 7477   2.826   0.499   1.594
 2491TIP3   OH2 7478   5.944   2.050   0.341
 2491TIP3    H1 7479   5.890   1.971   0.347
 2491TIP3    H2 7480   5.997   2.037   0.263
 2492TIP3   OH2 7481   4.341   2.325   0.530
 2492TIP3    H1 7482   4.352   2.343   0.623
 2492TIP3    H2 7483   4.273   2.387   0.501
 2493TIP3   OH2 7484   5.271   3.701   0.403
 2493TIP3    H1 7485   5.320   3.623   0.377
 2493TIP3    H2 7486   5.208   3.670   0.467
 2494TIP3   OH2 7487   0.943   5.734   2.867
 2494TIP3    H1 7488   1.036   5.753   2.855
 2494TIP3    H2 7489   0.915   5.795   2.936
 2495TIP3   OH2 7490   6.070   1.909   0.959
 2495TIP3    H1 7491   6.148   1.948   0.919
 2495TIP3    H2 7492   6.016   1.983   0.984
 2496TIP3   OH2 7493   1.913   1.527   2.464
 2496TIP3    H1 7494   1.853   1.559   2.397
 2496TIP3    H2 7495   1.996   1.513   2.418
 2497TIP3   OH2 7496   4.279   2.039   2.603
 2497TIP3    H1 7497   4.238   1.995   2.529
 2497TIP3    H2 7498   4.277   2.132   2.579
 2498TIP3   OH2 7499   3.143   4.282   0.580
 2498TIP3    H1 7500   3.107   4.359   0.625
 2498TIP3    H2 7501   3.193   4.318   0.507
 2499TIP3   OH2 7502   2.707   3.692   3.604
 2499TIP3    H1 7503   2.775   3.716   3.541
 2499TIP3    H2 7504   2.709   3.596   3.606
 2500TIP3   OH2 7505   2.223   2.277   3.230
 2500TIP3    H1 7506   2.253   2.189   3.207
 2500TIP3    H2 7507   2.250   2.332   3.157
 2501TIP3   OH2 7508   4.861   3.823   0.571
 2501TIP3    H1 7509   4.858   3.857   0.482
 2501TIP3    H2 7510   4.875   3.900   0.626
 2502TIP3   OH2 7511   0.240   2.091   2.889
 2502TIP3    H1 7512   0.155   2.050   2.879
 2502TIP3    H2 7513   0.279   2.048   2.966
 2503TIP3   OH2 7514   0.624   1.775   3.769
 2503TIP3    H1 7515   0.600   1.781   3.677
 2503TIP3    H2 7516   0.617   1.682   3.790
 2504TIP3   OH2 7517   4.070   1.664   0.264
 2504TIP3    H1 7518   4.038   1.670   0.174
 2504TIP3    H2 7519   4.120   1.582   0.266
 2505TIP3   OH2 7520   5.613   3.379   2.657
 2505TIP3    H1 7521   5.560   3.453   2.627
 2505TIP3    H2 7522   5.556   3.334   2.720
 2506TIP3   OH2 7523   1.915   2.691   3.039
 2506TIP3    H1 7524   1.955   2.650   2.962
 2506TIP3    H2 7525   1.834   2.642   3.053
 2507TIP3   OH2 7526   5.909   2.130   3.787
 2507TIP3    H1 7527   5.954   2.102   3.866
 2507TIP3    H2 7528   5.927   2.224   3.782
 2508TIP3   OH2 7529   2.820   5.704   4.653
 2508TIP3    H1 7530   2.769   5.634   4.613
 2508TIP3    H2 7531   2.776   5.785   4.625
 2509TIP3   OH2 7532   6.324   3.319   3.999
 2509TIP3    H1 7533   6.253   3.256   4.012
 2509TIP3    H2 7534   6.402   3.265   3.986
 2510TIP3   OH2 7535   2.436   2.003   4.975
 2510TIP3    H1 7536   2.434   1.952   4.894
 2510TIP3    H2 7537   2.490   2.079   4.954
 2511TIP3   OH2 7538   4.076   3.136   2.338
 2511TIP3    H1 7539   4.082   3.051   2.295
 2511TIP3    H2 7540   4.150   3.138   2.399
 2512TIP3   OH2 7541   5.492   2.512   2.198
 2512TIP3    H1 7542   5.404   2.547   2.180
 2512TIP3    H2 7543   5.476   2.431   2.246
 2513TIP3   OH2 7544   2.984   3.327   1.126
 2513TIP3    H1 7545   2.901   3.374   1.133
 2513TIP3    H2 7546   2.967   3.240   1.162
 2514TIP3   OH2 7547   5.251   1.207   0.855
 2514TIP3    H1 7548   5.218   1.163   0.933
 2514TIP3    H2 7549   5.182   1.267   0.829
 2515TIP3   OH2 7550   4.677   1.150   4.386
 2515TIP3    H1 7551   4.635   1.230   4.419
 2515TIP3    H2 7552   4.745   1.182   4.326
 2516TIP3   OH2 7553   6.224   5.423   5.119
 2516TIP3    H1 7554   6.164   5.410   5.192
 2516TIP3    H2 7555   6.234   5.518   5.113
 2517TIP3   OH2 7556   3.502   2.199   2.933
 2517TIP3    H1 7557   3.559   2.275   2.935
 2517TIP3    H2 7558   3.529   2.147   3.009
 2518TIP3   OH2 7559   6.211   4.347   2.023
 2518TIP3    H1 7560   6.279   4.388   2.077
 2518TIP3    H2 7561   6.157   4.299   2.086
 2519TIP3   OH2 7562   0.030   5.129   2.845
 2519TIP3    H1 7563   0.068   5.076   2.775
 2519TIP3    H2 7564   0.093   5.123   2.916
 2520TIP3   OH2 7565   5.274   3.497   2.713
 2520TIP3    H1 7566   5.335   3.529   2.646
 2520TIP3    H2 7567   5.215   3.571   2.729
 2521TIP3   OH2 7568   4.626   5.629   0.959
 2521TIP3    H1 7569   4.578   5.707   0.933
 2521TIP3    H2 7570   4.560   5.572   0.999
 2522TIP3   OH2 7571   2.256   0.920   1.147
 2522TIP3    H1 7572   2.203   0.844   1.123
 2522TIP3    H2 7573   2.284   0.957   1.063
 2523TIP3   OH2 7574   5.485   4.662   4.464
 2523TIP3    H1 7575   5.474   4.570   4.440
 2523TIP3    H2 7576   5.484   4.709   4.381
 2524TIP3   OH2 7577   4.495   1.571   4.228
 2524TIP3    H1 7578   4.420   1.511   4.230
 2524TIP3    H2 7579   4.495   1.605   4.139
 2525TIP3   OH2 7580   5.542   5.175   2.528
 2525TIP3    H1 7581   5.500   5.218   2.603
 2525TIP3    H2 7582   5.630   5.211   2.526
 2526TIP3   OH2 7583   2.396   3.652   3.028
 2526TIP3    H1 7584   2.412   3.592   3.101
 2526TIP3    H2 7585   2.342   3.601   2.967
 2527TIP3   OH2 7586   4.554   4.072   1.020
 2527TIP3    H1 7587   4.583   4.029   0.939
 2527TIP3    H2 7588   4.599   4.024   1.090
 2528TIP3   OH2 7589   5.561   0.651   3.548
 2528TIP3    H1 7590   5.584   0.559   3.536
 2528TIP3    H2 7591   5.643   0.693   3.573
 2529TIP3   OH2 7592   4.234   1.160   4.558
 2529TIP3    H1 7593   4.267   1.172   4.647
 2529TIP3    H2 7594   4.290   1.091   4.521
 2530TIP3   OH2 7595   0.124   4.028   2.996
 2530TIP3    H1 7596   0.148   3.941   2.963
 2530TIP3    H2 7597   0.188   4.087   2.957
 2531TIP3   OH2 7598   6.006   0.209   1.851
 2531TIP3    H1 7599   6.097   0.213   1.820
 2531TIP3    H2 7600   5.969   0.294   1.830
 2532TIP3   OH2 7601   3.660   0.359   2.520
 2532TIP3    H1 7602   3.733   0.396   2.569
 2532TIP3    H2 7603   3.682   0.266   2.509
 2533TIP3   OH2 7604   5.001   2.531   1.939
 2533TIP3    H1 7605   5.028   2.441   1.926
 2533TIP3    H2 7606   4.911   2.534   1.906
 2534TIP3   OH2 7607   0.179   1.266   0.574
 2534TIP3    H1 7608   0.119   1.301   0.639
 2534TIP3    H2 7609   0.139   1.185   0.544
 2535TIP3   OH2 7610   2.303   5.929   0.252
 2535TIP3    H1 7611   2.355   5.859   0.293
 2535TIP3    H2 7612   2.220   5.887   0.230
 2536TIP3   OH2 7613   1.126   3.054   2.329
 2536TIP3    H1 7614   1.103   3.104   2.250
 2536TIP3    H2 7615   1.110   3.114   2.401
 2537TIP3   OH2 7616   2.719   0.954   4.549
 2537TIP3    H1 7617   2.632   0.978   4.583
 2537TIP3    H2 7618   2.743   0.875   4.597
 2538TIP3   OH2 7619   1.452   2.908   4.593
 2538TIP3    H1 7620   1.454   2.996   4.631
 2538TIP3    H2 7621   1.453   2.923   4.499
 2539TIP3   OH2 7622   0.610   1.890   3.341
 2539TIP3    H1 7623   0.548   1.819   3.329
 2539TIP3    H2 7624   0.597   1.919   3.432
 2540TIP3   OH2 7625   0.137   3.301   2.528
 2540TIP3    H1 7626   0.141   3.352   2.447
 2540TIP3    H2 7627   0.058   3.248   2.519
 2541TIP3   OH2 7628   3.652   1.892   3.335
 2541TIP3    H1 7629   3.739   1.853   3.321
 2541TIP3    H2 7630   3.592   1.817   3.336
 2542TIP3   OH2 7631   2.241   4.502   4.566
 2542TIP3    H1 7632   2.207   4.424   4.521
 2542TIP3    H2 7633   2.217   4.575   4.508
 2543TIP3   OH2 7634   3.232   1.226   4.418
 2543TIP3    H1 7635   3.185   1.146   4.394
 2543TIP3    H2 7636   3.297   1.197   4.482
 2544TIP3   OH2 7637   4.819   1.104   0.605
 2544TIP3    H1 7638   4.827   1.110   0.700
 2544TIP3    H2 7639   4.907   1.077   0.576
 2545TIP3   OH2 7640   0.482   4.451   4.348
 2545TIP3    H1 7641   0.469   4.532   4.397
 2545TIP3    H2 7642   0.489   4.480   4.257
 2546TIP3   OH2 7643   0.406   3.089   0.461
 2546TIP3    H1 7644   0.311   3.081   0.463
 2546TIP3    H2 7645   0.425   3.136   0.379
 2547TIP3   OH2 7646   5.011   5.598   4.673
 2547TIP3    H1 7647   4.925   5.632   4.650
 2547TIP3    H2 7648   4.994   5.539   4.747
 2548TIP3   OH2 7649   1.698   4.596   1.622
 2548TIP3    H1 7650   1.633   4.640   1.677
 2548TIP3    H2 7651   1.778   4.648   1.633
 2549TIP3   OH2 7652   1.596   0.023   0.165
 2549TIP3    H1 7653   1.521   0.014   0.106
 2549TIP3    H2 7654   1.580  -0.041   0.234
 2550TIP3   OH2 7655   4.822   5.117   3.260
 2550TIP3    H1 7656   4.728   5.130   3.272
 2550TIP3    H2 7657   4.857   5.205   3.249
 2551TIP3   OH2 7658   1.656   1.766   4.884
 2551TIP3    H1 7659   1.561   1.758   4.900
 2551TIP3    H2 7660   1.696   1.731   4.963
 2552TIP3   OH2 7661   1.588   4.298   2.439
 2552TIP3    H1 7662   1.561   4.366   2.499
 2552TIP3    H2 7663   1.509   4.247   2.422
 2553TIP3   OH2 7664   5.424   2.446   3.018
 2553TIP3    H1 7665   5.505   2.494   3.037
 2553TIP3    H2 7666   5.430   2.426   2.924
 2554TIP3   OH2 7667   0.784   5.534   2.787
 2554TIP3    H1 7668   0.697   5.569   2.771
 2554TIP3    H2 7669   0.840   5.611   2.799
 2555TIP3   OH2 7670   1.059   4.124   0.086
 2555TIP3    H1 7671   0.991   4.170   0.136
 2555TIP3    H2 7672   1.064   4.171   0.003
 2556TIP3   OH2 7673   5.558   5.383   1.581
 2556TIP3    H1 7674   5.610   5.434   1.520
 2556TIP3    H2 7675   5.584   5.292   1.566
 2557TIP3   OH2 7676   5.147   5.649   4.437
 2557TIP3    H1 7677   5.238   5.672   4.454
 2557TIP3    H2 7678   5.115   5.615   4.520
 2558TIP3   OH2 7679   4.360   2.681   2.757
 2558TIP3    H1 7680   4.428   2.737   2.719
 2558TIP3    H2 7681   4.402   2.642   2.834
 2559TIP3   OH2 7682   5.615   5.338   3.719
 2559TIP3    H1 7683   5.572   5.257   3.688
 2559TIP3    H2 7684   5.548   5.406   3.707
 2560TIP3   OH2 7685   1.551   1.144   4.085
 2560TIP3    H1 7686   1.468   1.168   4.126
 2560TIP3    H2 7687   1.539   1.052   4.058
 2561TIP3   OH2 7688   4.291   0.704   4.177
 2561TIP3    H1 7689   4.348   0.778   4.200
 2561TIP3    H2 7690   4.329   0.630   4.223
 2562TIP3   OH2 7691   3.733   4.172   2.943
 2562TIP3    H1 7692   3.820   4.134   2.960
 2562TIP3    H2 7693   3.673   4.115   2.991
 2563TIP3   OH2 7694   6.139   1.769   2.274
 2563TIP3    H1 7695   6.086   1.789   2.351
 2563TIP3    H2 7696   6.229   1.773   2.307
 2564TIP3   OH2 7697   5.462   3.156   2.770
 2564TIP3    H1 7698   5.536   3.096   2.768
 2564TIP3    H2 7699   5.385   3.101   2.756
 2565TIP3   OH2 7700   2.006   5.720   4.094
 2565TIP3    H1 7701   1.920   5.728   4.052
 2565TIP3    H2 7702   2.008   5.792   4.157
 2566TIP3   OH2 7703   3.356   3.457   4.254
 2566TIP3    H1 7704   3.375   3.539   4.299
 2566TIP3    H2 7705   3.262   3.460   4.236
 2567TIP3   OH2 7706   1.570   0.304   2.994
 2567TIP3    H1 7707   1.659   0.301   2.958
 2567TIP3    H2 7708   1.533   0.218   2.975
 2568TIP3   OH2 7709   3.194   5.485   2.944
 2568TIP3    H1 7710   3.136   5.482   3.020
 2568TIP3    H2 7711   3.175   5.404   2.896
 2569TIP3   OH2 7712   1.310   0.130   3.412
 2569TIP3    H1 7713   1.366   0.155   3.339
 2569TIP3    H2 7714   1.276   0.044   3.388
 2570TIP3   OH2 7715   1.502   4.187   1.305
 2570TIP3    H1 7716   1.581   4.211   1.256
 2570TIP3    H2 7717   1.514   4.094   1.326
 2571TIP3   OH2 7718   6.236   3.886   3.140
 2571TIP3    H1 7719   6.224   3.975   3.175
 2571TIP3    H2 7720   6.316   3.892   3.087
 2572TIP3   OH2 7721   4.807   5.567   4.384
 2572TIP3    H1 7722   4.807   5.561   4.288
 2572TIP3    H2 7723   4.715   5.570   4.408
 2573TIP3   OH2 7724   4.383   1.706   4.483
 2573TIP3    H1 7725   4.446   1.655   4.433
 2573TIP3    H2 7726   4.423   1.716   4.569
 2574TIP3   OH2 7727   0.294   2.523   3.924
 2574TIP3    H1 7728   0.309   2.563   3.839
 2574TIP3    H2 7729   0.313   2.430   3.911
 2575TIP3   OH2 7730   4.263   5.609   3.323
 2575TIP3    H1 7731   4.336   5.589   3.380
 2575TIP3    H2 7732   4.193   5.550   3.351
 2576TIP3   OH2 7733   1.885   3.830   4.975
 2576TIP3    H1 7734   1.942   3.857   4.903
 2576TIP3    H2 7735   1.809   3.790   4.932
 2577TIP3   OH2 7736   3.067   4.038   3.240
 2577TIP3    H1 7737   3.157   4.007   3.240
 2577TIP3    H2 7738   3.033   4.012   3.154
 2578TIP3   OH2 7739   0.934   0.988   0.674
 2578TIP3    H1 7740   0.845   0.981   0.639
 2578TIP3    H2 7741   0.990   0.954   0.604
 2579TIP3   OH2 7742   4.850   1.648   2.383
 2579TIP3    H1 7743   4.763   1.674   2.413
 2579TIP3    H2 7744   4.835   1.606   2.299
 2580TIP3   OH2 7745   2.684   3.017   4.062
 2580TIP3    H1 7746   2.609   3.000   4.119
 2580TIP3    H2 7747   2.705   3.109   4.078
 2581TIP3   OH2 7748   0.410   5.783   1.123
 2581TIP3    H1 7749   0.330   5.809   1.078
 2581TIP3    H2 7750   0.435   5.700   1.082
 2582TIP3   OH2 7751   6.311   2.677   0.441
 2582TIP3    H1 7752   6.229   2.646   0.482
 2582TIP3    H2 7753   6.380   2.637   0.495
 2583TIP3   OH2 7754   6.141   2.528   0.204
 2583TIP3    H1 7755   6.076   2.565   0.144
 2583TIP3    H2 7756   6.114   2.559   0.291
 2584TIP3   OH2 7757   4.835   0.726   2.848
 2584TIP3    H1 7758   4.765   0.735   2.913
 2584TIP3    H2 7759   4.847   0.632   2.839
 2585TIP3   OH2 7760   2.982   1.204   2.387
 2585TIP3    H1 7761   2.959   1.172   2.474
 2585TIP3    H2 7762   2.972   1.128   2.330
 2586TIP3   OH2 7763   4.915   4.152   2.080
 2586TIP3    H1 7764   4.892   4.108   1.998
 2586TIP3    H2 7765   4.986   4.212   2.057
 2587TIP3   OH2 7766   0.213   0.997   1.135
 2587TIP3    H1 7767   0.209   1.003   1.230
 2587TIP3    H2 7768   0.208   0.903   1.117
 2588TIP3   OH2 7769   4.890   0.194   1.031
 2588TIP3    H1 7770   4.859   0.171   0.944
 2588TIP3    H2 7771   4.834   0.267   1.058
 2589TIP3   OH2 7772   5.461   2.869   3.533
 2589TIP3    H1 7773   5.468   2.889   3.627
 2589TIP3    H2 7774   5.542   2.904   3.495
 2590TIP3   OH2 7775   3.788   5.726   2.169
 2590TIP3    H1 7776   3.719   5.692   2.227
 2590TIP3    H2 7777   3.742   5.785   2.109
 2591TIP3   OH2 7778   0.448   5.559   1.923
 2591TIP3    H1 7779   0.509   5.535   1.854
 2591TIP3    H2 7780   0.497   5.545   2.004
 2592TIP3   OH2 7781   5.845   4.444   2.981
 2592TIP3    H1 7782   5.840   4.436   2.886
 2592TIP3    H2 7783   5.872   4.534   2.997
 2593TIP3   OH2 7784   3.102   0.450   0.124
 2593TIP3    H1 7785   3.191   0.451   0.088
 2593TIP3    H2 7786   3.053   0.511   0.069
 2594TIP3   OH2 7787   1.106   4.482   4.130
 2594TIP3    H1 7788   1.056   4.490   4.048
 2594TIP3    H2 7789   1.046   4.514   4.197
 2595TIP3   OH2 7790   1.415   3.172   4.577
 2595TIP3    H1 7791   1.383   3.232   4.510
 2595TIP3    H2 7792   1.367   3.197   4.656
 2596TIP3   OH2 7793   0.890   2.747   3.109
 2596TIP3    H1 7794   0.927   2.660   3.125
 2596TIP3    H2 7795   0.895   2.791   3.193
 2597TIP3   OH2 7796   0.932   1.186   3.586
 2597TIP3    H1 7797   0.938   1.273   3.545
 2597TIP3    H2 7798   0.972   1.197   3.672
 2598TIP3   OH2 7799   5.646   0.003   0.619
 2598TIP3    H1 7800   5.723   0.051   0.589
 2598TIP3    H2 7801   5.631  -0.063   0.551
 2599TIP3   OH2 7802   4.953   5.854   4.415
 2599TIP3    H1 7803   5.021   5.899   4.364
 2599TIP3    H2 7804   4.989   5.767   4.430
 2600TIP3   OH2 7805   2.645   1.802   3.015
 2600TIP3    H1 7806   2.680   1.854   3.087
 2600TIP3    H2 7807   2.582   1.743   3.056
 2601TIP3   OH2 7808   1.990   0.336   0.634
 2601TIP3    H1 7809   2.020   0.352   0.724
 2601TIP3    H2 7810   2.070   0.334   0.582
 2602TIP3   OH2 7811   1.556   3.489   2.716
 2602TIP3    H1 7812   1.574   3.545   2.640
 2602TIP3    H2 7813   1.638   3.444   2.733
 2603TIP3   OH2 7814   0.555   4.093   0.823
 2603TIP3    H1 7815   0.509   4.172   0.851
 2603TIP3    H2 7816   0.499   4.056   0.755
 2604TIP3   OH2 7817   1.907   1.812   4.078
 2604TIP3    H1 7818   1.932   1.730   4.036
 2604TIP3    H2 7819   1.830   1.842   4.029
 2605TIP3   OH2 7820   0.419   3.161   3.082
 2605TIP3    H1 7821   0.339   3.212   3.071
 2605TIP3    H2 7822   0.413   3.093   3.015
 2606TIP3   OH2 7823   3.135   2.160   4.574
 2606TIP3    H1 7824   3.184   2.090   4.617
 2606TIP3    H2 7825   3.052   2.120   4.549
 2607TIP3   OH2 7826   2.650   0.817   2.350
 2607TIP3    H1 7827   2.710   0.888   2.326
 2607TIP3    H2 7828   2.596   0.852   2.420
 2608TIP3   OH2 7829   4.058   1.334   0.932
 2608TIP3    H1 7830   4.083   1.271   0.864
 2608TIP3    H2 7831   3.985   1.383   0.895
 2609TIP3   OH2 7832   6.304   4.807   1.572
 2609TIP3    H1 7833   6.317   4.712   1.577
 2609TIP3    H2 7834   6.265   4.831   1.656
 2610TIP3   OH2 7835   0.495   2.754   2.558
 2610TIP3    H1 7836   0.550   2.776   2.482
 2610TIP3    H2 7837   0.468   2.839   2.593
 2611TIP3   OH2 7838   1.588   3.141   1.558
 2611TIP3    H1 7839   1.605   3.118   1.649
 2611TIP3    H2 7840   1.581   3.057   1.513
 2612TIP3   OH2 7841   6.282   5.731   1.421
 2612TIP3    H1 7842   6.200   5.708   1.463
 2612TIP3    H2 7843   6.266   5.816   1.380
 2613TIP3   OH2 7844   3.396   3.750   1.497
 2613TIP3    H1 7845   3.471   3.809   1.505
 2613TIP3    H2 7846   3.435   3.663   1.483
 2614TIP3   OH2 7847   5.214   3.005   2.660
 2614TIP3    H1 7848   5.235   3.075   2.598
 2614TIP3    H2 7849   5.119   3.008   2.669
 2615TIP3   OH2 7850   2.774   1.477   2.502
 2615TIP3    H1 7851   2.857   1.454   2.460
 2615TIP3    H2 7852   2.798   1.534   2.575
 2616TIP3   OH2 7853   0.658   2.274   1.727
 2616TIP3    H1 7854   0.684   2.364   1.743
 2616TIP3    H2 7855   0.728   2.221   1.765
 2617TIP3   OH2 7856   6.347   0.201   3.625
 2617TIP3    H1 7857   6.335   0.293   3.602
 2617TIP3    H2 7858   6.258   0.167   3.635
 2618TIP3   OH2 7859   1.372   3.795   1.956
 2618TIP3    H1 7860   1.433   3.861   1.923
 2618TIP3    H2 7861   1.293   3.806   1.902
 2619TIP3   OH2 7862   5.177   1.010   1.678
 2619TIP3    H1 7863   5.098   1.050   1.640
 2619TIP3    H2 7864   5.198   0.938   1.619
 2620TIP3   OH2 7865   0.933   3.937   1.031
 2620TIP3    H1 7866   0.851   3.952   0.985
 2620TIP3    H2 7867   0.907   3.908   1.119
 2621TIP3   OH2 7868   4.619   3.016   0.227
 2621TIP3    H1 7869   4.563   3.055   0.294
 2621TIP3    H2 7870   4.656   2.938   0.269
 2622TIP3   OH2 7871   4.761   2.684   0.953
 2622TIP3    H1 7872   4.708   2.635   0.890
 2622TIP3    H2 7873   4.718   2.770   0.957
 2623TIP3   OH2 7874   5.752   4.643   2.383
 2623TIP3    H1 7875   5.751   4.575   2.316
 2623TIP3    H2 7876   5.664   4.680   2.382
 2624TIP3   OH2 7877   5.195   0.358   4.936
 2624TIP3    H1 7878   5.254   0.423   4.900
 2624TIP3    H2 7879   5.250   0.301   4.989
 2625TIP3   OH2 7880   1.162   4.476   5.055
 2625TIP3    H1 7881   1.199   4.563   5.072
 2625TIP3    H2 7882   1.171   4.465   4.960
 2626TIP3   OH2 7883   0.748   0.691   3.778
 2626TIP3    H1 7884   0.830   0.694   3.728
 2626TIP3    H2 7885   0.760   0.754   3.848
 2627TIP3   OH2 7886   4.892   4.323   1.664
 2627TIP3    H1 7887   4.947   4.399   1.680
 2627TIP3    H2 7888   4.952   4.248   1.673
 2628TIP3   OH2 7889   3.491   1.978   2.746
 2628TIP3    H1 7890   3.519   2.051   2.801
 2628TIP3    H2 7891   3.425   1.932   2.798
 2629TIP3   OH2 7892   2.429   3.517   0.910
 2629TIP3    H1 7893   2.502   3.577   0.927
 2629TIP3    H2 7894   2.356   3.556   0.957
 2630TIP3   OH2 7895   5.513   1.112   1.314
 2630TIP3    H1 7896   5.551   1.046   1.255
 2630TIP3    H2 7897   5.419   1.098   1.308
 2631TIP3   OH2 7898   3.973   0.537   0.833
 2631TIP3    H1 7899   3.951   0.506   0.745
 2631TIP3    H2 7900   3.894   0.580   0.864
 2632TIP3   OH2 7901   1.660   0.956   4.456
 2632TIP3    H1 7902   1.698   0.966   4.543
 2632TIP3    H2 7903   1.621   0.869   4.456
 2633TIP3   OH2 7904   5.782   0.690   4.905
 2633TIP3    H1 7905   5.732   0.771   4.909
 2633TIP3    H2 7906   5.870   0.717   4.880
 2634TIP3   OH2 7907   5.086   5.165   0.883
 2634TIP3    H1 7908   4.994   5.138   0.881
 2634TIP3    H2 7909   5.086   5.245   0.935
 2635TIP3   OH2 7910   3.766   1.681   2.843
 2635TIP3    H1 7911   3.701   1.651   2.780
 2635TIP3    H2 7912   3.796   1.601   2.887
 2636TIP3   OH2 7913   1.978   5.461   4.083
 2636TIP3    H1 7914   2.017   5.547   4.099
 2636TIP3    H2 7915   2.023   5.428   4.006
 2637TIP3   OH2 7916   4.809   4.839   3.075
 2637TIP3    H1 7917   4.737   4.897   3.099
 2637TIP3    H2 7918   4.844   4.875   2.994
 2638TIP3   OH2 7919   4.439   2.448   1.393
 2638TIP3    H1 7920   4.517   2.435   1.340
 2638TIP3    H2 7921   4.377   2.382   1.363
 2639TIP3   OH2 7922   0.098   0.406   2.414
 2639TIP3    H1 7923   0.088   0.497   2.387
 2639TIP3    H2 7924   0.059   0.403   2.502
 2640TIP3   OH2 7925   3.002   4.152   4.344
 2640TIP3    H1 7926   3.036   4.157   4.255
 2640TIP3    H2 7927   2.913   4.116   4.333
 2641TIP3   OH2 7928   3.070   1.452   3.193
 2641TIP3    H1 7929   3.091   1.487   3.279
 2641TIP3    H2 7930   2.980   1.480   3.177
 2642TIP3   OH2 7931   2.798   0.320   0.870
 2642TIP3    H1 7932   2.796   0.225   0.865
 2642TIP3    H2 7933   2.862   0.340   0.938
 2643TIP3   OH2 7934   5.280   4.518   3.003
 2643TIP3    H1 7935   5.268   4.613   3.008
 2643TIP3    H2 7936   5.233   4.492   2.924
 2644TIP3   OH2 7937   1.806   3.138   3.208
 2644TIP3    H1 7938   1.761   3.120   3.290
 2644TIP3    H2 7939   1.826   3.231   3.211
 2645TIP3   OH2 7940   1.260   0.362   1.552
 2645TIP3    H1 7941   1.242   0.268   1.545
 2645TIP3    H2 7942   1.281   0.376   1.644
 2646TIP3   OH2 7943   3.143   4.959   4.098
 2646TIP3    H1 7944   3.049   4.942   4.108
 2646TIP3    H2 7945   3.174   4.976   4.186
 2647TIP3   OH2 7946   2.873   0.789   4.763
 2647TIP3    H1 7947   2.966   0.813   4.764
 2647TIP3    H2 7948   2.827   0.871   4.781
 2648TIP3   OH2 7949   6.333   0.420   3.228
 2648TIP3    H1 7950   6.354   0.328   3.245
 2648TIP3    H2 7951   6.238   0.425   3.235
 2649TIP3   OH2 7952   2.738   1.017   2.189
 2649TIP3    H1 7953   2.707   0.970   2.112
 2649TIP3    H2 7954   2.834   1.017   2.181
 2650TIP3   OH2 7955   2.791   0.043   2.663
 2650TIP3    H1 7956   2.730  -0.005   2.608
 2650TIP3    H2 7957   2.870  -0.011   2.663
 2651TIP3   OH2 7958   4.825   5.809   4.088
 2651TIP3    H1 7959   4.818   5.716   4.112
 2651TIP3    H2 7960   4.852   5.807   3.996
 2652TIP3   OH2 7961   5.630   4.649   4.822
 2652TIP3    H1 7962   5.567   4.721   4.818
 2652TIP3    H2 7963   5.576   4.570   4.819
 2653TIP3   OH2 7964   6.334   2.441   1.644
 2653TIP3    H1 7965   6.301   2.353   1.667
 2653TIP3    H2 7966   6.366   2.432   1.555
 2654TIP3   OH2 7967   3.621   5.515   3.262
 2654TIP3    H1 7968   3.561   5.528   3.189
 2654TIP3    H2 7969   3.704   5.551   3.232
 2655TIP3   OH2 7970   3.126   0.188   5.180
 2655TIP3    H1 7971   3.139   0.111   5.235
 2655TIP3    H2 7972   3.120   0.154   5.091
 2656TIP3   OH2 7973   6.040   5.894   3.026
 2656TIP3    H1 7974   6.110   5.830   3.038
 2656TIP3    H2 7975   6.059   5.934   2.941
 2657TIP3   OH2 7976   1.205   3.586   1.657
 2657TIP3    H1 7977   1.209   3.535   1.576
 2657TIP3    H2 7978   1.167   3.526   1.721
 2658TIP3   OH2 7979   4.558   5.114   5.092
 2658TIP3    H1 7980   4.472   5.072   5.090
 2658TIP3    H2 7981   4.567   5.145   5.183
 2659TIP3   OH2 7982   4.295   4.112   4.329
 2659TIP3    H1 7983   4.210   4.071   4.310
 2659TIP3    H2 7984   4.308   4.173   4.257
 2660TIP3   OH2 7985   5.521   0.081   3.508
 2660TIP3    H1 7986   5.445   0.124   3.547
 2660TIP3    H2 7987   5.557   0.028   3.579
 2661TIP3   OH2 7988   4.667   0.436   1.393
 2661TIP3    H1 7989   4.677   0.350   1.433
 2661TIP3    H2 7990   4.574   0.455   1.399
 2662TIP3   OH2 7991   4.350   4.251   0.273
 2662TIP3    H1 7992   4.338   4.201   0.354
 2662TIP3    H2 7993   4.397   4.330   0.300
 2663TIP3   OH2 7994   6.393   6.001   3.419
 2663TIP3    H1 7995   6.348   5.936   3.364
 2663TIP3    H2 7996   6.332   6.017   3.491
 2664TIP3   OH2 7997   0.458   0.319   0.076
 2664TIP3    H1 7998   0.505   0.243   0.110
 2664TIP3    H2 7999   0.370   0.286   0.055
 2665TIP3   OH2 8000   6.119   0.039   0.356
 2665TIP3    H1 8001   6.123  -0.045   0.403
 2665TIP3    H2 8002   6.150   0.018   0.267
 2666TIP3   OH2 8003   6.097   1.038   2.071
 2666TIP3    H1 8004   6.153   1.029   1.994
 2666TIP3    H2 8005   6.090   0.949   2.106
 2667TIP3   OH2 8006   4.178   5.099   1.953
 2667TIP3    H1 8007   4.118   5.026   1.937
 2667TIP3    H2 8008   4.122   5.170   1.983
 2668TIP3   OH2 8009   1.359   2.861   0.714
 2668TIP3    H1 8010   1.311   2.863   0.631
 2668TIP3    H2 8011   1.347   2.948   0.751
 2669TIP3   OH2 8012   1.696   0.094   4.319
 2669TIP3    H1 8013   1.612   0.049   4.330
 2669TIP3    H2 8014   1.680   0.184   4.347
 2670TIP3   OH2 8015   2.706   0.731   4.979
 2670TIP3    H1 8016   2.766   0.752   4.907
 2670TIP3    H2 8017   2.684   0.815   5.018
 2671TIP3   OH2 8018   4.611   0.857   4.950
 2671TIP3    H1 8019   4.646   0.919   4.886
 2671TIP3    H2 8020   4.687   0.828   5.001
 2672TIP3   OH2 8021   3.021   5.133   1.039
 2672TIP3    H1 8022   3.016   5.060   0.977
 2672TIP3    H2 8023   3.105   5.120   1.084
 2673TIP3   OH2 8024   5.249   2.571   2.127
 2673TIP3    H1 8025   5.194   2.533   2.059
 2673TIP3    H2 8026   5.207   2.654   2.148
 2674TIP3   OH2 8027   2.391   1.175   4.082
 2674TIP3    H1 8028   2.409   1.127   4.001
 2674TIP3    H2 8029   2.455   1.141   4.145
 2675TIP3   OH2 8030   4.404   1.602   0.291
 2675TIP3    H1 8031   4.340   1.539   0.323
 2675TIP3    H2 8032   4.375   1.687   0.325
 2676TIP3   OH2 8033   6.374   0.637   1.886
 2676TIP3    H1 8034   6.374   0.643   1.982
 2676TIP3    H2 8035   6.371   0.728   1.857
 2677TIP3   OH2 8036   1.630   3.748   1.092
 2677TIP3    H1 8037   1.595   3.707   1.013
 2677TIP3    H2 8038   1.719   3.714   1.100
 2678TIP3   OH2 8039   4.916   0.641   2.548
 2678TIP3    H1 8040   4.902   0.719   2.495
 2678TIP3    H2 8041   4.991   0.597   2.507
 2679TIP3   OH2 8042   4.812   4.925  -0.007
 2679TIP3    H1 8043   4.744   4.862  -0.032
 2679TIP3    H2 8044   4.848   4.891   0.075
 2680TIP3   OH2 8045   5.362   2.699   2.816
 2680TIP3    H1 8046   5.283   2.666   2.773
 2680TIP3    H2 8047   5.334   2.717   2.906
 2681TIP3   OH2 8048   1.976   5.716   1.125
 2681TIP3    H1 8049   2.009   5.724   1.214
 2681TIP3    H2 8050   1.914   5.788   1.115
 2682TIP3   OH2 8051   3.065   5.639   4.722
 2682TIP3    H1 8052   3.106   5.633   4.635
 2682TIP3    H2 8053   2.972   5.649   4.703
 2683TIP3   OH2 8054   5.219   2.805   4.733
 2683TIP3    H1 8055   5.174   2.888   4.743
 2683TIP3    H2 8056   5.206   2.781   4.641
 2684TIP3   OH2 8057   5.187   1.195   2.821
 2684TIP3    H1 8058   5.248   1.258   2.784
 2684TIP3    H2 8059   5.150   1.239   2.898
 2685TIP3   OH2 8060   2.816   0.567   4.045
 2685TIP3    H1 8061   2.760   0.634   4.086
 2685TIP3    H2 8062   2.788   0.566   3.954
 2686TIP3   OH2 8063   2.366   0.728   4.844
 2686TIP3    H1 8064   2.376   0.746   4.938
 2686TIP3    H2 8065   2.414   0.646   4.831
 2687TIP3   OH2 8066   5.924   3.676   4.624
 2687TIP3    H1 8067   5.905   3.769   4.617
 2687TIP3    H2 8068   5.951   3.650   4.536
 2688TIP3   OH2 8069   2.269   2.000   3.158
 2688TIP3    H1 8070   2.317   2.005   3.076
 2688TIP3    H2 8071   2.196   1.941   3.140
 2689TIP3   OH2 8072   4.367   1.785   2.207
 2689TIP3    H1 8073   4.353   1.698   2.169
 2689TIP3    H2 8074   4.298   1.839   2.170
 2690TIP3   OH2 8075   4.454   5.892   1.402
 2690TIP3    H1 8076   4.519   5.893   1.473
 2690TIP3    H2 8077   4.370   5.880   1.447
 2691TIP3   OH2 8078   2.466   1.576   4.607
 2691TIP3    H1 8079   2.558   1.569   4.632
 2691TIP3    H2 8080   2.423   1.610   4.685
 2692TIP3   OH2 8081   3.917   1.901   3.695
 2692TIP3    H1 8082   3.973   1.888   3.619
 2692TIP3    H2 8083   3.892   1.813   3.723
 2693TIP3   OH2 8084   3.873   5.648   5.082
 2693TIP3    H1 8085   3.796   5.705   5.080
 2693TIP3    H2 8086   3.924   5.679   5.156
 2694TIP3   OH2 8087   3.346   2.940   0.041
 2694TIP3    H1 8088   3.416   2.986   0.088
 2694TIP3    H2 8089   3.311   3.004  -0.020
 2695TIP3   OH2 8090   0.282   4.968   0.135
 2695TIP3    H1 8091   0.210   5.011   0.088
 2695TIP3    H2 8092   0.311   4.899   0.076
 2696TIP3   OH2 8093   1.539   3.430   3.122
 2696TIP3    H1 8094   1.498   3.394   3.201
 2696TIP3    H2 8095   1.577   3.354   3.078
 2697TIP3   OH2 8096   6.132   4.582   1.140
 2697TIP3    H1 8097   6.168   4.522   1.205
 2697TIP3    H2 8098   6.207   4.634   1.110
 2698TIP3   OH2 8099   5.090   1.269   4.812
 2698TIP3    H1 8100   5.062   1.317   4.891
 2698TIP3    H2 8101   5.127   1.187   4.845
 2699TIP3   OH2 8102   1.223   2.066   2.336
 2699TIP3    H1 8103   1.147   2.032   2.382
 2699TIP3    H2 8104   1.297   2.017   2.374
 2700TIP3   OH2 8105   4.716   3.167   4.322
 2700TIP3    H1 8106   4.753   3.087   4.360
 2700TIP3    H2 8107   4.787   3.231   4.328
 2701TIP3   OH2 8108   4.804   3.954   3.099
 2701TIP3    H1 8109   4.717   3.946   3.062
 2701TIP3    H2 8110   4.789   3.972   3.192
 2702TIP3   OH2 8111   5.706   0.269   3.034
 2702TIP3    H1 8112   5.613   0.289   3.037
 2702TIP3    H2 8113   5.747   0.340   3.084
 2703TIP3   OH2 8114   5.656   3.402   3.088
 2703TIP3    H1 8115   5.566   3.371   3.089
 2703TIP3    H2 8116   5.659   3.468   3.019
 2704TIP3   OH2 8117   4.897   4.664   0.542
 2704TIP3    H1 8118   4.980   4.640   0.502
 2704TIP3    H2 8119   4.881   4.754   0.512
 2705TIP3   OH2 8120   3.753   4.677   4.946
 2705TIP3    H1 8121   3.784   4.596   4.987
 2705TIP3    H2 8122   3.818   4.743   4.971
 2706TIP3   OH2 8123   0.177   3.398   2.770
 2706TIP3    H1 8124   0.110   3.466   2.769
 2706TIP3    H2 8125   0.164   3.350   2.688
 2707TIP3   OH2 8126   5.603   4.562   4.187
 2707TIP3    H1 8127   5.562   4.512   4.258
 2707TIP3    H2 8128   5.601   4.503   4.112
 2708TIP3   OH2 8129   5.866   3.445   2.584
 2708TIP3    H1 8130   5.781   3.403   2.598
 2708TIP3    H2 8131   5.895   3.468   2.672
 2709TIP3   OH2 8132   2.488   0.535   4.182
 2709TIP3    H1 8133   2.503   0.581   4.264
 2709TIP3    H2 8134   2.422   0.469   4.204
 2710TIP3   OH2 8135   0.944   4.357   5.171
 2710TIP3    H1 8136   0.964   4.308   5.251
 2710TIP3    H2 8137   1.027   4.393   5.143
 2711TIP3   OH2 8138   1.560   3.608   4.628
 2711TIP3    H1 8139   1.497   3.606   4.555
 2711TIP3    H2 8140   1.514   3.564   4.700
 2712TIP3   OH2 8141   1.270   1.206   4.615
 2712TIP3    H1 8142   1.328   1.281   4.612
 2712TIP3    H2 8143   1.254   1.192   4.709
 2713TIP3   OH2 8144   5.578   1.339   2.902
 2713TIP3    H1 8145   5.663   1.382   2.914
 2713TIP3    H2 8146   5.594   1.271   2.837
 2714TIP3   OH2 8147   0.977   2.354   0.736
 2714TIP3    H1 8148   0.915   2.425   0.725
 2714TIP3    H2 8149   1.057   2.385   0.694
 2715TIP3   OH2 8150   3.308   4.354   3.997
 2715TIP3    H1 8151   3.277   4.444   3.995
 2715TIP3    H2 8152   3.231   4.302   4.021
 2716TIP3   OH2 8153   3.162   1.673   4.640
 2716TIP3    H1 8154   3.216   1.659   4.718
 2716TIP3    H2 8155   3.079   1.707   4.674
 2717TIP3   OH2 8156   2.972   1.421   3.964
 2717TIP3    H1 8157   2.888   1.374   3.968
 2717TIP3    H2 8158   2.965   1.487   4.033
 2718TIP3   OH2 8159   2.439   1.396   1.548
 2718TIP3    H1 8160   2.404   1.425   1.464
 2718TIP3    H2 8161   2.532   1.380   1.531
 2719TIP3   OH2 8162   5.578   5.831   1.327
 2719TIP3    H1 8163   5.503   5.795   1.279
 2719TIP3    H2 8164   5.564   5.926   1.326
 2720TIP3   OH2 8165   3.542   5.551   1.347
 2720TIP3    H1 8166   3.577   5.580   1.431
 2720TIP3    H2 8167   3.584   5.466   1.332
 2721TIP3   OH2 8168   3.841   4.977   4.217
 2721TIP3    H1 8169   3.776   4.977   4.147
 2721TIP3    H2 8170   3.925   4.963   4.173
 2722TIP3   OH2 8171   4.449   1.143   3.767
 2722TIP3    H1 8172   4.381   1.113   3.707
 2722TIP3    H2 8173   4.515   1.074   3.765
 2723TIP3   OH2 8174   2.619   2.547   0.250
 2723TIP3    H1 8175   2.624   2.570   0.157
 2723TIP3    H2 8176   2.537   2.498   0.258
 2724TIP3   OH2 8177   1.683   2.534   0.965
 2724TIP3    H1 8178   1.778   2.546   0.973
 2724TIP3    H2 8179   1.651   2.616   0.927
 2725TIP3   OH2 8180   4.403   3.501   2.369
 2725TIP3    H1 8181   4.483   3.548   2.392
 2725TIP3    H2 8182   4.352   3.563   2.317
 2726TIP3   OH2 8183   3.078   3.326   3.332
 2726TIP3    H1 8184   3.051   3.239   3.361
 2726TIP3    H2 8185   3.119   3.312   3.247
 2727TIP3   OH2 8186   0.197   0.430   4.562
 2727TIP3    H1 8187   0.208   0.419   4.656
 2727TIP3    H2 8188   0.221   0.522   4.546
 2728TIP3   OH2 8189   4.200   0.747   1.101
 2728TIP3    H1 8190   4.191   0.663   1.056
 2728TIP3    H2 8191   4.143   0.806   1.051
 2729TIP3   OH2 8192   3.840   1.652   5.142
 2729TIP3    H1 8193   3.815   1.620   5.056
 2729TIP3    H2 8194   3.802   1.588   5.203
 2730TIP3   OH2 8195   3.011   3.622   2.505
 2730TIP3    H1 8196   2.963   3.588   2.580
 2730TIP3    H2 8197   2.944   3.664   2.450
 2731TIP3   OH2 8198   3.884   4.670   3.599
 2731TIP3    H1 8199   3.963   4.713   3.633
 2731TIP3    H2 8200   3.882   4.586   3.644
 2732TIP3   OH2 8201   3.623   1.422   3.322
 2732TIP3    H1 8202   3.657   1.364   3.254
 2732TIP3    H2 8203   3.680   1.406   3.398
 2733TIP3   OH2 8204   0.299   2.279   5.059
 2733TIP3    H1 8205   0.374   2.337   5.051
 2733TIP3    H2 8206   0.267   2.270   4.969
 2734TIP3   OH2 8207   0.927   2.256   4.187
 2734TIP3    H1 8208   0.904   2.256   4.280
 2734TIP3    H2 8209   0.998   2.192   4.180
 2735TIP3   OH2 8210   4.674   1.870   0.206
 2735TIP3    H1 8211   4.761   1.847   0.238
 2735TIP3    H2 8212   4.657   1.808   0.135
 2736TIP3   OH2 8213   5.022   4.696   4.899
 2736TIP3    H1 8214   5.038   4.737   4.814
 2736TIP3    H2 8215   4.973   4.762   4.948
 2737TIP3   OH2 8216   1.354   2.221   3.020
 2737TIP3    H1 8217   1.274   2.189   3.061
 2737TIP3    H2 8218   1.345   2.198   2.928
 2738TIP3   OH2 8219   3.363   0.286   4.766
 2738TIP3    H1 8220   3.434   0.242   4.720
 2738TIP3    H2 8221   3.371   0.256   4.857
 2739TIP3   OH2 8222   3.150   2.483   2.767
 2739TIP3    H1 8223   3.125   2.442   2.684
 2739TIP3    H2 8224   3.080   2.547   2.783
 2740TIP3   OH2 8225   5.527   2.102   2.836
 2740TIP3    H1 8226   5.490   2.017   2.814
 2740TIP3    H2 8227   5.604   2.110   2.780
 2741TIP3   OH2 8228   4.454   2.270   3.953
 2741TIP3    H1 8229   4.537   2.226   3.937
 2741TIP3    H2 8230   4.447   2.334   3.881
 2742TIP3   OH2 8231   2.797   5.298   3.271
 2742TIP3    H1 8232   2.755   5.303   3.356
 2742TIP3    H2 8233   2.725   5.285   3.209
 2743TIP3   OH2 8234   5.064   1.579   1.356
 2743TIP3    H1 8235   4.976   1.556   1.328
 2743TIP3    H2 8236   5.053   1.656   1.412
 2744TIP3   OH2 8237   3.177   0.255   3.123
 2744TIP3    H1 8238   3.221   0.340   3.116
 2744TIP3    H2 8239   3.143   0.253   3.212
 2745TIP3   OH2 8240   1.244   5.301   2.517
 2745TIP3    H1 8241   1.197   5.384   2.505
 2745TIP3    H2 8242   1.214   5.270   2.602
 2746TIP3   OH2 8243   2.574   3.673   0.618
 2746TIP3    H1 8244   2.497   3.728   0.607
 2746TIP3    H2 8245   2.583   3.627   0.534
 2747TIP3   OH2 8246   0.288   0.075   4.460
 2747TIP3    H1 8247   0.330   0.011   4.402
 2747TIP3    H2 8248   0.319   0.160   4.430
 2748TIP3   OH2 8249   1.584   0.366   3.919
 2748TIP3    H1 8250   1.560   0.446   3.965
 2748TIP3    H2 8251   1.545   0.375   3.832
 2749TIP3   OH2 8252   2.687   1.826   2.518
 2749TIP3    H1 8253   2.760   1.770   2.546
 2749TIP3    H2 8254   2.730   1.905   2.485
 2750TIP3   OH2 8255   5.864   1.158   1.300
 2750TIP3    H1 8256   5.947   1.142   1.344
 2750TIP3    H2 8257   5.834   1.071   1.273
 2751TIP3   OH2 8258   0.801   1.762   2.505
 2751TIP3    H1 8259   0.773   1.671   2.506
 2751TIP3    H2 8260   0.820   1.780   2.412
 2752TIP3   OH2 8261   1.753   0.230   2.008
 2752TIP3    H1 8262   1.660   0.204   2.008
 2752TIP3    H2 8263   1.786   0.196   1.925
 2753TIP3   OH2 8264   5.200   5.700   1.758
 2753TIP3    H1 8265   5.264   5.629   1.762
 2753TIP3    H2 8266   5.182   5.721   1.849
 2754TIP3   OH2 8267   3.318   0.927   0.308
 2754TIP3    H1 8268   3.234   0.934   0.263
 2754TIP3    H2 8269   3.319   1.001   0.369
 2755TIP3   OH2 8270   1.177   1.670   2.199
 2755TIP3    H1 8271   1.109   1.678   2.132
 2755TIP3    H2 8272   1.251   1.631   2.152
 2756TIP3   OH2 8273   6.000   3.629   4.350
 2756TIP3    H1 8274   6.088   3.595   4.367
 2756TIP3    H2 8275   6.012   3.690   4.277
 2757TIP3   OH2 8276   0.381   5.629   2.434
 2757TIP3    H1 8277   0.437   5.554   2.456
 2757TIP3    H2 8278   0.297   5.590   2.409
 2758TIP3   OH2 8279   4.216   3.804   2.677
 2758TIP3    H1 8280   4.211   3.760   2.762
 2758TIP3    H2 8281   4.130   3.845   2.667
 2759TIP3   OH2 8282   2.093   4.849   2.562
 2759TIP3    H1 8283   2.166   4.890   2.609
 2759TIP3    H2 8284   2.106   4.755   2.575
 2760TIP3   OH2 8285   5.171   2.548   2.567
 2760TIP3    H1 8286   5.180   2.583   2.479
 2760TIP3    H2 8287   5.104   2.602   2.608
 2761TIP3   OH2 8288   2.561   1.507   3.811
 2761TIP3    H1 8289   2.576   1.589   3.764
 2761TIP3    H2 8290   2.637   1.453   3.789
 2762TIP3   OH2 8291   6.249   3.144   2.490
 2762TIP3    H1 8292   6.167   3.167   2.534
 2762TIP3    H2 8293   6.262   3.051   2.510
 2763TIP3   OH2 8294   1.945   1.402   3.216
 2763TIP3    H1 8295   1.932   1.389   3.310
 2763TIP3    H2 8296   1.865   1.447   3.188
 2764TIP3   OH2 8297   5.072   4.011   4.597
 2764TIP3    H1 8298   5.050   3.938   4.540
 2764TIP3    H2 8299   5.135   3.975   4.659
 2765TIP3   OH2 8300   1.655   2.627   2.841
 2765TIP3    H1 8301   1.662   2.589   2.929
 2765TIP3    H2 8302   1.719   2.697   2.840
 2766TIP3   OH2 8303   0.338   0.484   0.792
 2766TIP3    H1 8304   0.355   0.491   0.698
 2766TIP3    H2 8305   0.335   0.390   0.808
 2767TIP3   OH2 8306   5.422   1.062   2.877
 2767TIP3    H1 8307   5.453   1.091   2.791
 2767TIP3    H2 8308   5.327   1.073   2.873
 2768TIP3   OH2 8309   0.860   0.299   1.720
 2768TIP3    H1 8310   0.928   0.232   1.708
 2768TIP3    H2 8311   0.852   0.309   1.815
 2769TIP3   OH2 8312   4.189   5.773   4.494
 2769TIP3    H1 8313   4.122   5.778   4.425
 2769TIP3    H2 8314   4.270   5.797   4.450
 2770TIP3   OH2 8315   0.987   3.766   1.697
 2770TIP3    H1 8316   0.966   3.769   1.791
 2770TIP3    H2 8317   1.068   3.715   1.693
 2771TIP3   OH2 8318   5.700   5.576   0.277
 2771TIP3    H1 8319   5.681   5.558   0.185
 2771TIP3    H2 8320   5.688   5.492   0.321
 2772TIP3   OH2 8321   1.986   1.636   2.999
 2772TIP3    H1 8322   2.000   1.639   2.904
 2772TIP3    H2 8323   1.970   1.544   3.018
 2773TIP3   OH2 8324   3.649   2.326   4.453
 2773TIP3    H1 8325   3.572   2.361   4.407
 2773TIP3    H2 8326   3.723   2.354   4.399
 2774TIP3   OH2 8327   3.018   1.679   1.487
 2774TIP3    H1 8328   2.928   1.710   1.497
 2774TIP3    H2 8329   3.065   1.751   1.447
 2775TIP3   OH2 8330   2.560   1.269   4.446
 2775TIP3    H1 8331   2.515   1.341   4.489
 2775TIP3    H2 8332   2.591   1.214   4.518
 2776TIP3   OH2 8333   3.578   2.681   2.764
 2776TIP3    H1 8334   3.565   2.656   2.855
 2776TIP3    H2 8335   3.667   2.718   2.762
 2777TIP3   OH2 8336   2.499   5.454   5.160
 2777TIP3    H1 8337   2.488   5.460   5.254
 2777TIP3    H2 8338   2.583   5.495   5.142
 2778TIP3   OH2 8339   2.089   1.570   1.290
 2778TIP3    H1 8340   2.037   1.512   1.234
 2778TIP3    H2 8341   2.071   1.657   1.256
 2779TIP3   OH2 8342   2.695   0.694   3.501
 2779TIP3    H1 8343   2.788   0.712   3.513
 2779TIP3    H2 8344   2.681   0.612   3.548
 2780TIP3   OH2 8345   4.259   4.860   4.618
 2780TIP3    H1 8346   4.324   4.854   4.548
 2780TIP3    H2 8347   4.177   4.879   4.572
 2781TIP3   OH2 8348   4.227   3.990   0.477
 2781TIP3    H1 8349   4.319   3.963   0.471
 2781TIP3    H2 8350   4.184   3.919   0.524
 2782TIP3   OH2 8351   4.128   5.050   1.649
 2782TIP3    H1 8352   4.191   5.114   1.617
 2782TIP3    H2 8353   4.182   4.982   1.690
 2783TIP3   OH2 8354   1.579   0.290   0.214
 2783TIP3    H1 8355   1.571   0.198   0.189
 2783TIP3    H2 8356   1.627   0.288   0.297
 2784TIP3   OH2 8357   1.126   3.829   3.119
 2784TIP3    H1 8358   1.040   3.842   3.159
 2784TIP3    H2 8359   1.135   3.734   3.111
 2785TIP3   OH2 8360   1.149   0.714   5.147
 2785TIP3    H1 8361   1.139   0.809   5.143
 2785TIP3    H2 8362   1.182   0.697   5.235
 2786TIP3   OH2 8363   4.907   2.816   1.451
 2786TIP3    H1 8364   4.861   2.841   1.371
 2786TIP3    H2 8365   4.959   2.893   1.474
 2787TIP3   OH2 8366   2.145   1.237   1.927
 2787TIP3    H1 8367   2.198   1.282   1.861
 2787TIP3    H2 8368   2.198   1.242   2.007
 2788TIP3   OH2 8369   1.872   1.569   2.146
 2788TIP3    H1 8370   1.823   1.487   2.138
 2788TIP3    H2 8371   1.892   1.594   2.055
 2789TIP3   OH2 8372   0.492   3.790   4.515
 2789TIP3    H1 8373   0.555   3.794   4.444
 2789TIP3    H2 8374   0.521   3.857   4.577
 2790TIP3   OH2 8375   4.904   3.603   2.587
 2790TIP3    H1 8376   4.901   3.512   2.615
 2790TIP3    H2 8377   4.816   3.622   2.556
 2791TIP3   OH2 8378   5.074   2.414   4.028
 2791TIP3    H1 8379   4.978   2.419   4.031
 2791TIP3    H2 8380   5.099   2.488   3.972
 2792TIP3   OH2 8381   5.279   4.785   2.255
 2792TIP3    H1 8382   5.256   4.861   2.202
 2792TIP3    H2 8383   5.375   4.787   2.259
 2793TIP3   OH2 8384   5.035   3.659   4.817
 2793TIP3    H1 8385   4.951   3.619   4.837
 2793TIP3    H2 8386   5.030   3.679   4.723
 2794TIP3   OH2 8387   2.390   0.143   1.237
 2794TIP3    H1 8388   2.304   0.183   1.223
 2794TIP3    H2 8389   2.409   0.100   1.154
 2795TIP3   OH2 8390   6.263   5.196   4.008
 2795TIP3    H1 8391   6.230   5.286   4.009
 2795TIP3    H2 8392   6.266   5.171   4.101
 2796TIP3   OH2 8393   0.742   4.049   0.328
 2796TIP3    H1 8394   0.747   3.983   0.258
 2796TIP3    H2 8395   0.649   4.071   0.334
 2797TIP3   OH2 8396   1.994   5.490   0.995
 2797TIP3    H1 8397   2.073   5.444   1.021
 2797TIP3    H2 8398   1.992   5.569   1.049
 2798TIP3   OH2 8399   6.108   1.378   1.949
 2798TIP3    H1 8400   6.136   1.358   2.038
 2798TIP3    H2 8401   6.110   1.473   1.943
 2799TIP3   OH2 8402   4.304   4.889   3.818
 2799TIP3    H1 8403   4.222   4.938   3.827
 2799TIP3    H2 8404   4.294   4.813   3.875
 2800TIP3   OH2 8405   0.245   5.943   4.289
 2800TIP3    H1 8406   0.196   5.862   4.284
 2800TIP3    H2 8407   0.337   5.916   4.286
 2801TIP3   OH2 8408   4.126   5.069   3.484
 2801TIP3    H1 8409   4.062   5.104   3.545
 2801TIP3    H2 8410   4.096   4.980   3.465
 2802TIP3   OH2 8411   4.001   2.765   4.106
 2802TIP3    H1 8412   4.063   2.696   4.081
 2802TIP3    H2 8413   4.001   2.764   4.201
 2803TIP3   OH2 8414   4.638   4.196   0.473
 2803TIP3    H1 8415   4.658   4.286   0.499
 2803TIP3    H2 8416   4.669   4.190   0.382
 2804TIP3   OH2 8417   1.876   0.870   1.132
 2804TIP3    H1 8418   1.935   0.811   1.178
 2804TIP3    H2 8419   1.934   0.937   1.096
 2805TIP3   OH2 8420   6.039   0.797   2.223
 2805TIP3    H1 8421   5.957   0.825   2.264
 2805TIP3    H2 8422   6.016   0.720   2.172
 2806TIP3   OH2 8423   2.582   5.454   1.891
 2806TIP3    H1 8424   2.659   5.399   1.906
 2806TIP3    H2 8425   2.582   5.515   1.965
 2807TIP3   OH2 8426   4.385  -0.021   1.257
 2807TIP3    H1 8427   4.325  -0.030   1.183
 2807TIP3    H2 8428   4.464   0.017   1.219
 2808TIP3   OH2 8429   1.996   3.835   3.263
 2808TIP3    H1 8430   2.050   3.756   3.262
 2808TIP3    H2 8431   1.990   3.860   3.171
 2809TIP3   OH2 8432   4.724   2.465   1.897
 2809TIP3    H1 8433   4.691   2.455   1.808
 2809TIP3    H2 8434   4.754   2.378   1.922
 2810TIP3   OH2 8435   5.845   4.884   3.388
 2810TIP3    H1 8436   5.758   4.923   3.384
 2810TIP3    H2 8437   5.871   4.890   3.480
 2811TIP3   OH2 8438   1.156   5.684   1.548
 2811TIP3    H1 8439   1.227   5.620   1.546
 2811TIP3    H2 8440   1.080   5.638   1.512
 2812TIP3   OH2 8441   6.149   4.086   1.610
 2812TIP3    H1 8442   6.172   4.169   1.652
 2812TIP3    H2 8443   6.081   4.049   1.667
 2813TIP3   OH2 8444   0.455   2.506   5.041
 2813TIP3    H1 8445   0.371   2.546   5.062
 2813TIP3    H2 8446   0.464   2.519   4.947
 2814TIP3   OH2 8447   1.548   4.517   2.205
 2814TIP3    H1 8448   1.598   4.522   2.287
 2814TIP3    H2 8449   1.537   4.424   2.189
 2815TIP3   OH2 8450   4.339   5.921   2.768
 2815TIP3    H1 8451   4.311   5.938   2.678
 2815TIP3    H2 8452   4.401   5.991   2.787
 2816TIP3   OH2 8453   4.043   2.607   3.784
 2816TIP3    H1 8454   4.117   2.664   3.764
 2816TIP3    H2 8455   4.036   2.549   3.708
 2817TIP3   OH2 8456   5.066   3.685  -0.048
 2817TIP3    H1 8457   4.977   3.714  -0.069
 2817TIP3    H2 8458   5.081   3.719   0.040
 2818TIP3   OH2 8459   2.425   2.299   1.664
 2818TIP3    H1 8460   2.384   2.263   1.742
 2818TIP3    H2 8461   2.489   2.362   1.698
 2819TIP3   OH2 8462   3.941   1.601   3.806
 2819TIP3    H1 8463   3.963   1.557   3.888
 2819TIP3    H2 8464   3.861   1.650   3.826
 2820TIP3   OH2 8465   6.335   4.415   0.033
 2820TIP3    H1 8466   6.310   4.357   0.105
 2820TIP3    H2 8467   6.430   4.419   0.038
 2821TIP3   OH2 8468   4.897   5.494   2.509
 2821TIP3    H1 8469   4.856   5.580   2.500
 2821TIP3    H2 8470   4.973   5.509   2.565
 2822TIP3   OH2 8471   3.461   2.632   4.425
 2822TIP3    H1 8472   3.459   2.564   4.358
 2822TIP3    H2 8473   3.461   2.584   4.508
 2823TIP3   OH2 8474   1.840   4.127   1.613
 2823TIP3    H1 8475   1.862   4.178   1.535
 2823TIP3    H2 8476   1.779   4.182   1.662
 2824TIP3   OH2 8477   5.903   5.540   2.934
 2824TIP3    H1 8478   5.826   5.512   2.885
 2824TIP3    H2 8479   5.928   5.464   2.986
 2825TIP3   OH2 8480   4.489   2.999   4.782
 2825TIP3    H1 8481   4.559   3.022   4.843
 2825TIP3    H2 8482   4.532   2.948   4.714
 2826TIP3   OH2 8483   0.311   1.324   1.537
 2826TIP3    H1 8484   0.259   1.329   1.457
 2826TIP3    H2 8485   0.322   1.416   1.564
 2827TIP3   OH2 8486   2.478   1.266   0.891
 2827TIP3    H1 8487   2.510   1.308   0.812
 2827TIP3    H2 8488   2.427   1.334   0.936
 2828TIP3   OH2 8489   5.682   2.996   3.450
 2828TIP3    H1 8490   5.740   3.065   3.483
 2828TIP3    H2 8491   5.640   3.035   3.373
 2829TIP3   OH2 8492   5.460   4.412   4.361
 2829TIP3    H1 8493   5.491   4.324   4.385
 2829TIP3    H2 8494   5.367   4.401   4.343
 2830TIP3   OH2 8495   3.711   3.675   4.854
 2830TIP3    H1 8496   3.721   3.760   4.812
 2830TIP3    H2 8497   3.622   3.676   4.890
 2831TIP3   OH2 8498   4.972   2.211   0.973
 2831TIP3    H1 8499   5.041   2.202   1.039
 2831TIP3    H2 8500   5.017   2.202   0.889
 2832TIP3   OH2 8501   5.523   3.521   3.590
 2832TIP3    H1 8502   5.583   3.463   3.635
 2832TIP3    H2 8503   5.493   3.471   3.514
 2833TIP3   OH2 8504   6.166   2.075   3.478
 2833TIP3    H1 8505   6.202   2.066   3.566
 2833TIP3    H2 8506   6.237   2.047   3.420
 2834TIP3   OH2 8507   3.701   4.669   2.363
 2834TIP3    H1 8508   3.676   4.609   2.432
 2834TIP3    H2 8509   3.778   4.715   2.397
 2835TIP3   OH2 8510   2.534   5.219   0.722
 2835TIP3    H1 8511   2.528   5.227   0.627
 2835TIP3    H2 8512   2.446   5.193   0.749
 2836TIP3   OH2 8513   4.809   5.423   0.988
 2836TIP3    H1 8514   4.749   5.389   1.055
 2836TIP3    H2 8515   4.764   5.499   0.951
 2837TIP3   OH2 8516   6.052   3.906   0.688
 2837TIP3    H1 8517   5.993   3.902   0.763
 2837TIP3    H2 8518   6.068   3.814   0.665
 2838TIP3   OH2 8519   0.148   3.657   0.697
 2838TIP3    H1 8520   0.074   3.717   0.698
 2838TIP3    H2 8521   0.110   3.571   0.719
 2839TIP3   OH2 8522   2.604   3.481   3.905
 2839TIP3    H1 8523   2.580   3.457   3.815
 2839TIP3    H2 8524   2.538   3.438   3.959
 2840TIP3   OH2 8525   0.273   4.129   1.514
 2840TIP3    H1 8526   0.326   4.165   1.443
 2840TIP3    H2 8527   0.218   4.062   1.472
 2841TIP3   OH2 8528   5.785   2.511   1.851
 2841TIP3    H1 8529   5.874   2.483   1.828
 2841TIP3    H2 8530   5.744   2.531   1.767
 2842TIP3   OH2 8531   4.722   4.377   4.702
 2842TIP3    H1 8532   4.631   4.378   4.670
 2842TIP3    H2 8533   4.755   4.291   4.676
 2843TIP3   OH2 8534   1.699   1.642   4.201
 2843TIP3    H1 8535   1.707   1.726   4.156
 2843TIP3    H2 8536   1.635   1.593   4.149
 2844TIP3   OH2 8537   1.839   2.166   3.957
 2844TIP3    H1 8538   1.912   2.209   4.002
 2844TIP3    H2 8539   1.785   2.131   4.028
 2845TIP3   OH2 8540   5.228   1.796   3.675
 2845TIP3    H1 8541   5.298   1.826   3.616
 2845TIP3    H2 8542   5.167   1.749   3.617
 2846TIP3   OH2 8543   0.616   3.755   2.152
 2846TIP3    H1 8544   0.651   3.844   2.151
 2846TIP3    H2 8545   0.655   3.714   2.229
 2847TIP3   OH2 8546   3.681   0.890   0.207
 2847TIP3    H1 8547   3.658   0.982   0.213
 2847TIP3    H2 8548   3.644   0.850   0.286
 2848TIP3   OH2 8549   3.013   3.145   0.427
 2848TIP3    H1 8550   2.928   3.101   0.431
 2848TIP3    H2 8551   3.069   3.086   0.378
 2849TIP3   OH2 8552   2.284   5.875   4.430
 2849TIP3    H1 8553   2.192   5.898   4.422
 2849TIP3    H2 8554   2.293   5.793   4.381
 2850TIP3   OH2 8555   5.891   3.831   0.892
 2850TIP3    H1 8556   5.933   3.750   0.921
 2850TIP3    H2 8557   5.798   3.809   0.888
 2851TIP3   OH2 8558   5.106   0.819   0.816
 2851TIP3    H1 8559   5.180   0.769   0.850
 2851TIP3    H2 8560   5.074   0.869   0.890
 2852TIP3   OH2 8561   4.512   0.437   0.415
 2852TIP3    H1 8562   4.571   0.464   0.345
 2852TIP3    H2 8563   4.470   0.357   0.381
 2853TIP3   OH2 8564   1.014   1.988   2.103
 2853TIP3    H1 8565   1.031   1.945   2.019
 2853TIP3    H2 8566   1.087   1.963   2.158
 2854TIP3   OH2 8567   5.574   1.219   0.484
 2854TIP3    H1 8568   5.599   1.258   0.568
 2854TIP3    H2 8569   5.636   1.255   0.421
 2855TIP3   OH2 8570   4.895   3.102   3.782
 2855TIP3    H1 8571   4.955   3.030   3.802
 2855TIP3    H2 8572   4.891   3.154   3.863
 2856TIP3   OH2 8573   4.078   4.603   4.455
 2856TIP3    H1 8574   4.018   4.659   4.505
 2856TIP3    H2 8575   4.061   4.514   4.488
 2857TIP3   OH2 8576   2.280   3.865   1.239
 2857TIP3    H1 8577   2.245   3.868   1.328
 2857TIP3    H2 8578   2.373   3.845   1.251
 2858TIP3   OH2 8579   0.458   2.809   1.956
 2858TIP3    H1 8580   0.416   2.894   1.956
 2858TIP3    H2 8581   0.419   2.763   1.881
 2859TIP3   OH2 8582   6.337   3.883   0.717
 2859TIP3    H1 8583   6.396   3.945   0.674
 2859TIP3    H2 8584   6.257   3.934   0.733
 2860TIP3   OH2 8585   0.851   1.916   3.893
 2860TIP3    H1 8586   0.811   1.908   3.980
 2860TIP3    H2 8587   0.779   1.904   3.832
 2861TIP3   OH2 8588   6.264   1.214   3.780
 2861TIP3    H1 8589   6.251   1.284   3.844
 2861TIP3    H2 8590   6.215   1.242   3.703
 2862TIP3   OH2 8591   4.112   3.312   2.037
 2862TIP3    H1 8592   4.100   3.380   2.103
 2862TIP3    H2 8593   4.203   3.283   2.050
 2863TIP3   OH2 8594   5.404   2.373   3.637
 2863TIP3    H1 8595   5.439   2.432   3.570
 2863TIP3    H2 8596   5.437   2.407   3.720
 2864TIP3   OH2 8597   5.173   3.681   3.092
 2864TIP3    H1 8598   5.174   3.586   3.090
 2864TIP3    H2 8599   5.238   3.708   3.028
 2865TIP3   OH2 8600   3.575   1.351   0.102
 2865TIP3    H1 8601   3.624   1.419   0.149
 2865TIP3    H2 8602   3.491   1.347   0.146
 2866TIP3   OH2 8603   0.084   4.141   5.053
 2866TIP3    H1 8604   0.162   4.111   5.101
 2866TIP3    H2 8605   0.094   4.101   4.967
 2867TIP3   OH2 8606   4.175   4.748   0.608
 2867TIP3    H1 8607   4.226   4.670   0.585
 2867TIP3    H2 8608   4.214   4.818   0.556
 2868TIP3   OH2 8609   3.557   5.758   3.412
 2868TIP3    H1 8610   3.536   5.774   3.320
 2868TIP3    H2 8611   3.567   5.663   3.418
 2869TIP3   OH2 8612   0.976   3.993   4.737
 2869TIP3    H1 8613   1.024   4.022   4.659
 2869TIP3    H2 8614   0.896   3.954   4.703
 2870TIP3   OH2 8615   1.185   5.338   0.849
 2870TIP3    H1 8616   1.171   5.308   0.760
 2870TIP3    H2 8617   1.105   5.313   0.896
 2871TIP3   OH2 8618   4.116   5.126   4.286
 2871TIP3    H1 8619   4.065   5.145   4.365
 2871TIP3    H2 8620   4.122   5.030   4.285
 2872TIP3   OH2 8621   0.284   3.485   4.851
 2872TIP3    H1 8622   0.355   3.506   4.912
 2872TIP3    H2 8623   0.323   3.424   4.789
 2873TIP3   OH2 8624   4.687   4.059   3.765
 2873TIP3    H1 8625   4.686   3.998   3.691
 2873TIP3    H2 8626   4.776   4.094   3.765
 2874TIP3   OH2 8627   3.900   5.629   0.929
 2874TIP3    H1 8628   3.814   5.610   0.965
 2874TIP3    H2 8629   3.956   5.559   0.961
 2875TIP3   OH2 8630   2.240   2.576   3.441
 2875TIP3    H1 8631   2.207   2.555   3.354
 2875TIP3    H2 8632   2.222   2.497   3.493
 2876TIP3   OH2 8633   5.288   2.863   1.683
 2876TIP3    H1 8634   5.261   2.773   1.665
 2876TIP3    H2 8635   5.281   2.872   1.778
 2877TIP3   OH2 8636   1.975   5.484   3.574
 2877TIP3    H1 8637   1.886   5.476   3.539
 2877TIP3    H2 8638   1.970   5.558   3.635
 2878TIP3   OH2 8639   6.173   5.483   0.849
 2878TIP3    H1 8640   6.199   5.550   0.912
 2878TIP3    H2 8641   6.187   5.400   0.894
 2879TIP3   OH2 8642   2.523   3.546   1.621
 2879TIP3    H1 8643   2.475   3.498   1.689
 2879TIP3    H2 8644   2.548   3.479   1.558
 2880TIP3   OH2 8645   2.233   4.315   1.112
 2880TIP3    H1 8646   2.191   4.229   1.106
 2880TIP3    H2 8647   2.170   4.368   1.160
 2881TIP3   OH2 8648   1.152   5.319   2.099
 2881TIP3    H1 8649   1.093   5.264   2.149
 2881TIP3    H2 8650   1.146   5.285   2.009
 2882TIP3   OH2 8651   0.873   4.009   2.448
 2882TIP3    H1 8652   0.929   3.932   2.455
 2882TIP3    H2 8653   0.877   4.049   2.535
 2883TIP3   OH2 8654   1.264   3.125   1.912
 2883TIP3    H1 8655   1.315   3.197   1.948
 2883TIP3    H2 8656   1.290   3.122   1.819
 2884TIP3   OH2 8657   6.209   0.248   5.001
 2884TIP3    H1 8658   6.138   0.189   4.972
 2884TIP3    H2 8659   6.284   0.190   5.015
 2885TIP3   OH2 8660   5.495   0.061   1.250
 2885TIP3    H1 8661   5.528   0.150   1.243
 2885TIP3    H2 8662   5.573   0.006   1.245
 2886TIP3   OH2 8663   3.404   4.317   1.998
 2886TIP3    H1 8664   3.383   4.336   1.906
 2886TIP3    H2 8665   3.433   4.401   2.033
 2887TIP3   OH2 8666   3.495   0.365   1.415
 2887TIP3    H1 8667   3.505   0.273   1.441
 2887TIP3    H2 8668   3.409   0.368   1.372
 2888TIP3   OH2 8669   4.341   4.541   4.899
 2888TIP3    H1 8670   4.251   4.562   4.872
 2888TIP3    H2 8671   4.346   4.446   4.891
 2889TIP3   OH2 8672   4.692   3.442   3.981
 2889TIP3    H1 8673   4.700   3.537   3.985
 2889TIP3    H2 8674   4.679   3.422   3.888
 2890TIP3   OH2 8675   0.263   4.746   1.920
 2890TIP3    H1 8676   0.228   4.706   1.840
 2890TIP3    H2 8677   0.292   4.833   1.892
 2891TIP3   OH2 8678   3.231   0.935   3.884
 2891TIP3    H1 8679   3.208   0.849   3.920
 2891TIP3    H2 8680   3.324   0.945   3.905
 2892TIP3   OH2 8681   0.281   1.778   3.424
 2892TIP3    H1 8682   0.273   1.691   3.383
 2892TIP3    H2 8683   0.282   1.839   3.350
 2893TIP3   OH2 8684   1.942   2.445   0.176
 2893TIP3    H1 8685   2.013   2.423   0.236
 2893TIP3    H2 8686   1.948   2.539   0.165
 2894TIP3   OH2 8687   5.053   2.707   2.342
 2894TIP3    H1 8688   4.993   2.725   2.270
 2894TIP3    H2 8689   5.073   2.794   2.379
 2895TIP3   OH2 8690   4.329   1.501   2.102
 2895TIP3    H1 8691   4.261   1.439   2.076
 2895TIP3    H2 8692   4.319   1.509   2.197
 2896TIP3   OH2 8693   5.968   1.167   2.521
 2896TIP3    H1 8694   5.936   1.108   2.589
 2896TIP3    H2 8695   6.023   1.112   2.465
 2897TIP3   OH2 8696   4.783   5.438   2.891
 2897TIP3    H1 8697   4.712   5.389   2.931
 2897TIP3    H2 8698   4.814   5.382   2.820
 2898TIP3   OH2 8699   1.428   5.108   3.023
 2898TIP3    H1 8700   1.452   5.143   3.109
 2898TIP3    H2 8701   1.416   5.186   2.969
 2899TIP3   OH2 8702   1.703   3.249   0.456
 2899TIP3    H1 8703   1.763   3.200   0.400
 2899TIP3    H2 8704   1.617   3.211   0.438
 2900TIP3   OH2 8705   3.232   2.893   1.888
 2900TIP3    H1 8706   3.313   2.924   1.929
 2900TIP3    H2 8707   3.214   2.956   1.818
 2901TIP3   OH2 8708   2.712   0.682   2.742
 2901TIP3    H1 8709   2.739   0.613   2.682
 2901TIP3    H2 8710   2.728   0.647   2.829
 2902TIP3   OH2 8711   5.438   3.102   4.258
 2902TIP3    H1 8712   5.480   3.038   4.315
 2902TIP3    H2 8713   5.345   3.095   4.278
 2903TIP3   OH2 8714   2.808   3.429   0.847
 2903TIP3    H1 8715   2.806   3.427   0.943
 2903TIP3    H2 8716   2.735   3.373   0.820
 2904TIP3   OH2 8717   5.010   0.218   4.186
 2904TIP3    H1 8718   4.955   0.263   4.250
 2904TIP3    H2 8719   5.099   0.248   4.204
 2905TIP3   OH2 8720   3.543   3.482   3.703
 2905TIP3    H1 8721   3.623   3.462   3.654
 2905TIP3    H2 8722   3.497   3.546   3.649
 2906TIP3   OH2 8723   0.259   1.536   1.131
 2906TIP3    H1 8724   0.234   1.588   1.055
 2906TIP3    H2 8725   0.294   1.455   1.094
 2907TIP3   OH2 8726   0.403   5.269   1.219
 2907TIP3    H1 8727   0.432   5.192   1.267
 2907TIP3    H2 8728   0.379   5.332   1.287
 2908TIP3   OH2 8729   6.235   0.104   4.350
 2908TIP3    H1 8730   6.235   0.199   4.356
 2908TIP3    H2 8731   6.323   0.078   4.376
 2909TIP3   OH2 8732   3.100   2.625   0.329
 2909TIP3    H1 8733   3.085   2.541   0.373
 2909TIP3    H2 8734   3.193   2.624   0.306
 2910TIP3   OH2 8735   4.386   1.994   4.881
 2910TIP3    H1 8736   4.389   1.959   4.971
 2910TIP3    H2 8737   4.319   2.063   4.885
 2911TIP3   OH2 8738   2.153   4.781   3.290
 2911TIP3    H1 8739   2.089   4.801   3.358
 2911TIP3    H2 8740   2.222   4.847   3.301
 2912TIP3   OH2 8741   4.665   2.424   1.235
 2912TIP3    H1 8742   4.707   2.338   1.235
 2912TIP3    H2 8743   4.704   2.470   1.160
 2913TIP3   OH2 8744   6.135   0.403   2.505
 2913TIP3    H1 8745   6.113   0.494   2.526
 2913TIP3    H2 8746   6.112   0.353   2.583
 2914TIP3   OH2 8747   5.254   5.082   3.642
 2914TIP3    H1 8748   5.213   5.159   3.602
 2914TIP3    H2 8749   5.181   5.031   3.676
 2915TIP3   OH2 8750   5.921   0.067   4.468
 2915TIP3    H1 8751   5.869  -0.001   4.425
 2915TIP3    H2 8752   5.985   0.018   4.521
 2916TIP3   OH2 8753   2.087   0.559   4.608
 2916TIP3    H1 8754   2.095   0.635   4.666
 2916TIP3    H2 8755   2.177   0.525   4.602
 2917TIP3   OH2 8756   3.101   4.075   0.121
 2917TIP3    H1 8757   3.075   4.079   0.214
 2917TIP3    H2 8758   3.020   4.094   0.073
 2918TIP3   OH2 8759   5.119   3.775   0.987
 2918TIP3    H1 8760   5.077   3.860   0.979
 2918TIP3    H2 8761   5.180   3.771   0.914
 2919TIP3   OH2 8762   1.560   0.795   3.462
 2919TIP3    H1 8763   1.623   0.734   3.500
 2919TIP3    H2 8764   1.590   0.881   3.490
 2920TIP3   OH2 8765   2.378   3.435   1.819
 2920TIP3    H1 8766   2.419   3.453   1.904
 2920TIP3    H2 8767   2.379   3.339   1.812
 2921TIP3   OH2 8768   0.901   5.506   3.705
 2921TIP3    H1 8769   0.852   5.525   3.785
 2921TIP3    H2 8770   0.922   5.592   3.668
 2922TIP3   OH2 8771   1.044   2.820   3.851
 2922TIP3    H1 8772   1.138   2.833   3.860
 2922TIP3    H2 8773   1.035   2.749   3.788
 2923TIP3   OH2 8774   2.952   0.763   3.555
 2923TIP3    H1 8775   2.956   0.858   3.538
 2923TIP3    H2 8776   3.035   0.729   3.521
 2924TIP3   OH2 8777   1.596   1.079   5.025
 2924TIP3    H1 8778   1.577   0.990   4.994
 2924TIP3    H2 8779   1.617   1.128   4.945
 2925TIP3   OH2 8780   4.390   1.874   1.473
 2925TIP3    H1 8781   4.440   1.793   1.480
 2925TIP3    H2 8782   4.335   1.862   1.395
 2926TIP3   OH2 8783   3.670   5.247   0.552
 2926TIP3    H1 8784   3.596   5.232   0.611
 2926TIP3    H2 8785   3.646   5.202   0.471
 2927TIP3   OH2 8786   5.199   5.859   3.909
 2927TIP3    H1 8787   5.263   5.863   3.839
 2927TIP3    H2 8788   5.215   5.938   3.961
 2928TIP3   OH2 8789   2.263   3.649   1.088
 2928TIP3    H1 8790   2.268   3.737   1.125
 2928TIP3    H2 8791   2.173   3.641   1.057
 2929TIP3   OH2 8792   1.310   2.962   4.159
 2929TIP3    H1 8793   1.273   2.984   4.074
 2929TIP3    H2 8794   1.236   2.968   4.220
 2930TIP3   OH2 8795   1.946   0.571   2.234
 2930TIP3    H1 8796   1.982   0.541   2.150
 2930TIP3    H2 8797   1.959   0.666   2.233
 2931TIP3   OH2 8798   3.867   1.597   3.425
 2931TIP3    H1 8799   3.813   1.609   3.347
 2931TIP3    H2 8800   3.809   1.617   3.498
 2932TIP3   OH2 8801  -0.010   1.165   5.169
 2932TIP3    H1 8802  -0.013   1.186   5.076
 2932TIP3    H2 8803   0.010   1.071   5.172
 2933TIP3   OH2 8804   5.379   0.215   4.586
 2933TIP3    H1 8805   5.451   0.269   4.552
 2933TIP3    H2 8806   5.419   0.163   4.656
 2934TIP3   OH2 8807   3.238   1.504   3.773
 2934TIP3    H1 8808   3.323   1.470   3.804
 2934TIP3    H2 8809   3.174   1.442   3.807
 2935TIP3   OH2 8810   5.418   2.402   0.025
 2935TIP3    H1 8811   5.358   2.470   0.056
 2935TIP3    H2 8812   5.401   2.328   0.084
 2936TIP3   OH2 8813   1.914   0.265   4.760
 2936TIP3    H1 8814   1.937   0.240   4.670
 2936TIP3    H2 8815   1.990   0.314   4.792
 2937TIP3   OH2 8816   5.836   4.619   1.245
 2937TIP3    H1 8817   5.865   4.568   1.169
 2937TIP3    H2 8818   5.877   4.576   1.320
 2938TIP3   OH2 8819   0.041   0.511   2.769
 2938TIP3    H1 8820   0.008   0.427   2.801
 2938TIP3    H2 8821  -0.037   0.565   2.755
 2939TIP3   OH2 8822   2.180   0.315   4.820
 2939TIP3    H1 8823   2.231   0.351   4.893
 2939TIP3    H2 8824   2.235   0.245   4.786
 2940TIP3   OH2 8825   6.363   4.193   3.913
 2940TIP3    H1 8826   6.282   4.170   3.868
 2940TIP3    H2 8827   6.431   4.182   3.847
 2941TIP3   OH2 8828   2.456   4.385   1.733
 2941TIP3    H1 8829   2.363   4.376   1.755
 2941TIP3    H2 8830   2.458   4.450   1.663
 2942TIP3   OH2 8831   4.365   3.505   0.357
 2942TIP3    H1 8832   4.424   3.581   0.359
 2942TIP3    H2 8833   4.349   3.489   0.264
 2943TIP3   OH2 8834   0.711   3.603   0.451
 2943TIP3    H1 8835   0.749   3.599   0.364
 2943TIP3    H2 8836   0.774   3.652   0.503
 2944TIP3   OH2 8837   0.509   1.340   5.040
 2944TIP3    H1 8838   0.461   1.264   5.007
 2944TIP3    H2 8839   0.454   1.414   5.017
 2945TIP3   OH2 8840   0.635   2.877   1.635
 2945TIP3    H1 8841   0.637   2.799   1.581
 2945TIP3    H2 8842   0.564   2.930   1.598
 2946TIP3   OH2 8843   2.029   5.795   0.831
 2946TIP3    H1 8844   1.998   5.715   0.872
 2946TIP3    H2 8845   2.020   5.779   0.737
 2947TIP3   OH2 8846   1.646   3.927   4.611
 2947TIP3    H1 8847   1.567   3.873   4.610
 2947TIP3    H2 8848   1.698   3.896   4.537
 2948TIP3   OH2 8849   2.982   0.860   0.350
 2948TIP3    H1 8850   2.983   0.855   0.255
 2948TIP3    H2 8851   3.035   0.785   0.379
 2949TIP3   OH2 8852   6.225   1.491   4.971
 2949TIP3    H1 8853   6.130   1.477   4.971
 2949TIP3    H2 8854   6.262   1.403   4.978
 2950TIP3   OH2 8855   2.988   2.196   0.332
 2950TIP3    H1 8856   3.017   2.111   0.300
 2950TIP3    H2 8857   2.952   2.240   0.255
 2951TIP3   OH2 8858   3.570   5.671   0.190
 2951TIP3    H1 8859   3.480   5.647   0.166
 2951TIP3    H2 8860   3.564   5.702   0.280
 2952TIP3   OH2 8861   4.725   2.751   2.910
 2952TIP3    H1 8862   4.691   2.815   2.973
 2952TIP3    H2 8863   4.764   2.683   2.964
 2953TIP3   OH2 8864   1.550   4.122   3.098
 2953TIP3    H1 8865   1.526   4.207   3.062
 2953TIP3    H2 8866   1.477   4.099   3.156
 2954TIP3   OH2 8867   5.384   3.150   3.186
 2954TIP3    H1 8868   5.362   3.060   3.162
 2954TIP3    H2 8869   5.479   3.148   3.200
 2955TIP3   OH2 8870   5.132   0.854   4.143
 2955TIP3    H1 8871   5.158   0.764   4.164
 2955TIP3    H2 8872   5.172   0.871   4.058
 2956TIP3   OH2 8873   0.935   1.283   4.153
 2956TIP3    H1 8874   1.005   1.334   4.113
 2956TIP3    H2 8875   0.913   1.331   4.233
 2957TIP3   OH2 8876   0.377   1.066   0.816
 2957TIP3    H1 8877   0.406   1.019   0.737
 2957TIP3    H2 8878   0.392   1.158   0.796
 2958TIP3   OH2 8879   5.898   1.689   3.610
 2958TIP3    H1 8880   5.883   1.777   3.642
 2958TIP3    H2 8881   5.810   1.650   3.604
 2959TIP3   OH2 8882   0.968   0.883   1.532
 2959TIP3    H1 8883   0.913   0.852   1.604
 2959TIP3    H2 8884   0.908   0.933   1.477
 2960TIP3   OH2 8885   4.129   2.372   2.993
 2960TIP3    H1 8886   4.210   2.322   2.988
 2960TIP3    H2 8887   4.156   2.460   3.019
 2961TIP3   OH2 8888   4.831   1.385   3.660
 2961TIP3    H1 8889   4.821   1.479   3.678
 2961TIP3    H2 8890   4.887   1.381   3.583
 2962TIP3   OH2 8891   2.100   5.221   1.262
 2962TIP3    H1 8892   2.112   5.190   1.172
 2962TIP3    H2 8893   2.124   5.314   1.258
 2963TIP3   OH2 8894   4.340   5.586   3.050
 2963TIP3    H1 8895   4.342   5.584   3.146
 2963TIP3    H2 8896   4.273   5.652   3.030
 2964TIP3   OH2 8897   1.533   0.566   1.769
 2964TIP3    H1 8898   1.463   0.619   1.731
 2964TIP3    H2 8899   1.501   0.476   1.764
 2965TIP3   OH2 8900   5.354   0.635   4.456
 2965TIP3    H1 8901   5.372   0.663   4.546
 2965TIP3    H2 8902   5.437   0.645   4.410
 2966TIP3   OH2 8903   0.014   5.791   3.902
 2966TIP3    H1 8904  -0.012   5.866   3.957
 2966TIP3    H2 8905  -0.068   5.762   3.861
 2967TIP3   OH2 8906   3.838   2.631  -0.062
 2967TIP3    H1 8907   3.748   2.609  -0.085
 2967TIP3    H2 8908   3.841   2.627   0.033
 2968TIP3   OH2 8909   2.622   2.712   3.201
 2968TIP3    H1 8910   2.676   2.672   3.269
 2968TIP3    H2 8911   2.581   2.787   3.245
 2969TIP3   OH2 8912   1.355   3.879   4.621
 2969TIP3    H1 8913   1.291   3.856   4.689
 2969TIP3    H2 8914   1.328   3.966   4.591
 2970TIP3   OH2 8915   4.289   5.947   1.193
 2970TIP3    H1 8916   4.360   5.914   1.249
 2970TIP3    H2 8917   4.294   6.042   1.202
 2971TIP3   OH2 8918   2.160   3.888   1.481
 2971TIP3    H1 8919   2.227   3.838   1.529
 2971TIP3    H2 8920   2.093   3.907   1.546
 2972TIP3   OH2 8921   1.599   2.917   1.068
 2972TIP3    H1 8922   1.648   2.858   1.126
 2972TIP3    H2 8923   1.600   2.872   0.983
 2973TIP3   OH2 8924   5.582   1.887   2.000
 2973TIP3    H1 8925   5.536   1.970   1.992
 2973TIP3    H2 8926   5.593   1.857   1.910
 2974TIP3   OH2 8927   2.227   1.984   2.465
 2974TIP3    H1 8928   2.208   1.937   2.545
 2974TIP3    H2 8929   2.304   1.941   2.429
 2975TIP3   OH2 8930   0.250   4.968   4.704
 2975TIP3    H1 8931   0.157   4.965   4.680
 2975TIP3    H2 8932   0.253   5.021   4.783
 2976TIP3   OH2 8933   3.300   0.141   0.524
 2976TIP3    H1 8934   3.293   0.086   0.445
 2976TIP3    H2 8935   3.209   0.157   0.550
 2977TIP3   OH2 8936   4.654   4.664   1.457
 2977TIP3    H1 8937   4.704   4.631   1.382
 2977TIP3    H2 8938   4.654   4.592   1.519
 2978TIP3   OH2 8939   0.131   5.602   1.315
 2978TIP3    H1 8940   0.110   5.526   1.260
 2978TIP3    H2 8941   0.049   5.625   1.358
 2979TIP3   OH2 8942   2.931   4.735   2.416
 2979TIP3    H1 8943   3.019   4.696   2.413
 2979TIP3    H2 8944   2.893   4.704   2.498
 2980TIP3   OH2 8945   1.077   3.255   4.403
 2980TIP3    H1 8946   1.169   3.283   4.394
 2980TIP3    H2 8947   1.060   3.261   4.497
 2981TIP3   OH2 8948   3.792   4.548   4.703
 2981TIP3    H1 8949   3.747   4.592   4.631
 2981TIP3    H2 8950   3.771   4.600   4.780
 2982TIP3   OH2 8951   0.522   3.916   1.467
 2982TIP3    H1 8952   0.557   3.849   1.409
 2982TIP3    H2 8953   0.572   3.994   1.446
 2983TIP3   OH2 8954   2.534   5.264   3.849
 2983TIP3    H1 8955   2.463   5.201   3.859
 2983TIP3    H2 8956   2.605   5.214   3.809
 2984TIP3   OH2 8957   2.218   5.562   3.031
 2984TIP3    H1 8958   2.205   5.547   3.125
 2984TIP3    H2 8959   2.305   5.526   3.013
 2985TIP3   OH2 8960   5.033   4.776   3.193
 2985TIP3    H1 8961   4.988   4.737   3.268
 2985TIP3    H2 8962   4.963   4.808   3.137
 2986TIP3   OH2 8963   3.780   2.219   1.298
 2986TIP3    H1 8964   3.732   2.288   1.343
 2986TIP3    H2 8965   3.827   2.264   1.228
 2987TIP3   OH2 8966   5.591   4.715   3.225
 2987TIP3    H1 8967   5.639   4.752   3.299
 2987TIP3    H2 8968   5.502   4.749   3.234
 2988TIP3   OH2 8969   2.817   4.334   4.838
 2988TIP3    H1 8970   2.747   4.290   4.789
 2988TIP3    H2 8971   2.897   4.315   4.789
 2989TIP3   OH2 8972   1.478   1.541   5.041
 2989TIP3    H1 8973   1.518   1.457   5.063
 2989TIP3    H2 8974   1.442   1.528   4.953
 2990TIP3   OH2 8975   0.119   5.522   2.412
 2990TIP3    H1 8976   0.108   5.604   2.460
 2990TIP3    H2 8977   0.095   5.454   2.475
 2991TIP3   OH2 8978   0.430   2.628   1.681
 2991TIP3    H1 8979   0.368   2.555   1.689
 2991TIP3    H2 8980   0.391   2.686   1.615
 2992TIP3   OH2 8981   1.199   1.309   2.528
 2992TIP3    H1 8982   1.213   1.232   2.474
 2992TIP3    H2 8983   1.124   1.354   2.488
 2993TIP3   OH2 8984   0.299   3.343   4.595
 2993TIP3    H1 8985   0.371   3.310   4.541
 2993TIP3    H2 8986   0.283   3.432   4.560
 2994TIP3   OH2 8987   1.434   5.591   0.641
 2994TIP3    H1 8988   1.437   5.498   0.619
 2994TIP3    H2 8989   1.524   5.621   0.629
 2995TIP3   OH2 8990   5.983   1.387   0.583
 2995TIP3    H1 8991   5.898   1.384   0.627
 2995TIP3    H2 8992   5.993   1.479   0.557
 2996TIP3   OH2 8993   5.087   3.615   0.625
 2996TIP3    H1 8994   5.125   3.685   0.680
 2996TIP3    H2 8995   5.007   3.653   0.589
 2997TIP3   OH2 8996   1.391   4.757   1.325
 2997TIP3    H1 8997   1.434   4.815   1.388
 2997TIP3    H2 8998   1.435   4.776   1.242
 2998TIP3   OH2 8999   6.112   2.719   2.650
 2998TIP3    H1 9000   6.139   2.690   2.737
 2998TIP3    H2 9001   6.029   2.765   2.665
 2999TIP3   OH2 9002   6.272   5.359   2.663
 2999TIP3    H1 9003   6.337   5.304   2.620
 2999TIP3    H2 9004   6.237   5.305   2.733
 3000TIP3   OH2 9005   2.227   4.530   3.320
 3000TIP3    H1 9006   2.174   4.608   3.336
 3000TIP3    H2 9007   2.188   4.490   3.242
 3001TIP3   OH2 9008   3.450   0.917   1.029
 3001TIP3    H1 9009   3.467   0.828   1.061
 3001TIP3    H2 9010   3.382   0.907   0.962
 3002TIP3   OH2 9011   3.533   4.031   1.638
 3002TIP3    H1 9012   3.599   3.975   1.679
 3002TIP3    H2 9013   3.452   4.011   1.685
 3003TIP3   OH2 9014   5.325   1.160   4.119
 3003TIP3    H1 9015   5.229   1.168   4.118
 3003TIP3    H2 9016   5.342   1.074   4.081
 3004TIP3   OH2 9017   4.650   0.228   0.622
 3004TIP3    H1 9018   4.581   0.293   0.637
 3004TIP3    H2 9019   4.699   0.226   0.705
 3005TIP3   OH2 9020   4.064   1.385   5.006
 3005TIP3    H1 9021   4.096   1.391   5.096
 3005TIP3    H2 9022   3.996   1.318   5.010
 3006TIP3   OH2 9023   5.463   3.286   1.045
 3006TIP3    H1 9024   5.470   3.381   1.039
 3006TIP3    H2 9025   5.371   3.270   1.069
 3007TIP3   OH2 9026   3.695   4.176   1.438
 3007TIP3    H1 9027   3.768   4.237   1.452
 3007TIP3    H2 9028   3.664   4.155   1.526
 3008TIP3   OH2 9029   1.935   2.757   4.182
 3008TIP3    H1 9030   1.924   2.708   4.263
 3008TIP3    H2 9031   1.860   2.816   4.179
 3009TIP3   OH2 9032   3.709   6.025   3.265
 3009TIP3    H1 9033   3.636   5.977   3.226
 3009TIP3    H2 9034   3.768   5.957   3.297
 3010TIP3   OH2 9035   0.644   0.932   1.969
 3010TIP3    H1 9036   0.633   0.843   1.936
 3010TIP3    H2 9037   0.729   0.930   2.014
 3011TIP3   OH2 9038   2.187   1.439   1.006
 3011TIP3    H1 9039   2.196   1.386   1.084
 3011TIP3    H2 9040   2.092   1.453   0.998
 3012TIP3   OH2 9041   0.318   1.061   2.155
 3012TIP3    H1 9042   0.247   1.021   2.104
 3012TIP3    H2 9043   0.389   1.072   2.092
 3013TIP3   OH2 9044   5.756   3.080   4.807
 3013TIP3    H1 9045   5.749   3.170   4.839
 3013TIP3    H2 9046   5.850   3.066   4.796
 3014TIP3   OH2 9047   0.828   1.586   4.810
 3014TIP3    H1 9048   0.750   1.612   4.859
 3014TIP3    H2 9049   0.795   1.525   4.744
 3015TIP3   OH2 9050   1.926   5.545   0.108
 3015TIP3    H1 9051   1.902   5.511   0.194
 3015TIP3    H2 9052   1.843   5.554   0.061
 3016TIP3   OH2 9053   4.326   2.066   0.765
 3016TIP3    H1 9054   4.399   2.060   0.702
 3016TIP3    H2 9055   4.274   1.988   0.748
 3017TIP3   OH2 9056   1.353   4.665   2.380
 3017TIP3    H1 9057   1.355   4.579   2.337
 3017TIP3    H2 9058   1.309   4.722   2.317
 3018TIP3   OH2 9059   3.916   0.119   3.966
 3018TIP3    H1 9060   3.928   0.158   3.880
 3018TIP3    H2 9061   3.868   0.037   3.949
 3019TIP3   OH2 9062   5.763   3.351   4.930
 3019TIP3    H1 9063   5.744   3.443   4.949
 3019TIP3    H2 9064   5.824   3.354   4.856
 3020TIP3   OH2 9065   1.612   5.241   0.467
 3020TIP3    H1 9066   1.523   5.261   0.496
 3020TIP3    H2 9067   1.600   5.184   0.391
 3021TIP3   OH2 9068   1.813   2.249   4.574
 3021TIP3    H1 9069   1.826   2.154   4.572
 3021TIP3    H2 9070   1.862   2.278   4.651
 3022TIP3   OH2 9071   5.021   1.351   3.466
 3022TIP3    H1 9072   4.969   1.346   3.386
 3022TIP3    H2 9073   5.101   1.304   3.445
 3023TIP3   OH2 9074   5.537   3.963   1.916
 3023TIP3    H1 9075   5.466   3.900   1.906
 3023TIP3    H2 9076   5.595   3.945   1.842
 3024TIP3   OH2 9077   0.596   4.607   4.114
 3024TIP3    H1 9078   0.654   4.533   4.096
 3024TIP3    H2 9079   0.652   4.673   4.155
 3025TIP3   OH2 9080   4.469   0.422   3.536
 3025TIP3    H1 9081   4.510   0.448   3.453
 3025TIP3    H2 9082   4.531   0.451   3.603
 3026TIP3   OH2 9083   5.412   4.690   0.093
 3026TIP3    H1 9084   5.364   4.768   0.120
 3026TIP3    H2 9085   5.357   4.616   0.119
 3027TIP3   OH2 9086   5.214   4.496   0.461
 3027TIP3    H1 9087   5.212   4.591   0.450
 3027TIP3    H2 9088   5.222   4.462   0.372
 3028TIP3   OH2 9089   2.778   2.786   4.758
 3028TIP3    H1 9090   2.848   2.739   4.712
 3028TIP3    H2 9091   2.815   2.872   4.777
 3029TIP3   OH2 9092   1.716   1.162   3.107
 3029TIP3    H1 9093   1.756   1.165   3.194
 3029TIP3    H2 9094   1.761   1.232   3.058
 3030TIP3   OH2 9095   5.973   5.719   0.477
 3030TIP3    H1 9096   6.015   5.798   0.510
 3030TIP3    H2 9097   5.924   5.748   0.400
 3031TIP3   OH2 9098   1.734   5.299   3.109
 3031TIP3    H1 9099   1.823   5.266   3.109
 3031TIP3    H2 9100   1.744   5.394   3.107
 3032TIP3   OH2 9101   4.194   0.175   1.481
 3032TIP3    H1 9102   4.233   0.095   1.516
 3032TIP3    H2 9103   4.172   0.227   1.558
 3033TIP3   OH2 9104   1.105   0.462   5.116
 3033TIP3    H1 9105   1.065   0.441   5.031
 3033TIP3    H2 9106   1.141   0.550   5.104
 3034TIP3   OH2 9107   4.861   5.325   4.726
 3034TIP3    H1 9108   4.934   5.304   4.667
 3034TIP3    H2 9109   4.845   5.244   4.774
 3035TIP3   OH2 9110   2.848   5.947   4.186
 3035TIP3    H1 9111   2.847   6.041   4.171
 3035TIP3    H2 9112   2.871   5.909   4.102
 3036TIP3   OH2 9113   5.211   0.155   1.722
 3036TIP3    H1 9114   5.201   0.250   1.730
 3036TIP3    H2 9115   5.295   0.143   1.679
 3037TIP3   OH2 9116   2.026   1.756   0.069
 3037TIP3    H1 9117   1.943   1.774   0.025
 3037TIP3    H2 9118   2.047   1.666   0.044
 3038TIP3   OH2 9119   1.119   4.180   0.983
 3038TIP3    H1 9120   1.060   4.210   1.051
 3038TIP3    H2 9121   1.112   4.084   0.986
 3039TIP3   OH2 9122   0.098   0.795   1.666
 3039TIP3    H1 9123   0.164   0.799   1.596
 3039TIP3    H2 9124   0.083   0.702   1.680
 3040TIP3   OH2 9125   3.130   0.569   1.890
 3040TIP3    H1 9126   3.103   0.660   1.876
 3040TIP3    H2 9127   3.098   0.547   1.977
 3041TIP3   OH2 9128   0.019   1.503   3.156
 3041TIP3    H1 9129   0.035   1.472   3.067
 3041TIP3    H2 9130   0.091   1.466   3.208
 3042TIP3   OH2 9131   0.991   4.945   2.407
 3042TIP3    H1 9132   1.004   4.974   2.497
 3042TIP3    H2 9133   0.985   5.025   2.356
 3043TIP3   OH2 9134   4.350   5.332   2.148
 3043TIP3    H1 9135   4.343   5.289   2.233
 3043TIP3    H2 9136   4.261   5.360   2.127
 3044TIP3   OH2 9137   1.205   3.067   0.207
 3044TIP3    H1 9138   1.138   3.022   0.155
 3044TIP3    H2 9139   1.287   3.044   0.164
 3045TIP3   OH2 9140   3.010   3.247   2.063
 3045TIP3    H1 9141   3.076   3.226   2.130
 3045TIP3    H2 9142   2.987   3.162   2.026
 3046TIP3   OH2 9143   6.102   0.797   4.011
 3046TIP3    H1 9144   6.155   0.876   4.020
 3046TIP3    H2 9145   6.147   0.731   4.064
 3047TIP3   OH2 9146   2.874   1.415   4.446
 3047TIP3    H1 9147   2.939   1.346   4.436
 3047TIP3    H2 9148   2.790   1.371   4.434
 3048TIP3   OH2 9149   3.930   1.285   0.435
 3048TIP3    H1 9150   3.929   1.216   0.369
 3048TIP3    H2 9151   3.881   1.249   0.508
 3049TIP3   OH2 9152   2.102   3.253   3.493
 3049TIP3    H1 9153   2.020   3.237   3.542
 3049TIP3    H2 9154   2.139   3.331   3.534
 3050TIP3   OH2 9155   0.254   0.112   2.881
 3050TIP3    H1 9156   0.244   0.094   2.974
 3050TIP3    H2 9157   0.317   0.184   2.877
 3051TIP3   OH2 9158   4.503   4.889   3.410
 3051TIP3    H1 9159   4.484   4.967   3.358
 3051TIP3    H2 9160   4.486   4.916   3.500
 3052TIP3   OH2 9161   3.473   0.336   2.893
 3052TIP3    H1 9162   3.481   0.413   2.837
 3052TIP3    H2 9163   3.379   0.314   2.890
 3053TIP3   OH2 9164   1.473   0.286   1.745
 3053TIP3    H1 9165   1.446   0.205   1.702
 3053TIP3    H2 9166   1.468   0.265   1.839
 3054TIP3   OH2 9167   2.173   5.137   0.744
 3054TIP3    H1 9168   2.207   5.055   0.781
 3054TIP3    H2 9169   2.081   5.120   0.727
 3055TIP3   OH2 9170   0.145   0.285   1.447
 3055TIP3    H1 9171   0.068   0.277   1.503
 3055TIP3    H2 9172   0.158   0.197   1.412
 3056TIP3   OH2 9173   2.077   2.418   2.052
 3056TIP3    H1 9174   2.029   2.381   2.126
 3056TIP3    H2 9175   2.055   2.511   2.053
 3057TIP3   OH2 9176   0.880   5.490   3.192
 3057TIP3    H1 9177   0.846   5.437   3.263
 3057TIP3    H2 9178   0.876   5.580   3.225
 3058TIP3   OH2 9179   3.653   1.355   2.296
 3058TIP3    H1 9180   3.663   1.290   2.365
 3058TIP3    H2 9181   3.695   1.315   2.220
 3059TIP3   OH2 9182   4.419   0.388   0.752
 3059TIP3    H1 9183   4.371   0.461   0.791
 3059TIP3    H2 9184   4.409   0.316   0.814
 3060TIP3   OH2 9185   1.142   4.839   0.311
 3060TIP3    H1 9186   1.204   4.780   0.269
 3060TIP3    H2 9187   1.187   4.923   0.314
 3061TIP3   OH2 9188   3.142   4.840   1.367
 3061TIP3    H1 9189   3.185   4.768   1.411
 3061TIP3    H2 9190   3.066   4.801   1.323
 3062TIP3   OH2 9191   2.300   2.317   1.036
 3062TIP3    H1 9192   2.383   2.271   1.050
 3062TIP3    H2 9193   2.233   2.252   1.057
 3063TIP3   OH2 9194   4.067   4.462   1.753
 3063TIP3    H1 9195   4.095   4.542   1.796
 3063TIP3    H2 9196   3.976   4.477   1.728
 3064TIP3   OH2 9197   0.575   0.189   5.000
 3064TIP3    H1 9198   0.530   0.218   5.079
 3064TIP3    H2 9199   0.583   0.094   5.011
 3065TIP3   OH2 9200   0.497   3.281   4.407
 3065TIP3    H1 9201   0.512   3.210   4.345
 3065TIP3    H2 9202   0.564   3.346   4.386
 3066TIP3   OH2 9203   0.075   5.186   4.783
 3066TIP3    H1 9204   0.010   5.135   4.734
 3066TIP3    H2 9205   0.026   5.259   4.821
 3067TIP3   OH2 9206   5.871   4.056   2.970
 3067TIP3    H1 9207   5.867   4.008   3.053
 3067TIP3    H2 9208   5.928   4.130   2.987
 3068TIP3   OH2 9209   1.259   0.956   1.202
 3068TIP3    H1 9210   1.175   0.921   1.230
 3068TIP3    H2 9211   1.254   1.050   1.221
 3069TIP3   OH2 9212   1.510   5.238   3.239
 3069TIP3    H1 9213   1.517   5.220   3.332
 3069TIP3    H2 9214   1.598   5.265   3.212
 3070TIP3   OH2 9215   1.635   3.991   0.274
 3070TIP3    H1 9216   1.571   3.922   0.293
 3070TIP3    H2 9217   1.644   3.990   0.179
 3071TIP3   OH2 9218   0.915   4.708   4.753
 3071TIP3    H1 9219   0.837   4.668   4.793
 3071TIP3    H2 9220   0.880   4.761   4.680
 3072TIP3   OH2 9221   4.811   0.291   0.401
 3072TIP3    H1 9222   4.765   0.290   0.317
 3072TIP3    H2 9223   4.742   0.284   0.466
 3073TIP3   OH2 9224   1.920   2.332   3.154
 3073TIP3    H1 9225   2.003   2.312   3.196
 3073TIP3    H2 9226   1.861   2.262   3.183
 3074TIP3   OH2 9227   0.802   3.038   4.026
 3074TIP3    H1 9228   0.824   2.961   4.077
 3074TIP3    H2 9229   0.860   3.107   4.059
 3075TIP3   OH2 9230   2.479   2.442   4.560
 3075TIP3    H1 9231   2.568   2.407   4.564
 3075TIP3    H2 9232   2.485   2.526   4.605
 3076TIP3   OH2 9233   2.274   2.519   1.365
 3076TIP3    H1 9234   2.265   2.614   1.377
 3076TIP3    H2 9235   2.244   2.481   1.448
 3077TIP3   OH2 9236   1.871   1.381   5.060
 3077TIP3    H1 9237   1.858   1.363   4.967
 3077TIP3    H2 9238   1.927   1.458   5.062
 3078TIP3   OH2 9239   0.903   4.928   1.441
 3078TIP3    H1 9240   0.973   4.872   1.407
 3078TIP3    H2 9241   0.867   4.881   1.516
 3079TIP3   OH2 9242   3.759   0.590   3.889
 3079TIP3    H1 9243   3.704   0.579   3.967
 3079TIP3    H2 9244   3.815   0.512   3.889
 3080TIP3   OH2 9245   5.902   4.864   0.192
 3080TIP3    H1 9246   5.842   4.811   0.138
 3080TIP3    H2 9247   5.915   4.812   0.271
 3081TIP3   OH2 9248   3.104   2.218   3.713
 3081TIP3    H1 9249   3.025   2.273   3.716
 3081TIP3    H2 9250   3.084   2.144   3.770
 3082TIP3   OH2 9251   1.058   1.435   4.794
 3082TIP3    H1 9252   1.072   1.414   4.887
 3082TIP3    H2 9253   0.987   1.499   4.795
 3083TIP3   OH2 9254   5.800   3.175   4.347
 3083TIP3    H1 9255   5.824   3.132   4.430
 3083TIP3    H2 9256   5.772   3.102   4.291
 3084TIP3   OH2 9257   1.390   4.933   2.661
 3084TIP3    H1 9258   1.433   4.894   2.585
 3084TIP3    H2 9259   1.302   4.955   2.630
 3085TIP3   OH2 9260   1.203   4.932   2.897
 3085TIP3    H1 9261   1.191   4.954   2.989
 3085TIP3    H2 9262   1.286   4.973   2.873
 3086TIP3   OH2 9263   6.108   4.429   0.866
 3086TIP3    H1 9264   6.024   4.456   0.827
 3086TIP3    H2 9265   6.113   4.477   0.948
 3087TIP3   OH2 9266   2.332   2.596   2.253
 3087TIP3    H1 9267   2.345   2.516   2.305
 3087TIP3    H2 9268   2.266   2.645   2.302
 3088TIP3   OH2 9269   4.638   5.652   1.857
 3088TIP3    H1 9270   4.638   5.711   1.933
 3088TIP3    H2 9271   4.727   5.617   1.854
 3089TIP3   OH2 9272   2.315   4.990   4.205
 3089TIP3    H1 9273   2.233   5.039   4.209
 3089TIP3    H2 9274   2.312   4.932   4.282
 3090TIP3   OH2 9275   1.414   0.451   0.855
 3090TIP3    H1 9276   1.378   0.449   0.944
 3090TIP3    H2 9277   1.508   0.460   0.867
 3091TIP3   OH2 9278   0.676   1.858   4.396
 3091TIP3    H1 9279   0.589   1.827   4.422
 3091TIP3    H2 9280   0.674   1.952   4.415
 3092TIP3   OH2 9281   4.808   3.566   3.387
 3092TIP3    H1 9282   4.835   3.488   3.339
 3092TIP3    H2 9283   4.876   3.631   3.366
 3093TIP3   OH2 9284   3.174   1.823   3.678
 3093TIP3    H1 9285   3.198   1.745   3.727
 3093TIP3    H2 9286   3.190   1.800   3.587
 3094TIP3   OH2 9287   3.494   5.222   4.942
 3094TIP3    H1 9288   3.485   5.312   4.911
 3094TIP3    H2 9289   3.580   5.220   4.985
 3095TIP3   OH2 9290   4.598   4.806   2.035
 3095TIP3    H1 9291   4.526   4.867   2.052
 3095TIP3    H2 9292   4.571   4.759   1.957
 3096TIP3   OH2 9293   5.957   1.416   1.152
 3096TIP3    H1 9294   5.893   1.349   1.177
 3096TIP3    H2 9295   5.957   1.415   1.056
 3097TIP3   OH2 9296   3.210   4.699   4.303
 3097TIP3    H1 9297   3.140   4.706   4.367
 3097TIP3    H2 9298   3.165   4.682   4.220
 3098TIP3   OH2 9299   5.642   0.240   3.876
 3098TIP3    H1 9300   5.717   0.194   3.839
 3098TIP3    H2 9301   5.679   0.291   3.948
 3099TIP3   OH2 9302   0.433   2.692   3.678
 3099TIP3    H1 9303   0.369   2.646   3.624
 3099TIP3    H2 9304   0.381   2.747   3.736
 3100TIP3   OH2 9305   2.589   3.158   2.157
 3100TIP3    H1 9306   2.603   3.149   2.252
 3100TIP3    H2 9307   2.597   3.069   2.123
 3101TIP3   OH2 9308   3.889   5.678   4.650
 3101TIP3    H1 9309   3.829   5.663   4.577
 3101TIP3    H2 9310   3.911   5.771   4.644
 3102TIP3   OH2 9311   6.445   0.424   0.503
 3102TIP3    H1 9312   6.520   0.457   0.452
 3102TIP3    H2 9313   6.370   0.473   0.469
 3103TIP3   OH2 9314   0.879  -0.008   3.271
 3103TIP3    H1 9315   0.832  -0.030   3.191
 3103TIP3    H2 9316   0.940   0.061   3.246
 3104TIP3   OH2 9317   5.193   4.800   2.883
 3104TIP3    H1 9318   5.099   4.784   2.879
 3104TIP3    H2 9319   5.203   4.894   2.868
 3105TIP3   OH2 9320   6.154   5.633   4.189
 3105TIP3    H1 9321   6.152   5.558   4.130
 3105TIP3    H2 9322   6.091   5.612   4.257
 3106TIP3   OH2 9323   1.357   0.698   0.723
 3106TIP3    H1 9324   1.380   0.620   0.773
 3106TIP3    H2 9325   1.263   0.691   0.708
 3107TIP3   OH2 9326   2.481   2.568   2.673
 3107TIP3    H1 9327   2.543   2.521   2.729
 3107TIP3    H2 9328   2.531   2.589   2.595
 3108TIP3   OH2 9329   1.194   0.031   3.082
 3108TIP3    H1 9330   1.245   0.071   3.012
 3108TIP3    H2 9331   1.146   0.103   3.122
 3109TIP3   OH2 9332   3.696   3.650   3.884
 3109TIP3    H1 9333   3.640   3.589   3.836
 3109TIP3    H2 9334   3.686   3.624   3.976
 3110TIP3   OH2 9335   6.173   5.392   1.729
 3110TIP3    H1 9336   6.256   5.414   1.686
 3110TIP3    H2 9337   6.170   5.447   1.807
 3111TIP3   OH2 9338   4.013   4.702   2.161
 3111TIP3    H1 9339   4.087   4.696   2.222
 3111TIP3    H2 9340   3.960   4.624   2.181
 3112TIP3   OH2 9341   4.694   0.999   4.615
 3112TIP3    H1 9342   4.675   1.047   4.534
 3112TIP3    H2 9343   4.689   1.065   4.684
 3113TIP3   OH2 9344   4.437   5.022   2.054
 3113TIP3    H1 9345   4.346   5.045   2.072
 3113TIP3    H2 9346   4.454   5.055   1.966
 3114TIP3   OH2 9347   5.021   5.068   4.441
 3114TIP3    H1 9348   5.114   5.048   4.432
 3114TIP3    H2 9349   5.014   5.162   4.423
 3115TIP3   OH2 9350   4.645   0.709   3.920
 3115TIP3    H1 9351   4.564   0.666   3.946
 3115TIP3    H2 9352   4.706   0.693   3.992
 3116TIP3   OH2 9353   1.298   4.310   1.443
 3116TIP3    H1 9354   1.378   4.282   1.400
 3116TIP3    H2 9355   1.327   4.358   1.521
 3117TIP3   OH2 9356   5.700   2.648   0.628
 3117TIP3    H1 9357   5.757   2.674   0.700
 3117TIP3    H2 9358   5.614   2.636   0.668
 3118TIP3   OH2 9359   2.430   4.760   2.645
 3118TIP3    H1 9360   2.377   4.836   2.671
 3118TIP3    H2 9361   2.411   4.693   2.711
 3119TIP3   OH2 9362   1.328   3.096   0.823
 3119TIP3    H1 9363   1.324   3.124   0.915
 3119TIP3    H2 9364   1.258   3.145   0.780
 3120TIP3   OH2 9365   1.555   4.001   2.320
 3120TIP3    H1 9366   1.468   4.036   2.340
 3120TIP3    H2 9367   1.565   4.016   2.226
 3121TIP3   OH2 9368   2.436   2.462   5.211
 3121TIP3    H1 9369   2.427   2.462   5.116
 3121TIP3    H2 9370   2.461   2.372   5.232
 3122TIP3   OH2 9371   0.456   4.234   1.346
 3122TIP3    H1 9372   0.523   4.293   1.379
 3122TIP3    H2 9373   0.483   4.213   1.257
 3123TIP3   OH2 9374   2.171   1.136   1.643
 3123TIP3    H1 9375   2.148   1.222   1.679
 3123TIP3    H2 9376   2.162   1.148   1.548
 3124TIP3   OH2 9377   5.471   1.065   1.945
 3124TIP3    H1 9378   5.469   1.011   1.866
 3124TIP3    H2 9379   5.405   1.025   2.003
 3125TIP3   OH2 9380   1.537   4.546   1.888
 3125TIP3    H1 9381   1.549   4.511   1.976
 3125TIP3    H2 9382   1.606   4.612   1.878
 3126TIP3   OH2 9383   0.445   2.326   2.801
 3126TIP3    H1 9384   0.376   2.320   2.735
 3126TIP3    H2 9385   0.430   2.410   2.844
 3127TIP3   OH2 9386   3.816   2.439   1.652
 3127TIP3    H1 9387   3.762   2.431   1.574
 3127TIP3    H2 9388   3.795   2.526   1.686
 3128TIP3   OH2 9389   2.200   2.311   3.754
 3128TIP3    H1 9390   2.282   2.268   3.778
 3128TIP3    H2 9391   2.195   2.302   3.659
 3129TIP3   OH2 9392   0.428   5.530   4.315
 3129TIP3    H1 9393   0.440   5.558   4.224
 3129TIP3    H2 9394   0.392   5.607   4.359
 3130TIP3   OH2 9395   3.177   5.766   0.235
 3130TIP3    H1 9396   3.166   5.738   0.326
 3130TIP3    H2 9397   3.232   5.845   0.241
 3131TIP3   OH2 9398   0.334   3.831   1.644
 3131TIP3    H1 9399   0.386   3.893   1.593
 3131TIP3    H2 9400   0.287   3.886   1.707
 3132TIP3   OH2 9401   5.862   1.898   1.498
 3132TIP3    H1 9402   5.883   1.978   1.449
 3132TIP3    H2 9403   5.821   1.841   1.433
 3133TIP3   OH2 9404   5.741   1.243   3.579
 3133TIP3    H1 9405   5.698   1.159   3.594
 3133TIP3    H2 9406   5.688   1.306   3.629
 3134TIP3   OH2 9407   5.289   3.835   2.605
 3134TIP3    H1 9408   5.322   3.891   2.674
 3134TIP3    H2 9409   5.221   3.782   2.647
 3135TIP3   OH2 9410   4.186   3.795   5.102
 3135TIP3    H1 9411   4.097   3.765   5.084
 3135TIP3    H2 9412   4.181   3.836   5.189
 3136TIP3   OH2 9413   1.076   0.169   5.147
 3136TIP3    H1 9414   1.028   0.118   5.082
 3136TIP3    H2 9415   1.063   0.260   5.121
 3137TIP3   OH2 9416   1.927   4.754   2.317
 3137TIP3    H1 9417   1.985   4.785   2.387
 3137TIP3    H2 9418   1.878   4.832   2.291
 3138TIP3   OH2 9419   1.682   1.839   3.924
 3138TIP3    H1 9420   1.667   1.819   3.832
 3138TIP3    H2 9421   1.626   1.915   3.942
 3139TIP3   OH2 9422   4.081   2.743   1.587
 3139TIP3    H1 9423   4.045   2.668   1.539
 3139TIP3    H2 9424   4.175   2.727   1.589
 3140TIP3   OH2 9425   1.295   1.132   3.355
 3140TIP3    H1 9426   1.371   1.083   3.325
 3140TIP3    H2 9427   1.321   1.167   3.440
 3141TIP3   OH2 9428   0.157   4.875   5.039
 3141TIP3    H1 9429   0.081   4.928   5.015
 3141TIP3    H2 9430   0.121   4.789   5.062
 3142TIP3   OH2 9431   5.261   5.775   3.064
 3142TIP3    H1 9432   5.299   5.758   2.978
 3142TIP3    H2 9433   5.294   5.861   3.088
 3143TIP3   OH2 9434   2.167   5.512   1.246
 3143TIP3    H1 9435   2.150   5.594   1.293
 3143TIP3    H2 9436   2.241   5.531   1.189
 3144TIP3   OH2 9437   2.643   5.402   2.802
 3144TIP3    H1 9438   2.629   5.317   2.760
 3144TIP3    H2 9439   2.737   5.406   2.816
 3145TIP3   OH2 9440   5.638   4.340   0.741
 3145TIP3    H1 9441   5.571   4.348   0.810
 3145TIP3    H2 9442   5.648   4.245   0.729
 3146TIP3   OH2 9443   3.944  -0.020   0.491
 3146TIP3    H1 9444   3.883   0.049   0.519
 3146TIP3    H2 9445   3.931  -0.090   0.555
 3147TIP3   OH2 9446   5.644   5.403   0.735
 3147TIP3    H1 9447   5.718   5.342   0.739
 3147TIP3    H2 9448   5.603   5.384   0.650
 3148TIP3   OH2 9449   1.952   0.930   3.278
 3148TIP3    H1 9450   1.888   0.983   3.326
 3148TIP3    H2 9451   1.951   0.967   3.190
 3149TIP3   OH2 9452   0.967   2.112   0.431
 3149TIP3    H1 9453   0.970   2.017   0.422
 3149TIP3    H2 9454   1.019   2.131   0.509
 3150TIP3   OH2 9455   2.866   4.108   3.406
 3150TIP3    H1 9456   2.825   4.026   3.433
 3150TIP3    H2 9457   2.953   4.083   3.375
 3151TIP3   OH2 9458   2.375   5.606   0.671
 3151TIP3    H1 9459   2.362   5.688   0.718
 3151TIP3    H2 9460   2.319   5.543   0.717
 3152TIP3   OH2 9461   3.917   2.441   0.712
 3152TIP3    H1 9462   4.010   2.449   0.730
 3152TIP3    H2 9463   3.888   2.531   0.695
 3153TIP3   OH2 9464   1.306   0.078   2.783
 3153TIP3    H1 9465   1.245   0.043   2.719
 3153TIP3    H2 9466   1.337   0.161   2.745
 3154TIP3   OH2 9467   2.562   3.843   0.244
 3154TIP3    H1 9468   2.495   3.775   0.238
 3154TIP3    H2 9469   2.560   3.886   0.158
 3155TIP3   OH2 9470   3.258   4.798   1.042
 3155TIP3    H1 9471   3.198   4.827   0.974
 3155TIP3    H2 9472   3.282   4.878   1.089
 3156TIP3   OH2 9473   2.635   3.889   2.559
 3156TIP3    H1 9474   2.715   3.865   2.514
 3156TIP3    H2 9475   2.631   3.985   2.552
 3157TIP3   OH2 9476   5.315   4.918   3.437
 3157TIP3    H1 9477   5.308   4.979   3.510
 3157TIP3    H2 9478   5.253   4.952   3.372
 3158TIP3   OH2 9479   5.074   0.640   1.660
 3158TIP3    H1 9480   5.131   0.670   1.590
 3158TIP3    H2 9481   4.991   0.619   1.617
 3159TIP3   OH2 9482   3.199   3.564   3.398
 3159TIP3    H1 9483   3.165   3.475   3.391
 3159TIP3    H2 9484   3.173   3.593   3.485
 3160TIP3   OH2 9485   2.352   5.894   2.849
 3160TIP3    H1 9486   2.379   5.834   2.918
 3160TIP3    H2 9487   2.395   5.860   2.770
 3161TIP3   OH2 9488   3.698   4.056   0.706
 3161TIP3    H1 9489   3.653   4.021   0.783
 3161TIP3    H2 9490   3.660   4.008   0.633
 3162TIP3   OH2 9491   1.656   2.018   0.469
 3162TIP3    H1 9492   1.609   2.101   0.458
 3162TIP3    H2 9493   1.587   1.955   0.492
 3163TIP3   OH2 9494   4.681   5.821   2.327
 3163TIP3    H1 9495   4.615   5.795   2.390
 3163TIP3    H2 9496   4.660   5.911   2.304
 3164TIP3   OH2 9497   3.981   5.516   2.277
 3164TIP3    H1 9498   4.054   5.577   2.267
 3164TIP3    H2 9499   3.903   5.569   2.259
 3165TIP3   OH2 9500   0.742   3.182   3.623
 3165TIP3    H1 9501   0.686   3.111   3.591
 3165TIP3    H2 9502   0.800   3.140   3.687
 3166TIP3   OH2 9503   0.902   3.866   1.298
 3166TIP3    H1 9504   0.875   3.787   1.345
 3166TIP3    H2 9505   0.974   3.902   1.349
 3167TIP3   OH2 9506   5.025   1.176   0.330
 3167TIP3    H1 9507   4.980   1.093   0.314
 3167TIP3    H2 9508   5.107   1.169   0.280
 3168TIP3   OH2 9509   5.378   0.399   3.813
 3168TIP3    H1 9510   5.459   0.379   3.767
 3168TIP3    H2 9511   5.407   0.441   3.895
 3169TIP3   OH2 9512   0.912   1.543   0.279
 3169TIP3    H1 9513   0.963   1.581   0.351
 3169TIP3    H2 9514   0.911   1.449   0.297
 3170TIP3   OH2 9515   4.675   5.130   4.424
 3170TIP3    H1 9516   4.584   5.155   4.441
 3170TIP3    H2 9517   4.707   5.098   4.508
 3171TIP3   OH2 9518   6.362   0.758   3.352
 3171TIP3    H1 9519   6.280   0.795   3.384
 3171TIP3    H2 9520   6.416   0.834   3.329
 3172TIP3   OH2 9521   1.648   4.756   0.489
 3172TIP3    H1 9522   1.734   4.721   0.463
 3172TIP3    H2 9523   1.619   4.699   0.559
 3173TIP3   OH2 9524   6.051   0.011   2.079
 3173TIP3    H1 9525   6.056   0.095   2.033
 3173TIP3    H2 9526   6.077  -0.054   2.013
 3174TIP3   OH2 9527   5.214   3.468   4.783
 3174TIP3    H1 9528   5.286   3.508   4.734
 3174TIP3    H2 9529   5.160   3.543   4.810
 3175TIP3   OH2 9530   3.612   3.698   3.171
 3175TIP3    H1 9531   3.652   3.616   3.141
 3175TIP3    H2 9532   3.522   3.676   3.191
 3176TIP3   OH2 9533   1.707   1.582   0.125
 3176TIP3    H1 9534   1.700   1.575   0.030
 3176TIP3    H2 9535   1.634   1.639   0.150
 3177TIP3   OH2 9536   0.646   1.580   1.221
 3177TIP3    H1 9537   0.581   1.628   1.272
 3177TIP3    H2 9538   0.609   1.492   1.212
 3178TIP3   OH2 9539   3.597   0.200   3.716
 3178TIP3    H1 9540   3.631   0.172   3.631
 3178TIP3    H2 9541   3.651   0.155   3.780
 3179TIP3   OH2 9542   3.509   3.534   0.635
 3179TIP3    H1 9543   3.602   3.512   0.626
 3179TIP3    H2 9544   3.494   3.533   0.730
 3180TIP3   OH2 9545   2.709   4.330   2.353
 3180TIP3    H1 9546   2.688   4.423   2.364
 3180TIP3    H2 9547   2.803   4.325   2.366
 3181TIP3   OH2 9548   4.261   4.915   2.410
 3181TIP3    H1 9549   4.201   4.844   2.386
 3181TIP3    H2 9550   4.342   4.872   2.437
 3182TIP3   OH2 9551   0.850   2.532   4.566
 3182TIP3    H1 9552   0.864   2.462   4.629
 3182TIP3    H2 9553   0.934   2.578   4.562
 3183TIP3   OH2 9554   4.428   0.368   1.047
 3183TIP3    H1 9555   4.337   0.394   1.038
 3183TIP3    H2 9556   4.435   0.333   1.136
 3184TIP3   OH2 9557   3.896   0.001   5.057
 3184TIP3    H1 9558   3.851   0.082   5.082
 3184TIP3    H2 9559   3.956  -0.016   5.130
 3185TIP3   OH2 9560   3.533   0.253   0.466
 3185TIP3    H1 9561   3.515   0.242   0.373
 3185TIP3    H2 9562   3.457   0.216   0.510
 3186TIP3   OH2 9563   3.011   5.438   1.304
 3186TIP3    H1 9564   3.016   5.364   1.365
 3186TIP3    H2 9565   3.101   5.450   1.274
 3187TIP3   OH2 9566   3.904   2.399   2.446
 3187TIP3    H1 9567   3.965   2.440   2.507
 3187TIP3    H2 9568   3.950   2.322   2.412
 3188TIP3   OH2 9569   1.992   4.769   1.347
 3188TIP3    H1 9570   1.994   4.859   1.317
 3188TIP3    H2 9571   1.906   4.736   1.320
 3189TIP3   OH2 9572   1.142   4.374   4.502
 3189TIP3    H1 9573   1.157   4.330   4.418
 3189TIP3    H2 9574   1.161   4.307   4.568
 3190TIP3   OH2 9575   4.843   1.514   2.832
 3190TIP3    H1 9576   4.795   1.590   2.799
 3190TIP3    H2 9577   4.836   1.521   2.927
 3191TIP3   OH2 9578   5.150   4.740   1.313
 3191TIP3    H1 9579   5.150   4.703   1.401
 3191TIP3    H2 9580   5.078   4.696   1.268
 3192TIP3   OH2 9581   0.593   2.630   0.208
 3192TIP3    H1 9582   0.594   2.548   0.160
 3192TIP3    H2 9583   0.562   2.695   0.145
 3193TIP3   OH2 9584   4.288   5.421   0.111
 3193TIP3    H1 9585   4.377   5.433   0.078
 3193TIP3    H2 9586   4.233   5.467   0.048
 3194TIP3   OH2 9587   3.028   4.735   3.423
 3194TIP3    H1 9588   2.981   4.658   3.458
 3194TIP3    H2 9589   2.962   4.804   3.422
 3195TIP3   OH2 9590   0.254   3.694   4.333
 3195TIP3    H1 9591   0.301   3.760   4.384
 3195TIP3    H2 9592   0.322   3.651   4.281
 3196TIP3   OH2 9593   0.420   2.884   4.317
 3196TIP3    H1 9594   0.329   2.880   4.287
 3196TIP3    H2 9595   0.441   2.794   4.342
 3197TIP3   OH2 9596   5.163   1.867   0.804
 3197TIP3    H1 9597   5.143   1.841   0.894
 3197TIP3    H2 9598   5.157   1.786   0.754
 3198TIP3   OH2 9599   2.772   0.127   1.295
 3198TIP3    H1 9600   2.678   0.128   1.315
 3198TIP3    H2 9601   2.797   0.036   1.303
 3199TIP3   OH2 9602   3.686   4.363   0.709
 3199TIP3    H1 9603   3.771   4.361   0.753
 3199TIP3    H2 9604   3.683   4.283   0.658
 3200TIP3   OH2 9605   1.119   3.455   1.419
 3200TIP3    H1 9606   1.118   3.379   1.362
 3200TIP3    H2 9607   1.028   3.465   1.448
 3201TIP3   OH2 9608   5.846   2.571   4.175
 3201TIP3    H1 9609   5.798   2.586   4.256
 3201TIP3    H2 9610   5.785   2.524   4.119
 3202TIP3   OH2 9611   6.176   0.388   2.048
 3202TIP3    H1 9612   6.230   0.348   1.980
 3202TIP3    H2 9613   6.208   0.478   2.054
 3203TIP3   OH2 9614   3.938   0.642   1.317
 3203TIP3    H1 9615   4.003   0.572   1.326
 3203TIP3    H2 9616   3.942   0.666   1.224
 3204TIP3   OH2 9617   4.627   3.027   3.823
 3204TIP3    H1 9618   4.719   3.048   3.807
 3204TIP3    H2 9619   4.616   3.040   3.918
 3205TIP3   OH2 9620   6.010   0.492   2.894
 3205TIP3    H1 9621   5.921   0.481   2.861
 3205TIP3    H2 9622   6.018   0.585   2.913
 3206TIP3   OH2 9623   4.948   3.354   1.265
 3206TIP3    H1 9624   4.965   3.429   1.208
 3206TIP3    H2 9625   4.974   3.278   1.212
 3207TIP3   OH2 9626   3.416   3.819   3.845
 3207TIP3    H1 9627   3.389   3.793   3.756
 3207TIP3    H2 9628   3.459   3.903   3.833
 3208TIP3   OH2 9629   6.222   4.298   4.352
 3208TIP3    H1 9630   6.152   4.339   4.403
 3208TIP3    H2 9631   6.278   4.256   4.417
 3209TIP3   OH2 9632   0.049   3.252   3.713
 3209TIP3    H1 9633   0.041   3.156   3.713
 3209TIP3    H2 9634   0.139   3.268   3.741
 3210TIP3   OH2 9635   2.937   0.304   4.064
 3210TIP3    H1 9636   2.932   0.398   4.049
 3210TIP3    H2 9637   3.023   0.279   4.030
 3211TIP3   OH2 9638   4.387   5.837   3.680
 3211TIP3    H1 9639   4.418   5.915   3.726
 3211TIP3    H2 9640   4.416   5.849   3.590
 3212TIP3   OH2 9641   4.969   5.210   1.335
 3212TIP3    H1 9642   4.936   5.294   1.304
 3212TIP3    H2 9643   5.018   5.174   1.261
 3213TIP3   OH2 9644   3.349   3.574   1.866
 3213TIP3    H1 9645   3.296   3.617   1.933
 3213TIP3    H2 9646   3.329   3.622   1.785
 3214TIP3   OH2 9647   5.703   1.172   2.696
 3214TIP3    H1 9648   5.750   1.089   2.705
 3214TIP3    H2 9649   5.705   1.190   2.602
 3215TIP3   OH2 9650   1.365   4.056   3.330
 3215TIP3    H1 9651   1.269   4.057   3.325
 3215TIP3    H2 9652   1.384   4.045   3.424
 3216TIP3   OH2 9653   3.200   3.876   2.895
 3216TIP3    H1 9654   3.211   3.784   2.918
 3216TIP3    H2 9655   3.117   3.901   2.935
 3217TIP3   OH2 9656   0.319   2.047   3.333
 3217TIP3    H1 9657   0.372   2.019   3.258
 3217TIP3    H2 9658   0.347   2.137   3.350
 3218TIP3   OH2 9659   4.299   2.857   3.090
 3218TIP3    H1 9660   4.223   2.910   3.065
 3218TIP3    H2 9661   4.300   2.860   3.186
 3219TIP3   OH2 9662   5.183   5.034   0.390
 3219TIP3    H1 9663   5.091   5.043   0.362
 3219TIP3    H2 9664   5.213   5.124   0.403
 3220TIP3   OH2 9665   0.180   4.010   1.277
 3220TIP3    H1 9666   0.182   3.915   1.267
 3220TIP3    H2 9667   0.091   4.035   1.251
 3221TIP3   OH2 9668   0.490   1.989   4.697
 3221TIP3    H1 9669   0.515   1.923   4.761
 3221TIP3    H2 9670   0.572   2.035   4.677
 3222TIP3   OH2 9671   4.702   5.758   3.797
 3222TIP3    H1 9672   4.791   5.723   3.786
 3222TIP3    H2 9673   4.709   5.850   3.772
 3223TIP3   OH2 9674   5.754   2.005   4.568
 3223TIP3    H1 9675   5.765   2.065   4.495
 3223TIP3    H2 9676   5.685   1.944   4.539
 3224TIP3   OH2 9677   5.417   3.417   1.478
 3224TIP3    H1 9678   5.509   3.437   1.463
 3224TIP3    H2 9679   5.403   3.334   1.432
 3225TIP3   OH2 9680   1.388   5.152   2.107
 3225TIP3    H1 9681   1.319   5.218   2.101
 3225TIP3    H2 9682   1.400   5.139   2.201
 3226TIP3   OH2 9683   0.827   0.564   3.451
 3226TIP3    H1 9684   0.831   0.498   3.520
 3226TIP3    H2 9685   0.734   0.571   3.429
 3227TIP3   OH2 9686   0.416   2.016   5.073
 3227TIP3    H1 9687   0.412   2.107   5.043
 3227TIP3    H2 9688   0.331   2.000   5.113
 3228TIP3   OH2 9689   5.376   6.018   2.049
 3228TIP3    H1 9690   5.395   6.035   1.957
 3228TIP3    H2 9691   5.362   5.924   2.055
 3229TIP3   OH2 9692   4.595   0.496   2.063
 3229TIP3    H1 9693   4.666   0.438   2.036
 3229TIP3    H2 9694   4.527   0.436   2.095
 3230TIP3   OH2 9695   4.841   2.322   2.478
 3230TIP3    H1 9696   4.819   2.411   2.506
 3230TIP3    H2 9697   4.865   2.277   2.559
 3231TIP3   OH2 9698   3.186   5.089   3.605
 3231TIP3    H1 9699   3.270   5.120   3.571
 3231TIP3    H2 9700   3.127   5.095   3.530
 3232TIP3   OH2 9701   4.510   2.643   1.796
 3232TIP3    H1 9702   4.571   2.716   1.799
 3232TIP3    H2 9703   4.552   2.574   1.847
 3233TIP3   OH2 9704   5.474   0.806   4.088
 3233TIP3    H1 9705   5.527   0.868   4.138
 3233TIP3    H2 9706   5.411   0.860   4.042
 3234TIP3   OH2 9707   4.235   0.230   5.184
 3234TIP3    H1 9708   4.161   0.275   5.224
 3234TIP3    H2 9709   4.194   0.163   5.129
 3235TIP3   OH2 9710   0.821   4.910   3.002
 3235TIP3    H1 9711   0.863   4.849   2.941
 3235TIP3    H2 9712   0.818   4.862   3.085
 3236TIP3   OH2 9713   2.352   2.286   4.804
 3236TIP3    H1 9714   2.319   2.220   4.742
 3236TIP3    H2 9715   2.411   2.236   4.862
 3237TIP3   OH2 9716   3.220   1.678   3.136
 3237TIP3    H1 9717   3.172   1.748   3.181
 3237TIP3    H2 9718   3.164   1.601   3.146
 3238TIP3   OH2 9719   3.071   4.116   1.819
 3238TIP3    H1 9720   3.162   4.091   1.833
 3238TIP3    H2 9721   3.044   4.156   1.902
 3239TIP3   OH2 9722   4.059   1.776   4.340
 3239TIP3    H1 9723   4.038   1.700   4.286
 3239TIP3    H2 9724   3.976   1.801   4.381
 3240TIP3   OH2 9725   5.278   1.831   0.316
 3240TIP3    H1 9726   5.220   1.878   0.256
 3240TIP3    H2 9727   5.219   1.780   0.372
 3241TIP3   OH2 9728   1.484   6.014   4.137
 3241TIP3    H1 9729   1.404   6.019   4.084
 3241TIP3    H2 9730   1.555   6.015   4.073
 3242TIP3   OH2 9731   3.874   4.502   1.089
 3242TIP3    H1 9732   3.899   4.411   1.106
 3242TIP3    H2 9733   3.779   4.502   1.095
 3243TIP3   OH2 9734   6.165   3.027   4.243
 3243TIP3    H1 9735   6.104   3.083   4.195
 3243TIP3    H2 9736   6.145   3.043   4.335
 3244TIP3   OH2 9737   4.053   1.347   4.730
 3244TIP3    H1 9738   4.106   1.414   4.687
 3244TIP3    H2 9739   4.056   1.370   4.823
 3245TIP3   OH2 9740   2.762   4.524   0.903
 3245TIP3    H1 9741   2.760   4.453   0.967
 3245TIP3    H2 9742   2.676   4.521   0.861
 3246TIP3   OH2 9743   2.350   4.205   3.991
 3246TIP3    H1 9744   2.417   4.212   3.923
 3246TIP3    H2 9745   2.290   4.277   3.974
 3247TIP3   OH2 9746   1.760   4.004   0.041
 3247TIP3    H1 9747   1.809   3.924   0.064
 3247TIP3    H2 9748   1.747   3.998  -0.053
 3248TIP3   OH2 9749   1.372   1.501   2.607
 3248TIP3    H1 9750   1.308   1.431   2.597
 3248TIP3    H2 9751   1.449   1.457   2.644
 3249TIP3   OH2 9752   4.408   3.309   0.528
 3249TIP3    H1 9753   4.366   3.365   0.462
 3249TIP3    H2 9754   4.500   3.333   0.525
 3250TIP3   OH2 9755   2.258   0.629   0.431
 3250TIP3    H1 9756   2.323   0.693   0.400
 3250TIP3    H2 9757   2.224   0.668   0.512
 3251TIP3   OH2 9758   3.877   5.249   0.731
 3251TIP3    H1 9759   3.815   5.228   0.661
 3251TIP3    H2 9760   3.924   5.326   0.700
 3252TIP3   OH2 9761   5.101   0.461   2.359
 3252TIP3    H1 9762   5.088   0.369   2.338
 3252TIP3    H2 9763   5.185   0.464   2.406
 3253TIP3   OH2 9764   0.813   0.558   1.015
 3253TIP3    H1 9765   0.909   0.554   1.009
 3253TIP3    H2 9766   0.797   0.630   1.076
 3254TIP3   OH2 9767   5.027   4.243   3.725
 3254TIP3    H1 9768   5.091   4.282   3.666
 3254TIP3    H2 9769   4.977   4.318   3.759
 3255TIP3   OH2 9770   3.557   4.837   1.413
 3255TIP3    H1 9771   3.509   4.904   1.462
 3255TIP3    H2 9772   3.572   4.767   1.476
 3256TIP3   OH2 9773   3.673   5.583   1.067
 3256TIP3    H1 9774   3.587   5.541   1.068
 3256TIP3    H2 9775   3.683   5.618   1.156
 3257TIP3   OH2 9776   2.260   5.475   5.015
 3257TIP3    H1 9777   2.261   5.539   4.944
 3257TIP3    H2 9778   2.353   5.461   5.035
 3258TIP3   OH2 9779   1.424   4.348   4.284
 3258TIP3    H1 9780   1.404   4.431   4.242
 3258TIP3    H2 9781   1.513   4.358   4.317
 3259TIP3   OH2 9782   4.140   2.505   0.477
 3259TIP3    H1 9783   4.090   2.455   0.413
 3259TIP3    H2 9784   4.187   2.570   0.425
 3260TIP3   OH2 9785   6.209   5.694   3.020
 3260TIP3    H1 9786   6.210   5.601   3.042
 3260TIP3    H2 9787   6.220   5.696   2.925
 3261TIP3   OH2 9788   6.223   4.573   2.763
 3261TIP3    H1 9789   6.277   4.646   2.791
 3261TIP3    H2 9790   6.133   4.604   2.773
 3262TIP3   OH2 9791   4.099   4.502   3.792
 3262TIP3    H1 9792   4.049   4.424   3.813
 3262TIP3    H2 9793   4.106   4.501   3.696
 3263TIP3   OH2 9794   2.395   0.048   1.494
 3263TIP3    H1 9795   2.405   0.100   1.415
 3263TIP3    H2 9796   2.405  -0.043   1.464
 3264TIP3   OH2 9797   0.829   3.655   4.596
 3264TIP3    H1 9798   0.789   3.720   4.538
 3264TIP3    H2 9799   0.782   3.664   4.678
 3265TIP3   OH2 9800   4.586   3.920   3.516
 3265TIP3    H1 9801   4.542   3.887   3.437
 3265TIP3    H2 9802   4.669   3.954   3.483
 3266TIP3   OH2 9803   5.134   1.610   3.473
 3266TIP3    H1 9804   5.083   1.529   3.478
 3266TIP3    H2 9805   5.073   1.675   3.438
 3267TIP3   OH2 9806   4.023   4.068   2.486
 3267TIP3    H1 9807   3.959   4.109   2.544
 3267TIP3    H2 9808   3.996   4.094   2.398
 3268TIP3   OH2 9809   0.457   2.156   3.819
 3268TIP3    H1 9810   0.479   2.079   3.873
 3268TIP3    H2 9811   0.372   2.184   3.852
 3269TIP3   OH2 9812   3.446   1.701   4.302
 3269TIP3    H1 9813   3.391   1.624   4.286
 3269TIP3    H2 9814   3.387   1.775   4.293
 3270TIP3   OH2 9815   0.640   2.184   2.506
 3270TIP3    H1 9816   0.671   2.112   2.561
 3270TIP3    H2 9817   0.713   2.245   2.502
 3271TIP3   OH2 9818   1.930   0.686   3.813
 3271TIP3    H1 9819   1.992   0.753   3.786
 3271TIP3    H2 9820   1.966   0.652   3.895
 3272TIP3   OH2 9821   1.040   4.413   3.024
 3272TIP3    H1 9822   1.032   4.476   3.096
 3272TIP3    H2 9823   1.113   4.444   2.971
 3273TIP3   OH2 9824   4.533   5.849   3.320
 3273TIP3    H1 9825   4.471   5.896   3.375
 3273TIP3    H2 9826   4.511   5.757   3.333
 3274TIP3   OH2 9827   0.202   0.640   3.132
 3274TIP3    H1 9828   0.246   0.573   3.081
 3274TIP3    H2 9829   0.191   0.713   3.071
 3275TIP3   OH2 9830   4.478   3.856   3.283
 3275TIP3    H1 9831   4.512   3.937   3.244
 3275TIP3    H2 9832   4.384   3.871   3.289
 3276TIP3   OH2 9833   3.624   5.054   0.352
 3276TIP3    H1 9834   3.556   5.017   0.295
 3276TIP3    H2 9835   3.667   4.978   0.391
 3277TIP3   OH2 9836   0.156   5.306   3.921
 3277TIP3    H1 9837   0.217   5.273   3.987
 3277TIP3    H2 9838   0.077   5.255   3.933
 3278TIP3   OH2 9839   2.278   1.061   0.610
 3278TIP3    H1 9840   2.194   1.103   0.593
 3278TIP3    H2 9841   2.331   1.081   0.533
 3279TIP3   OH2 9842   0.975   1.278   0.272
 3279TIP3    H1 9843   1.061   1.261   0.232
 3279TIP3    H2 9844   0.913   1.231   0.215
 3280TIP3   OH2 9845   3.752   4.308   2.105
 3280TIP3    H1 9846   3.835   4.345   2.076
 3280TIP3    H2 9847   3.687   4.377   2.088
 3281TIP3   OH2 9848   4.359   4.004   1.248
 3281TIP3    H1 9849   4.416   4.018   1.323
 3281TIP3    H2 9850   4.404   4.048   1.176
 3282TIP3   OH2 9851   1.146   3.304   1.214
 3282TIP3    H1 9852   1.068   3.269   1.171
 3282TIP3    H2 9853   1.219   3.261   1.170
 3283TIP3   OH2 9854   2.840   1.348   4.913
 3283TIP3    H1 9855   2.839   1.442   4.931
 3283TIP3    H2 9856   2.872   1.309   4.995
 3284TIP3   OH2 9857   5.718   3.631   4.861
 3284TIP3    H1 9858   5.669   3.710   4.836
 3284TIP3    H2 9859   5.793   3.630   4.801
 3285TIP3   OH2 9860   3.449   2.962   2.724
 3285TIP3    H1 9861   3.501   2.883   2.740
 3285TIP3    H2 9862   3.362   2.928   2.702
 3286TIP3   OH2 9863   1.457   5.928   2.658
 3286TIP3    H1 9864   1.483   5.970   2.576
 3286TIP3    H2 9865   1.374   5.970   2.682
 3287TIP3   OH2 9866   2.842   2.549   2.837
 3287TIP3    H1 9867   2.762   2.536   2.888
 3287TIP3    H2 9868   2.835   2.487   2.765
 3288TIP3   OH2 9869   4.578   3.461   3.470
 3288TIP3    H1 9870   4.511   3.521   3.438
 3288TIP3    H2 9871   4.660   3.510   3.461
 3289TIP3   OH2 9872   5.504   3.974   5.224
 3289TIP3    H1 9873   5.572   4.009   5.167
 3289TIP3    H2 9874   5.537   3.888   5.250
 3290TIP3   OH2 9875   2.791   5.977   0.701
 3290TIP3    H1 9876   2.784   5.937   0.614
 3290TIP3    H2 9877   2.729   5.928   0.755
 3291TIP3   OH2 9878   1.599  -0.068   3.827
 3291TIP3    H1 9879   1.557  -0.018   3.757
 3291TIP3    H2 9880   1.621  -0.003   3.894
 3292TIP3   OH2 9881   4.780   5.976   2.742
 3292TIP3    H1 9882   4.812   6.065   2.757
 3292TIP3    H2 9883   4.702   5.969   2.797
 3293TIP3   OH2 9884   1.170   2.610   3.365
 3293TIP3    H1 9885   1.250   2.654   3.337
 3293TIP3    H2 9886   1.108   2.680   3.382
 3294TIP3   OH2 9887   5.253   2.637   3.268
 3294TIP3    H1 9888   5.175   2.669   3.312
 3294TIP3    H2 9889   5.221   2.602   3.185
 3295TIP3   OH2 9890   3.532   0.492   2.150
 3295TIP3    H1 9891   3.591   0.422   2.124
 3295TIP3    H2 9892   3.448   0.469   2.110
 3296TIP3   OH2 9893   3.953   3.722   4.982
 3296TIP3    H1 9894   3.882   3.692   4.926
 3296TIP3    H2 9895   4.016   3.761   4.922
 3297TIP3   OH2 9896   3.779   1.816   2.520
 3297TIP3    H1 9897   3.810   1.906   2.529
 3297TIP3    H2 9898   3.836   1.764   2.577
 3298TIP3   OH2 9899   4.375   3.775   4.014
 3298TIP3    H1 9900   4.395   3.748   3.925
 3298TIP3    H2 9901   4.364   3.693   4.062
 3299TIP3   OH2 9902   4.251   4.401   2.107
 3299TIP3    H1 9903   4.292   4.411   2.193
 3299TIP3    H2 9904   4.283   4.476   2.057
 3300TIP3   OH2 9905   3.443   0.723   3.290
 3300TIP3    H1 9906   3.448   0.765   3.204
 3300TIP3    H2 9907   3.470   0.791   3.351
 3301TIP3   OH2 9908   4.092   4.687   1.904
 3301TIP3    H1 9909   4.187   4.687   1.908
 3301TIP3    H2 9910   4.064   4.718   1.991
 3302TIP3   OH2 9911   4.833   1.173   3.837
 3302TIP3    H1 9912   4.844   1.253   3.786
 3302TIP3    H2 9913   4.794   1.203   3.919
 3303TIP3   OH2 9914   4.433   2.483   3.733
 3303TIP3    H1 9915   4.491   2.432   3.677
 3303TIP3    H2 9916   4.355   2.499   3.679
 3304TIP3   OH2 9917   4.706   5.161   1.152
 3304TIP3    H1 9918   4.696   5.074   1.190
 3304TIP3    H2 9919   4.759   5.147   1.074
 3305TIP3   OH2 9920   1.217   0.503   3.107
 3305TIP3    H1 9921   1.186   0.444   3.039
 3305TIP3    H2 9922   1.168   0.477   3.185
 3306TIP3   OH2 9923   4.180   2.990  -0.019
 3306TIP3    H1 9924   4.127   2.950   0.049
 3306TIP3    H2 9925   4.242   3.046   0.028
 3307TIP3   OH2 9926   3.784   3.268   4.104
 3307TIP3    H1 9927   3.848   3.199   4.089
 3307TIP3    H2 9928   3.764   3.261   4.197
 3308TIP3   OH2 9929   1.200   5.108  -0.031
 3308TIP3    H1 9930   1.140   5.160  -0.084
 3308TIP3    H2 9931   1.225   5.167   0.041
 3309TIP3   OH2 9932   5.418   2.651   0.677
 3309TIP3    H1 9933   5.354   2.597   0.722
 3309TIP3    H2 9934   5.372   2.684   0.599
 3310TIP3   OH2 9935   0.140   4.072   4.784
 3310TIP3    H1 9936   0.232   4.084   4.758
 3310TIP3    H2 9937   0.114   3.991   4.740
 3311TIP3   OH2 9938   0.274   3.455   1.000
 3311TIP3    H1 9939   0.348   3.440   1.058
 3311TIP3    H2 9940   0.264   3.551   0.997
 3312TIP3   OH2 9941   6.303   1.414   1.707
 3312TIP3    H1 9942   6.246   1.406   1.784
 3312TIP3    H2 9943   6.265   1.485   1.656
 3313TIP3   OH2 9944   4.466   2.872   5.137
 3313TIP3    H1 9945   4.461   2.963   5.108
 3313TIP3    H2 9946   4.546   2.868   5.189
 3314TIP3   OH2 9947   3.342   1.080   5.086
 3314TIP3    H1 9948   3.347   1.013   5.019
 3314TIP3    H2 9949   3.358   1.162   5.039
 3315TIP3   OH2 9950   4.170   5.819   2.499
 3315TIP3    H1 9951   4.191   5.779   2.415
 3315TIP3    H2 9952   4.099   5.881   2.478
 3316TIP3   OH2 9953   2.177   4.348   1.837
 3316TIP3    H1 9954   2.124   4.386   1.767
 3316TIP3    H2 9955   2.170   4.411   1.909
 3317TIP3   OH2 9956   3.373   3.721   0.471
 3317TIP3    H1 9957   3.279   3.724   0.488
 3317TIP3    H2 9958   3.404   3.646   0.523
 3318TIP3   OH2 9959   4.994   4.244   4.373
 3318TIP3    H1 9960   5.016   4.245   4.467
 3318TIP3    H2 9961   4.913   4.193   4.368
 3319TIP3   OH2 9962   1.662   5.255   2.842
 3319TIP3    H1 9963   1.739   5.277   2.790
 3319TIP3    H2 9964   1.690   5.265   2.933
 3320TIP3   OH2 9965   0.174   3.033   3.319
 3320TIP3    H1 9966   0.192   2.939   3.320
 3320TIP3    H2 9967   0.114   3.045   3.245
 3321TIP3   OH2 9968   2.138   5.741   1.377
 3321TIP3    H1 9969   2.191   5.820   1.365
 3321TIP3    H2 9970   2.185   5.690   1.443
 3322TIP3   OH2 9971   3.566   3.269   1.280
 3322TIP3    H1 9972   3.551   3.322   1.358
 3322TIP3    H2 9973   3.482   3.270   1.234
 3323TIP3   OH2 9974   0.094   2.702   2.396
 3323TIP3    H1 9975   0.149   2.633   2.433
 3323TIP3    H2 9976   0.060   2.665   2.315
 3324TIP3   OH2 9977   0.759   2.711   4.830
 3324TIP3    H1 9978   0.826   2.778   4.816
 3324TIP3    H2 9979   0.720   2.698   4.743
 3325TIP3   OH2 9980   4.865   4.094   0.626
 3325TIP3    H1 9981   4.895   4.141   0.704
 3325TIP3    H2 9982   4.867   4.160   0.557
 3326TIP3   OH2 9983   0.194   5.136   4.448
 3326TIP3    H1 9984   0.234   5.113   4.532
 3326TIP3    H2 9985   0.214   5.228   4.436
 3327TIP3   OH2 9986   4.370   1.148   2.850
 3327TIP3    H1 9987   4.385   1.057   2.828
 3327TIP3    H2 9988   4.299   1.176   2.792
 3328TIP3   OH2 9989   0.235   3.151   0.174
 3328TIP3    H1 9990   0.224   3.098   0.096
 3328TIP3    H2 9991   0.220   3.241   0.145
 3329TIP3   OH2 9992   3.537   4.741   3.652
 3329TIP3    H1 9993   3.607   4.783   3.701
 3329TIP3    H2 9994   3.578   4.714   3.570
 3330TIP3   OH2 9995   3.996   4.032   2.003
 3330TIP3    H1 9996   3.954   4.060   2.084
 3330TIP3    H2 9997   4.090   4.039   2.022
 3331TIP3   OH2 9998   1.661   4.444   3.234
 3331TIP3    H1 9999   1.626   4.427   3.147
 3331TIP3    H210000   1.710   4.364   3.256
 3332TIP3   OH210001   2.743   3.449   1.155
 3332TIP3    H110002   2.653   3.477   1.170
 3332TIP3    H210003   2.789   3.471   1.236
 3333TIP3   OH210004   3.431   5.687   4.372
 3333TIP3    H110005   3.453   5.687   4.465
 3333TIP3    H210006   3.487   5.755   4.334
 3334TIP3   OH210007   0.758   0.014   3.028
 3334TIP3    H110008   0.775   0.084   2.966
 3334TIP3    H210009   0.667   0.029   3.057
 3335TIP3   OH210010   5.522   1.098   5.072
 3335TIP3    H110011   5.557   1.146   5.146
 3335TIP3    H210012   5.570   1.132   4.996
 3336TIP3   OH210013   4.419   2.204   4.208
 3336TIP3    H110014   4.426   2.291   4.249
 3336TIP3    H210015   4.418   2.223   4.114
 3337TIP3   OH210016   1.130   0.110   1.493
 3337TIP3    H110017   1.142   0.016   1.507
 3337TIP3    H210018   1.040   0.118   1.461
 3338TIP3   OH210019   5.403   2.434   1.521
 3338TIP3    H110020   5.370   2.481   1.444
 3338TIP3    H210021   5.327   2.425   1.578
 3339TIP3   OH210022   2.612   5.000   4.937
 3339TIP3    H110023   2.637   5.057   4.864
 3339TIP3    H210024   2.553   5.054   4.990
 3340TIP3   OH210025   0.118   2.521   0.610
 3340TIP3    H110026   0.070   2.569   0.678
 3340TIP3    H210027   0.169   2.456   0.659
 3341TIP3   OH210028   1.864   3.770   0.365
 3341TIP3    H110029   1.774   3.754   0.393
 3341TIP3    H210030   1.864   3.747   0.272
 3342TIP3   OH210031   0.661   0.163   2.366
 3342TIP3    H110032   0.658   0.257   2.346
 3342TIP3    H210033   0.572   0.132   2.347
 3343TIP3   OH210034   3.146   1.991   1.591
 3343TIP3    H110035   3.099   1.939   1.524
 3343TIP3    H210036   3.174   2.069   1.544
 3344TIP3   OH210037   2.814   4.672   0.197
 3344TIP3    H110038   2.799   4.578   0.188
 3344TIP3    H210039   2.864   4.696   0.119
 3345TIP3   OH210040   5.673   5.382   2.820
 3345TIP3    H110041   5.618   5.418   2.890
 3345TIP3    H210042   5.669   5.287   2.832
 3346TIP3   OH210043   6.030   1.887   4.883
 3346TIP3    H110044   6.098   1.849   4.938
 3346TIP3    H210045   6.078   1.927   4.810
 3347TIP3   OH210046   1.515   0.778   5.061
 3347TIP3    H110047   1.479   0.803   5.146
 3347TIP3    H210048   1.449   0.719   5.024
 3348TIP3   OH210049   5.188   4.033   4.171
 3348TIP3    H110050   5.146   4.119   4.172
 3348TIP3    H210051   5.173   4.000   4.082
 3349TIP3   OH210052   4.724   0.258   0.130
 3349TIP3    H110053   4.806   0.258   0.080
 3349TIP3    H210054   4.658   0.226   0.068
 3350TIP3   OH210055   3.075   2.227   5.106
 3350TIP3    H110056   3.067   2.248   5.013
 3350TIP3    H210057   2.987   2.241   5.142
 3351TIP3   OH210058   1.877   3.121   0.731
 3351TIP3    H110059   1.886   3.103   0.638
 3351TIP3    H210060   1.783   3.112   0.748
 3352TIP3   OH210061   1.813   1.955   3.596
 3352TIP3    H110062   1.738   2.015   3.593
 3352TIP3    H210063   1.796   1.894   3.524
 3353TIP3   OH210064   3.824   4.575   1.698
 3353TIP3    H110065   3.818   4.667   1.725
 3353TIP3    H210066   3.768   4.569   1.621
 3354TIP3   OH210067   3.478   2.251   0.878
 3354TIP3    H110068   3.457   2.161   0.902
 3354TIP3    H210069   3.566   2.245   0.840
 3355TIP3   OH210070   3.552   5.219   1.572
 3355TIP3    H110071   3.631   5.166   1.578
 3355TIP3    H210072   3.572   5.300   1.618
 3356TIP3   OH210073   5.709   2.209   4.768
 3356TIP3    H110074   5.731   2.128   4.722
 3356TIP3    H210075   5.678   2.181   4.854
 3357TIP3   OH210076   2.448   1.339   0.289
 3357TIP3    H110077   2.515   1.341   0.221
 3357TIP3    H210078   2.479   1.273   0.351
 3358TIP3   OH210079   4.862   4.567   1.953
 3358TIP3    H110080   4.909   4.543   1.874
 3358TIP3    H210081   4.777   4.524   1.945
 3359TIP3   OH210082   0.966   2.426   3.420
 3359TIP3    H110083   1.041   2.485   3.406
 3359TIP3    H210084   0.936   2.405   3.332
 3360TIP3   OH210085   3.824   5.669   3.753
 3360TIP3    H110086   3.803   5.605   3.821
 3360TIP3    H210087   3.738   5.699   3.721
 3361TIP3   OH210088   0.953   2.792   3.395
 3361TIP3    H110089   0.866   2.768   3.426
 3361TIP3    H210090   0.967   2.881   3.428
 3362TIP3   OH210091   5.128   1.674   0.468
 3362TIP3    H110092   5.118   1.579   0.462
 3362TIP3    H210093   5.122   1.693   0.562
 3363TIP3   OH210094   0.288   5.815   2.901
 3363TIP3    H110095   0.209   5.865   2.882
 3363TIP3    H210096   0.353   5.880   2.928
 3364TIP3   OH210097   4.249   4.084   4.630
 3364TIP3    H110098   4.228   3.998   4.595
 3364TIP3    H210099   4.344   4.083   4.640
 3365TIP3   OH210100   3.105   1.930   3.214
 3365TIP3    H110101   3.128   2.004   3.159
 3365TIP3    H210102   3.061   1.969   3.290
 3366TIP3   OH210103   0.252   4.091   0.897
 3366TIP3    H110104   0.248   4.047   0.812
 3366TIP3    H210105   0.294   4.027   0.955
 3367TIP3   OH210106   5.282   2.910   5.045
 3367TIP3    H110107   5.319   2.937   4.961
 3367TIP3    H210108   5.309   2.819   5.055
 3368TIP3   OH210109   4.505   3.848   2.720
 3368TIP3    H110110   4.537   3.760   2.737
 3368TIP3    H210111   4.413   3.836   2.696
 3369TIP3   OH210112   0.856   3.703   0.185
 3369TIP3    H110113   0.831   3.793   0.162
 3369TIP3    H210114   0.779   3.651   0.160
 3370TIP3   OH210115   0.258   4.697   4.658
 3370TIP3    H110116   0.200   4.659   4.591
 3370TIP3    H210117   0.241   4.791   4.653
 3371TIP3   OH210118   2.197   2.106   5.081
 3371TIP3    H110119   2.275   2.076   5.034
 3371TIP3    H210120   2.230   2.160   5.152
 3372TIP3   OH210121   1.161   2.451   1.766
 3372TIP3    H110122   1.211   2.471   1.845
 3372TIP3    H210123   1.090   2.515   1.767
 3373TIP3   OH210124   5.597   0.301   1.248
 3373TIP3    H110125   5.653   0.351   1.189
 3373TIP3    H210126   5.518   0.355   1.257
 3374TIP3   OH210127   3.912   1.563   1.544
 3374TIP3    H110128   3.857   1.529   1.474
 3374TIP3    H210129   3.996   1.519   1.532
 3375TIP3   OH210130   5.577   4.542   1.624
 3375TIP3    H110131   5.567   4.565   1.532
 3375TIP3    H210132   5.555   4.449   1.629
 3376TIP3   OH210133   5.390   0.578   4.992
 3376TIP3    H110134   5.399   0.673   4.998
 3376TIP3    H210135   5.357   0.551   5.078
 3377TIP3   OH210136   4.065   3.528   2.617
 3377TIP3    H110137   4.113   3.500   2.695
 3377TIP3    H210138   4.085   3.622   2.610
 3378TIP3   OH210139   5.269   3.145   0.503
 3378TIP3    H110140   5.196   3.207   0.502
 3378TIP3    H210141   5.261   3.099   0.586
 3379TIP3   OH210142   0.105   3.172   0.765
 3379TIP3    H110143   0.192   3.141   0.738
 3379TIP3    H210144   0.058   3.185   0.682
 3380TIP3   OH210145   6.260   3.646   4.318
 3380TIP3    H110146   6.249   3.711   4.249
 3380TIP3    H210147   6.346   3.607   4.299
 3381TIP3   OH210148   1.740   4.597   2.449
 3381TIP3    H110149   1.794   4.633   2.378
 3381TIP3    H210150   1.800   4.540   2.498
 3382TIP3   OH210151   2.430   3.406   0.070
 3382TIP3    H110152   2.452   3.315   0.085
 3382TIP3    H210153   2.512   3.447   0.042
 3383TIP3   OH210154   4.559   4.269   5.050
 3383TIP3    H110155   4.504   4.213   5.105
 3383TIP3    H210156   4.506   4.286   4.972
 3384TIP3   OH210157   1.319   3.921   1.083
 3384TIP3    H110158   1.280   3.920   1.170
 3384TIP3    H210159   1.273   3.852   1.035
 3385TIP3   OH210160   0.498   5.019   3.494
 3385TIP3    H110161   0.437   5.032   3.567
 3385TIP3    H210162   0.442   4.993   3.420
 3386TIP3   OH210163   4.616   0.188   3.432
 3386TIP3    H110164   4.551   0.235   3.484
 3386TIP3    H210165   4.696   0.195   3.483
 3387TIP3   OH210166   4.371   3.703   0.741
 3387TIP3    H110167   4.350   3.769   0.675
 3387TIP3    H210168   4.434   3.645   0.696
 3388TIP3   OH210169   2.597   1.720   4.391
 3388TIP3    H110170   2.621   1.811   4.409
 3388TIP3    H210171   2.591   1.679   4.477
 3389TIP3   OH210172   2.157   4.251   4.443
 3389TIP3    H110173   2.132   4.172   4.491
 3389TIP3    H210174   2.180   4.220   4.355
 3390TIP3   OH210175   1.333   2.799   3.850
 3390TIP3    H110176   1.361   2.711   3.875
 3390TIP3    H210177   1.351   2.805   3.756
 3391TIP3   OH210178   3.517   4.803   1.973
 3391TIP3    H110179   3.527   4.870   1.906
 3391TIP3    H210180   3.431   4.765   1.956
 3392TIP3   OH210181   6.086   5.907   0.615
 3392TIP3    H110182   6.161   5.887   0.670
 3392TIP3    H210183   6.042   5.980   0.659
 3393TIP3   OH210184   5.713   1.657   5.188
 3393TIP3    H110185   5.708   1.734   5.132
 3393TIP3    H210186   5.655   1.593   5.146
 3394TIP3   OH210187   1.834   2.720   5.121
 3394TIP3    H110188   1.749   2.713   5.164
 3394TIP3    H210189   1.819   2.778   5.046
 3395TIP3   OH210190   2.892   1.225   3.343
 3395TIP3    H110191   2.798   1.207   3.346
 3395TIP3    H210192   2.906   1.285   3.416
 3396TIP3   OH210193   6.329   1.894   1.752
 3396TIP3    H110194   6.424   1.880   1.759
 3396TIP3    H210195   6.296   1.874   1.839
 3397TIP3   OH210196   5.439   2.589   3.465
 3397TIP3    H110197   5.356   2.593   3.417
 3397TIP3    H210198   5.450   2.678   3.501
 3398TIP3   OH210199   3.118   4.321   5.060
 3398TIP3    H110200   3.152   4.257   5.122
 3398TIP3    H210201   3.078   4.268   4.991
 3399TIP3   OH210202   2.879   3.139   1.655
 3399TIP3    H110203   2.925   3.060   1.626
 3399TIP3    H210204   2.787   3.115   1.654
 3400TIP3   OH210205   5.002   1.988   1.299
 3400TIP3    H110206   5.058   2.064   1.314
 3400TIP3    H210207   5.027   1.927   1.369
 3401TIP3   OH210208   4.598   5.422   0.745
 3401TIP3    H110209   4.678   5.452   0.702
 3401TIP3    H210210   4.527   5.463   0.695
 3402TIP3   OH210211   0.689   1.875   1.155
 3402TIP3    H110212   0.758   1.810   1.166
 3402TIP3    H210213   0.651   1.885   1.242
 3403TIP3   OH210214   5.903   3.028   1.067
 3403TIP3    H110215   5.955   2.947   1.064
 3403TIP3    H210216   5.817   3.003   1.036
 3404TIP3   OH210217   2.957   2.584   3.832
 3404TIP3    H110218   3.038   2.542   3.803
 3404TIP3    H210219   2.982   2.675   3.850
 3405TIP3   OH210220   2.680   0.696   0.592
 3405TIP3    H110221   2.621   0.628   0.626
 3405TIP3    H210222   2.669   0.769   0.654
 3406TIP3   OH210223   5.182   2.489   1.034
 3406TIP3    H110224   5.211   2.566   1.083
 3406TIP3    H210225   5.087   2.492   1.038
 3407TIP3   OH210226   4.536   5.896   0.905
 3407TIP3    H110227   4.455   5.944   0.920
 3407TIP3    H210228   4.542   5.889   0.809
 3408TIP3   OH210229   2.457   0.113   5.167
 3408TIP3    H110230   2.468   0.073   5.253
 3408TIP3    H210231   2.396   0.055   5.121
 3409TIP3   OH210232   1.651   4.835   0.138
 3409TIP3    H110233   1.654   4.858   0.045
 3409TIP3    H210234   1.683   4.745   0.142
 3410TIP3   OH210235   0.971   4.072   2.695
 3410TIP3    H110236   0.995   4.165   2.701
 3410TIP3    H210237   1.046   4.026   2.733
 3411TIP3   OH210238   5.936   0.692   3.397
 3411TIP3    H110239   5.909   0.734   3.479
 3411TIP3    H210240   6.007   0.748   3.365
 3412TIP3   OH210241   1.307   1.220   1.150
 3412TIP3    H110242   1.343   1.228   1.238
 3412TIP3    H210243   1.288   1.310   1.123
 3413TIP3   OH210244   3.818   2.177   5.084
 3413TIP3    H110245   3.742   2.119   5.083
 3413TIP3    H210246   3.878   2.140   5.019
 3414TIP3   OH210247   1.071   2.561   2.097
 3414TIP3    H110248   1.031   2.571   2.010
 3414TIP3    H210249   1.082   2.650   2.128
 3415TIP3   OH210250   3.635   3.530   1.764
 3415TIP3    H110251   3.674   3.453   1.722
 3415TIP3    H210252   3.635   3.508   1.858
 3416TIP3   OH210253   3.577   2.595   4.070
 3416TIP3    H110254   3.590   2.682   4.109
 3416TIP3    H210255   3.664   2.556   4.072
 3417TIP3   OH210256   4.235   2.421   3.358
 3417TIP3    H110257   4.199   2.440   3.445
 3417TIP3    H210258   4.321   2.462   3.358
 3418TIP3   OH210259   5.113   4.560   2.170
 3418TIP3    H110260   5.177   4.594   2.233
 3418TIP3    H210261   5.117   4.465   2.180
 3419TIP3   OH210262   4.579   5.228   3.820
 3419TIP3    H110263   4.661   5.255   3.861
 3419TIP3    H210264   4.523   5.202   3.894
 3420TIP3   OH210265   4.150   3.003   2.044
 3420TIP3    H110266   4.076   3.064   2.041
 3420TIP3    H210267   4.130   2.937   1.978
 3421TIP3   OH210268   5.639   3.767   3.506
 3421TIP3    H110269   5.605   3.689   3.551
 3421TIP3    H210270   5.715   3.735   3.458
 3422TIP3   OH210271   0.259   5.301   1.505
 3422TIP3    H110272   0.202   5.377   1.512
 3422TIP3    H210273   0.199   5.228   1.485
 3423TIP3   OH210274   0.798   5.549   0.973
 3423TIP3    H110275   0.712   5.588   0.961
 3423TIP3    H210276   0.856   5.623   0.988
 3424TIP3   OH210277   5.746   5.299   0.351
 3424TIP3    H110278   5.673   5.280   0.409
 3424TIP3    H210279   5.738   5.235   0.280
 3425TIP3   OH210280   5.186   3.378   3.712
 3425TIP3    H110281   5.163   3.388   3.619
 3425TIP3    H210282   5.256   3.313   3.712
 3426TIP3   OH210283   0.754   4.856   3.487
 3426TIP3    H110284   0.690   4.928   3.488
 3426TIP3    H210285   0.764   4.832   3.579
 3427TIP3   OH210286   5.084   3.066   1.566
 3427TIP3    H110287   5.095   3.149   1.613
 3427TIP3    H210288   5.137   3.003   1.615
 3428TIP3   OH210289   3.438   4.852   4.231
 3428TIP3    H110290   3.356   4.813   4.262
 3428TIP3    H210291   3.491   4.860   4.310
 3429TIP3   OH210292   2.349   5.283   3.226
 3429TIP3    H110293   2.359   5.204   3.173
 3429TIP3    H210294   2.384   5.260   3.312
 3430TIP3   OH210295   6.216   4.898   3.613
 3430TIP3    H110296   6.123   4.923   3.615
 3430TIP3    H210297   6.234   4.867   3.702
 3431TIP3   OH210298   4.115   1.163   4.036
 3431TIP3    H110299   4.063   1.243   4.034
 3431TIP3    H210300   4.112   1.135   4.127
 3432TIP3   OH210301   1.912   2.727   4.526
 3432TIP3    H110302   1.927   2.647   4.476
 3432TIP3    H210303   1.825   2.715   4.565
 3433TIP3   OH210304   1.978   5.830   4.370
 3433TIP3    H110305   1.969   5.864   4.460
 3433TIP3    H210306   1.904   5.770   4.360
 3434TIP3   OH210307   4.166   0.508   1.884
 3434TIP3    H110308   4.229   0.580   1.886
 3434TIP3    H210309   4.106   0.526   1.956
 3435TIP3   OH210310   3.644   0.295   4.095
 3435TIP3    H110311   3.716   0.329   4.149
 3435TIP3    H210312   3.600   0.231   4.152
 3436TIP3   OH210313   4.084   0.080   4.846
 3436TIP3    H110314   3.996   0.052   4.873
 3436TIP3    H210315   4.144   0.030   4.901
 3437TIP3   OH210316   5.143   1.309   3.084
 3437TIP3    H110317   5.182   1.232   3.125
 3437TIP3    H210318   5.063   1.325   3.135
 3438TIP3   OH210319   2.870   0.351   1.910
 3438TIP3    H110320   2.879   0.266   1.953
 3438TIP3    H210321   2.957   0.390   1.915
 3439TIP3   OH210322   3.231   0.810   0.901
 3439TIP3    H110323   3.167   0.806   0.972
 3439TIP3    H210324   3.198   0.749   0.835
 3440TIP3   OH210325   3.759   0.712   3.106
 3440TIP3    H110326   3.798   0.727   3.192
 3440TIP3    H210327   3.680   0.765   3.106
 3441TIP3   OH210328   5.143   4.087   2.463
 3441TIP3    H110329   5.182   4.025   2.401
 3441TIP3    H210330   5.069   4.040   2.501
 3442TIP3   OH210331   0.503   0.706   0.858
 3442TIP3    H110332   0.478   0.621   0.895
 3442TIP3    H210333   0.454   0.712   0.777
 3443TIP3   OH210334   0.716   5.363   1.254
 3443TIP3    H110335   0.657   5.305   1.302
 3443TIP3    H210336   0.741   5.311   1.177
 3444TIP3   OH210337   4.320   1.872   3.959
 3444TIP3    H110338   4.267   1.947   3.987
 3444TIP3    H210339   4.298   1.860   3.866
 3445TIP3   OH210340   5.152   4.153   0.279
 3445TIP3    H110341   5.155   4.241   0.241
 3445TIP3    H210342   5.217   4.103   0.229
 3446TIP3   OH210343   3.759   4.364   2.385
 3446TIP3    H110344   3.854   4.363   2.398
 3446TIP3    H210345   3.747   4.353   2.291
 3447TIP3   OH210346   5.534   0.038   1.843
 3447TIP3    H110347   5.622   0.055   1.809
 3447TIP3    H210348   5.500   0.125   1.866
 3448TIP3   OH210349   0.975   1.706   2.012
 3448TIP3    H110350   0.984   1.774   1.945
 3448TIP3    H210351   0.956   1.626   1.963
 3449TIP3   OH210352   6.163   0.652   0.916
 3449TIP3    H110353   6.203   0.577   0.873
 3449TIP3    H210354   6.201   0.653   1.004
 3450TIP3   OH210355   0.997   4.783   4.457
 3450TIP3    H110356   1.040   4.810   4.538
 3450TIP3    H210357   0.972   4.692   4.473
 3451TIP3   OH210358   4.558   4.149   3.994
 3451TIP3    H110359   4.543   4.098   3.915
 3451TIP3    H210360   4.551   4.086   4.066
 3452TIP3   OH210361   5.139   2.717   0.769
 3452TIP3    H110362   5.144   2.765   0.687
 3452TIP3    H210363   5.106   2.630   0.745
 3453TIP3   OH210364   1.255   1.846   3.555
 3453TIP3    H110365   1.165   1.822   3.575
 3453TIP3    H210366   1.289   1.772   3.504
 3454TIP3   OH210367   2.751   3.339   1.996
 3454TIP3    H110368   2.670   3.389   1.986
 3454TIP3    H210369   2.734   3.279   2.069
 3455TIP3   OH210370   4.620   1.743   1.120
 3455TIP3    H110371   4.601   1.680   1.051
 3455TIP3    H210372   4.673   1.810   1.077
 3456TIP3   OH210373   6.141   4.144   3.772
 3456TIP3    H110374   6.139   4.181   3.684
 3456TIP3    H210375   6.072   4.077   3.771
 3457TIP3   OH210376   5.973   1.844   3.127
 3457TIP3    H110377   6.033   1.908   3.089
 3457TIP3    H210378   5.890   1.891   3.136
 3458TIP3   OH210379   3.257   1.778   1.014
 3458TIP3    H110380   3.268   1.863   1.058
 3458TIP3    H210381   3.341   1.734   1.026
 3459TIP3   OH210382   2.550   5.452   0.880
 3459TIP3    H110383   2.538   5.363   0.849
 3459TIP3    H210384   2.589   5.498   0.806
 3460TIP3   OH210385   0.263   1.241   4.443
 3460TIP3    H110386   0.260   1.165   4.502
 3460TIP3    H210387   0.242   1.204   4.357
 3461TIP3   OH210388   5.272   4.631   4.645
 3461TIP3    H110389   5.201   4.646   4.582
 3461TIP3    H210390   5.351   4.626   4.591
 3462TIP3   OH210391   1.440   1.811   4.507
 3462TIP3    H110392   1.385   1.890   4.507
 3462TIP3    H210393   1.378   1.739   4.494
 3463TIP3   OH210394   1.639   5.584   4.561
 3463TIP3    H110395   1.609   5.507   4.513
 3463TIP3    H210396   1.692   5.633   4.498
 3464TIP3   OH210397   5.033   4.427   5.065
 3464TIP3    H110398   4.964   4.375   5.026
 3464TIP3    H210399   5.088   4.454   4.992
 3465TIP3   OH210400   5.908   2.123   5.072
 3465TIP3    H110401   5.818   2.093   5.064
 3465TIP3    H210402   5.942   2.124   4.982
 3466TIP3   OH210403   5.310   0.553   0.681
 3466TIP3    H110404   5.299   0.573   0.588
 3466TIP3    H210405   5.333   0.636   0.722
 3467TIP3   OH210406   5.109   5.457   0.683
 3467TIP3    H110407   5.164   5.457   0.762
 3467TIP3    H210408   5.164   5.418   0.615
 3468TIP3   OH210409   3.769   2.714   2.465
 3468TIP3    H110410   3.844   2.673   2.422
 3468TIP3    H210411   3.768   2.677   2.553
 3469TIP3   OH210412   4.249   5.151   0.215
 3469TIP3    H110413   4.168   5.149   0.266
 3469TIP3    H210414   4.254   5.240   0.181
 3470TIP3   OH210415   4.249   2.769   0.860
 3470TIP3    H110416   4.283   2.681   0.840
 3470TIP3    H210417   4.306   2.802   0.929
 3471TIP3   OH210418   5.755   5.661   4.648
 3471TIP3    H110419   5.770   5.592   4.584
 3471TIP3    H210420   5.698   5.622   4.714
 3472TIP3   OH210421   5.629   4.230   1.888
 3472TIP3    H110422   5.550   4.282   1.892
 3472TIP3    H210423   5.598   4.139   1.890
 3473TIP3   OH210424   5.438   1.646   3.168
 3473TIP3    H110425   5.472   1.582   3.231
 3473TIP3    H210426   5.509   1.710   3.159
 3474TIP3   OH210427   2.713   1.577   4.710
 3474TIP3    H110428   2.757   1.493   4.725
 3474TIP3    H210429   2.783   1.642   4.720
 3475TIP3   OH210430   5.959   4.698   2.918
 3475TIP3    H110431   5.988   4.787   2.936
 3475TIP3    H210432   5.916   4.703   2.833
 3476TIP3   OH210433   1.748   2.875   0.582
 3476TIP3    H110434   1.815   2.941   0.563
 3476TIP3    H210435   1.782   2.794   0.545
 3477TIP3   OH210436   1.533   4.306   2.043
 3477TIP3    H110437   1.554   4.303   1.949
 3477TIP3    H210438   1.552   4.218   2.075
 3478TIP3   OH210439   1.460   5.639   3.552
 3478TIP3    H110440   1.390   5.678   3.605
 3478TIP3    H210441   1.420   5.559   3.516
 3479TIP3   OH210442   1.070   1.239   3.828
 3479TIP3    H110443   1.069   1.319   3.882
 3479TIP3    H210444   1.145   1.189   3.862
 3480TIP3   OH210445   6.048   1.703   0.620
 3480TIP3    H110446   6.112   1.659   0.676
 3480TIP3    H210447   6.099   1.731   0.543
 3481TIP3   OH210448   3.316   3.252   0.630
 3481TIP3    H110449   3.229   3.225   0.658
 3481TIP3    H210450   3.300   3.321   0.565
 3482TIP3   OH210451   0.936   4.676   5.127
 3482TIP3    H110452   0.932   4.585   5.155
 3482TIP3    H210453   0.874   4.680   5.054
 3483TIP3   OH210454   4.934   5.046   2.916
 3483TIP3    H110455   4.882   5.120   2.884
 3483TIP3    H210456   5.006   5.038   2.853
 3484TIP3   OH210457   5.875   0.347   4.885
 3484TIP3    H110458   5.876   0.283   4.813
 3484TIP3    H210459   5.798   0.401   4.868
 3485TIP3   OH210460   1.036   4.603   3.227
 3485TIP3    H110461   1.129   4.615   3.246
 3485TIP3    H210462   0.996   4.686   3.253
 3486TIP3   OH210463   5.299   3.324   4.981
 3486TIP3    H110464   5.327   3.392   5.043
 3486TIP3    H210465   5.252   3.372   4.913
 3487TIP3   OH210466   2.885   4.983   4.127
 3487TIP3    H110467   2.891   5.071   4.165
 3487TIP3    H210468   2.803   4.983   4.079
 3488TIP3   OH210469   0.765   2.076   2.015
 3488TIP3    H110470   0.834   2.052   2.076
 3488TIP3    H210471   0.725   2.154   2.053
 3489TIP3   OH210472   2.029   4.593   0.926
 3489TIP3    H110473   1.983   4.661   0.877
 3489TIP3    H210474   2.120   4.598   0.894
 3490TIP3   OH210475   4.732   2.551   2.201
 3490TIP3    H110476   4.709   2.562   2.109
 3490TIP3    H210477   4.822   2.516   2.199
 3491TIP3   OH210478   1.179   1.734   4.754
 3491TIP3    H110479   1.250   1.679   4.788
 3491TIP3    H210480   1.161   1.699   4.667
 3492TIP3   OH210481   2.300   4.205   0.182
 3492TIP3    H110482   2.303   4.113   0.208
 3492TIP3    H210483   2.228   4.210   0.119
 3493TIP3   OH210484   3.240   4.717   2.685
 3493TIP3    H110485   3.303   4.751   2.621
 3493TIP3    H210486   3.270   4.628   2.704
 3494TIP3   OH210487   1.005   1.098   1.954
 3494TIP3    H110488   1.052   1.103   2.037
 3494TIP3    H210489   0.937   1.033   1.968
 3495TIP3   OH210490   1.324   3.711   0.134
 3495TIP3    H110491   1.310   3.619   0.110
 3495TIP3    H210492   1.244   3.756   0.104
 3496TIP3   OH210493   4.491   5.661   1.235
 3496TIP3    H110494   4.506   5.606   1.312
 3496TIP3    H210495   4.477   5.749   1.271
 3497TIP3   OH210496   1.266   1.705   2.449
 3497TIP3    H110497   1.313   1.628   2.480
 3497TIP3    H210498   1.222   1.675   2.369
 3498TIP3   OH210499   3.609   5.195   2.312
 3498TIP3    H110500   3.557   5.242   2.247
 3498TIP3    H210501   3.615   5.105   2.278
 3499TIP3   OH210502   3.155   2.214   1.443
 3499TIP3    H110503   3.209   2.225   1.365
 3499TIP3    H210504   3.134   2.304   1.471
 3500TIP3   OH210505   2.740   1.342   0.435
 3500TIP3    H110506   2.832   1.353   0.412
 3500TIP3    H210507   2.734   1.371   0.527
 3501TIP3   OH210508   4.608   0.547   4.674
 3501TIP3    H110509   4.563   0.622   4.635
 3501TIP3    H210510   4.578   0.546   4.765
 3502TIP3   OH210511   1.457   4.643   3.047
 3502TIP3    H110512   1.486   4.704   2.978
 3502TIP3    H210513   1.469   4.692   3.128
 3503TIP3   OH210514   1.510   4.481   1.311
 3503TIP3    H110515   1.527   4.487   1.217
 3503TIP3    H210516   1.442   4.547   1.327
 3504TIP3   OH210517   5.924   2.891   2.740
 3504TIP3    H110518   5.931   2.940   2.658
 3504TIP3    H210519   5.830   2.891   2.760
 3505TIP3   OH210520   6.156   2.019   3.044
 3505TIP3    H110521   6.212   2.057   2.976
 3505TIP3    H210522   6.207   1.945   3.079
 3506TIP3   OH210523   0.706   5.196   2.414
 3506TIP3    H110524   0.644   5.262   2.444
 3506TIP3    H210525   0.792   5.234   2.431
 3507TIP3   OH210526   4.508   4.882   0.505
 3507TIP3    H110527   4.517   4.874   0.410
 3507TIP3    H210528   4.426   4.930   0.518
 3508TIP3   OH210529   1.605   5.130   4.976
 3508TIP3    H110530   1.696   5.143   5.003
 3508TIP3    H210531   1.558   5.114   5.058
 3509TIP3   OH210532   5.205   4.769   2.541
 3509TIP3    H110533   5.236   4.744   2.454
 3509TIP3    H210534   5.126   4.820   2.525
 3510TIP3   OH210535   5.700   3.578   0.319
 3510TIP3    H110536   5.680   3.662   0.359
 3510TIP3    H210537   5.796   3.573   0.319
 3511TIP3   OH210538   0.360   3.397   2.168
 3511TIP3    H110539   0.294   3.466   2.180
 3511TIP3    H210540   0.406   3.394   2.252
 3512TIP3   OH210541   4.143   2.192   4.873
 3512TIP3    H110542   4.066   2.137   4.856
 3512TIP3    H210543   4.110   2.262   4.929
 3513TIP3   OH210544   0.566   2.276   4.882
 3513TIP3    H110545   0.480   2.287   4.839
 3513TIP3    H210546   0.626   2.326   4.827
 3514TIP3   OH210547   5.420   0.589   1.624
 3514TIP3    H110548   5.415   0.646   1.701
 3514TIP3    H210549   5.382   0.506   1.654
 3515TIP3   OH210550   1.172   2.713   5.066
 3515TIP3    H110551   1.167   2.661   5.146
 3515TIP3    H210552   1.266   2.732   5.055
 3516TIP3   OH210553   0.305   0.227   3.457
 3516TIP3    H110554   0.254   0.150   3.480
 3516TIP3    H210555   0.389   0.193   3.428
 3517TIP3   OH210556   6.106   2.326   0.773
 3517TIP3    H110557   6.011   2.324   0.786
 3517TIP3    H210558   6.123   2.254   0.711
 3518TIP3   OH210559   2.137   2.490   4.660
 3518TIP3    H110560   2.076   2.447   4.600
 3518TIP3    H210561   2.163   2.422   4.721
 3519TIP3   OH210562   3.083   2.874   1.028
 3519TIP3    H110563   3.118   2.792   1.063
 3519TIP3    H210564   3.149   2.940   1.051
 3520TIP3   OH210565   0.954   5.408   1.759
 3520TIP3    H110566   1.033   5.358   1.777
 3520TIP3    H210567   0.940   5.396   1.665
 3521TIP3   OH210568   2.352   1.373   2.591
 3521TIP3    H110569   2.338   1.440   2.524
 3521TIP3    H210570   2.275   1.380   2.648
 3522TIP3   OH210571   2.079   2.683   0.655
 3522TIP3    H110572   2.128   2.623   0.711
 3522TIP3    H210573   2.108   2.770   0.681
 3523TIP3   OH210574   5.232   1.121   0.126
 3523TIP3    H110575   5.327   1.122   0.120
 3523TIP3    H210576   5.203   1.092   0.039
 3524TIP3   OH210577   2.383   5.038   3.096
 3524TIP3    H110578   2.292   5.043   3.070
 3524TIP3    H210579   2.405   4.945   3.091
 3525TIP3   OH210580   5.834   4.237   5.071
 3525TIP3    H110581   5.918   4.284   5.077
 3525TIP3    H210582   5.782   4.273   5.142
 3526TIP3   OH210583   3.483   3.672   3.468
 3526TIP3    H110584   3.416   3.635   3.411
 3526TIP3    H210585   3.434   3.724   3.532
 3527TIP3   OH210586   2.896   2.257   3.014
 3527TIP3    H110587   2.841   2.206   2.955
 3527TIP3    H210588   2.858   2.345   3.011
 3528TIP3   OH210589   4.397   1.341   1.469
 3528TIP3    H110590   4.493   1.342   1.465
 3528TIP3    H210591   4.373   1.259   1.425
 3529TIP3   OH210592   5.723   1.343   0.689
 3529TIP3    H110593   5.739   1.437   0.682
 3529TIP3    H210594   5.727   1.326   0.784
 3530TIP3   OH210595   3.782   4.664   3.917
 3530TIP3    H110596   3.695   4.668   3.956
 3530TIP3    H210597   3.831   4.605   3.973
 3531TIP3   OH210598   4.627   2.990   1.705
 3531TIP3    H110599   4.697   3.054   1.696
 3531TIP3    H210600   4.672   2.907   1.722
 3532TIP3   OH210601   3.730   4.133   4.931
 3532TIP3    H110602   3.695   4.191   4.999
 3532TIP3    H210603   3.754   4.193   4.859
 3533TIP3   OH210604   1.840   5.597   3.144
 3533TIP3    H110605   1.760   5.643   3.170
 3533TIP3    H210606   1.910   5.647   3.186
 3534TIP3   OH210607   3.501   5.798   2.257
 3534TIP3    H110608   3.462   5.777   2.172
 3534TIP3    H210609   3.431   5.841   2.306
 3535TIP3   OH210610   3.552   4.555   1.542
 3535TIP3    H110611   3.510   4.469   1.549
 3535TIP3    H210612   3.597   4.553   1.457
 3536TIP3   OH210613   5.270   4.773   0.456
 3536TIP3    H110614   5.343   4.777   0.518
 3536TIP3    H210615   5.261   4.862   0.424
 3537TIP3   OH210616   2.775   4.546   4.464
 3537TIP3    H110617   2.710   4.537   4.534
 3537TIP3    H210618   2.785   4.640   4.453
 3538TIP3   OH210619   3.113   1.971  -0.024
 3538TIP3    H110620   3.185   2.023   0.011
 3538TIP3    H210621   3.063   1.943   0.052
 3539TIP3   OH210622   1.319   1.799   1.191
 3539TIP3    H110623   1.290   1.874   1.140
 3539TIP3    H210624   1.360   1.837   1.269
 3540TIP3   OH210625   2.079   3.275   2.882
 3540TIP3    H110626   2.167   3.280   2.917
 3540TIP3    H210627   2.081   3.330   2.804
 3541TIP3   OH210628   0.696   3.688   3.746
 3541TIP3    H110629   0.645   3.683   3.664
 3541TIP3    H210630   0.743   3.606   3.750
 3542TIP3   OH210631   5.590   5.006   3.369
 3542TIP3    H110632   5.598   5.100   3.353
 3542TIP3    H210633   5.500   4.985   3.342
 3543TIP3   OH210634   2.221   2.096   1.835
 3543TIP3    H110635   2.222   2.025   1.900
 3543TIP3    H210636   2.188   2.055   1.755
 3544TIP3   OH210637   5.260   4.884   4.000
 3544TIP3    H110638   5.171   4.885   3.965
 3544TIP3    H210639   5.304   4.956   3.955
 3545TIP3   OH210640   2.383   1.383   3.442
 3545TIP3    H110641   2.316   1.397   3.376
 3545TIP3    H210642   2.398   1.470   3.481
 3546TIP3   OH210643   5.495   0.562   1.133
 3546TIP3    H110644   5.542   0.606   1.062
 3546TIP3    H210645   5.403   0.567   1.106
 3547TIP3   OH210646   4.021   1.932   4.053
 3547TIP3    H110647   3.969   1.974   4.121
 3547TIP3    H210648   3.957   1.881   4.002
 3548TIP3   OH210649   3.209   0.369   1.382
 3548TIP3    H110650   3.168   0.289   1.415
 3548TIP3    H210651   3.172   0.381   1.295
 3549TIP3   OH210652   1.107   3.703   3.500
 3549TIP3    H110653   1.165   3.703   3.576
 3549TIP3    H210654   1.157   3.658   3.432
 3550TIP3   OH210655   1.035   0.728   3.708
 3550TIP3    H110656   1.102   0.796   3.700
 3550TIP3    H210657   1.074   0.651   3.667
 3551TIP3   OH210658   5.844   0.603   1.205
 3551TIP3    H110659   5.841   0.580   1.297
 3551TIP3    H210660   5.813   0.525   1.159
 3552TIP3   OH210661   0.682   1.091   3.771
 3552TIP3    H110662   0.700   1.015   3.826
 3552TIP3    H210663   0.764   1.108   3.726
 3553TIP3   OH210664   3.005   3.506   2.984
 3553TIP3    H110665   2.913   3.530   2.978
 3553TIP3    H210666   3.046   3.579   3.030
 3554TIP3   OH210667   4.773   3.604   4.938
 3554TIP3    H110668   4.724   3.578   5.016
 3554TIP3    H210669   4.785   3.699   4.948
 3555TIP3   OH210670   5.446   3.503   0.327
 3555TIP3    H110671   5.526   3.529   0.283
 3555TIP3    H210672   5.458   3.410   0.346
 3556TIP3   OH210673   0.097   5.679   4.937
 3556TIP3    H110674   0.068   5.752   4.883
 3556TIP3    H210675   0.016   5.632   4.960
 3557TIP3   OH210676   1.610   5.545   1.678
 3557TIP3    H110677   1.604   5.588   1.592
 3557TIP3    H210678   1.613   5.452   1.658
 3558TIP3   OH210679   3.428   3.687   4.408
 3558TIP3    H110680   3.446   3.714   4.318
 3558TIP3    H210681   3.453   3.762   4.461
 3559TIP3   OH210682   4.665   4.633   0.181
 3559TIP3    H110683   4.746   4.602   0.142
 3559TIP3    H210684   4.632   4.700   0.121
 3560TIP3   OH210685   3.709   1.850   4.852
 3560TIP3    H110686   3.707   1.755   4.869
 3560TIP3    H210687   3.636   1.865   4.792
 3561TIP3   OH210688   4.156   4.371   0.730
 3561TIP3    H110689   4.125   4.320   0.655
 3561TIP3    H210690   4.244   4.339   0.747
 3562TIP3   OH210691   1.094   0.160   2.450
 3562TIP3    H110692   1.117   0.165   2.357
 3562TIP3    H210693   1.094   0.067   2.470
 3563TIP3   OH210694   4.171   0.264   1.749
 3563TIP3    H110695   4.246   0.214   1.782
 3563TIP3    H210696   4.193   0.355   1.767
 3564TIP3   OH210697   6.172   0.605   1.417
 3564TIP3    H110698   6.208   0.566   1.497
 3564TIP3    H210699   6.163   0.698   1.438
 3565TIP3   OH210700   1.991   1.845   4.786
 3565TIP3    H110701   1.961   1.780   4.849
 3565TIP3    H210702   2.069   1.807   4.747
 3566TIP3   OH210703   6.132   3.921   2.325
 3566TIP3    H110704   6.140   3.856   2.255
 3566TIP3    H210705   6.178   3.882   2.399
 3567TIP3   OH210706   4.399   3.696   4.355
 3567TIP3    H110707   4.331   3.659   4.299
 3567TIP3    H210708   4.478   3.649   4.331
 3568TIP3   OH210709   4.463   2.021   4.459
 3568TIP3    H110710   4.515   2.087   4.505
 3568TIP3    H210711   4.479   1.940   4.506
 3569TIP3   OH210712   1.066   2.950   1.219
 3569TIP3    H110713   1.145   2.910   1.183
 3569TIP3    H210714   1.055   3.031   1.168
 3570TIP3   OH210715   4.231   3.908   2.146
 3570TIP3    H110716   4.251   3.994   2.110
 3570TIP3    H210717   4.252   3.846   2.076
 3571TIP3   OH210718   2.051   5.274   0.242
 3571TIP3    H110719   2.010   5.211   0.182
 3571TIP3    H210720   2.130   5.230   0.274
 3572TIP3   OH210721   2.177   1.920   3.434
 3572TIP3    H110722   2.097   1.875   3.409
 3572TIP3    H210723   2.205   1.967   3.355
 3573TIP3   OH210724   5.833   5.820   1.944
 3573TIP3    H110725   5.863   5.752   1.884
 3573TIP3    H210726   5.743   5.838   1.917
 3574TIP3   OH210727   1.280   4.412   2.029
 3574TIP3    H110728   1.362   4.371   2.056
 3574TIP3    H210729   1.244   4.448   2.111
 3575TIP3   OH210730   2.819   0.502   4.628
 3575TIP3    H110731   2.866   0.580   4.660
 3575TIP3    H210732   2.869   0.428   4.663
 3576TIP3   OH210733   1.441   2.711   4.910
 3576TIP3    H110734   1.502   2.725   4.983
 3576TIP3    H210735   1.468   2.628   4.871
 3577TIP3   OH210736   1.332   2.946   1.407
 3577TIP3    H110737   1.314   2.918   1.317
 3577TIP3    H210738   1.263   3.009   1.427
 3578TIP3   OH210739   1.839   1.007   1.687
 3578TIP3    H110740   1.895   0.990   1.763
 3578TIP3    H210741   1.883   0.961   1.615
 3579TIP3   OH210742   2.974   5.235   2.546
 3579TIP3    H110743   2.902   5.250   2.485
 3579TIP3    H210744   2.993   5.141   2.538
 3580TIP3   OH210745   4.687   1.652   3.361
 3580TIP3    H110746   4.625   1.580   3.375
 3580TIP3    H210747   4.729   1.630   3.277
 3581TIP3   OH210748   0.007   1.830   2.449
 3581TIP3    H110749   0.085   1.807   2.500
 3581TIP3    H210750  -0.007   1.923   2.467
 3582TIP3   OH210751   1.983   0.878   1.480
 3582TIP3    H110752   1.995   0.786   1.504
 3582TIP3    H210753   1.906   0.879   1.424
 3583TIP3   OH210754   5.278   1.573   4.699
 3583TIP3    H110755   5.240   1.661   4.694
 3583TIP3    H210756   5.328   1.574   4.781
 3584TIP3   OH210757   1.715   2.498   3.078
 3584TIP3    H110758   1.792   2.457   3.116
 3584TIP3    H210759   1.644   2.481   3.140
 3585TIP3   OH210760   4.764   1.947   4.631
 3585TIP3    H110761   4.733   1.879   4.571
 3585TIP3    H210762   4.791   2.019   4.574
 3586TIP3   OH210763   1.762   0.981   1.370
 3586TIP3    H110764   1.769   0.959   1.277
 3586TIP3    H210765   1.667   0.982   1.387
 3587TIP3   OH210766   0.837   3.150   0.272
 3587TIP3    H110767   0.817   3.242   0.256
 3587TIP3    H210768   0.773   3.122   0.337
 3588TIP3   OH210769   4.276   4.318   3.160
 3588TIP3    H110770   4.232   4.244   3.201
 3588TIP3    H210771   4.309   4.370   3.233
 3589TIP3   OH210772   5.002   0.749   3.797
 3589TIP3    H110773   4.923   0.704   3.765
 3589TIP3    H210774   5.066   0.679   3.809
 3590TIP3   OH210775   1.802   4.110   4.778
 3590TIP3    H110776   1.878   4.053   4.764
 3590TIP3    H210777   1.736   4.077   4.716
 3591TIP3   OH210778   5.039   1.089   5.123
 3591TIP3    H110779   5.105   1.070   5.055
 3591TIP3    H210780   5.030   1.184   5.121
 3592TIP3   OH210781   0.082   1.835   3.191
 3592TIP3    H110782   0.072   1.809   3.099
 3592TIP3    H210783   0.069   1.754   3.240
 3593TIP3   OH210784   2.776   2.381   4.647
 3593TIP3    H110785   2.730   2.417   4.723
 3593TIP3    H210786   2.836   2.316   4.683
 3594TIP3   OH210787   4.905   0.373   3.602
 3594TIP3    H110788   4.970   0.368   3.532
 3594TIP3    H210789   4.947   0.427   3.670
 3595TIP3   OH210790   4.393   2.878   2.323
 3595TIP3    H110791   4.322   2.904   2.382
 3595TIP3    H210792   4.448   2.821   2.375
 3596TIP3   OH210793   3.536   2.223   1.536
 3596TIP3    H110794   3.465   2.281   1.564
 3596TIP3    H210795   3.496   2.135   1.536
 3597TIP3   OH210796   5.597   1.550   3.591
 3597TIP3    H110797   5.582   1.541   3.497
 3597TIP3    H210798   5.573   1.640   3.611
 3598TIP3   OH210799   5.455   3.986   4.165
 3598TIP3    H110800   5.366   3.987   4.200
 3598TIP3    H210801   5.477   3.893   4.160
 3599TIP3   OH210802   0.974   3.260   4.670
 3599TIP3    H110803   0.939   3.346   4.695
 3599TIP3    H210804   0.949   3.203   4.743
 3600TIP3   OH210805   5.535   5.579   2.343
 3600TIP3    H110806   5.450   5.538   2.327
 3600TIP3    H210807   5.555   5.560   2.434
 3601TIP3   OH210808   5.383   0.535   0.089
 3601TIP3    H110809   5.400   0.625   0.115
 3601TIP3    H210810   5.453   0.515   0.027
 3602TIP3   OH210811   2.566   5.295   1.571
 3602TIP3    H110812   2.562   5.384   1.536
 3602TIP3    H210813   2.571   5.239   1.493
 3603TIP3   OH210814   2.321   5.629   4.331
 3603TIP3    H110815   2.361   5.549   4.365
 3603TIP3    H210816   2.255   5.597   4.268
 3604TIP3   OH210817   3.956   1.808   1.379
 3604TIP3    H110818   3.864   1.792   1.403
 3604TIP3    H210819   4.003   1.731   1.413
 3605TIP3   OH210820   2.517   1.765   3.278
 3605TIP3    H110821   2.421   1.773   3.280
 3605TIP3    H210822   2.547   1.825   3.347
 3606TIP3   OH210823   3.910   2.055   4.831
 3606TIP3    H110824   3.860   2.127   4.793
 3606TIP3    H210825   3.849   1.982   4.835
 3607TIP3   OH210826   4.824   4.613   0.820
 3607TIP3    H110827   4.744   4.664   0.832
 3607TIP3    H210828   4.856   4.639   0.733
 3608TIP3   OH210829   5.990   5.103   5.122
 3608TIP3    H110830   5.948   5.096   5.037
 3608TIP3    H210831   5.959   5.186   5.159
 3609TIP3   OH210832   2.787   4.048   1.708
 3609TIP3    H110833   2.861   4.096   1.674
 3609TIP3    H210834   2.767   4.090   1.792
 3610TIP3   OH210835   0.861   5.413   5.175
 3610TIP3    H110836   0.872   5.483   5.111
 3610TIP3    H210837   0.899   5.336   5.134
 3611TIP3   OH210838   0.229   4.351   0.175
 3611TIP3    H110839   0.290   4.295   0.127
 3611TIP3    H210840   0.267   4.358   0.263
 3612TIP3   OH210841   4.542   5.771   0.580
 3612TIP3    H110842   4.458   5.745   0.619
 3612TIP3    H210843   4.518   5.816   0.499
 3613TIP3   OH210844   5.346   1.705   0.960
 3613TIP3    H110845   5.317   1.782   1.009
 3613TIP3    H210846   5.389   1.650   1.025
 3614TIP3   OH210847   4.330   3.692   1.648
 3614TIP3    H110848   4.424   3.679   1.631
 3614TIP3    H210849   4.292   3.605   1.639
 3615TIP3   OH210850   2.873   4.833   3.664
 3615TIP3    H110851   2.908   4.913   3.703
 3615TIP3    H210852   2.781   4.833   3.689
 3616TIP3   OH210853   5.316   2.967   2.038
 3616TIP3    H110854   5.245   2.912   2.005
 3616TIP3    H210855   5.395   2.932   1.996
 3617TIP3   OH210856   4.044   0.350   0.454
 3617TIP3    H110857   3.986   0.300   0.397
 3617TIP3    H210858   4.132   0.326   0.425
 3618TIP3   OH210859   5.891   3.758   3.897
 3618TIP3    H110860   5.831   3.831   3.879
 3618TIP3    H210861   5.889   3.706   3.817
 3619TIP3   OH210862   4.678   1.890   0.831
 3619TIP3    H110863   4.626   1.905   0.752
 3619TIP3    H210864   4.633   1.940   0.899
 3620TIP3   OH210865   1.947   2.494   0.986
 3620TIP3    H110866   1.993   2.480   1.069
 3620TIP3    H210867   2.016   2.522   0.925
 3621TIP3   OH210868   1.001   4.676   2.352
 3621TIP3    H110869   1.005   4.761   2.395
 3621TIP3    H210870   0.919   4.637   2.381
 3622TIP3   OH210871   4.822   5.181   1.714
 3622TIP3    H110872   4.813   5.137   1.798
 3622TIP3    H210873   4.732   5.193   1.683
 3623TIP3   OH210874   5.101   0.485   3.790
 3623TIP3    H110875   5.070   0.405   3.833
 3623TIP3    H210876   5.196   0.483   3.803
 3624TIP3   OH210877   5.429   1.980   0.516
 3624TIP3    H110878   5.388   1.933   0.444
 3624TIP3    H210879   5.364   2.045   0.543
 3625TIP3   OH210880   0.074   5.085   1.249
 3625TIP3    H110881   0.029   5.026   1.188
 3625TIP3    H210882   0.087   5.032   1.328
 3626TIP3   OH210883   2.189   4.785   4.781
 3626TIP3    H110884   2.114   4.821   4.828
 3626TIP3    H210885   2.240   4.739   4.848
 3627TIP3   OH210886   4.909   3.302   5.160
 3627TIP3    H110887   4.969   3.241   5.117
 3627TIP3    H210888   4.844   3.247   5.203
 3628TIP3   OH210889   3.519   5.555   3.767
 3628TIP3    H110890   3.520   5.504   3.686
 3628TIP3    H210891   3.429   5.584   3.776
 3629TIP3   OH210892   2.184   2.677   0.033
 3629TIP3    H110893   2.227   2.592   0.043
 3629TIP3    H210894   2.175   2.688  -0.062
 3630TIP3   OH210895   0.712   1.099   3.368
 3630TIP3    H110896   0.667   1.016   3.387
 3630TIP3    H210897   0.643   1.155   3.330
 3631TIP3   OH210898   0.695   2.427   2.983
 3631TIP3    H110899   0.672   2.358   2.921
 3631TIP3    H210900   0.615   2.479   2.991
 3632TIP3   OH210901   6.042   4.014   0.102
 3632TIP3    H110902   5.968   3.955   0.115
 3632TIP3    H210903   6.107   3.986   0.166
 3633TIP3   OH210904   3.362   2.457   0.630
 3633TIP3    H110905   3.304   2.501   0.567
 3633TIP3    H210906   3.324   2.478   0.715
 3634TIP3   OH210907   5.539   2.860   4.372
 3634TIP3    H110908   5.627   2.829   4.352
 3634TIP3    H210909   5.535   2.862   4.468
 3635TIP3   OH210910   2.190   5.927   3.952
 3635TIP3    H110911   2.135   5.943   4.028
 3635TIP3    H210912   2.194   5.831   3.945
 3636TIP3   OH210913   2.405   2.005   0.292
 3636TIP3    H110914   2.374   1.931   0.240
 3636TIP3    H210915   2.495   1.983   0.314
 3637TIP3   OH210916   4.380   4.225   0.796
 3637TIP3    H110917   4.424   4.145   0.826
 3637TIP3    H210918   4.450   4.278   0.759
 3638TIP3   OH210919   0.232   4.951   2.270
 3638TIP3    H110920   0.257   4.911   2.353
 3638TIP3    H210921   0.138   4.964   2.277
 3639TIP3   OH210922   0.999   2.841   4.880
 3639TIP3    H110923   1.077   2.860   4.827
 3639TIP3    H210924   1.031   2.781   4.948
 3640TIP3   OH210925   4.439   0.975   4.399
 3640TIP3    H110926   4.513   1.036   4.396
 3640TIP3    H210927   4.416   0.961   4.307
 3641TIP3   OH210928   1.918   2.618   2.288
 3641TIP3    H110929   1.846   2.643   2.230
 3641TIP3    H210930   1.909   2.523   2.297
 3642TIP3   OH210931   0.363   5.312   0.924
 3642TIP3    H110932   0.369   5.308   1.020
 3642TIP3    H210933   0.322   5.230   0.899
 3643TIP3   OH210934   1.459   0.451   0.539
 3643TIP3    H110935   1.423   0.415   0.620
 3643TIP3    H210936   1.388   0.445   0.475
 3644TIP3   OH210937   0.838   3.989   3.060
 3644TIP3    H110938   0.822   3.920   3.125
 3644TIP3    H210939   0.772   3.974   2.993
 3645TIP3   OH210940   1.932   3.040   0.481
 3645TIP3    H110941   1.916   3.030   0.387
 3645TIP3    H210942   2.008   3.098   0.487
 3646TIP3   OH210943   2.866   2.128   1.369
 3646TIP3    H110944   2.953   2.161   1.391
 3646TIP3    H210945   2.810   2.155   1.442
 3647TIP3   OH210946   5.938   2.137   1.024
 3647TIP3    H110947   5.852   2.117   1.061
 3647TIP3    H210948   5.919   2.180   0.941
 3648TIP3   OH210949   5.251   1.746   3.925
 3648TIP3    H110950   5.228   1.654   3.937
 3648TIP3    H210951   5.243   1.760   3.830
 3649TIP3   OH210952   0.859   1.029   1.312
 3649TIP3    H110953   0.859   1.101   1.249
 3649TIP3    H210954   0.767   1.001   1.317
 3650TIP3   OH210955   2.234   4.856   0.778
 3650TIP3    H110956   2.243   4.786   0.843
 3650TIP3    H210957   2.239   4.812   0.694
 3651TIP3   OH210958   5.542   0.719   1.412
 3651TIP3    H110959   5.576   0.646   1.360
 3651TIP3    H210960   5.519   0.680   1.496
 3652TIP3   OH210961   0.579   0.460   3.120
 3652TIP3    H110962   0.533   0.392   3.070
 3652TIP3    H210963   0.569   0.540   3.068
 3653TIP3   OH210964   5.249   3.811   0.754
 3653TIP3    H110965   5.331   3.818   0.706
 3653TIP3    H210966   5.213   3.899   0.753
 3654TIP3   OH210967   2.903   5.423   2.902
 3654TIP3    H110968   2.980   5.398   2.851
 3654TIP3    H210969   2.931   5.418   2.993
 3655TIP3   OH210970   4.367   5.669   4.695
 3655TIP3    H110971   4.285   5.707   4.662
 3655TIP3    H210972   4.408   5.630   4.618
 3656TIP3   OH210973   5.666   4.884   5.142
 3656TIP3    H110974   5.698   4.948   5.080
 3656TIP3    H210975   5.620   4.935   5.209
 3657TIP3   OH210976   0.357   2.601   2.885
 3657TIP3    H110977   0.291   2.547   2.928
 3657TIP3    H210978   0.322   2.616   2.797
 3658TIP3   OH210979   1.555   2.316   3.965
 3658TIP3    H110980   1.648   2.295   3.952
 3658TIP3    H210981   1.534   2.278   4.050
 3659TIP3   OH210982   2.123   0.788   0.244
 3659TIP3    H110983   2.051   0.851   0.240
 3659TIP3    H210984   2.103   0.735   0.321
 3660TIP3   OH210985   5.603   5.093   1.232
 3660TIP3    H110986   5.550   5.093   1.152
 3660TIP3    H210987   5.694   5.094   1.202
 3661TIP3   OH210988   0.194   1.142   2.961
 3661TIP3    H110989   0.126   1.119   3.024
 3661TIP3    H210990   0.201   1.065   2.904
 3662TIP3   OH210991   5.153   4.256   4.604
 3662TIP3    H110992   5.129   4.165   4.619
 3662TIP3    H210993   5.144   4.298   4.690
 3663TIP3   OH210994   4.832   3.634   4.177
 3663TIP3    H110995   4.765   3.657   4.242
 3663TIP3    H210996   4.804   3.678   4.097
 3664TIP3   OH210997   1.774   3.670   2.621
 3664TIP3    H110998   1.746   3.756   2.589
 3664TIP3    H210999   1.793   3.684   2.714
 3665TIP3   OH211000   0.463   0.374   0.434
 3665TIP3    H111001   0.505   0.441   0.488
 3665TIP3    H211002   0.520   0.366   0.357
 3666TIP3   OH211003   2.661   5.950   2.187
 3666TIP3    H111004   2.726   5.936   2.119
 3666TIP3    H211005   2.706   5.928   2.269
 3667TIP3   OH211006   3.292   2.070   3.387
 3667TIP3    H111007   3.297   1.976   3.367
 3667TIP3    H211008   3.343   2.112   3.318
 3668TIP3   OH211009   0.801   3.144   1.633
 3668TIP3    H111010   0.819   3.051   1.626
 3668TIP3    H211011   0.791   3.174   1.543
 3669TIP3   OH211012   4.640   4.278   1.350
 3669TIP3    H111013   4.564   4.327   1.383
 3669TIP3    H211014   4.635   4.286   1.255
 3670TIP3   OH211015   2.411   2.699   0.504
 3670TIP3    H111016   2.492   2.742   0.534
 3670TIP3    H211017   2.415   2.612   0.542
 3671TIP3   OH211018   1.342   5.198   3.640
 3671TIP3    H111019   1.266   5.253   3.622
 3671TIP3    H211020   1.381   5.181   3.554
 3672TIP3   OH211021   0.232   2.059   4.843
 3672TIP3    H111022   0.327   2.050   4.836
 3672TIP3    H211023   0.204   2.083   4.754
 3673TIP3   OH211024   4.754   0.731   1.808
 3673TIP3    H111025   4.786   0.688   1.730
 3673TIP3    H211026   4.717   0.661   1.862
 3674TIP3   OH211027   4.980   0.574   2.041
 3674TIP3    H111028   5.049   0.615   1.989
 3674TIP3    H211029   4.954   0.642   2.103
 3675TIP3   OH211030   0.715   2.088   0.306
 3675TIP3    H111031   0.735   1.998   0.279
 3675TIP3    H211032   0.781   2.108   0.372
 3676TIP3   OH211033   2.966   0.270   2.707
 3676TIP3    H111034   2.899   0.206   2.683
 3676TIP3    H211035   2.931   0.354   2.679
 3677TIP3   OH211036   4.428   3.485   5.083
 3677TIP3    H111037   4.361   3.477   5.151
 3677TIP3    H211038   4.479   3.561   5.108
 3678TIP3   OH211039   0.796   5.456   0.023
 3678TIP3    H111040   0.857   5.405  -0.031
 3678TIP3    H211041   0.847   5.530   0.054
 3679TIP3   OH211042   0.186   1.052   4.634
 3679TIP3    H111043   0.271   1.082   4.665
 3679TIP3    H211044   0.178   0.963   4.670
 3680TIP3   OH211045   2.277   4.408   0.364
 3680TIP3    H111046   2.272   4.496   0.325
 3680TIP3    H211047   2.322   4.356   0.297
 3681TIP3   OH211048   0.649   1.786   2.024
 3681TIP3    H111049   0.683   1.835   1.949
 3681TIP3    H211050   0.554   1.791   2.014
 3682TIP3   OH211051   4.009   1.718   2.682
 3682TIP3    H111052   4.075   1.658   2.717
 3682TIP3    H211053   3.962   1.750   2.760
 3683TIP3   OH211054   5.933   0.266   1.217
 3683TIP3    H111055   5.901   0.302   1.135
 3683TIP3    H211056   5.883   0.185   1.230
 3684TIP3   OH211057   2.904   3.066   4.839
 3684TIP3    H111058   2.951   3.044   4.919
 3684TIP3    H211059   2.836   3.127   4.866
 3685TIP3   OH211060   0.815   0.317   3.014
 3685TIP3    H111061   0.772   0.286   2.934
 3685TIP3    H211062   0.744   0.355   3.065
 3686TIP3   OH211063   2.305   3.057   3.063
 3686TIP3    H111064   2.250   3.118   3.113
 3686TIP3    H211065   2.253   2.977   3.057
 3687TIP3   OH211066   4.948   1.273   2.249
 3687TIP3    H111067   4.907   1.318   2.176
 3687TIP3    H211068   4.926   1.326   2.326
 3688TIP3   OH211069   2.829   5.892   2.663
 3688TIP3    H111070   2.753   5.835   2.657
 3688TIP3    H211071   2.813   5.946   2.740
 3689TIP3   OH211072   3.933   5.940   5.146
 3689TIP3    H111073   4.003   5.930   5.082
 3689TIP3    H211074   3.867   5.994   5.102
 3690TIP3   OH211075   1.856   3.184   2.391
 3690TIP3    H111076   1.842   3.254   2.455
 3690TIP3    H211077   1.897   3.228   2.317
 3691TIP3   OH211078   6.172   1.210   1.106
 3691TIP3    H111079   6.151   1.201   1.013
 3691TIP3    H211080   6.109   1.275   1.138
 3692TIP3   OH211081   4.339   5.258   3.143
 3692TIP3    H111082   4.349   5.281   3.051
 3692TIP3    H211083   4.245   5.266   3.160
 3693TIP3   OH211084   0.209   4.667   2.169
 3693TIP3    H111085   0.290   4.632   2.206
 3693TIP3    H211086   0.237   4.715   2.091
 3694TIP3   OH211087   5.819   3.241   3.950
 3694TIP3    H111088   5.848   3.314   4.004
 3694TIP3    H211089   5.740   3.209   3.993
 3695TIP3   OH211090   0.991   3.585   3.157
 3695TIP3    H111091   0.947   3.510   3.197
 3695TIP3    H211092   0.950   3.662   3.196
 3696TIP3   OH211093   5.927   5.843   3.460
 3696TIP3    H111094   5.943   5.748   3.462
 3696TIP3    H211095   5.840   5.852   3.422
 3697TIP3   OH211096   4.686   2.733   2.435
 3697TIP3    H111097   4.686   2.665   2.503
 3697TIP3    H211098   4.712   2.687   2.355
 3698TIP3   OH211099   6.300   5.808   3.260
 3698TIP3    H111100   6.370   5.742   3.258
 3698TIP3    H211101   6.245   5.787   3.184
 3699TIP3   OH211102   2.190   5.567   2.211
 3699TIP3    H111103   2.132   5.577   2.135
 3699TIP3    H211104   2.148   5.498   2.263
 3700TIP3   OH211105   4.119   0.797   0.619
 3700TIP3    H111106   4.110   0.888   0.591
 3700TIP3    H211107   4.113   0.746   0.538
 3701TIP3   OH211108   1.481   0.807   2.959
 3701TIP3    H111109   1.549   0.865   2.924
 3701TIP3    H211110   1.405   0.824   2.903
 3702TIP3   OH211111   5.572   3.876   1.643
 3702TIP3    H111112   5.477   3.878   1.640
 3702TIP3    H211113   5.594   3.786   1.667
 3703TIP3   OH211114   2.573   5.379   0.216
 3703TIP3    H111115   2.596   5.377   0.123
 3703TIP3    H211116   2.585   5.289   0.245
 3704TIP3   OH211117   3.300   4.561   3.687
 3704TIP3    H111118   3.307   4.490   3.623
 3704TIP3    H211119   3.380   4.611   3.675
 3705TIP3   OH211120   0.685   0.586   4.856
 3705TIP3    H111121   0.778   0.563   4.855
 3705TIP3    H211122   0.682   0.677   4.827
 3706TIP3   OH211123   0.647   5.196   3.289
 3706TIP3    H111124   0.710   5.125   3.284
 3706TIP3    H211125   0.584   5.168   3.355
 3707TIP3   OH211126   4.438   1.897   0.320
 3707TIP3    H111127   4.447   1.990   0.339
 3707TIP3    H211128   4.513   1.876   0.265
 3708TIP3   OH211129   3.512   4.351   5.003
 3708TIP3    H111130   3.545   4.374   5.090
 3708TIP3    H211131   3.510   4.434   4.956
 3709TIP3   OH211132   2.854   4.505   5.073
 3709TIP3    H111133   2.936   4.551   5.086
 3709TIP3    H211134   2.874   4.439   5.007
 3710TIP3   OH211135   3.002   4.612   1.788
 3710TIP3    H111136   2.962   4.695   1.818
 3710TIP3    H211137   2.988   4.611   1.694
 3711TIP3   OH211138   2.349   4.505   4.240
 3711TIP3    H111139   2.260   4.470   4.239
 3711TIP3    H211140   2.405   4.430   4.222
 3712TIP3   OH211141   0.324   0.666   2.163
 3712TIP3    H111142   0.346   0.589   2.214
 3712TIP3    H211143   0.256   0.710   2.214
 3713TIP3   OH211144   0.775   5.977   0.506
 3713TIP3    H111145   0.822   5.906   0.549
 3713TIP3    H211146   0.807   5.976   0.416
 3714TIP3   OH211147   3.256   4.247   3.262
 3714TIP3    H111148   3.209   4.329   3.251
 3714TIP3    H211149   3.187   4.180   3.261
 3715TIP3   OH211150   0.631   4.722   3.259
 3715TIP3    H111151   0.685   4.759   3.329
 3715TIP3    H211152   0.557   4.681   3.304
 3716TIP3   OH211153   3.350   1.276   4.153
 3716TIP3    H111154   3.322   1.295   4.242
 3716TIP3    H211155   3.375   1.183   4.154
 3717TIP3   OH211156   2.682   0.237   0.435
 3717TIP3    H111157   2.778   0.241   0.426
 3717TIP3    H211158   2.651   0.205   0.350
 3718TIP3   OH211159   4.942   1.925   2.655
 3718TIP3    H111160   4.987   1.915   2.572
 3718TIP3    H211161   5.008   1.905   2.721
 3719TIP3   OH211162   5.036   2.131   2.950
 3719TIP3    H111163   5.074   2.051   2.917
 3719TIP3    H211164   5.102   2.199   2.934
 3720TIP3   OH211165   3.017   5.470   3.163
 3720TIP3    H111166   2.974   5.401   3.213
 3720TIP3    H211167   3.028   5.542   3.226
 3721TIP3   OH211168   5.113   5.956   1.702
 3721TIP3    H111169   5.197   6.001   1.698
 3721TIP3    H211170   5.128   5.881   1.759
 3722TIP3   OH211171   1.892   3.169   1.772
 3722TIP3    H111172   1.820   3.118   1.809
 3722TIP3    H211173   1.861   3.260   1.777
 3723TIP3   OH211174   2.570   0.404   4.650
 3723TIP3    H111175   2.654   0.451   4.646
 3723TIP3    H211176   2.540   0.415   4.741
 3724TIP3   OH211177   5.767   1.839   0.290
 3724TIP3    H111178   5.786   1.750   0.259
 3724TIP3    H211179   5.709   1.826   0.365
 3725TIP3   OH211180   5.016   1.361   0.768
 3725TIP3    H111181   5.016   1.360   0.673
 3725TIP3    H211182   4.932   1.323   0.794
 3726TIP3   OH211183   5.387   5.851   1.558
 3726TIP3    H111184   5.388   5.767   1.512
 3726TIP3    H211185   5.359   5.829   1.647
 3727TIP3   OH211186   5.730   3.585   2.860
 3727TIP3    H111187   5.744   3.667   2.907
 3727TIP3    H211188   5.719   3.612   2.769
 3728TIP3   OH211189   5.270   2.307   2.563
 3728TIP3    H111190   5.234   2.395   2.558
 3728TIP3    H211191   5.213   2.254   2.507
 3729TIP3   OH211192   4.127   3.093   0.673
 3729TIP3    H111193   4.171   3.175   0.694
 3729TIP3    H211194   4.133   3.041   0.752
 3730TIP3   OH211195   3.978   0.170   4.563
 3730TIP3    H111196   3.971   0.265   4.574
 3730TIP3    H211197   3.931   0.151   4.481
 3731TIP3   OH211198   2.246   5.041   4.541
 3731TIP3    H111199   2.313   4.990   4.588
 3731TIP3    H211200   2.198   5.086   4.610
 3732TIP3   OH211201   1.092   0.779   1.319
 3732TIP3    H111202   1.032   0.810   1.386
 3732TIP3    H211203   1.138   0.705   1.360
 3733TIP3   OH211204   3.965   3.731   1.668
 3733TIP3    H111205   4.050   3.716   1.710
 3733TIP3    H211206   3.944   3.646   1.628
 3734TIP3   OH211207   4.881   4.583   1.298
 3734TIP3    H111208   4.849   4.550   1.214
 3734TIP3    H211209   4.924   4.508   1.339
 3735TIP3   OH211210   1.940   2.684   1.505
 3735TIP3    H111211   1.977   2.760   1.549
 3735TIP3    H211212   1.862   2.662   1.556
 3736TIP3   OH211213   6.193   5.683   5.024
 3736TIP3    H111214   6.105   5.647   5.036
 3736TIP3    H211215   6.182   5.777   5.040
 3737TIP3   OH211216   3.957   1.079   0.254
 3737TIP3    H111217   3.976   1.078   0.161
 3737TIP3    H211218   3.861   1.084   0.258
 3738TIP3   OH211219   3.866   4.973   0.533
 3738TIP3    H111220   3.885   4.880   0.516
 3738TIP3    H211221   3.800   4.971   0.603
 3739TIP3   OH211222   4.390   1.624   4.965
 3739TIP3    H111223   4.427   1.617   5.053
 3739TIP3    H211224   4.296   1.633   4.979
 3740TIP3   OH211225   4.008   1.523   3.201
 3740TIP3    H111226   3.968   1.539   3.287
 3740TIP3    H211227   4.101   1.542   3.215
 3741TIP3   OH211228   5.189   4.641   3.417
 3741TIP3    H111229   5.235   4.724   3.409
 3741TIP3    H211230   5.207   4.595   3.335
 3742TIP3   OH211231   2.964   2.766   0.119
 3742TIP3    H111232   2.977   2.700   0.187
 3742TIP3    H211233   3.016   2.735   0.045
 3743TIP3   OH211234   5.482   2.127   3.553
 3743TIP3    H111235   5.447   2.210   3.586
 3743TIP3    H211236   5.562   2.152   3.506
 3744TIP3   OH211237   0.967   2.445   3.986
 3744TIP3    H111238   1.045   2.491   4.017
 3744TIP3    H211239   0.946   2.383   4.056
 3745TIP3   OH211240   4.913   4.520   4.078
 3745TIP3    H111241   4.995   4.559   4.106
 3745TIP3    H211242   4.928   4.494   3.987
 3746TIP3   OH211243   3.738   1.796   4.196
 3746TIP3    H111244   3.725   1.715   4.244
 3746TIP3    H211245   3.684   1.861   4.242
 3747TIP3   OH211246   2.620   3.043   1.607
 3747TIP3    H111247   2.599   2.951   1.597
 3747TIP3    H211248   2.540   3.083   1.641
 3748TIP3   OH211249   0.323   2.375   3.221
 3748TIP3    H111250   0.308   2.369   3.126
 3748TIP3    H211251   0.357   2.464   3.234
 3749TIP3   OH211252   1.395   0.922   0.021
 3749TIP3    H111253   1.452   0.942   0.096
 3749TIP3    H211254   1.440   0.852  -0.025
 3750TIP3   OH211255   5.126   1.929   0.107
 3750TIP3    H111256   5.036   1.956   0.086
 3750TIP3    H211257   5.144   1.857   0.046
 3751TIP3   OH211258   1.146   2.827   2.869
 3751TIP3    H111259   1.099   2.769   2.810
 3751TIP3    H211260   1.239   2.805   2.856
 3752TIP3   OH211261   0.892   4.229   3.167
 3752TIP3    H111262   0.930   4.283   3.099
 3752TIP3    H211263   0.868   4.148   3.123
 3753TIP3   OH211264   3.417   0.271   0.207
 3753TIP3    H111265   3.467   0.293   0.129
 3753TIP3    H211266   3.393   0.179   0.195
 3754TIP3   OH211267   2.893   3.446   3.520
 3754TIP3    H111268   2.977   3.490   3.532
 3754TIP3    H211269   2.889   3.426   3.427
 3755TIP3   OH211270   4.224   1.346   3.339
 3755TIP3    H111271   4.176   1.398   3.403
 3755TIP3    H211272   4.281   1.291   3.392
 3756TIP3   OH211273   1.041   4.704   2.075
 3756TIP3    H111274   0.960   4.687   2.026
 3756TIP3    H211275   1.016   4.698   2.167
 3757TIP3   OH211276   6.212   3.731   1.286
 3757TIP3    H111277   6.179   3.692   1.205
 3757TIP3    H211278   6.214   3.825   1.268
 3758TIP3   OH211279   5.502   2.885   1.188
 3758TIP3    H111280   5.499   2.804   1.137
 3758TIP3    H211281   5.460   2.863   1.271
 3759TIP3   OH211282   5.103   0.940   3.117
 3759TIP3    H111283   5.056   0.943   3.200
 3759TIP3    H211284   5.182   0.992   3.133
 3760TIP3   OH211285   1.031   2.017   3.700
 3760TIP3    H111286   1.008   2.109   3.691
 3760TIP3    H211287   0.978   1.985   3.773
 3761TIP3   OH211288   6.202   4.008   2.014
 3761TIP3    H111289   6.208   3.918   2.045
 3761TIP3    H211290   6.284   4.049   2.043
 3762TIP3   OH211291   2.951   0.428   4.384
 3762TIP3    H111292   2.864   0.406   4.350
 3762TIP3    H211293   2.947   0.405   4.477
 3763TIP3   OH211294   4.409  -0.033   3.526
 3763TIP3    H111295   4.366   0.006   3.602
 3763TIP3    H211296   4.405   0.036   3.459
 3764TIP3   OH211297   1.599   0.158   4.711
 3764TIP3    H111298   1.557   0.225   4.656
 3764TIP3    H211299   1.561   0.076   4.682
 3765TIP3   OH211300   4.284   5.619   1.924
 3765TIP3    H111301   4.267   5.535   1.966
 3765TIP3    H211302   4.204   5.669   1.936
 3766TIP3   OH211303   4.610   1.426   4.420
 3766TIP3    H111304   4.577   1.481   4.348
 3766TIP3    H211305   4.534   1.415   4.477
 3767TIP3   OH211306   3.845   1.185   4.388
 3767TIP3    H111307   3.847   1.145   4.475
 3767TIP3    H211308   3.937   1.200   4.366
 3768TIP3   OH211309   3.776   2.689   3.595
 3768TIP3    H111310   3.813   2.768   3.555
 3768TIP3    H211311   3.745   2.718   3.680
 3769TIP3   OH211312   3.842   3.309   4.792
 3769TIP3    H111313   3.749   3.330   4.792
 3769TIP3    H211314   3.878   3.363   4.721
 3770TIP3   OH211315   0.545   3.035   2.534
 3770TIP3    H111316   0.522   3.024   2.442
 3770TIP3    H211317   0.535   3.129   2.550
 3771TIP3   OH211318   5.320   0.154   3.673
 3771TIP3    H111319   5.249   0.105   3.715
 3771TIP3    H211320   5.312   0.243   3.708
 3772TIP3   OH211321   5.491   4.037   0.981
 3772TIP3    H111322   5.544   4.086   0.917
 3772TIP3    H211323   5.408   4.022   0.936
 3773TIP3   OH211324   3.088   0.575   0.387
 3773TIP3    H111325   3.101   0.522   0.309
 3773TIP3    H211326   3.004   0.545   0.423
 3774TIP3   OH211327   0.608   2.272   2.137
 3774TIP3    H111328   0.606   2.345   2.200
 3774TIP3    H211329   0.637   2.197   2.189
 3775TIP3   OH211330   6.061   0.151   3.069
 3775TIP3    H111331   5.986   0.092   3.077
 3775TIP3    H211332   6.025   0.238   3.086
 3776TIP3   OH211333   6.285   2.265   4.398
 3776TIP3    H111334   6.234   2.260   4.317
 3776TIP3    H211335   6.226   2.234   4.466
 3777TIP3   OH211336   0.699   4.321   1.705
 3777TIP3    H111337   0.639   4.254   1.736
 3777TIP3    H211338   0.760   4.334   1.777
 3778TIP3   OH211339   3.397   2.634   3.543
 3778TIP3    H111340   3.424   2.652   3.453
 3778TIP3    H211341   3.442   2.701   3.595
 3779TIP3   OH211342   1.269   5.184   4.738
 3779TIP3    H111343   1.225   5.176   4.654
 3779TIP3    H211344   1.362   5.195   4.716
 3780TIP3   OH211345   2.784   0.055   3.778
 3780TIP3    H111346   2.765  -0.035   3.753
 3780TIP3    H211347   2.747   0.065   3.865
 3781TIP3   OH211348   0.886   4.412   3.405
 3781TIP3    H111349   0.942   4.465   3.349
 3781TIP3    H211350   0.889   4.324   3.367
 3782TIP3   OH211351   2.818   5.198   1.649
 3782TIP3    H111352   2.732   5.164   1.625
 3782TIP3    H211353   2.820   5.192   1.745
 3783TIP3   OH211354   2.484   5.473   3.015
 3783TIP3    H111355   2.475   5.393   3.067
 3783TIP3    H211356   2.548   5.450   2.947
 3784TIP3   OH211357   1.227   5.123   4.469
 3784TIP3    H111358   1.225   5.200   4.411
 3784TIP3    H211359   1.135   5.099   4.480
 3785TIP3   OH211360   1.831   4.859   3.018
 3785TIP3    H111361   1.740   4.856   2.988
 3785TIP3    H211362   1.866   4.940   2.981
 3786TIP3   OH211363   3.577   0.890   2.298
 3786TIP3    H111364   3.499   0.935   2.332
 3786TIP3    H211365   3.570   0.801   2.331
 3787TIP3   OH211366   6.228   4.016   1.273
 3787TIP3    H111367   6.182   4.072   1.335
 3787TIP3    H211368   6.173   4.016   1.195
 3788TIP3   OH211369   0.924   2.936   1.466
 3788TIP3    H111370   0.974   2.946   1.385
 3788TIP3    H211371   0.835   2.916   1.437
 3789TIP3   OH211372   4.341   4.393   3.640
 3789TIP3    H111373   4.420   4.339   3.629
 3789TIP3    H211374   4.303   4.362   3.723
 3790TIP3   OH211375   4.311   1.897   3.677
 3790TIP3    H111376   4.262   1.895   3.595
 3790TIP3    H211377   4.391   1.946   3.656
 3791TIP3   OH211378   1.897   1.316   4.810
 3791TIP3    H111379   1.909   1.221   4.817
 3791TIP3    H211380   1.965   1.344   4.749
 3792TIP3   OH211381   3.196   3.303   2.296
 3792TIP3    H111382   3.198   3.260   2.381
 3792TIP3    H211383   3.143   3.381   2.309
 3793TIP3   OH211384   0.803   3.058   0.017
 3793TIP3    H111385   0.861   3.117  -0.033
 3793TIP3    H211386   0.837   3.061   0.106
 3794TIP3   OH211387   2.990   5.226   1.452
 3794TIP3    H111388   2.914   5.234   1.509
 3794TIP3    H211389   2.973   5.147   1.400
 3795TIP3   OH211390   3.456   0.839   1.819
 3795TIP3    H111391   3.444   0.744   1.822
 3795TIP3    H211392   3.534   0.851   1.764
 3796TIP3   OH211393   2.405   1.606   0.915
 3796TIP3    H111394   2.405   1.669   0.843
 3796TIP3    H211395   2.314   1.576   0.921
 3797TIP3   OH211396   3.222   4.749   4.823
 3797TIP3    H111397   3.249   4.813   4.756
 3797TIP3    H211398   3.140   4.713   4.791
 3798TIP3   OH211399   0.609   4.315   2.165
 3798TIP3    H111400   0.651   4.252   2.223
 3798TIP3    H211401   0.559   4.372   2.224
 3799TIP3   OH211402   2.395   3.059   2.579
 3799TIP3    H111403   2.326   3.107   2.533
 3799TIP3    H211404   2.455   3.031   2.510
 3800TIP3   OH211405   6.206   4.371   3.510
 3800TIP3    H111406   6.191   4.421   3.430
 3800TIP3    H211407   6.208   4.280   3.481
 3801TIP3   OH211408   5.358   3.729   4.326
 3801TIP3    H111409   5.264   3.712   4.319
 3801TIP3    H211410   5.364   3.812   4.374
 3802TIP3   OH211411   5.837   5.070   1.102
 3802TIP3    H111412   5.909   5.084   1.163
 3802TIP3    H211413   5.844   5.142   1.039
 3803TIP3   OH211414   0.083   1.373   2.180
 3803TIP3    H111415   0.096   1.290   2.227
 3803TIP3    H211416   0.126   1.360   2.096
 3804TIP3   OH211417   4.857   5.277   5.153
 3804TIP3    H111418   4.855   5.216   5.227
 3804TIP3    H211419   4.767   5.280   5.121
 3805TIP3   OH211420   3.922   1.033   0.799
 3805TIP3    H111421   3.850   1.022   0.860
 3805TIP3    H211422   3.986   0.966   0.822
 3806TIP3   OH211423   3.354   0.033   3.984
 3806TIP3    H111424   3.302   0.107   4.017
 3806TIP3    H211425   3.339   0.033   3.890
 3807TIP3   OH211426   0.202   0.069   3.146
 3807TIP3    H111427   0.229   0.015   3.220
 3807TIP3    H211428   0.114   0.099   3.170
 3808TIP3   OH211429   0.527   0.212   2.046
 3808TIP3    H111430   0.482   0.245   1.968
 3808TIP3    H211431   0.582   0.286   2.075
 3809TIP3   OH211432   2.154   1.799   2.687
 3809TIP3    H111433   2.083   1.757   2.736
 3809TIP3    H211434   2.213   1.727   2.664
 3810TIP3   OH211435   5.924   0.036   2.621
 3810TIP3    H111436   5.991   0.019   2.554
 3810TIP3    H211437   5.967   0.094   2.683
 3811TIP3   OH211438   4.895   0.783   5.008
 3811TIP3    H111439   4.990   0.777   4.992
 3811TIP3    H211440   4.887   0.788   5.103
 3812TIP3   OH211441   1.506   0.661   2.483
 3812TIP3    H111442   1.531   0.747   2.518
 3812TIP3    H211443   1.428   0.678   2.431
 3813TIP3   OH211444   3.990   2.961   1.124
 3813TIP3    H111445   3.932   3.025   1.166
 3813TIP3    H211446   4.068   3.011   1.101
 3814TIP3   OH211447   3.168   3.844   0.267
 3814TIP3    H111448   3.252   3.880   0.295
 3814TIP3    H211449   3.132   3.910   0.208
 3815TIP3   OH211450   1.284   1.494   1.174
 3815TIP3    H111451   1.204   1.469   1.126
 3815TIP3    H211452   1.285   1.589   1.171
 3816TIP3   OH211453   2.767   3.186   3.324
 3816TIP3    H111454   2.686   3.234   3.309
 3816TIP3    H211455   2.803   3.171   3.237
 3817TIP3   OH211456   0.315   4.097   1.937
 3817TIP3    H111457   0.246   4.082   1.872
 3817TIP3    H211458   0.365   4.016   1.938
 3818TIP3   OH211459   0.812   2.242   2.726
 3818TIP3    H111460   0.896   2.196   2.716
 3818TIP3    H211461   0.758   2.182   2.777
 3819TIP3   OH211462   2.368   4.752   1.768
 3819TIP3    H111463   2.372   4.814   1.695
 3819TIP3    H211464   2.450   4.704   1.763
 3820TIP3   OH211465   0.580   4.132   1.857
 3820TIP3    H111466   0.491   4.159   1.881
 3820TIP3    H211467   0.606   4.071   1.926
 3821TIP3   OH211468   6.232   2.430   1.976
 3821TIP3    H111469   6.241   2.516   1.935
 3821TIP3    H211470   6.252   2.368   1.906
 3822TIP3   OH211471   5.775   4.156   2.121
 3822TIP3    H111472   5.849   4.160   2.061
 3822TIP3    H211473   5.698   4.159   2.065
 3823TIP3   OH211474   4.836   5.795   2.546
 3823TIP3    H111475   4.809   5.853   2.618
 3823TIP3    H211476   4.785   5.824   2.471
 3824TIP3   OH211477   4.921   4.278   2.734
 3824TIP3    H111478   4.876   4.309   2.813
 3824TIP3    H211479   4.892   4.338   2.666
 3825TIP3   OH211480   4.595   1.441   1.056
 3825TIP3    H111481   4.612   1.347   1.065
 3825TIP3    H211482   4.509   1.445   1.013
 3826TIP3   OH211483   3.222   1.190   1.268
 3826TIP3    H111484   3.306   1.218   1.233
 3826TIP3    H211485   3.234   1.190   1.363
 3827TIP3   OH211486   4.567   1.541   3.792
 3827TIP3    H111487   4.498   1.517   3.731
 3827TIP3    H211488   4.647   1.537   3.741
 3828TIP3   OH211489   2.250   0.967   2.911
 3828TIP3    H111490   2.272   0.960   3.004
 3828TIP3    H211491   2.329   1.000   2.869
 3829TIP3   OH211492   4.585   3.694   5.179
 3829TIP3    H111493   4.646   3.748   5.229
 3829TIP3    H211494   4.567   3.745   5.100
 3830TIP3   OH211495   1.554   4.937   2.004
 3830TIP3    H111496   1.495   5.008   2.028
 3830TIP3    H211497   1.509   4.857   2.032
 3831TIP3   OH211498   3.925   4.285   1.294
 3831TIP3    H111499   3.874   4.234   1.230
 3831TIP3    H211500   3.991   4.224   1.325
 3832TIP3   OH211501   5.555   2.383   1.938
 3832TIP3    H111502   5.544   2.404   2.031
 3832TIP3    H211503   5.641   2.417   1.916
 3833TIP3   OH211504   1.529   2.409   2.640
 3833TIP3    H111505   1.576   2.485   2.674
 3833TIP3    H211506   1.598   2.348   2.614
 3834TIP3   OH211507   0.519   4.052   2.156
 3834TIP3    H111508   0.506   4.138   2.114
 3834TIP3    H211509   0.584   4.069   2.224
 3835TIP3   OH211510   0.148   0.171   5.109
 3835TIP3    H111511   0.183   0.083   5.101
 3835TIP3    H211512   0.154   0.192   5.203
 3836TIP3   OH211513   0.546   2.154   0.068
 3836TIP3    H111514   0.589   2.159   0.153
 3836TIP3    H211515   0.562   2.239   0.028
 3837TIP3   OH211516   4.996   0.179   2.151
 3837TIP3    H111517   4.981   0.130   2.232
 3837TIP3    H211518   5.089   0.170   2.134
 3838TIP3   OH211519   2.799   0.462   2.590
 3838TIP3    H111520   2.712   0.421   2.596
 3838TIP3    H211521   2.818   0.463   2.497
 3839TIP3   OH211522   1.377   1.371   1.404
 3839TIP3    H111523   1.319   1.367   1.480
 3839TIP3    H211524   1.322   1.407   1.334
 3840TIP3   OH211525   2.391   2.803   2.762
 3840TIP3    H111526   2.400   2.876   2.702
 3840TIP3    H211527   2.440   2.732   2.722
 3841TIP3   OH211528   3.798   5.719   1.328
 3841TIP3    H111529   3.804   5.643   1.387
 3841TIP3    H211530   3.731   5.775   1.367
 3842TIP3   OH211531   1.949   3.992   0.491
 3842TIP3    H111532   1.933   4.035   0.407
 3842TIP3    H211533   1.929   3.899   0.475
 3843TIP3   OH211534   0.542   4.939   3.004
 3843TIP3    H111535   0.638   4.933   3.005
 3843TIP3    H211536   0.513   4.852   2.976
 3844TIP3   OH211537   3.687   0.095   2.449
 3844TIP3    H111538   3.743   0.073   2.524
 3844TIP3    H211539   3.702   0.025   2.386
 3845TIP3   OH211540   5.604   1.556   1.139
 3845TIP3    H111541   5.652   1.501   1.078
 3845TIP3    H211542   5.592   1.500   1.216
 3846TIP3   OH211543   0.983   2.389   2.567
 3846TIP3    H111544   0.922   2.366   2.637
 3846TIP3    H211545   1.036   2.460   2.604
 3847TIP3   OH211546   0.924   0.441   4.824
 3847TIP3    H111547   0.868   0.382   4.874
 3847TIP3    H211548   1.005   0.392   4.812
 3848TIP3   OH211549   1.741   3.829   3.677
 3848TIP3    H111550   1.689   3.748   3.679
 3848TIP3    H211551   1.737   3.857   3.585
 3849TIP3   OH211552   2.176   3.615   3.725
 3849TIP3    H111553   2.113   3.603   3.796
 3849TIP3    H211554   2.197   3.526   3.696
 3850TIP3   OH211555   3.365   0.565   4.759
 3850TIP3    H111556   3.338   0.573   4.851
 3850TIP3    H211557   3.383   0.472   4.747
 3851TIP3   OH211558   2.092   1.227   4.490
 3851TIP3    H111559   2.119   1.238   4.399
 3851TIP3    H211560   2.091   1.133   4.504
 3852TIP3   OH211561   0.691   3.904   0.117
 3852TIP3    H111562   0.596   3.910   0.111
 3852TIP3    H211563   0.724   3.950   0.040
 3853TIP3   OH211564   2.945   0.714   4.369
 3853TIP3    H111565   2.913   0.625   4.388
 3853TIP3    H211566   3.031   0.718   4.409
 3854TIP3   OH211567   4.216   4.171   3.381
 3854TIP3    H111568   4.303   4.162   3.419
 3854TIP3    H211569   4.190   4.081   3.360
 3855TIP3   OH211570   2.245   0.650   3.621
 3855TIP3    H111571   2.185   0.606   3.682
 3855TIP3    H211572   2.190   0.716   3.578
 3856TIP3   OH211573   4.279   0.320   4.914
 3856TIP3    H111574   4.374   0.328   4.913
 3856TIP3    H211575   4.260   0.264   4.990
 3857TIP3   OH211576   2.223   4.149   3.053
 3857TIP3    H111577   2.198   4.233   3.090
 3857TIP3    H211578   2.140   4.107   3.029
 3858TIP3   OH211579   5.251   5.610   4.160
 3858TIP3    H111580   5.234   5.705   4.159
 3858TIP3    H211581   5.219   5.581   4.245
 3859TIP3   OH211582   3.498   4.690   3.993
 3859TIP3    H111583   3.452   4.741   3.927
 3859TIP3    H211584   3.471   4.730   4.076
 3860TIP3   OH211585   2.910   0.655   3.265
 3860TIP3    H111586   3.006   0.659   3.273
 3860TIP3    H211587   2.881   0.741   3.294
 3861TIP3   OH211588   2.218   3.041   4.474
 3861TIP3    H111589   2.240   3.055   4.566
 3861TIP3    H211590   2.221   2.946   4.463
 3862TIP3   OH211591   3.494   0.984   1.496
 3862TIP3    H111592   3.446   0.901   1.504
 3862TIP3    H211593   3.430   1.051   1.517
 3863TIP3   OH211594   3.094   2.027   3.903
 3863TIP3    H111595   3.097   1.937   3.871
 3863TIP3    H211596   3.178   2.040   3.946
 3864TIP3   OH211597   0.151   4.118   3.292
 3864TIP3    H111598   0.205   4.181   3.246
 3864TIP3    H211599   0.190   4.033   3.271
 3865TIP3   OH211600   4.126   0.473   1.380
 3865TIP3    H111601   4.198   0.413   1.362
 3865TIP3    H211602   4.126   0.483   1.475
 3866TIP3   OH211603   2.514   0.071   1.758
 3866TIP3    H111604   2.503   0.153   1.807
 3866TIP3    H211605   2.473   0.089   1.673
 3867TIP3   OH211606   5.093   1.820   1.502
 3867TIP3    H111607   5.184   1.804   1.526
 3867TIP3    H211608   5.054   1.859   1.580
 3868TIP3   OH211609   6.256   3.303   4.319
 3868TIP3    H111610   6.165   3.288   4.293
 3868TIP3    H211611   6.307   3.240   4.269
 3869TIP3   OH211612   5.236   5.045   1.207
 3869TIP3    H111613   5.323   5.064   1.171
 3869TIP3    H211614   5.253   4.994   1.286
 3870TIP3   OH211615   4.594   2.825   2.683
 3870TIP3    H111616   4.636   2.778   2.755
 3870TIP3    H211617   4.663   2.836   2.618
 3871TIP3   OH211618   0.220   1.054   3.815
 3871TIP3    H111619   0.156   1.034   3.747
 3871TIP3    H211620   0.253   0.968   3.842
 3872TIP3   OH211621   3.737   3.271   0.135
 3872TIP3    H111622   3.679   3.270   0.211
 3872TIP3    H211623   3.737   3.362   0.106
 3873TIP3   OH211624   3.581   5.869   4.272
 3873TIP3    H111625   3.571   5.847   4.179
 3873TIP3    H211626   3.531   5.949   4.284
 3874TIP3   OH211627   2.125   5.842   4.779
 3874TIP3    H111628   2.170   5.898   4.715
 3874TIP3    H211629   2.166   5.756   4.768
 3875TIP3   OH211630   4.893   2.280   4.690
 3875TIP3    H111631   4.854   2.331   4.761
 3875TIP3    H211632   4.979   2.255   4.723
 3876TIP3   OH211633   4.117   2.685   2.882
 3876TIP3    H111634   4.140   2.677   2.975
 3876TIP3    H211635   4.201   2.699   2.838
 3877TIP3   OH211636   5.424   4.796   4.222
 3877TIP3    H111637   5.348   4.816   4.167
 3877TIP3    H211638   5.464   4.720   4.180
 3878TIP3   OH211639   6.099   1.139   1.722
 3878TIP3    H111640   6.114   1.218   1.774
 3878TIP3    H211641   6.082   1.171   1.634
 3879TIP3   OH211642   3.252   3.322   1.223
 3879TIP3    H111643   3.257   3.416   1.239
 3879TIP3    H211644   3.160   3.304   1.208
 3880TIP3   OH211645   1.405   4.714   0.860
 3880TIP3    H111646   1.336   4.673   0.913
 3880TIP3    H211647   1.462   4.641   0.834
 3881TIP3   OH211648   3.705   3.431   3.217
 3881TIP3    H111649   3.786   3.470   3.251
 3881TIP3    H211650   3.690   3.355   3.273
 3882TIP3   OH211651   4.893   3.168   2.352
 3882TIP3    H111652   4.807   3.126   2.348
 3882TIP3    H211653   4.902   3.211   2.267
 3883TIP3   OH211654   1.855   4.345   2.155
 3883TIP3    H111655   1.844   4.306   2.068
 3883TIP3    H211656   1.861   4.439   2.138
 3884TIP3   OH211657   2.486   1.783   3.759
 3884TIP3    H111658   2.395   1.782   3.730
 3884TIP3    H211659   2.496   1.867   3.805
 3885TIP3   OH211660   5.698   2.478   4.666
 3885TIP3    H111661   5.677   2.556   4.718
 3885TIP3    H211662   5.655   2.406   4.712
 3886TIP3   OH211663   5.842   2.434   3.116
 3886TIP3    H111664   5.754   2.397   3.123
 3886TIP3    H211665   5.888   2.374   3.057
 3887TIP3   OH211666   1.237   4.356   0.813
 3887TIP3    H111667   1.287   4.301   0.753
 3887TIP3    H211668   1.176   4.296   0.857
 3888TIP3   OH211669   1.494   4.292   4.656
 3888TIP3    H111670   1.588   4.310   4.653
 3888TIP3    H211671   1.457   4.366   4.705
 3889TIP3   OH211672   2.358   3.792   0.537
 3889TIP3    H111673   2.293   3.748   0.481
 3889TIP3    H211674   2.318   3.876   0.557
 3890TIP3   OH211675   2.430   5.218   3.463
 3890TIP3    H111676   2.515   5.241   3.499
 3890TIP3    H211677   2.369   5.281   3.502
 3891TIP3   OH211678   5.678   1.713   3.018
 3891TIP3    H111679   5.607   1.663   2.978
 3891TIP3    H211680   5.685   1.792   2.963
 3892TIP3   OH211681   3.833   4.438   2.963
 3892TIP3    H111682   3.806   4.474   3.048
 3892TIP3    H211683   3.795   4.350   2.961
 3893TIP3   OH211684   5.779   4.530   0.147
 3893TIP3    H111685   5.714   4.553   0.213
 3893TIP3    H211686   5.858   4.577   0.173
 3894TIP3   OH211687   3.028   2.791   0.558
 3894TIP3    H111688   3.096   2.856   0.578
 3894TIP3    H211689   3.061   2.745   0.481
 3895TIP3   OH211690   5.960   2.034   4.030
 3895TIP3    H111691   5.954   2.073   4.118
 3895TIP3    H211692   6.023   1.963   4.040
 3896TIP3   OH211693   2.958   4.135   0.418
 3896TIP3    H111694   2.996   4.195   0.482
 3896TIP3    H211695   2.897   4.081   0.469
 3897TIP3   OH211696   0.125   1.942   0.258
 3897TIP3    H111697   0.126   1.999   0.335
 3897TIP3    H211698   0.217   1.922   0.242
 3898TIP3   OH211699   0.161   1.365   3.827
 3898TIP3    H111700   0.114   1.284   3.809
 3898TIP3    H211701   0.093   1.431   3.837
 3899TIP3   OH211702   2.316   2.413   2.967
 3899TIP3    H111703   2.393   2.387   2.916
 3899TIP3    H211704   2.335   2.502   2.996
 3900TIP3   OH211705   3.951   1.911   0.588
 3900TIP3    H111706   3.863   1.876   0.573
 3900TIP3    H211707   4.002   1.878   0.515
 3901TIP3   OH211708   3.160   3.154   4.456
 3901TIP3    H111709   3.146   3.213   4.381
 3901TIP3    H211710   3.243   3.111   4.437
 3902TIP3   OH211711   0.452   5.059   1.386
 3902TIP3    H111712   0.497   5.002   1.448
 3902TIP3    H211713   0.377   5.094   1.435
 3903TIP3   OH211714   3.028   3.818   3.628
 3903TIP3    H111715   2.985   3.780   3.551
 3903TIP3    H211716   2.960   3.819   3.696
 3904TIP3   OH211717   4.829   5.610   3.448
 3904TIP3    H111718   4.885   5.534   3.465
 3904TIP3    H211719   4.882   5.666   3.391
 3905TIP3   OH211720   0.209   2.602   3.515
 3905TIP3    H111721   0.192   2.665   3.446
 3905TIP3    H211722   0.178   2.518   3.480
 3906TIP3   OH211723   4.132   1.523   2.345
 3906TIP3    H111724   4.066   1.513   2.413
 3906TIP3    H211725   4.090   1.577   2.278
 3907TIP3   OH211726   2.367   2.469   1.946
 3907TIP3    H111727   2.274   2.459   1.965
 3907TIP3    H211728   2.405   2.383   1.967
 3908TIP3   OH211729   6.091   2.437   4.218
 3908TIP3    H111730   6.142   2.491   4.280
 3908TIP3    H211731   6.001   2.470   4.226
 3909TIP3   OH211732   2.889   1.697   2.665
 3909TIP3    H111733   2.942   1.773   2.640
 3909TIP3    H211734   2.881   1.704   2.760
 3910TIP3   OH211735   1.302   0.412   3.833
 3910TIP3    H111736   1.288   0.324   3.868
 3910TIP3    H211737   1.342   0.397   3.747
 3911TIP3   OH211738   6.056   0.276   2.755
 3911TIP3    H111739   6.038   0.366   2.783
 3911TIP3    H211740   6.121   0.244   2.816
 3912TIP3   OH211741   5.801   0.747   3.630
 3912TIP3    H111742   5.752   0.798   3.695
 3912TIP3    H211743   5.818   0.663   3.673
 3913TIP3   OH211744   5.795   5.287   2.466
 3913TIP3    H111745   5.781   5.380   2.484
 3913TIP3    H211746   5.874   5.265   2.516
 3914TIP3   OH211747   4.070   3.266   1.394
 3914TIP3    H111748   4.064   3.188   1.449
 3914TIP3    H211749   3.997   3.257   1.332
 3915TIP3   OH211750   6.162   3.076   3.272
 3915TIP3    H111751   6.241   3.074   3.217
 3915TIP3    H211752   6.188   3.128   3.348
 3916TIP3   OH211753   5.899   0.750   0.947
 3916TIP3    H111754   5.883   0.704   1.029
 3916TIP3    H211755   5.989   0.727   0.924
 3917TIP3   OH211756   5.660   0.439   1.759
 3917TIP3    H111757   5.603   0.366   1.783
 3917TIP3    H211758   5.673   0.429   1.665
 3918TIP3   OH211759   4.492   0.725   0.082
 3918TIP3    H111760   4.526   0.815   0.083
 3918TIP3    H211761   4.472   0.706   0.174
 3919TIP3   OH211762   6.233   4.307   1.745
 3919TIP3    H111763   6.251   4.313   1.839
 3919TIP3    H211764   6.159   4.366   1.731
 3920TIP3   OH211765   0.110   1.027   4.135
 3920TIP3    H111766   0.061   1.105   4.160
 3920TIP3    H211767   0.079   1.006   4.047
 3921TIP3   OH211768   4.759   1.821   4.358
 3921TIP3    H111769   4.771   1.916   4.365
 3921TIP3    H211770   4.722   1.808   4.271
 3922TIP3   OH211771   0.655   5.630   0.658
 3922TIP3    H111772   0.700   5.707   0.692
 3922TIP3    H211773   0.576   5.623   0.711
 3923TIP3   OH211774   1.687   4.557   0.165
 3923TIP3    H111775   1.617   4.559   0.099
 3923TIP3    H211776   1.664   4.485   0.223
 3924TIP3   OH211777   3.667   5.496   1.976
 3924TIP3    H111778   3.632   5.530   2.057
 3924TIP3    H211779   3.678   5.402   1.992
 3925TIP3   OH211780   4.993   1.809   3.078
 3925TIP3    H111781   5.087   1.821   3.089
 3925TIP3    H211782   4.981   1.793   2.984
 3926TIP3   OH211783   2.612   0.005   0.581
 3926TIP3    H111784   2.603   0.099   0.563
 3926TIP3    H211785   2.706  -0.012   0.571
 3927TIP3   OH211786   1.736   5.420   3.411
 3927TIP3    H111787   1.738   5.416   3.316
 3927TIP3    H211788   1.726   5.513   3.431
 3928TIP3   OH211789   4.132   1.560   1.343
 3928TIP3    H111790   4.161   1.524   1.427
 3928TIP3    H211791   4.211   1.596   1.304
 3929TIP3   OH211792   3.275   4.668   1.816
 3929TIP3    H111793   3.182   4.645   1.811
 3929TIP3    H211794   3.321   4.590   1.785
 3930TIP3   OH211795   0.919   0.616   0.291
 3930TIP3    H111796   0.852   0.672   0.251
 3930TIP3    H211797   0.912   0.633   0.384
 3931TIP3   OH211798   6.200   3.850   0.301
 3931TIP3    H111799   6.208   3.771   0.354
 3931TIP3    H211800   6.252   3.831   0.223
 3932TIP3   OH211801   1.882   5.145   0.496
 3932TIP3    H111802   1.792   5.166   0.470
 3932TIP3    H211803   1.936   5.175   0.423
 3933TIP3   OH211804   2.070   5.638   0.401
 3933TIP3    H111805   2.084   5.718   0.452
 3933TIP3    H211806   2.148   5.585   0.417
 3934TIP3   OH211807   4.231   3.184   0.238
 3934TIP3    H111808   4.237   3.246   0.166
 3934TIP3    H211809   4.140   3.157   0.239
 3935TIP3   OH211810   2.967   4.290   1.238
 3935TIP3    H111811   3.011   4.317   1.157
 3935TIP3    H211812   3.037   4.252   1.291
 3936TIP3   OH211813   4.894   6.035  -0.009
 3936TIP3    H111814   4.871   5.943  -0.004
 3936TIP3    H211815   4.990   6.036  -0.013
 3937TIP3   OH211816   3.234   2.176   0.690
 3937TIP3    H111817   3.270   2.263   0.702
 3937TIP3    H211818   3.302   2.117   0.721
 3938TIP3   OH211819   3.123   4.035   1.120
 3938TIP3    H111820   3.167   4.093   1.183
 3938TIP3    H211821   3.040   4.079   1.102
 3939TIP3   OH211822   4.459   3.204   5.099
 3939TIP3    H111823   4.479   3.297   5.086
 3939TIP3    H211824   4.363   3.199   5.091
 3940TIP3   OH211825   5.945   1.170   3.863
 3940TIP3    H111826   6.000   1.202   3.934
 3940TIP3    H211827   5.986   1.204   3.784
 3941TIP3   OH211828   1.788   4.458   4.141
 3941TIP3    H111829   1.737   4.461   4.222
 3941TIP3    H211830   1.725   4.426   4.075
 3942TIP3   OH211831   2.200   2.120   0.452
 3942TIP3    H111832   2.281   2.083   0.415
 3942TIP3    H211833   2.143   2.133   0.376
 3943TIP3   OH211834   4.993   0.241   0.703
 3943TIP3    H111835   5.048   0.233   0.625
 3943TIP3    H211836   4.930   0.169   0.696
 3944TIP3   OH211837   1.938   4.518   4.454
 3944TIP3    H111838   1.910   4.592   4.399
 3944TIP3    H211839   2.015   4.484   4.409
 3945TIP3   OH211840   3.229   5.052   1.205
 3945TIP3    H111841   3.228   4.982   1.270
 3945TIP3    H211842   3.321   5.073   1.194
 3946TIP3   OH211843   2.989   1.400   2.191
 3946TIP3    H111844   2.992   1.325   2.251
 3946TIP3    H211845   3.024   1.473   2.242
 3947TIP3   OH211846   1.441   0.681   3.245
 3947TIP3    H111847   1.506   0.657   3.178
 3947TIP3    H211848   1.491   0.728   3.311
 3948TIP3   OH211849   0.552   1.320   1.234
 3948TIP3    H111850   0.557   1.282   1.147
 3948TIP3    H211851   0.458   1.330   1.251
 3949TIP3   OH211852   3.489   5.161   4.168
 3949TIP3    H111853   3.518   5.074   4.196
 3949TIP3    H211854   3.464   5.149   4.076
 3950TIP3   OH211855   1.975   0.014   4.347
 3950TIP3    H111856   1.912   0.086   4.346
 3950TIP3    H211857   1.933  -0.055   4.398
 3951TIP3   OH211858   1.208   1.770   5.128
 3951TIP3    H111859   1.225   1.849   5.077
 3951TIP3    H211860   1.276   1.770   5.195
 3952TIP3   OH211861   3.696   0.110   0.793
 3952TIP3    H111862   3.615   0.161   0.793
 3952TIP3    H211863   3.751   0.154   0.727
 3953TIP3   OH211864   4.520   0.470   2.534
 3953TIP3    H111865   4.566   0.542   2.490
 3953TIP3    H211866   4.498   0.505   2.620
 3954TIP3   OH211867   4.744   4.111   4.370
 3954TIP3    H111868   4.689   4.171   4.319
 3954TIP3    H211869   4.767   4.041   4.308
 3955TIP3   OH211870   0.849   0.108   3.736
 3955TIP3    H111871   0.792   0.107   3.813
 3955TIP3    H211872   0.937   0.099   3.771
 3956TIP3   OH211873   4.824   2.193   1.880
 3956TIP3    H111874   4.819   2.166   1.789
 3956TIP3    H211875   4.873   2.124   1.924
 3957TIP3   OH211876   1.843   3.827   2.303
 3957TIP3    H111877   1.815   3.873   2.382
 3957TIP3    H211878   1.768   3.773   2.279
 3958TIP3   OH211879   2.041   0.462   2.490
 3958TIP3    H111880   2.008   0.469   2.400
 3958TIP3    H211881   2.010   0.542   2.533
 3959TIP3   OH211882   6.195   0.338   1.302
 3959TIP3    H111883   6.111   0.319   1.260
 3959TIP3    H211884   6.195   0.433   1.315
 3960TIP3   OH211885   2.301   1.055  -0.013
 3960TIP3    H111886   2.297   0.978  -0.070
 3960TIP3    H211887   2.232   1.041   0.052
 3961TIP3   OH211888   2.896   4.038   4.700
 3961TIP3    H111889   2.927   4.068   4.785
 3961TIP3    H211890   2.828   3.974   4.720
 3962TIP3   OH211891   2.247   5.380   1.559
 3962TIP3    H111892   2.291   5.466   1.556
 3962TIP3    H211893   2.318   5.317   1.544
 3963TIP3   OH211894   1.226   4.082   0.311
 3963TIP3    H111895   1.139   4.043   0.324
 3963TIP3    H211896   1.216   4.137   0.233
 3964TIP3   OH211897   0.368   4.836   0.612
 3964TIP3    H111898   0.361   4.898   0.539
 3964TIP3    H211899   0.369   4.892   0.690
 3965TIP3   OH211900   3.479   3.883   1.187
 3965TIP3    H111901   3.417   3.955   1.200
 3965TIP3    H211902   3.528   3.878   1.269
 3966TIP3   OH211903   6.368   3.911   1.518
 3966TIP3    H111904   6.347   3.898   1.426
 3966TIP3    H211905   6.290   3.952   1.555
 3967TIP3   OH211906   4.630   3.124   2.970
 3967TIP3    H111907   4.624   3.035   3.004
 3967TIP3    H211908   4.648   3.177   3.048
 3968TIP3   OH211909   0.092   1.740   4.579
 3968TIP3    H111910   0.041   1.821   4.573
 3968TIP3    H211911   0.113   1.731   4.672
 3969TIP3   OH211912   5.429   0.574   3.192
 3969TIP3    H111913   5.422   0.581   3.287
 3969TIP3    H211914   5.367   0.638   3.158
 3970TIP3   OH211915   5.652   2.710   4.825
 3970TIP3    H111916   5.593   2.667   4.887
 3970TIP3    H211917   5.713   2.758   4.880
 3971TIP3   OH211918   4.659   3.694   2.052
 3971TIP3    H111919   4.578   3.643   2.042
 3971TIP3    H211920   4.693   3.703   1.963
 3972TIP3   OH211921   2.215   3.200   1.476
 3972TIP3    H111922   2.228   3.295   1.479
 3972TIP3    H211923   2.235   3.177   1.385
 3973TIP3   OH211924   5.587   5.570   3.031
 3973TIP3    H111925   5.507   5.571   3.085
 3973TIP3    H211926   5.626   5.656   3.045
 3974TIP3   OH211927   5.494   3.229   0.352
 3974TIP3    H111928   5.518   3.169   0.281
 3974TIP3    H211929   5.419   3.187   0.395
 3975TIP3   OH211930   6.074   4.188   2.277
 3975TIP3    H111931   6.117   4.103   2.270
 3975TIP3    H211932   6.136   4.243   2.326
 3976TIP3   OH211933   4.932   2.427   1.397
 3976TIP3    H111934   4.921   2.484   1.320
 3976TIP3    H211935   4.997   2.363   1.370
 3977TIP3   OH211936   5.724   1.784   2.233
 3977TIP3    H111937   5.680   1.826   2.159
 3977TIP3    H211938   5.735   1.693   2.205
 3978TIP3   OH211939   0.531   4.258   3.648
 3978TIP3    H111940   0.624   4.236   3.647
 3978TIP3    H211941   0.511   4.278   3.739
 3979TIP3   OH211942   3.778   4.664   0.314
 3979TIP3    H111943   3.724   4.589   0.336
 3979TIP3    H211944   3.822   4.688   0.395
 3980TIP3   OH211945   5.963   0.606   5.116
 3980TIP3    H111946   5.935   0.514   5.117
 3980TIP3    H211947   5.893   0.653   5.073
 3981TIP3   OH211948   2.223   1.344   0.135
 3981TIP3    H111949   2.307   1.335   0.180
 3981TIP3    H211950   2.169   1.273   0.170
 3982TIP3   OH211951   2.967   2.456   2.325
 3982TIP3    H111952   3.047   2.471   2.376
 3982TIP3    H211953   2.963   2.530   2.264
 3983TIP3   OH211954   2.276   5.168   4.898
 3983TIP3    H111955   2.352   5.147   4.952
 3983TIP3    H211956   2.305   5.243   4.845
 3984TIP3   OH211957   1.622   1.150   1.596
 3984TIP3    H111958   1.672   1.073   1.623
 3984TIP3    H211959   1.563   1.168   1.669
 3985TIP3   OH211960   0.322   4.472   1.007
 3985TIP3    H111961   0.248   4.469   0.946
 3985TIP3    H211962   0.289   4.430   1.087
 3986TIP3   OH211963   6.031   5.237   2.875
 3986TIP3    H111964   5.979   5.245   2.954
 3986TIP3    H211965   5.970   5.204   2.809
 3987TIP3   OH211966   4.271   4.649   3.951
 3987TIP3    H111967   4.214   4.597   3.894
 3987TIP3    H211968   4.250   4.619   4.039
 3988TIP3   OH211969   4.769   1.129   3.283
 3988TIP3    H111970   4.817   1.081   3.351
 3988TIP3    H211971   4.679   1.134   3.316
 3989TIP3   OH211972   6.027   4.392   0.381
 3989TIP3    H111973   6.073   4.370   0.462
 3989TIP3    H211974   6.019   4.487   0.383
 3990TIP3   OH211975   1.888   4.790   1.641
 3990TIP3    H111976   1.942   4.820   1.568
 3990TIP3    H211977   1.915   4.844   1.715
 3991TIP3   OH211978   2.531   3.390   3.654
 3991TIP3    H111979   2.562   3.308   3.694
 3991TIP3    H211980   2.437   3.389   3.668
 3992TIP3   OH211981   4.445   4.508   0.825
 3992TIP3    H111982   4.395   4.530   0.903
 3992TIP3    H211983   4.485   4.591   0.798
 3993TIP3   OH211984   5.963   2.665   3.922
 3993TIP3    H111985   6.059   2.666   3.928
 3993TIP3    H211986   5.933   2.656   4.012
 3994TIP3   OH211987   4.676   2.998   2.380
 3994TIP3    H111988   4.676   2.904   2.397
 3994TIP3    H211989   4.602   3.032   2.431
 3995TIP3   OH211990   1.141   3.782   2.632
 3995TIP3    H111991   1.232   3.752   2.632
 3995TIP3    H211992   1.136   3.843   2.705
 3996TIP3   OH211993   3.333   2.735   1.141
 3996TIP3    H111994   3.355   2.797   1.210
 3996TIP3    H211995   3.388   2.761   1.067
 3997TIP3   OH211996   4.259   4.860   4.892
 3997TIP3    H111997   4.242   4.857   4.798
 3997TIP3    H211998   4.344   4.817   4.903
 3998TIP3   OH211999   5.820   5.199   1.636
 3998TIP3    H112000   5.859   5.275   1.593
 3998TIP3    H212001   5.894   5.150   1.672
 3999TIP3   OH212002   5.195   3.788   3.960
 3999TIP3    H112003   5.200   3.738   4.042
 3999TIP3    H212004   5.252   3.740   3.900
 4000TIP3   OH212005   4.263   3.426   1.558
 4000TIP3    H112006   4.349   3.392   1.582
 4000TIP3    H212007   4.217   3.351   1.519
 4001TIP3   OH212008   6.151   5.795   4.544
 4001TIP3    H112009   6.120   5.827   4.629
 4001TIP3    H212010   6.233   5.750   4.564
 4002TIP3   OH212011   2.428   3.818   1.554
 4002TIP3    H112012   2.497   3.815   1.488
 4002TIP3    H212013   2.444   3.742   1.609
 4003TIP3   OH212014   0.440   2.922   4.608
 4003TIP3    H112015   0.507   2.853   4.608
 4003TIP3    H212016   0.469   2.984   4.540
 4004TIP3   OH212017   1.104   4.011   4.487
 4004TIP3    H112018   1.085   3.923   4.454
 4004TIP3    H212019   1.194   4.028   4.460
 4005TIP3   OH212020   1.623   1.732   1.989
 4005TIP3    H112021   1.637   1.765   1.900
 4005TIP3    H212022   1.655   1.802   2.046
 4006TIP3   OH212023   4.232   2.747   0.327
 4006TIP3    H112024   4.204   2.805   0.398
 4006TIP3    H212025   4.185   2.779   0.249
 4007TIP3   OH212026   1.537   1.496   3.905
 4007TIP3    H112027   1.501   1.581   3.931
 4007TIP3    H212028   1.600   1.474   3.974
 4008TIP3   OH212029   6.245   5.057   1.462
 4008TIP3    H112030   6.262   4.971   1.501
 4008TIP3    H212031   6.195   5.037   1.383
 4009TIP3   OH212032   1.126   0.052   0.391
 4009TIP3    H112033   1.073  -0.027   0.384
 4009TIP3    H212034   1.172   0.057   0.307
 4010TIP3   OH212035   0.290   3.802   3.501
 4010TIP3    H112036   0.199   3.795   3.531
 4010TIP3    H212037   0.312   3.895   3.511
 4011TIP3   OH212038   4.472   5.104   4.808
 4011TIP3    H112039   4.525   5.125   4.885
 4011TIP3    H212040   4.406   5.043   4.841
 4012TIP3   OH212041   1.644   2.703   1.243
 4012TIP3    H112042   1.601   2.624   1.277
 4012TIP3    H212043   1.737   2.684   1.249
 4013TIP3   OH212044   3.264   0.853   2.725
 4013TIP3    H112045   3.264   0.882   2.816
 4013TIP3    H212046   3.225   0.765   2.729
 4014TIP3   OH212047   6.361   1.253   4.257
 4014TIP3    H112048   6.394   1.341   4.235
 4014TIP3    H212049   6.377   1.245   4.351
 4015TIP3   OH212050   4.034   2.836   0.141
 4015TIP3    H112051   3.974   2.761   0.143
 4015TIP3    H212052   3.977   2.913   0.141
 4016TIP3   OH212053   0.229   3.029   3.605
 4016TIP3    H112054   0.289   3.100   3.624
 4016TIP3    H212055   0.198   3.047   3.516
 4017TIP3   OH212056   5.420   4.125   0.493
 4017TIP3    H112057   5.341   4.173   0.518
 4017TIP3    H212058   5.418   4.125   0.397
 4018TIP3   OH212059   5.129   3.085   4.727
 4018TIP3    H112060   5.194   3.154   4.739
 4018TIP3    H212061   5.057   3.109   4.784
 4019TIP3   OH212062   4.212   3.914   3.266
 4019TIP3    H112063   4.232   3.896   3.174
 4019TIP3    H212064   4.117   3.916   3.270
 4020TIP3   OH212065   3.260   0.901   3.479
 4020TIP3    H112066   3.198   0.938   3.416
 4020TIP3    H212067   3.338   0.954   3.469
 4021TIP3   OH212068   2.794   3.746   2.351
 4021TIP3    H112069   2.775   3.804   2.277
 4021TIP3    H212070   2.733   3.672   2.339
 4022TIP3   OH212071   0.960   5.599   4.944
 4022TIP3    H112072   1.025   5.530   4.933
 4022TIP3    H212073   0.935   5.624   4.855
 4023TIP3   OH212074   3.044   1.636   1.127
 4023TIP3    H112075   3.120   1.660   1.074
 4023TIP3    H212076   3.048   1.541   1.135
 4024TIP3   OH212077   4.564   3.657   0.974
 4024TIP3    H112078   4.605   3.577   0.939
 4024TIP3    H212079   4.504   3.685   0.905
 4025TIP3   OH212080   1.816   3.319   3.573
 4025TIP3    H112081   1.724   3.317   3.547
 4025TIP3    H212082   1.846   3.406   3.548
 4026TIP3   OH212083   2.485   4.962   1.952
 4026TIP3    H112084   2.457   5.044   1.911
 4026TIP3    H212085   2.436   4.894   1.906
 4027TIP3   OH212086   0.226   0.480   1.670
 4027TIP3    H112087   0.245   0.506   1.580
 4027TIP3    H212088   0.214   0.385   1.665
 4028TIP3   OH212089   5.604   1.430   5.049
 4028TIP3    H112090   5.647   1.360   5.099
 4028TIP3    H212091   5.631   1.415   4.958
 4029TIP3   OH212092   0.859   2.669   0.253
 4029TIP3    H112093   0.765   2.677   0.263
 4029TIP3    H212094   0.882   2.589   0.300
 4030TIP3   OH212095   1.239   3.968   4.118
 4030TIP3    H112096   1.227   4.053   4.161
 4030TIP3    H212097   1.329   3.971   4.086
 4031TIP3   OH212098   2.416   5.319   2.267
 4031TIP3    H112099   2.370   5.306   2.350
 4031TIP3    H212100   2.417   5.232   2.227
 4032TIP3   OH212101   1.967   3.550   3.898
 4032TIP3    H112102   1.945   3.460   3.875
 4032TIP3    H212103   1.905   3.573   3.968
 4033TIP3   OH212104   3.102   4.668   5.065
 4033TIP3    H112105   3.152   4.701   4.991
 4033TIP3    H212106   3.139   4.582   5.083
 4034TIP3   OH212107   3.111   3.531   0.229
 4034TIP3    H112108   3.100   3.626   0.227
 4034TIP3    H212109   3.186   3.514   0.171
 4035TIP3   OH212110   1.429   3.559   2.458
 4035TIP3    H112111   1.469   3.473   2.464
 4035TIP3    H212112   1.338   3.542   2.434
 4036TIP3   OH212113   3.853   5.634   1.837
 4036TIP3    H112114   3.931   5.639   1.891
 4036TIP3    H212115   3.790   5.586   1.890
 4037TIP3   OH212116   6.274   3.293   0.605
 4037TIP3    H112117   6.228   3.208   0.609
 4037TIP3    H212118   6.295   3.305   0.513
 4038TIP3   OH212119   1.198   3.493   2.091
 4038TIP3    H112120   1.124   3.435   2.105
 4038TIP3    H212121   1.255   3.446   2.030
 4039TIP3   OH212122   6.264   0.718   0.670
 4039TIP3    H112123   6.241   0.718   0.763
 4039TIP3    H212124   6.243   0.806   0.640
 4040TIP3   OH212125   0.942   2.658   1.886
 4040TIP3    H112126   0.846   2.664   1.883
 4040TIP3    H212127   0.972   2.713   1.814
 4041TIP3   OH212128   3.846   5.184   2.052
 4041TIP3    H112129   3.751   5.189   2.039
 4041TIP3    H212130   3.881   5.164   1.965
 4042TIP3   OH212131   5.523   4.904   1.989
 4042TIP3    H112132   5.568   4.840   1.934
 4042TIP3    H212133   5.510   4.979   1.932
 4043TIP3   OH212134   0.956   5.721   3.290
 4043TIP3    H112135   0.941   5.720   3.384
 4043TIP3    H212136   1.032   5.665   3.276
 4044TIP3   OH212137   3.218   2.855   4.580
 4044TIP3    H112138   3.247   2.931   4.630
 4044TIP3    H212139   3.299   2.812   4.552
 4045TIP3   OH212140   2.756   5.463   2.375
 4045TIP3    H112141   2.667   5.498   2.374
 4045TIP3    H212142   2.792   5.491   2.459
 4046TIP3   OH212143   2.607   4.149   2.638
 4046TIP3    H112144   2.572   4.137   2.727
 4046TIP3    H212145   2.645   4.237   2.639
 4047TIP3   OH212146   1.252   0.490   2.069
 4047TIP3    H112147   1.243   0.426   2.139
 4047TIP3    H212148   1.314   0.555   2.103
 4048TIP3   OH212149   1.890   0.033   3.629
 4048TIP3    H112150   1.827  -0.039   3.625
 4048TIP3    H212151   1.838   0.111   3.608
 4049TIP3   OH212152   0.851   5.697   3.945
 4049TIP3    H112153   0.909   5.747   4.002
 4049TIP3    H212154   0.769   5.746   3.945
 4050TIP3   OH212155   0.336   5.733   4.481
 4050TIP3    H112156   0.362   5.740   4.573
 4050TIP3    H212157   0.282   5.810   4.465
 4051TIP3   OH212158   5.810   3.182   2.855
 4051TIP3    H112159   5.758   3.111   2.894
 4051TIP3    H212160   5.746   3.252   2.840
 4052TIP3   OH212161   4.114   3.798   0.624
 4052TIP3    H112162   4.098   3.802   0.718
 4052TIP3    H212163   4.126   3.705   0.605
 4053TIP3   OH212164   3.573   4.308   4.385
 4053TIP3    H112165   3.559   4.281   4.476
 4053TIP3    H212166   3.541   4.398   4.382
 4054TIP3   OH212167   2.951   4.359   4.524
 4054TIP3    H112168   2.892   4.429   4.495
 4054TIP3    H212169   2.968   4.308   4.446
 4055TIP3   OH212170   5.252   0.905   0.313
 4055TIP3    H112171   5.248   0.982   0.257
 4055TIP3    H212172   5.338   0.909   0.354
 4056TIP3   OH212173   4.524   0.992   1.420
 4056TIP3    H112174   4.518   0.954   1.508
 4056TIP3    H212175   4.433   1.000   1.392
 4057TIP3   OH212176   5.495   3.582   5.015
 4057TIP3    H112177   5.519   3.627   5.096
 4057TIP3    H212178   5.573   3.588   4.960
 4058TIP3   OH212179   0.924   3.038   2.660
 4058TIP3    H112180   0.975   2.964   2.628
 4058TIP3    H212181   0.893   3.010   2.746
 4059TIP3   OH212182   0.537   4.419   0.837
 4059TIP3    H112183   0.460   4.449   0.886
 4059TIP3    H212184   0.544   4.482   0.764
 4060TIP3   OH212185   4.811   2.088   1.640
 4060TIP3    H112186   4.745   2.085   1.571
 4060TIP3    H212187   4.859   2.005   1.631
 4061TIP3   OH212188   5.420   1.137   3.132
 4061TIP3    H112189   5.424   1.132   3.036
 4061TIP3    H212190   5.497   1.189   3.156
 4062TIP3   OH212191   0.634   3.348   3.403
 4062TIP3    H112192   0.577   3.271   3.404
 4062TIP3    H212193   0.707   3.325   3.460
 4063TIP3   OH212194   2.289   3.073   4.919
 4063TIP3    H112195   2.317   2.992   4.961
 4063TIP3    H212196   2.337   3.077   4.837
 4064TIP3   OH212197   2.994   3.022   4.117
 4064TIP3    H112198   2.912   3.043   4.074
 4064TIP3    H212199   2.976   2.942   4.167
 4065TIP3   OH212200   6.042   0.322   1.537
 4065TIP3    H112201   6.108   0.310   1.469
 4065TIP3    H212202   6.088   0.370   1.606
 4066TIP3   OH212203   1.588   1.314   3.496
 4066TIP3    H112204   1.529   1.377   3.538
 4066TIP3    H212205   1.605   1.349   3.409
 4067TIP3   OH212206   1.394   3.470   4.133
 4067TIP3    H112207   1.350   3.458   4.049
 4067TIP3    H212208   1.380   3.562   4.155
 4068TIP3   OH212209   5.356   4.097   2.703
 4068TIP3    H112210   5.306   4.104   2.621
 4068TIP3    H212211   5.297   4.134   2.769
 4069TIP3   OH212212   3.183   5.046   4.373
 4069TIP3    H112213   3.104   5.039   4.426
 4069TIP3    H212214   3.211   5.137   4.385
 4070TIP3   OH212215   5.197   0.432   4.579
 4070TIP3    H112216   5.254   0.368   4.622
 4070TIP3    H212217   5.256   0.484   4.524
 4071TIP3   OH212218   6.170   1.379   3.501
 4071TIP3    H112219   6.155   1.451   3.561
 4071TIP3    H212220   6.087   1.369   3.454
 4072TIP3   OH212221   1.860   5.396   1.426
 4072TIP3    H112222   1.940   5.377   1.378
 4072TIP3    H212223   1.789   5.371   1.366
 4073TIP3   OH212224   4.300   2.300   1.776
 4073TIP3    H112225   4.385   2.320   1.738
 4073TIP3    H212226   4.276   2.215   1.739
 4074TIP3   OH212227   1.831   4.873   1.944
 4074TIP3    H112228   1.740   4.901   1.952
 4074TIP3    H212229   1.868   4.930   1.877
 4075TIP3   OH212230   3.470   1.188   1.135
 4075TIP3    H112231   3.441   1.245   1.064
 4075TIP3    H212232   3.461   1.099   1.099
 4076TIP3   OH212233   3.777   5.492   1.594
 4076TIP3    H112234   3.856   5.440   1.582
 4076TIP3    H212235   3.776   5.515   1.687
 4077TIP3   OH212236   6.135   0.714   3.063
 4077TIP3    H112237   6.130   0.642   3.126
 4077TIP3    H212238   6.049   0.757   3.069
 4078TIP3   OH212239   1.423   3.144   2.282
 4078TIP3    H112240   1.418   3.096   2.199
 4078TIP3    H212241   1.341   3.121   2.327
 4079TIP3   OH212242   4.644   5.773   1.602
 4079TIP3    H112243   4.700   5.808   1.671
 4079TIP3    H212244   4.569   5.736   1.648
 4080TIP3   OH212245   1.897   2.855   2.012
 4080TIP3    H112246   1.847   2.775   2.027
 4080TIP3    H212247   1.856   2.920   2.068
 4081TIP3   OH212248   1.790   3.758   2.888
 4081TIP3    H112249   1.703   3.782   2.920
 4081TIP3    H212250   1.841   3.839   2.893
 4082TIP3   OH212251   1.563   5.486   2.216
 4082TIP3    H112252   1.478   5.462   2.254
 4082TIP3    H212253   1.549   5.572   2.177
 4083TIP3   OH212254   4.271   2.421   2.023
 4083TIP3    H112255   4.356   2.463   2.036
 4083TIP3    H212256   4.274   2.387   1.934
 4084TIP3   OH212257   5.848   2.232   0.762
 4084TIP3    H112258   5.810   2.155   0.804
 4084TIP3    H212259   5.785   2.255   0.694
 4085TIP3   OH212260   2.491   1.929   0.790
 4085TIP3    H112261   2.530   2.003   0.743
 4085TIP3    H212262   2.403   1.921   0.753
 4086TIP3   OH212263   6.134   5.897   1.620
 4086TIP3    H112264   6.216   5.871   1.662
 4086TIP3    H212265   6.069   5.835   1.652
 4087TIP3   OH212266   3.605   3.454   4.728
 4087TIP3    H112267   3.653   3.536   4.738
 4087TIP3    H212268   3.514   3.480   4.714
 4088TIP3   OH212269   0.357   2.361   0.654
 4088TIP3    H112270   0.390   2.303   0.723
 4088TIP3    H212271   0.356   2.305   0.576
 4089TIP3   OH212272   6.047   2.319   4.631
 4089TIP3    H112273   6.058   2.411   4.610
 4089TIP3    H212274   5.953   2.307   4.644
 4090TIP3   OH212275   4.676   4.514   1.693
 4090TIP3    H112276   4.725   4.435   1.668
 4090TIP3    H212277   4.643   4.495   1.781
 4091TIP3   OH212278   6.202   3.461   1.558
 4091TIP3    H112279   6.136   3.529   1.570
 4091TIP3    H212280   6.245   3.455   1.644
 4092TIP3   OH212281   0.228   1.642   2.798
 4092TIP3    H112282   0.136   1.625   2.819
 4092TIP3    H212283   0.271   1.557   2.807
 4093TIP3   OH212284   0.696   2.906   5.150
 4093TIP3    H112285   0.641   2.866   5.083
 4093TIP3    H212286   0.748   2.833   5.184
 4094TIP3   OH212287   6.089   5.131   1.678
 4094TIP3    H112288   6.120   5.214   1.714
 4094TIP3    H212289   6.153   5.109   1.610
 4095TIP3   OH212290   2.297   3.170   4.199
 4095TIP3    H112291   2.267   3.153   4.288
 4095TIP3    H212292   2.367   3.106   4.186
 4096TIP3   OH212293   3.563   2.036   1.274
 4096TIP3    H112294   3.581   1.942   1.278
 4096TIP3    H212295   3.643   2.077   1.305
 4097TIP3   OH212296   1.297   3.529   2.773
 4097TIP3    H112297   1.387   3.528   2.739
 4097TIP3    H212298   1.244   3.506   2.697
 4098TIP3   OH212299   4.543   3.397   3.744
 4098TIP3    H112300   4.561   3.433   3.657
 4098TIP3    H212301   4.479   3.327   3.729
 4099TIP3   OH212302   0.354   0.623   4.215
 4099TIP3    H112303   0.358   0.719   4.217
 4099TIP3    H212304   0.356   0.602   4.121
 4100TIP3   OH212305   5.178   4.291   2.044
 4100TIP3    H112306   5.249   4.231   2.069
 4100TIP3    H212307   5.202   4.319   1.955
 4101TIP3   OH212308   2.798   2.425   3.977
 4101TIP3    H112309   2.864   2.473   3.927
 4101TIP3    H212310   2.715   2.442   3.931
 4102TIP3   OH212311   0.087   4.405   2.173
 4102TIP3    H112312   0.167   4.393   2.224
 4102TIP3    H212313   0.100   4.488   2.128
 4103TIP3   OH212314   2.099   2.696   0.388
 4103TIP3    H112315   2.012   2.714   0.352
 4103TIP3    H212316   2.092   2.723   0.480
 4104TIP3   OH212317   6.328   2.712   3.603
 4104TIP3    H112318   6.273   2.634   3.614
 4104TIP3    H212319   6.417   2.677   3.593
 4105TIP3   OH212320   2.872   3.493   3.800
 4105TIP3    H112321   2.786   3.487   3.842
 4105TIP3    H212322   2.863   3.443   3.719
 4106TIP3   OH212323   4.286   4.987   2.888
 4106TIP3    H112324   4.220   4.987   2.958
 4106TIP3    H212325   4.267   4.909   2.837
 4107TIP3   OH212326   5.725   5.856   0.355
 4107TIP3    H112327   5.692   5.880   0.442
 4107TIP3    H212328   5.687   5.771   0.337
 4108TIP3   OH212329   6.144   1.828   4.055
 4108TIP3    H112330   6.196   1.838   3.975
 4108TIP3    H212331   6.208   1.827   4.126
 4109TIP3   OH212332   4.738   0.174   4.315
 4109TIP3    H112333   4.803   0.145   4.379
 4109TIP3    H212334   4.698   0.251   4.354
 4110TIP3   OH212335   5.008   5.161   3.966
 4110TIP3    H112336   5.052   5.113   3.896
 4110TIP3    H212337   5.078   5.186   4.026
 4111TIP3   OH212338   5.834   1.446   4.190
 4111TIP3    H112339   5.830   1.432   4.095
 4111TIP3    H212340   5.922   1.481   4.205
 4112TIP3   OH212341   4.540   5.411   3.609
 4112TIP3    H112342   4.632   5.395   3.587
 4112TIP3    H212343   4.525   5.361   3.689
 4113TIP3   OH212344   2.242   1.919   2.042
 4113TIP3    H112345   2.301   1.849   2.014
 4113TIP3    H212346   2.173   1.873   2.092
 4114TIP3   OH212347   3.243   1.287   2.453
 4114TIP3    H112348   3.195   1.209   2.426
 4114TIP3    H212349   3.175   1.344   2.490
 4115TIP3   OH212350   4.397   3.058   0.411
 4115TIP3    H112351   4.400   3.139   0.462
 4115TIP3    H212352   4.340   3.079   0.337
 4116TIP3   OH212353   1.288   1.168   4.152
 4116TIP3    H112354   1.261   1.253   4.118
 4116TIP3    H212355   1.278   1.109   4.077
 4117TIP3   OH212356   3.415   4.475   2.796
 4117TIP3    H112357   3.320   4.467   2.792
 4117TIP3    H212358   3.433   4.495   2.888
 4118TIP3   OH212359   1.360   3.834   1.611
 4118TIP3    H112360   1.310   3.764   1.653
 4118TIP3    H212361   1.452   3.809   1.623
 4119TIP3   OH212362   0.636   4.938   2.584
 4119TIP3    H112363   0.689   4.998   2.638
 4119TIP3    H212364   0.610   4.991   2.509
 4120TIP3   OH212365   1.636   3.178   3.017
 4120TIP3    H112366   1.583   3.099   3.010
 4120TIP3    H212367   1.704   3.155   3.081
 4121TIP3   OH212368   4.021   3.451   4.124
 4121TIP3    H112369   3.942   3.406   4.095
 4121TIP3    H212370   4.010   3.462   4.218
 4122TIP3   OH212371   3.112   5.314   2.753
 4122TIP3    H112372   3.060   5.284   2.678
 4122TIP3    H212373   3.203   5.299   2.726
 4123TIP3   OH212374   4.976   3.224   0.795
 4123TIP3    H112375   4.928   3.158   0.746
 4123TIP3    H212376   4.909   3.286   0.825
 4124TIP3   OH212377   4.633   0.008   2.387
 4124TIP3    H112378   4.674  -0.010   2.303
 4124TIP3    H212379   4.634   0.104   2.394
 4125TIP3   OH212380   4.329   2.650   1.570
 4125TIP3    H112381   4.364   2.577   1.519
 4125TIP3    H212382   4.395   2.666   1.637
 4126TIP3   OH212383   4.853   1.551   4.306
 4126TIP3    H112384   4.796   1.626   4.320
 4126TIP3    H212385   4.814   1.481   4.359
 4127TIP3   OH212386   0.141   0.576   5.037
 4127TIP3    H112387   0.222   0.626   5.045
 4127TIP3    H212388   0.170   0.491   5.003
 4128TIP3   OH212389   6.003   5.714   1.364
 4128TIP3    H112390   5.972   5.632   1.325
 4128TIP3    H212391   6.009   5.775   1.290
 4129TIP3   OH212392   1.482   1.002   3.197
 4129TIP3    H112393   1.554   1.060   3.173
 4129TIP3    H212394   1.507   0.917   3.162
 4130TIP3   OH212395   0.611   0.574   0.041
 4130TIP3    H112396   0.693   0.526   0.030
 4130TIP3    H212397   0.546   0.507   0.061
 4131TIP3   OH212398   3.636   1.933   0.298
 4131TIP3    H112399   3.608   2.025   0.295
 4131TIP3    H212400   3.632   1.910   0.391
 4132TIP3   OH212401   4.880   5.323   0.643
 4132TIP3    H112402   4.948   5.372   0.690
 4132TIP3    H212403   4.905   5.331   0.550
 4133TIP3   OH212404   0.375   1.313   2.273
 4133TIP3    H112405   0.456   1.344   2.235
 4133TIP3    H212406   0.344   1.245   2.214
 4134TIP3   OH212407   5.550   2.350   2.538
 4134TIP3    H112408   5.457   2.328   2.531
 4134TIP3    H212409   5.557   2.401   2.618
 4135TIP3   OH212410   5.417   4.203   4.559
 4135TIP3    H112411   5.327   4.223   4.535
 4135TIP3    H212412   5.433   4.253   4.639
 4136TIP3   OH212413   3.189   5.741   2.818
 4136TIP3    H112414   3.270   5.752   2.869
 4136TIP3    H212415   3.172   5.647   2.822
 4137TIP3   OH212416   2.432   2.998   0.860
 4137TIP3    H112417   2.356   3.002   0.801
 4137TIP3    H212418   2.441   3.087   0.893
 4138TIP3   OH212419   4.261   0.883   1.611
 4138TIP3    H112420   4.348   0.860   1.643
 4138TIP3    H212421   4.245   0.821   1.540
 4139TIP3   OH212422   3.857   1.465   0.798
 4139TIP3    H112423   3.882   1.507   0.716
 4139TIP3    H212424   3.850   1.537   0.860
 4140TIP3   OH212425   1.451   1.522   3.650
 4140TIP3    H112426   1.489   1.514   3.737
 4140TIP3    H212427   1.359   1.546   3.667
 4141TIP3   OH212428   1.444   5.866   4.362
 4141TIP3    H112429   1.483   5.780   4.347
 4141TIP3    H212430   1.476   5.919   4.289
 4142TIP3   OH212431   6.100   2.500   0.498
 4142TIP3    H112432   6.108   2.424   0.442
 4142TIP3    H212433   6.072   2.465   0.583
 4143TIP3   OH212434   5.683   4.424   2.207
 4143TIP3    H112435   5.648   4.464   2.127
 4143TIP3    H212436   5.726   4.344   2.177
 4144TIP3   OH212437   3.218   0.725   3.010
 4144TIP3    H112438   3.142   0.677   2.977
 4144TIP3    H212439   3.182   0.791   3.068
 4145TIP3   OH212440   4.228   3.326   2.499
 4145TIP3    H112441   4.145   3.368   2.520
 4145TIP3    H212442   4.276   3.391   2.447
 4146TIP3   OH212443   1.067   1.861   0.061
 4146TIP3    H112444   1.026   1.789   0.012
 4146TIP3    H212445   1.094   1.923  -0.007
 4147TIP3   OH212446   5.947   3.396   4.705
 4147TIP3    H112447   6.031   3.384   4.660
 4147TIP3    H212448   5.926   3.488   4.692
 4148TIP3   OH212449   3.184   3.367   0.437
 4148TIP3    H112450   3.137   3.284   0.421
 4148TIP3    H212451   3.164   3.421   0.361
 4149TIP3   OH212452   1.326   1.199   3.619
 4149TIP3    H112453   1.306   1.293   3.623
 4149TIP3    H212454   1.388   1.185   3.690
 4150TIP3   OH212455   1.364   1.502   4.788
 4150TIP3    H112456   1.404   1.477   4.705
 4150TIP3    H212457   1.274   1.472   4.782
 4151TIP3   OH212458   1.201   1.155   1.396
 4151TIP3    H112459   1.117   1.198   1.412
 4151TIP3    H212460   1.197   1.075   1.449
 4152TIP3   OH212461   0.474   3.481   3.110
 4152TIP3    H112462   0.547   3.441   3.157
 4152TIP3    H212463   0.396   3.453   3.159
 4153TIP3   OH212464   5.559   2.910   1.927
 4153TIP3    H112465   5.636   2.880   1.976
 4153TIP3    H212466   5.581   2.894   1.836
 4154TIP3   OH212467   5.160   2.456   3.070
 4154TIP3    H112468   5.246   2.423   3.045
 4154TIP3    H212469   5.138   2.408   3.149
 4155TIP3   OH212470   4.391   5.820   2.065
 4155TIP3    H112471   4.483   5.846   2.074
 4155TIP3    H212472   4.395   5.731   2.031
 4156TIP3   OH212473   2.437   1.189   3.031
 4156TIP3    H112474   2.350   1.220   3.054
 4156TIP3    H212475   2.422   1.128   2.958
 4157TIP3   OH212476   0.716   4.661   4.985
 4157TIP3    H112477   0.636   4.673   4.934
 4157TIP3    H212478   0.688   4.612   5.062
 4158TIP3   OH212479   1.334   5.736   3.072
 4158TIP3    H112480   1.328   5.831   3.061
 4158TIP3    H212481   1.314   5.700   2.985
 4159TIP3   OH212482   4.316   0.878   3.863
 4159TIP3    H112483   4.224   0.902   3.856
 4159TIP3    H212484   4.354   0.900   3.778
 4160TIP3   OH212485   4.899   2.825   2.178
 4160TIP3    H112486   4.854   2.909   2.193
 4160TIP3    H212487   4.852   2.785   2.105
 4161TIP3   OH212488   2.301   4.304   0.634
 4161TIP3    H112489   2.275   4.356   0.558
 4161TIP3    H212490   2.254   4.343   0.708
 4162TIP3   OH212491   3.783   5.221   4.769
 4162TIP3    H112492   3.841   5.146   4.765
 4162TIP3    H212493   3.798   5.268   4.687
 4163TIP3   OH212494   4.432   3.535   2.006
 4163TIP3    H112495   4.376   3.572   1.938
 4163TIP3    H212496   4.376   3.471   2.051
 4164TIP3   OH212497   1.881   3.658   1.148
 4164TIP3    H112498   1.932   3.633   1.225
 4164TIP3    H212499   1.944   3.656   1.075
 4165TIP3   OH212500   4.239   2.146   3.408
 4165TIP3    H112501   4.221   2.239   3.420
 4165TIP3    H212502   4.210   2.126   3.320
 4166TIP3   OH212503   3.897   2.910   2.238
 4166TIP3    H112504   3.942   2.844   2.290
 4166TIP3    H212505   3.915   2.885   2.147
 4167TIP3   OH212506   6.298   0.117   3.244
 4167TIP3    H112507   6.278   0.038   3.194
 4167TIP3    H212508   6.220   0.133   3.297
 4168TIP3   OH212509   3.343   0.580   0.785
 4168TIP3    H112510   3.425   0.538   0.760
 4168TIP3    H212511   3.369   0.652   0.843
 4169TIP3   OH212512   2.051   4.347   3.638
 4169TIP3    H112513   1.984   4.405   3.673
 4169TIP3    H212514   2.134   4.390   3.660
 4170TIP3   OH212515   6.070   3.635   2.698
 4170TIP3    H112516   6.050   3.552   2.741
 4170TIP3    H212517   6.061   3.701   2.767
 4171TIP3   OH212518   2.486   5.774   1.322
 4171TIP3    H112519   2.538   5.782   1.243
 4171TIP3    H212520   2.499   5.857   1.368
 4172TIP3   OH212521   4.314   4.677   2.746
 4172TIP3    H112522   4.362   4.620   2.806
 4172TIP3    H212523   4.375   4.691   2.673
 4173TIP3   OH212524   0.764   3.751   1.548
 4173TIP3    H112525   0.847   3.772   1.592
 4173TIP3    H212526   0.701   3.811   1.587
 4174TIP3   OH212527   1.312   0.730   4.834
 4174TIP3    H112528   1.352   0.648   4.805
 4174TIP3    H212529   1.373   0.798   4.803
 4175TIP3   OH212530   3.980   3.790   1.377
 4175TIP3    H112531   4.015   3.762   1.462
 4175TIP3    H212532   3.996   3.884   1.373
 4176TIP3   OH212533   2.903   2.174   4.786
 4176TIP3    H112534   2.994   2.146   4.796
 4176TIP3    H212535   2.851   2.101   4.821
 4177TIP3   OH212536   5.283   5.005   4.378
 4177TIP3    H112537   5.329   5.088   4.362
 4177TIP3    H212538   5.334   4.940   4.331
 4178TIP3   OH212539   2.693   0.791   0.167
 4178TIP3    H112540   2.777   0.825   0.139
 4178TIP3    H212541   2.639   0.869   0.184
 4179TIP3   OH212542   3.095   3.461   4.438
 4179TIP3    H112543   3.075   3.434   4.528
 4179TIP3    H212544   3.014   3.502   4.408
 4180TIP3   OH212545   0.382   3.693   2.702
 4180TIP3    H112546   0.316   3.643   2.655
 4180TIP3    H212547   0.430   3.628   2.753
 4181TIP3   OH212548   3.552   0.636   4.060
 4181TIP3    H112549   3.503   0.717   4.075
 4181TIP3    H212550   3.506   0.570   4.111
 4182TIP3   OH212551   1.925   4.194   4.150
 4182TIP3    H112552   2.020   4.188   4.144
 4182TIP3    H212553   1.905   4.286   4.132
 4183TIP3   OH212554   6.321   0.171   2.865
 4183TIP3    H112555   6.299   0.130   2.948
 4183TIP3    H212556   6.396   0.121   2.832
 4184TIP3   OH212557   1.379   2.486   2.404
 4184TIP3    H112558   1.452   2.530   2.360
 4184TIP3    H212559   1.415   2.459   2.489
 4185TIP3   OH212560   4.917   2.831   4.600
 4185TIP3    H112561   4.949   2.866   4.683
 4185TIP3    H212562   4.985   2.770   4.572
 4186TIP3   OH212563   3.900   4.197   0.829
 4186TIP3    H112564   3.833   4.166   0.769
 4186TIP3    H212565   3.983   4.187   0.782
 4187TIP3   OH212566   0.654   2.744   4.541
 4187TIP3    H112567   0.635   2.742   4.447
 4187TIP3    H212568   0.712   2.669   4.556
 4188TIP3   OH212569   4.468   2.263   2.526
 4188TIP3    H112570   4.519   2.224   2.455
 4188TIP3    H212571   4.447   2.351   2.494
 4189TIP3   OH212572   3.309   3.961   0.920
 4189TIP3    H112573   3.396   3.949   0.956
 4189TIP3    H212574   3.261   4.009   0.987
 4190TIP3   OH212575   2.494   5.194   5.060
 4190TIP3    H112576   2.531   5.173   5.146
 4190TIP3    H212577   2.489   5.289   5.058
 4191TIP3   OH212578   3.956   0.452   3.606
 4191TIP3    H112579   4.038   0.410   3.580
 4191TIP3    H212580   3.887   0.399   3.566
 4192TIP3   OH212581   1.299   5.535   2.289
 4192TIP3    H112582   1.245   5.596   2.238
 4192TIP3    H212583   1.288   5.451   2.246
 4193TIP3   OH212584   5.454   1.588   2.817
 4193TIP3    H112585   5.388   1.575   2.885
 4193TIP3    H212586   5.475   1.500   2.787
 4194TIP3   OH212587   5.394   5.548   3.738
 4194TIP3    H112588   5.407   5.643   3.729
 4194TIP3    H212589   5.313   5.531   3.689
 4195TIP3   OH212590   1.405   1.198   2.983
 4195TIP3    H112591   1.388   1.112   3.021
 4195TIP3    H212592   1.343   1.256   3.026
 4196TIP3   OH212593   2.898   5.133   0.195
 4196TIP3    H112594   2.957   5.157   0.267
 4196TIP3    H212595   2.811   5.158   0.227
 4197TIP3   OH212596   3.440   5.068   3.933
 4197TIP3    H112597   3.436   5.103   3.845
 4197TIP3    H212598   3.391   4.985   3.929
 4198TIP3   OH212599   3.976   3.100   0.195
 4198TIP3    H112600   3.914   3.172   0.182
 4198TIP3    H212601   3.953   3.065   0.281
 4199TIP3   OH212602   1.102   3.416   3.641
 4199TIP3    H112603   1.071   3.365   3.566
 4199TIP3    H212604   1.159   3.483   3.603
 4200TIP3   OH212605   2.721   5.569   5.068
 4200TIP3    H112606   2.796   5.510   5.063
 4200TIP3    H212607   2.759   5.656   5.058
 4201TIP3   OH212608   4.258   0.730   1.367
 4201TIP3    H112609   4.184   0.677   1.393
 4201TIP3    H212610   4.248   0.742   1.273
 4202TIP3   OH212611   5.167   0.859   3.544
 4202TIP3    H112612   5.155   0.857   3.639
 4202TIP3    H212613   5.236   0.925   3.530
 4203TIP3   OH212614   4.464   4.428   2.797
 4203TIP3    H112615   4.507   4.444   2.713
 4203TIP3    H212616   4.534   4.396   2.854
 4204TIP3   OH212617   1.164   2.103   3.474
 4204TIP3    H112618   1.189   2.054   3.552
 4204TIP3    H212619   1.077   2.137   3.493
 4205TIP3   OH212620   6.031   4.457   5.143
 4205TIP3    H112621   5.960   4.507   5.183
 4205TIP3    H212622   6.084   4.524   5.098
 4206TIP3   OH212623   0.498   1.910   3.955
 4206TIP3    H112624   0.557   1.903   4.030
 4206TIP3    H212625   0.545   1.869   3.883
 4207TIP3   OH212626   4.765   5.597   0.577
 4207TIP3    H112627   4.851   5.638   0.574
 4207TIP3    H212628   4.703   5.670   0.576
 4208TIP3   OH212629   5.285   5.232   4.590
 4208TIP3    H112630   5.196   5.265   4.598
 4208TIP3    H212631   5.312   5.214   4.681
 4209TIP3   OH212632   1.429   2.443   0.850
 4209TIP3    H112633   1.503   2.450   0.910
 4209TIP3    H212634   1.461   2.390   0.778
 4210TIP3   OH212635   5.601   0.924   3.075
 4210TIP3    H112636   5.582   0.926   2.981
 4210TIP3    H212637   5.519   0.952   3.117
 4211TIP3   OH212638   2.627   2.665   4.072
 4211TIP3    H112639   2.707   2.612   4.074
 4211TIP3    H212640   2.642   2.727   4.001
 4212TIP3   OH212641   5.638   2.099   4.999
 4212TIP3    H112642   5.565   2.127   5.053
 4212TIP3    H212643   5.621   2.006   4.982
 4213TIP3   OH212644   0.319   5.545   0.479
 4213TIP3    H112645   0.353   5.480   0.541
 4213TIP3    H212646   0.232   5.512   0.455
 4214TIP3   OH212647   5.630   1.030   3.367
 4214TIP3    H112648   5.707   1.086   3.381
 4214TIP3    H212649   5.646   0.987   3.283
 4215TIP3   OH212650   6.308   4.711   2.040
 4215TIP3    H112651   6.309   4.711   2.136
 4215TIP3    H212652   6.398   4.732   2.015
 4216TIP3   OH212653   4.795   4.482   1.060
 4216TIP3    H112654   4.718   4.428   1.042
 4216TIP3    H212655   4.820   4.518   0.975
 4217TIP3   OH212656   1.800   0.115   2.764
 4217TIP3    H112657   1.864   0.104   2.694
 4217TIP3    H212658   1.853   0.130   2.843
 4218TIP3   OH212659   2.862   5.962   2.397
 4218TIP3    H112660   2.844   5.946   2.490
 4218TIP3    H212661   2.912   5.886   2.369
 4219TIP3   OH212662   5.961   4.353   3.933
 4219TIP3    H112663   5.971   4.395   4.018
 4219TIP3    H212664   5.951   4.260   3.953
 4220TIP3   OH212665   6.053   4.265   2.968
 4220TIP3    H112666   6.146   4.290   2.974
 4220TIP3    H212667   6.005   4.346   2.985
 4221TIP3   OH212668   5.209   2.883   0.412
 4221TIP3    H112669   5.248   2.968   0.435
 4221TIP3    H212670   5.117   2.902   0.394
 4222TIP3   OH212671   5.259   2.344   5.036
 4222TIP3    H112672   5.192   2.344   4.968
 4222TIP3    H212673   5.312   2.422   5.018
 4223TIP3   OH212674   2.701   0.433   3.297
 4223TIP3    H112675   2.765   0.504   3.300
 4223TIP3    H212676   2.673   0.422   3.388
 4224TIP3   OH212677   3.420   1.964   3.646
 4224TIP3    H112678   3.412   2.027   3.574
 4224TIP3    H212679   3.330   1.941   3.667
 4225TIP3   OH212680   4.282   3.100   1.617
 4225TIP3    H112681   4.337   3.143   1.683
 4225TIP3    H212682   4.342   3.046   1.567
 4226TIP3   OH212683   1.102   4.273   4.814
 4226TIP3    H112684   1.051   4.352   4.796
 4226TIP3    H212685   1.038   4.202   4.808
 4227TIP3   OH212686   1.569   4.943   3.456
 4227TIP3    H112687   1.651   4.900   3.433
 4227TIP3    H212688   1.589   5.036   3.451
 4228TIP3   OH212689   2.669   4.882   2.625
 4228TIP3    H112690   2.588   4.831   2.630
 4228TIP3    H212691   2.676   4.907   2.532
 4229TIP3   OH212692   3.519   0.756   0.383
 4229TIP3    H112693   3.489   0.666   0.369
 4229TIP3    H212694   3.442   0.810   0.361
 4230TIP3   OH212695   5.128   1.408   0.501
 4230TIP3    H112696   5.213   1.398   0.459
 4230TIP3    H212697   5.074   1.337   0.465
 4231TIP3   OH212698   0.899   4.279   0.271
 4231TIP3    H112699   0.837   4.339   0.312
 4231TIP3    H212700   0.859   4.193   0.282
 4232TIP3   OH212701   3.025   5.120   3.363
 4232TIP3    H112702   2.959   5.051   3.366
 4232TIP3    H212703   2.977   5.198   3.335
 4233TIP3   OH212704   5.452   2.132   1.945
 4233TIP3    H112705   5.386   2.133   2.015
 4233TIP3    H212706   5.478   2.223   1.935
 4234TIP3   OH212707   3.205   2.953   3.970
 4234TIP3    H112708   3.153   3.001   4.035
 4234TIP3    H212709   3.236   3.021   3.910
 4235TIP3   OH212710   6.261   1.766   2.991
 4235TIP3    H112711   6.196   1.782   2.923
 4235TIP3    H212712   6.268   1.671   2.996
 4236TIP3   OH212713   1.823   2.334   2.648
 4236TIP3    H112714   1.859   2.349   2.736
 4236TIP3    H212715   1.822   2.421   2.608
 4237TIP3   OH212716   2.301   1.473   4.910
 4237TIP3    H112717   2.301   1.402   4.846
 4237TIP3    H212718   2.293   1.428   4.995
 4238TIP3   OH212719   5.996   1.808   1.221
 4238TIP3    H112720   6.022   1.823   1.130
 4238TIP3    H212721   6.073   1.835   1.272
 4239TIP3   OH212722   3.271   0.942   2.100
 4239TIP3    H112723   3.357   0.978   2.121
 4239TIP3    H212724   3.226   0.939   2.184
 4240TIP3   OH212725   5.277   2.900   2.377
 4240TIP3    H112726   5.306   2.859   2.459
 4240TIP3    H212727   5.355   2.901   2.322
 4241TIP3   OH212728   1.213   4.577   0.999
 4241TIP3    H112729   1.203   4.541   1.087
 4241TIP3    H212730   1.219   4.501   0.941
 4242TIP3   OH212731   4.962   4.093   3.941
 4242TIP3    H112732   4.981   4.128   3.854
 4242TIP3    H212733   4.910   4.161   3.983
 4243TIP3   OH212734   1.762   3.426   4.341
 4243TIP3    H112735   1.819   3.352   4.360
 4243TIP3    H212736   1.813   3.503   4.367
 4244TIP3   OH212737   0.268   2.411   1.716
 4244TIP3    H112738   0.180   2.375   1.728
 4244TIP3    H212739   0.323   2.359   1.775
 4245TIP3   OH212740   4.282   4.964   1.382
 4245TIP3    H112741   4.269   4.993   1.292
 4245TIP3    H212742   4.226   5.021   1.435
 4246TIP3   OH212743   3.859   0.757   1.070
 4246TIP3    H112744   3.822   0.845   1.060
 4246TIP3    H212745   3.814   0.705   1.003
 4247TIP3   OH212746   0.974   2.243   0.184
 4247TIP3    H112747   0.913   2.191   0.132
 4247TIP3    H212748   0.972   2.202   0.271
 4248TIP3   OH212749   1.354   3.644   3.024
 4248TIP3    H112750   1.328   3.626   2.933
 4248TIP3    H212751   1.419   3.577   3.044
 4249TIP3   OH212752   2.253   0.144   2.467
 4249TIP3    H112753   2.312   0.114   2.399
 4249TIP3    H212754   2.230   0.234   2.442
 4250TIP3   OH212755   0.173   0.463   3.412
 4250TIP3    H112756   0.212   0.376   3.419
 4250TIP3    H212757   0.185   0.502   3.498
 4251TIP3   OH212758   1.243   3.320   0.672
 4251TIP3    H112759   1.174   3.380   0.645
 4251TIP3    H212760   1.313   3.376   0.706
 4252TIP3   OH212761   1.326   0.883   2.676
 4252TIP3    H112762   1.279   0.957   2.714
 4252TIP3    H212763   1.283   0.806   2.712
 4253TIP3   OH212764   5.320   2.603   0.402
 4253TIP3    H112765   5.301   2.696   0.412
 4253TIP3    H212766   5.248   2.569   0.350
 4254TIP3   OH212767   3.907   5.049   3.012
 4254TIP3    H112768   3.877   5.010   2.929
 4254TIP3    H212769   3.957   4.979   3.054
 4255TIP3   OH212770   0.781   0.530   1.323
 4255TIP3    H112771   0.765   0.519   1.417
 4255TIP3    H212772   0.708   0.485   1.280
 4256TIP3   OH212773   2.457   5.029   2.218
 4256TIP3    H112774   2.479   4.957   2.277
 4256TIP3    H212775   2.467   4.992   2.130
 4257TIP3   OH212776   3.880   4.879   2.456
 4257TIP3    H112777   3.953   4.853   2.512
 4257TIP3    H212778   3.917   4.946   2.397
 4258TIP3   OH212779   0.629   4.094   4.328
 4258TIP3    H112780   0.548   4.132   4.294
 4258TIP3    H212781   0.692   4.105   4.257
 4259TIP3   OH212782   2.265   5.415   3.597
 4259TIP3    H112783   2.185   5.411   3.649
 4259TIP3    H212784   2.253   5.492   3.541
 4260TIP3   OH212785   4.589   0.290   2.839
 4260TIP3    H112786   4.634   0.207   2.823
 4260TIP3    H212787   4.651   0.357   2.810
 4261TIP3   OH212788   5.506   0.965   1.681
 4261TIP3    H112789   5.430   0.967   1.623
 4261TIP3    H212790   5.580   0.987   1.624
 4262TIP3   OH212791   4.822   2.770   3.840
 4262TIP3    H112792   4.865   2.722   3.910
 4262TIP3    H212793   4.730   2.774   3.866
 4263TIP3   OH212794   1.207   1.491   1.612
 4263TIP3    H112795   1.269   1.525   1.677
 4263TIP3    H212796   1.123   1.490   1.658
 4264TIP3   OH212797   4.481   3.054   0.741
 4264TIP3    H112798   4.449   3.143   0.754
 4264TIP3    H212799   4.446   3.028   0.656
 4265TIP3   OH212800   4.958   5.714   3.810
 4265TIP3    H112801   5.005   5.638   3.844
 4265TIP3    H212802   5.007   5.789   3.843
 4266TIP3   OH212803   2.873   3.090   4.560
 4266TIP3    H112804   2.951   3.092   4.505
 4266TIP3    H212805   2.906   3.082   4.649
 4267TIP3   OH212806   1.891   5.884   4.636
 4267TIP3    H112807   1.959   5.860   4.698
 4267TIP3    H212808   1.885   5.980   4.642
 4268TIP3   OH212809   0.643   0.886   4.536
 4268TIP3    H112810   0.724   0.861   4.580
 4268TIP3    H212811   0.575   0.834   4.579
 4269TIP3   OH212812   4.581   4.750   2.282
 4269TIP3    H112813   4.546   4.748   2.193
 4269TIP3    H212814   4.603   4.842   2.296
 4270TIP3   OH212815   4.603   2.878   4.413
 4270TIP3    H112816   4.592   2.831   4.496
 4270TIP3    H212817   4.526   2.935   4.407
 4271TIP3   OH212818   2.093   0.604   1.564
 4271TIP3    H112819   2.132   0.588   1.649
 4271TIP3    H212820   2.100   0.521   1.517
 4272TIP3   OH212821   2.890   1.245   3.047
 4272TIP3    H112822   2.900   1.252   3.142
 4272TIP3    H212823   2.868   1.154   3.032
 4273TIP3   OH212824   4.266   5.222   1.248
 4273TIP3    H112825   4.351   5.253   1.279
 4273TIP3    H212826   4.274   5.218   1.153
 4274TIP3   OH212827   5.091   4.565   0.926
 4274TIP3    H112828   5.115   4.513   1.003
 4274TIP3    H212829   4.996   4.563   0.924
 4275TIP3   OH212830   4.753   1.868   1.351
 4275TIP3    H112831   4.713   1.810   1.287
 4275TIP3    H212832   4.834   1.899   1.310
 4276TIP3   OH212833   4.421   3.139   3.697
 4276TIP3    H112834   4.428   3.123   3.603
 4276TIP3    H212835   4.506   3.112   3.732
 4277TIP3   OH212836   6.360   4.232   4.611
 4277TIP3    H112837   6.386   4.154   4.660
 4277TIP3    H212838   6.347   4.300   4.677
 4278TIP3   OH212839   3.409   3.682   2.311
 4278TIP3    H112840   3.469   3.637   2.371
 4278TIP3    H212841   3.430   3.775   2.320
 4279TIP3   OH212842   3.418   2.242   2.438
 4279TIP3    H112843   3.478   2.248   2.512
 4279TIP3    H212844   3.474   2.228   2.362
 4280TIP3   OH212845   0.265   5.021   1.814
 4280TIP3    H112846   0.323   5.086   1.774
 4280TIP3    H212847   0.177   5.055   1.796
 4281TIP3   OH212848   4.676   5.848   2.050
 4281TIP3    H112849   4.706   5.823   2.138
 4281TIP3    H212850   4.747   5.902   2.015
 4282TIP3   OH212851   2.845   4.667   0.541
 4282TIP3    H112852   2.926   4.712   0.560
 4282TIP3    H212853   2.844   4.657   0.446
 4283TIP3   OH212854   4.603   2.274   3.192
 4283TIP3    H112855   4.536   2.206   3.191
 4283TIP3    H212856   4.686   2.226   3.195
 4284TIP3   OH212857   2.888   3.804   1.654
 4284TIP3    H112858   2.888   3.897   1.677
 4284TIP3    H212859   2.815   3.768   1.705
 4285TIP3   OH212860   1.536   5.823   5.049
 4285TIP3    H112861   1.604   5.869   5.098
 4285TIP3    H212862   1.578   5.798   4.967
 4286TIP3   OH212863   1.278   1.959   1.780
 4286TIP3    H112864   1.360   1.949   1.732
 4286TIP3    H212865   1.295   2.028   1.844
 4287TIP3   OH212866   3.525   4.521   0.500
 4287TIP3    H112867   3.565   4.450   0.551
 4287TIP3    H212868   3.439   4.534   0.540
 4288TIP3   OH212869   4.726   4.693   4.733
 4288TIP3    H112870   4.819   4.704   4.714
 4288TIP3    H212871   4.703   4.611   4.691
 4289TIP3   OH212872   1.117   2.594   2.429
 4289TIP3    H112873   1.071   2.530   2.483
 4289TIP3    H212874   1.206   2.560   2.422
 4290TIP3   OH212875   2.005   5.856   2.292
 4290TIP3    H112876   1.941   5.826   2.357
 4290TIP3    H212877   1.961   5.842   2.207
 4291TIP3   OH212878   1.928   0.693   3.098
 4291TIP3    H112879   2.021   0.670   3.102
 4291TIP3    H212880   1.916   0.758   3.167
 4292TIP3   OH212881   0.436   2.477   4.411
 4292TIP3    H112882   0.455   2.515   4.325
 4292TIP3    H212883   0.390   2.547   4.458
 4293TIP3   OH212884   3.012   3.772   0.464
 4293TIP3    H112885   3.080   3.817   0.414
 4293TIP3    H212886   2.943   3.754   0.400
 4294TIP3   OH212887   2.055   4.583   0.608
 4294TIP3    H112888   1.989   4.651   0.596
 4294TIP3    H212889   2.004   4.502   0.617
 4295TIP3   OH212890   1.585   2.883   1.447
 4295TIP3    H112891   1.601   2.830   1.369
 4295TIP3    H212892   1.492   2.902   1.445
 4296TIP3   OH212893   0.760   1.603   3.543
 4296TIP3    H112894   0.834   1.662   3.529
 4296TIP3    H212895   0.684   1.652   3.511
 4297TIP3   OH212896   3.468   5.772   2.880
 4297TIP3    H112897   3.492   5.696   2.826
 4297TIP3    H212898   3.494   5.848   2.828
 4298TIP3   OH212899   5.099   5.495   3.936
 4298TIP3    H112900   5.167   5.514   4.001
 4298TIP3    H212901   5.098   5.399   3.931
 4299TIP3   OH212902   2.499   1.007   3.831
 4299TIP3    H112903   2.570   0.985   3.891
 4299TIP3    H212904   2.467   0.923   3.799
 4300TIP3   OH212905   0.915   0.871   3.496
 4300TIP3    H112906   0.982   0.834   3.554
 4300TIP3    H212907   0.850   0.802   3.487
 4301TIP3   OH212908   2.361   1.572   4.293
 4301TIP3    H112909   2.440   1.614   4.257
 4301TIP3    H212910   2.352   1.608   4.381
 4302TIP3   OH212911   2.244   1.606   3.828
 4302TIP3    H112912   2.335   1.586   3.807
 4302TIP3    H212913   2.201   1.521   3.836
 4303TIP3   OH212914   4.582   5.153   2.729
 4303TIP3    H112915   4.534   5.219   2.778
 4303TIP3    H212916   4.538   5.149   2.643
 4304TIP3   OH212917   0.175   2.585   0.958
 4304TIP3    H112918   0.184   2.514   1.022
 4304TIP3    H212919   0.087   2.573   0.922
 4305TIP3   OH212920   1.977   0.184   2.967
 4305TIP3    H112921   2.023   0.246   2.910
 4305TIP3    H212922   2.043   0.118   2.989
 4306TIP3   OH212923   0.517   4.694   3.737
 4306TIP3    H112924   0.441   4.750   3.722
 4306TIP3    H212925   0.540   4.660   3.650
 4307TIP3   OH212926   5.293   1.400   1.627
 4307TIP3    H112927   5.355   1.372   1.694
 4307TIP3    H212928   5.342   1.462   1.573
 4308TIP3   OH212929   1.079   0.503   0.961
 4308TIP3    H112930   1.142   0.571   0.984
 4308TIP3    H212931   1.090   0.491   0.867
 4309TIP3   OH212932   2.544   2.176   0.987
 4309TIP3    H112933   2.615   2.239   1.002
 4309TIP3    H212934   2.526   2.182   0.893
 4310TIP3   OH212935   1.779   5.009   2.246
 4310TIP3    H112936   1.684   4.999   2.260
 4310TIP3    H212937   1.788   5.018   2.151
 4311TIP3   OH212938   1.838   3.481   4.926
 4311TIP3    H112939   1.856   3.426   4.850
 4311TIP3    H212940   1.793   3.558   4.890
 4312TIP3   OH212941   4.564   5.690   0.201
 4312TIP3    H112942   4.489   5.748   0.211
 4312TIP3    H212943   4.534   5.623   0.139
 4313TIP3   OH212944   3.262   2.326   4.787
 4313TIP3    H112945   3.290   2.248   4.835
 4313TIP3    H212946   3.201   2.293   4.720
 4314TIP3   OH212947   6.269   1.785   3.788
 4314TIP3    H112948   6.278   1.875   3.758
 4314TIP3    H212949   6.249   1.735   3.708
 4315TIP3   OH212950   0.572   0.120   0.268
 4315TIP3    H112951   0.549   0.048   0.210
 4315TIP3    H212952   0.558   0.085   0.356
 4316TIP3   OH212953   5.989   4.162   4.640
 4316TIP3    H112954   5.948   4.076   4.634
 4316TIP3    H212955   6.078   4.144   4.670
 4317TIP3   OH212956   3.332   5.200   2.164
 4317TIP3    H112957   3.335   5.166   2.254
 4317TIP3    H212958   3.246   5.174   2.131
 4318TIP3   OH212959   0.491   0.702   3.596
 4318TIP3    H112960   0.518   0.617   3.561
 4318TIP3    H212961   0.549   0.716   3.671
 4319TIP3   OH212962   0.036   2.938   2.821
 4319TIP3    H112963  -0.031   2.915   2.757
 4319TIP3    H212964   0.101   2.988   2.771
 4320TIP3   OH212965   1.853   4.614   0.393
 4320TIP3    H112966   1.853   4.533   0.443
 4320TIP3    H212967   1.832   4.587   0.303
 4321TIP3   OH212968   3.786   0.198   0.536
 4321TIP3    H112969   3.700   0.213   0.495
 4321TIP3    H212970   3.820   0.286   0.553
 4322TIP3   OH212971   4.315   3.858   1.883
 4322TIP3    H112972   4.330   3.943   1.842
 4322TIP3    H212973   4.313   3.796   1.810
 4323TIP3   OH212974   4.488   0.539   3.288
 4323TIP3    H112975   4.424   0.483   3.244
 4323TIP3    H212976   4.436   0.607   3.331
 4324TIP3   OH212977   0.440   0.087   0.692
 4324TIP3    H112978   0.483   0.040   0.620
 4324TIP3    H212979   0.372   0.139   0.650
 4325TIP3   OH212980   3.882   2.678   2.712
 4325TIP3    H112981   3.941   2.735   2.663
 4325TIP3    H212982   3.924   2.667   2.797
 4326TIP3   OH212983   4.425   2.296   4.858
 4326TIP3    H112984   4.350   2.254   4.815
 4326TIP3    H212985   4.390   2.324   4.942
 4327TIP3   OH212986   6.301   2.945   5.003
 4327TIP3    H112987   6.368   2.983   5.059
 4327TIP3    H212988   6.292   2.855   5.033
 4328TIP3   OH212989   2.068   3.581   0.061
 4328TIP3    H112990   2.128   3.603  -0.011
 4328TIP3    H212991   2.107   3.503   0.101
 4329TIP3   OH212992   4.029   4.770   2.654
 4329TIP3    H112993   4.122   4.788   2.668
 4329TIP3    H212994   4.011   4.691   2.705
 4330TIP3   OH212995   3.063   1.489   0.522
 4330TIP3    H112996   3.048   1.430   0.448
 4330TIP3    H212997   2.981   1.487   0.571
 4331TIP3   OH212998   2.312   1.033   0.901
 4331TIP3    H112999   2.393   1.081   0.918
 4331TIP3    H213000   2.312   1.019   0.806
 4332TIP3   OH213001   5.701   5.344   2.112
 4332TIP3    H113002   5.699   5.376   2.022
 4332TIP3    H213003   5.784   5.295   2.117
 4333TIP3   OH213004   0.172   1.487   0.373
 4333TIP3    H113005   0.157   1.409   0.427
 4333TIP3    H213006   0.234   1.539   0.424
 4334TIP3   OH213007   2.624   3.308   1.475
 4334TIP3    H113008   2.590   3.227   1.512
 4334TIP3    H213009   2.625   3.293   1.380
 4335TIP3   OH213010   2.758   4.173   5.070
 4335TIP3    H113011   2.710   4.091   5.081
 4335TIP3    H213012   2.714   4.216   4.996
 4336TIP3   OH213013   1.081   1.969   4.681
 4336TIP3    H113014   1.115   1.885   4.710
 4336TIP3    H213015   1.106   2.031   4.750
 4337TIP3   OH213016   1.354   2.351   0.376
 4337TIP3    H113017   1.291   2.419   0.354
 4337TIP3    H213018   1.399   2.383   0.454
 4338TIP3   OH213019   3.875   3.614   2.896
 4338TIP3    H113020   3.857   3.659   2.813
 4338TIP3    H213021   3.789   3.585   2.926
 4339TIP3   OH213022   4.535   0.721   2.213
 4339TIP3    H113023   4.592   0.798   2.212
 4339TIP3    H213024   4.587   0.653   2.169
 4340TIP3   OH213025   1.946   2.327   0.750
 4340TIP3    H113026   1.918   2.370   0.831
 4340TIP3    H213027   1.879   2.261   0.734
 4341TIP3   OH213028   2.715   4.530   3.648
 4341TIP3    H113029   2.772   4.565   3.580
 4341TIP3    H213030   2.675   4.453   3.609
 4342TIP3   OH213031   3.827   5.370   0.348
 4342TIP3    H113032   3.772   5.392   0.423
 4342TIP3    H213033   3.871   5.453   0.326
 4343TIP3   OH213034   0.995   4.012   0.452
 4343TIP3    H113035   1.013   4.068   0.527
 4343TIP3    H213036   0.902   4.023   0.435
 4344TIP3   OH213037   0.811   4.382   1.994
 4344TIP3    H113038   0.741   4.358   2.055
 4344TIP3    H213039   0.791   4.472   1.970
 4345TIP3   OH213040   1.230   4.890   2.267
 4345TIP3    H113041   1.279   4.969   2.290
 4345TIP3    H213042   1.145   4.902   2.309
 4346TIP3   OH213043   1.906   3.583   3.610
 4346TIP3    H113044   1.980   3.644   3.612
 4346TIP3    H213045   1.829   3.639   3.615
 4347TIP3   OH213046   5.451   5.812   3.621
 4347TIP3    H113047   5.533   5.840   3.662
 4347TIP3    H213048   5.407   5.893   3.596
 4348TIP3   OH213049   0.582   0.950   1.264
 4348TIP3    H113050   0.541   0.950   1.178
 4348TIP3    H213051   0.514   0.981   1.324
 4349TIP3   OH213052   2.036   1.095   1.007
 4349TIP3    H113053   2.107   1.051   0.960
 4349TIP3    H213054   2.004   1.162   0.946
 4350TIP3   OH213055   2.229   1.528   2.023
 4350TIP3    H113056   2.302   1.588   2.007
 4350TIP3    H213057   2.176   1.533   1.943
 4351TIP3   OH213058   0.615   1.492   0.169
 4351TIP3    H113059   0.632   1.439   0.092
 4351TIP3    H213060   0.702   1.518   0.200
 4352TIP3   OH213061   2.891   2.988   2.405
 4352TIP3    H113062   2.831   3.059   2.385
 4352TIP3    H213063   2.852   2.945   2.481
 4353TIP3   OH213064   1.236   2.666   4.394
 4353TIP3    H113065   1.254   2.624   4.310
 4353TIP3    H213066   1.233   2.760   4.375
 4354TIP3   OH213067   2.543   2.827   1.060
 4354TIP3    H113068   2.503   2.858   0.979
 4354TIP3    H213069   2.534   2.732   1.057
 4355TIP3   OH213070   4.332   1.444   0.988
 4355TIP3    H113071   4.316   1.453   0.894
 4355TIP3    H213072   4.262   1.387   1.019
 4356TIP3   OH213073   3.643   1.194   4.080
 4356TIP3    H113074   3.663   1.142   4.157
 4356TIP3    H213075   3.580   1.259   4.110
 4357TIP3   OH213076   4.042   0.636   4.311
 4357TIP3    H113077   3.965   0.677   4.270
 4357TIP3    H213078   4.117   0.684   4.276
 4358TIP3   OH213079   1.820   1.944   4.597
 4358TIP3    H113080   1.791   1.898   4.519
 4358TIP3    H213081   1.897   1.895   4.627
 4359TIP3   OH213082   2.026   1.472   3.508
 4359TIP3    H113083   2.029   1.565   3.483
 4359TIP3    H213084   2.006   1.473   3.601
 4360TIP3   OH213085   5.457   0.193   1.577
 4360TIP3    H113086   5.552   0.182   1.568
 4360TIP3    H213087   5.428   0.224   1.491
 4361TIP3   OH213088   2.937   3.235   3.066
 4361TIP3    H113089   2.939   3.329   3.082
 4361TIP3    H213090   2.924   3.226   2.972
 4362TIP3   OH213091   2.941   3.061   0.023
 4362TIP3    H113092   2.985   2.998   0.082
 4362TIP3    H213093   3.008   3.128   0.006
 4363TIP3   OH213094   4.188   5.551   4.166
 4363TIP3    H113095   4.194   5.500   4.085
 4363TIP3    H213096   4.144   5.631   4.140
 4364TIP3   OH213097   5.925   4.791   1.530
 4364TIP3    H113098   5.947   4.705   1.494
 4364TIP3    H213099   5.968   4.853   1.471
 4365TIP3   OH213100   1.632   4.575   0.690
 4365TIP3    H113101   1.723   4.545   0.695
 4365TIP3    H213102   1.582   4.494   0.683
 4366TIP3   OH213103   5.405   3.903   3.415
 4366TIP3    H113104   5.487   3.869   3.450
 4366TIP3    H213105   5.354   3.927   3.493
 4367TIP3   OH213106   5.948   0.826   0.672
 4367TIP3    H113107   5.924   0.801   0.761
 4367TIP3    H213108   5.969   0.919   0.677
 4368TIP3   OH213109   3.049   2.852   3.116
 4368TIP3    H113110   3.042   2.770   3.165
 4368TIP3    H213111   3.052   2.920   3.184
 4369TIP3   OH213112   3.789   2.691   4.735
 4369TIP3    H113113   3.744   2.775   4.724
 4369TIP3    H213114   3.829   2.674   4.649
 4370TIP3   OH213115   2.215   2.466   0.313
 4370TIP3    H113116   2.189   2.557   0.325
 4370TIP3    H213117   2.254   2.441   0.397
 4371TIP3   OH213118   1.514   1.797   3.312
 4371TIP3    H113119   1.470   1.722   3.352
 4371TIP3    H213120   1.501   1.868   3.374
 4372TIP3   OH213121   5.953   0.472   1.812
 4372TIP3    H113122   5.865   0.483   1.777
 4372TIP3    H213123   5.975   0.556   1.850
 4373TIP3   OH213124   5.790   1.846   3.830
 4373TIP3    H113125   5.835   1.798   3.899
 4373TIP3    H213126   5.822   1.936   3.839
 4374TIP3   OH213127   1.149   1.099   2.698
 4374TIP3    H113128   1.187   1.183   2.672
 4374TIP3    H213129   1.092   1.075   2.626
 4375TIP3   OH213130   0.743   3.635   5.125
 4375TIP3    H113131   0.755   3.709   5.066
 4375TIP3    H213132   0.802   3.653   5.199
 4376TIP3   OH213133   3.840   4.068   4.467
 4376TIP3    H113134   3.903   4.137   4.447
 4376TIP3    H213135   3.754   4.111   4.458
 4377TIP3   OH213136   5.017   1.527   1.718
 4377TIP3    H113137   4.945   1.576   1.679
 4377TIP3    H213138   5.078   1.511   1.646
 4378TIP3   OH213139   0.087   5.419   0.462
 4378TIP3    H113140   0.036   5.350   0.421
 4378TIP3    H213141   0.021   5.476   0.504
 4379TIP3   OH213142   3.315   2.904   2.358
 4379TIP3    H113143   3.326   2.969   2.289
 4379TIP3    H213144   3.403   2.884   2.388
 4380TIP3   OH213145   2.457   0.749   0.315
 4380TIP3    H113146   2.533   0.763   0.371
 4380TIP3    H213147   2.457   0.824   0.255
 4381TIP3   OH213148   2.744   0.905   3.981
 4381TIP3    H113149   2.762   0.929   4.071
 4381TIP3    H213150   2.817   0.941   3.931
 4382TIP3   OH213151   6.193   4.879   1.815
 4382TIP3    H113152   6.219   4.808   1.873
 4382TIP3    H213153   6.102   4.898   1.839
 4383TIP3   OH213154   1.037   3.493   0.584
 4383TIP3    H113155   0.953   3.445   0.588
 4383TIP3    H213156   1.012   3.585   0.581
 4384TIP3   OH213157   3.384   1.010   4.254
 4384TIP3    H113158   3.477   1.008   4.274
 4384TIP3    H213159   3.343   0.962   4.326
 4385TIP3   OH213160   5.261   3.400   4.212
 4385TIP3    H113161   5.203   3.325   4.229
 4385TIP3    H213162   5.345   3.374   4.251
 4386TIP3   OH213163   0.357   0.560   3.946
 4386TIP3    H113164   0.433   0.533   3.893
 4386TIP3    H213165   0.295   0.488   3.936
 4387TIP3   OH213166  -0.044   0.783   3.657
 4387TIP3    H113167  -0.005   0.840   3.590
 4387TIP3    H213168  -0.001   0.698   3.645
 4388TIP3   OH213169   0.685   0.160   3.944
 4388TIP3    H113170   0.604   0.150   3.892
 4388TIP3    H213171   0.672   0.241   3.993
 4389TIP3   OH213172   2.248   0.229   3.976
 4389TIP3    H113173   2.193   0.165   3.931
 4389TIP3    H213174   2.305   0.264   3.908
 4390TIP3   OH213175   4.156   1.805   1.872
 4390TIP3    H113176   4.159   1.900   1.882
 4390TIP3    H213177   4.069   1.787   1.837
 4391TIP3   OH213178   1.212   0.257   4.374
 4391TIP3    H113179   1.190   0.164   4.367
 4391TIP3    H213180   1.138   0.295   4.421
 4392TIP3   OH213181   5.534   5.576   3.425
 4392TIP3    H113182   5.626   5.595   3.442
 4392TIP3    H213183   5.486   5.640   3.478
 4393TIP3   OH213184   0.118   3.703   2.523
 4393TIP3    H113185   0.107   3.797   2.511
 4393TIP3    H213186   0.055   3.662   2.464
 4394TIP3   OH213187   1.918   4.289   1.336
 4394TIP3    H113188   1.926   4.375   1.296
 4394TIP3    H213189   1.888   4.232   1.265
 4395TIP3   OH213190   4.869   1.313   4.671
 4395TIP3    H113191   4.944   1.283   4.722
 4395TIP3    H213192   4.871   1.260   4.591
 4396TIP3   OH213193   0.441   3.569   0.494
 4396TIP3    H113194   0.529   3.598   0.470
 4396TIP3    H213195   0.448   3.548   0.587
 4397TIP3   OH213196   0.613   1.902   1.408
 4397TIP3    H113197   0.570   1.987   1.421
 4397TIP3    H213198   0.696   1.909   1.454
 4398TIP3   OH213199   1.531   0.620   2.047
 4398TIP3    H113200   1.592   0.554   2.080
 4398TIP3    H213201   1.525   0.602   1.953
 4399TIP3   OH213202   4.464   3.803   4.627
 4399TIP3    H113203   4.446   3.779   4.536
 4399TIP3    H213204   4.463   3.720   4.674
 4400TIP3   OH213205   4.180   0.700   3.382
 4400TIP3    H113206   4.175   0.785   3.340
 4400TIP3    H213207   4.097   0.657   3.361
 4401TIP3   OH213208   3.731   2.080   3.707
 4401TIP3    H113209   3.813   2.032   3.696
 4401TIP3    H213210   3.669   2.013   3.737
 4402TIP3   OH213211   3.206   0.919   4.433
 4402TIP3    H113212   3.129   0.964   4.467
 4402TIP3    H213213   3.200   0.831   4.470
 4403TIP3   OH213214   5.146   3.077   3.265
 4403TIP3    H113215   5.184   3.015   3.328
 4403TIP3    H213216   5.219   3.132   3.238
 4404TIP3   OH213217   0.650   0.444   2.102
 4404TIP3    H113218   0.620   0.485   2.184
 4404TIP3    H213219   0.741   0.418   2.121
 4405TIP3   OH213220   2.683   5.653   2.696
 4405TIP3    H113221   2.595   5.676   2.667
 4405TIP3    H213222   2.670   5.579   2.756
 4406TIP3   OH213223   1.806   2.330   1.205
 4406TIP3    H113224   1.762   2.407   1.169
 4406TIP3    H213225   1.892   2.362   1.230
 4407TIP3   OH213226   5.950   3.940   1.727
 4407TIP3    H113227   5.914   3.945   1.638
 4407TIP3    H213228   5.911   3.861   1.763
 4408TIP3   OH213229   5.719   0.300   4.225
 4408TIP3    H113230   5.811   0.314   4.202
 4408TIP3    H213231   5.672   0.368   4.176
 4409TIP3   OH213232   3.313   4.520   1.067
 4409TIP3    H113233   3.268   4.600   1.040
 4409TIP3    H213234   3.343   4.480   0.986
 4410TIP3   OH213235   3.742   2.015   1.540
 4410TIP3    H113236   3.836   2.013   1.558
 4410TIP3    H213237   3.716   2.106   1.557
 4411TIP3   OH213238   2.620   3.057   4.934
 4411TIP3    H113239   2.563   3.134   4.929
 4411TIP3    H213240   2.654   3.058   5.024
 4412TIP3   OH213241   0.757   1.122   2.182
 4412TIP3    H113242   0.715   1.077   2.255
 4412TIP3    H213243   0.846   1.087   2.180
 4413TIP3   OH213244   3.513   1.360   3.675
 4413TIP3    H113245   3.458   1.309   3.734
 4413TIP3    H213246   3.578   1.400   3.732
 4414TIP3   OH213247   3.867   4.862   1.720
 4414TIP3    H113248   3.898   4.878   1.809
 4414TIP3    H213249   3.947   4.851   1.668
 4415TIP3   OH213250   6.257   1.506   0.495
 4415TIP3    H113251   6.343   1.490   0.457
 4415TIP3    H213252   6.206   1.427   0.474
 4416TIP3   OH213253   0.185   5.401   4.407
 4416TIP3    H113254   0.267   5.451   4.403
 4416TIP3    H213255   0.156   5.398   4.316
 4417TIP3   OH213256   5.647   3.164   3.238
 4417TIP3    H113257   5.667   3.258   3.241
 4417TIP3    H213258   5.722   3.126   3.192
 4418TIP3   OH213259   1.145   0.765   3.307
 4418TIP3    H113260   1.096   0.843   3.333
 4418TIP3    H213261   1.192   0.739   3.386
 4419TIP3   OH213262   6.157   5.837   2.400
 4419TIP3    H113263   6.078   5.845   2.454
 4419TIP3    H213264   6.123   5.830   2.311
 4420TIP3   OH213265   1.271   0.626   1.482
 4420TIP3    H113266   1.266   0.542   1.527
 4420TIP3    H213267   1.344   0.671   1.525
 4421TIP3   OH213268   3.890   5.892   0.916
 4421TIP3    H113269   3.892   5.796   0.921
 4421TIP3    H213270   3.804   5.916   0.948
 4422TIP3   OH213271   4.600   3.326   3.191
 4422TIP3    H113272   4.567   3.405   3.233
 4422TIP3    H213273   4.687   3.313   3.231
 4423TIP3   OH213274   0.981   1.304   1.353
 4423TIP3    H113275   0.975   1.282   1.260
 4423TIP3    H213276   0.896   1.278   1.390
 4424TIP3   OH213277   5.939   4.679   3.220
 4424TIP3    H113278   5.912   4.695   3.130
 4424TIP3    H213279   5.914   4.759   3.267
 4425TIP3   OH213280   5.551   3.234   0.806
 4425TIP3    H113281   5.540   3.267   0.895
 4425TIP3    H213282   5.484   3.280   0.755
 4426TIP3   OH213283   0.771   1.383   5.140
 4426TIP3    H113284   0.680   1.360   5.124
 4426TIP3    H213285   0.789   1.456   5.080
 4427TIP3   OH213286   2.535   4.851   0.231
 4427TIP3    H113287   2.459   4.893   0.189
 4427TIP3    H213288   2.504   4.762   0.251
 4428TIP3   OH213289   5.269   0.503   2.609
 4428TIP3    H113290   5.355   0.500   2.566
 4428TIP3    H213291   5.263   0.420   2.656
 4429TIP3   OH213292   3.463   2.234   3.259
 4429TIP3    H113293   3.470   2.329   3.248
 4429TIP3    H213294   3.544   2.209   3.305
 4430TIP3   OH213295   2.383   3.442   3.234
 4430TIP3    H113296   2.365   3.493   3.313
 4430TIP3    H213297   2.314   3.375   3.232
 4431TIP3   OH213298   0.710   3.744   4.348
 4431TIP3    H113299   0.700   3.808   4.278
 4431TIP3    H213300   0.770   3.678   4.312
 4432TIP3   OH213301   2.260   0.547   3.953
 4432TIP3    H113302   2.247   0.531   3.859
 4432TIP3    H213303   2.182   0.509   3.994
 4433TIP3   OH213304  -0.008   2.090   5.036
 4433TIP3    H113305   0.063   2.152   5.020
 4433TIP3    H213306   0.036   2.005   5.041
 4434TIP3   OH213307   2.344   0.195   2.721
 4434TIP3    H113308   2.322   0.170   2.632
 4434TIP3    H213309   2.392   0.120   2.756
 4435TIP3   OH213310   2.677   2.307   2.138
 4435TIP3    H113311   2.617   2.283   2.067
 4435TIP3    H213312   2.748   2.244   2.133
 4436TIP3   OH213313   5.848   5.784   0.795
 4436TIP3    H113314   5.919   5.771   0.732
 4436TIP3    H213315   5.849   5.704   0.848
 4437TIP3   OH213316   5.596   3.368   2.163
 4437TIP3    H113317   5.655   3.439   2.189
 4437TIP3    H213318   5.653   3.303   2.122
 4438TIP3   OH213319   5.053   2.754   2.966
 4438TIP3    H113320   5.054   2.662   2.990
 4438TIP3    H213321   4.997   2.796   3.032
 4439TIP3   OH213322   5.147   5.049   3.256
 4439TIP3    H113323   5.100   5.001   3.188
 4439TIP3    H213324   5.079   5.087   3.311
 4440TIP3   OH213325   0.280   2.927   2.381
 4440TIP3    H113326   0.202   2.874   2.398
 4440TIP3    H213327   0.246   3.011   2.350
 4441TIP3   OH213328   1.700   4.175   2.684
 4441TIP3    H113329   1.678   4.186   2.591
 4441TIP3    H213330   1.704   4.264   2.718
 4442TIP3   OH213331   0.215   4.528   1.368
 4442TIP3    H113332   0.228   4.444   1.324
 4442TIP3    H213333   0.164   4.506   1.446
 4443TIP3   OH213334   0.963   1.715   0.500
 4443TIP3    H113335   0.960   1.655   0.575
 4443TIP3    H213336   0.914   1.792   0.528
 4444TIP3   OH213337   2.434   3.131   0.544
 4444TIP3    H113338   2.466   3.206   0.594
 4444TIP3    H213339   2.509   3.105   0.490
 4445TIP3   OH213340   5.545   1.068   0.960
 4445TIP3    H113341   5.485   1.024   0.900
 4445TIP3    H213342   5.559   1.005   1.031
 4446TIP3   OH213343   1.594   0.120   2.587
 4446TIP3    H113344   1.641   0.187   2.538
 4446TIP3    H213345   1.644   0.110   2.669
 4447TIP3   OH213346   2.941   5.719   2.312
 4447TIP3    H113347   2.968   5.662   2.384
 4447TIP3    H213348   3.007   5.704   2.244
 4448TIP3   OH213349   2.462   2.958   4.231
 4448TIP3    H113350   2.391   2.895   4.219
 4448TIP3    H213351   2.510   2.925   4.307
 4449TIP3   OH213352   4.802   5.007   3.719
 4449TIP3    H113353   4.804   4.999   3.624
 4449TIP3    H213354   4.717   5.046   3.738
 4450TIP3   OH213355   2.772   2.690   2.020
 4450TIP3    H113356   2.782   2.735   1.936
 4450TIP3    H213357   2.678   2.692   2.038
 4451TIP3   OH213358   3.909   1.443   4.300
 4451TIP3    H113359   3.843   1.504   4.333
 4451TIP3    H213360   3.888   1.360   4.343
 4452TIP3   OH213361   4.819   1.576   2.110
 4452TIP3    H113362   4.747   1.599   2.051
 4452TIP3    H213363   4.817   1.481   2.116
 4453TIP3   OH213364   6.265   3.276   3.441
 4453TIP3    H113365   6.316   3.263   3.522
 4453TIP3    H213366   6.318   3.337   3.390
 4454TIP3   OH213367   0.582   0.086   4.201
 4454TIP3    H113368   0.590   0.045   4.115
 4454TIP3    H213369   0.636   0.165   4.194
 4455TIP3   OH213370   1.288   3.953   0.731
 4455TIP3    H113371   1.281   3.897   0.654
 4455TIP3    H213372   1.235   3.909   0.798
 4456TIP3   OH213373   0.622   3.009   0.891
 4456TIP3    H113374   0.683   3.048   0.828
 4456TIP3    H213375   0.580   2.937   0.843
 4457TIP3   OH213376   0.350   5.001   1.058
 4457TIP3    H113377   0.389   4.918   1.085
 4457TIP3    H213378   0.287   5.022   1.126
 4458TIP3   OH213379   3.993   2.658   4.941
 4458TIP3    H113380   4.005   2.745   4.979
 4458TIP3    H213381   3.922   2.669   4.878
 4459TIP3   OH213382   3.474   3.922   2.421
 4459TIP3    H113383   3.468   4.016   2.437
 4459TIP3    H213384   3.408   3.884   2.478
 4460TIP3   OH213385   5.858   3.305   1.622
 4460TIP3    H113386   5.847   3.299   1.717
 4460TIP3    H213387   5.941   3.261   1.605
 4461TIP3   OH213388   3.955   3.876   3.237
 4461TIP3    H113389   3.948   3.901   3.145
 4461TIP3    H213390   3.864   3.871   3.267
 4462TIP3   OH213391   5.780   1.771   4.921
 4462TIP3    H113392   5.863   1.815   4.903
 4462TIP3    H213393   5.785   1.689   4.871
 4463TIP3   OH213394   1.325   5.082   1.002
 4463TIP3    H113395   1.389   5.050   0.939
 4463TIP3    H213396   1.245   5.032   0.984
 4464TIP3   OH213397   6.135   3.096   2.877
 4464TIP3    H113398   6.068   3.031   2.859
 4464TIP3    H213399   6.210   3.045   2.910
 4465TIP3   OH213400   5.686   3.110   1.487
 4465TIP3    H113401   5.778   3.119   1.463
 4465TIP3    H213402   5.667   3.187   1.540
 4466TIP3   OH213403   3.610   3.521   2.927
 4466TIP3    H113404   3.532   3.506   2.980
 4466TIP3    H213405   3.578   3.524   2.837
 4467TIP3   OH213406   1.078   0.871   0.414
 4467TIP3    H113407   1.134   0.939   0.452
 4467TIP3    H213408   1.110   0.861   0.324
 4468TIP3   OH213409   6.185   1.040   0.017
 4468TIP3    H113410   6.184   1.044  -0.078
 4468TIP3    H213411   6.259   1.095   0.043
 4469TIP3   OH213412   5.271   0.896   2.103
 4469TIP3    H113413   5.212   0.910   2.029
 4469TIP3    H213414   5.214   0.903   2.180
 4470TIP3   OH213415   1.924   3.167   5.064
 4470TIP3    H113416   1.829   3.167   5.054
 4470TIP3    H213417   1.958   3.149   4.977
 4471TIP3   OH213418   2.881   4.567   3.108
 4471TIP3    H113419   2.834   4.557   3.190
 4471TIP3    H213420   2.867   4.483   3.063
 4472TIP3   OH213421   6.166   3.260   2.256
 4472TIP3    H113422   6.200   3.275   2.344
 4472TIP3    H213423   6.238   3.216   2.210
 4473TIP3   OH213424   4.381   2.677   3.488
 4473TIP3    H113425   4.413   2.760   3.451
 4473TIP3    H213426   4.438   2.611   3.449
 4474TIP3   OH213427   3.660   5.218   0.926
 4474TIP3    H113428   3.753   5.233   0.945
 4474TIP3    H213429   3.649   5.247   0.836
 4475TIP3   OH213430   4.612   2.181   4.635
 4475TIP3    H113431   4.564   2.241   4.691
 4475TIP3    H213432   4.704   2.199   4.654
 4476TIP3   OH213433   6.089   4.811   4.804
 4476TIP3    H113434   6.054   4.881   4.749
 4476TIP3    H213435   6.018   4.791   4.865
 4477TIP3   OH213436   5.628   5.369   1.112
 4477TIP3    H113437   5.539   5.333   1.121
 4477TIP3    H213438   5.625   5.418   1.030
 4478TIP3   OH213439   6.044   3.852   4.988
 4478TIP3    H113440   6.056   3.853   4.893
 4478TIP3    H213441   6.056   3.761   5.014
 4479TIP3   OH213442   4.744   3.416   4.724
 4479TIP3    H113443   4.737   3.486   4.789
 4479TIP3    H213444   4.654   3.383   4.715
 4480TIP3   OH213445   2.119   4.282   0.832
 4480TIP3    H113446   2.080   4.195   0.828
 4480TIP3    H213447   2.143   4.294   0.924
 4481TIP3   OH213448   0.611   2.715   3.039
 4481TIP3    H113449   0.684   2.711   3.100
 4481TIP3    H213450   0.652   2.712   2.952
 4482TIP3   OH213451   3.722   1.757   0.527
 4482TIP3    H113452   3.744   1.669   0.496
 4482TIP3    H213453   3.658   1.743   0.597
 4483TIP3   OH213454   6.135   2.251   1.607
 4483TIP3    H113455   6.148   2.158   1.625
 4483TIP3    H213456   6.051   2.256   1.562
 4484TIP3   OH213457   5.147   1.909   2.399
 4484TIP3    H113458   5.099   1.851   2.340
 4484TIP3    H213459   5.235   1.913   2.363
 4485TIP3   OH213460   5.192   2.167   0.773
 4485TIP3    H113461   5.272   2.159   0.825
 4485TIP3    H213462   5.162   2.076   0.762
 4486TIP3   OH213463   3.970   0.963   1.901
 4486TIP3    H113464   3.918   0.884   1.887
 4486TIP3    H213465   4.054   0.930   1.934
 4487TIP3   OH213466   3.524   1.535   2.016
 4487TIP3    H113467   3.450   1.507   2.070
 4487TIP3    H213468   3.496   1.620   1.980
 4488TIP3   OH213469   3.685   1.791   1.386
 4488TIP3    H113470   3.714   1.862   1.442
 4488TIP3    H213471   3.621   1.743   1.439
 4489TIP3   OH213472   3.420   3.768   4.148
 4489TIP3    H113473   3.329   3.795   4.147
 4489TIP3    H213474   3.437   3.737   4.059
 4490TIP3   OH213475   2.004   2.468   3.892
 4490TIP3    H113476   2.085   2.425   3.865
 4490TIP3    H213477   1.985   2.431   3.979
 4491TIP3   OH213478   6.171   2.729   1.527
 4491TIP3    H113479   6.122   2.664   1.577
 4491TIP3    H213480   6.103   2.783   1.485
 4492TIP3   OH213481   6.103   0.085   1.389
 4492TIP3    H113482   6.062   0.071   1.303
 4492TIP3    H213483   6.029   0.089   1.450
 4493TIP3   OH213484   3.357   3.216   4.025
 4493TIP3    H113485   3.291   3.228   4.093
 4493TIP3    H213486   3.426   3.164   4.067
 4494TIP3   OH213487   5.346   0.116   2.818
 4494TIP3    H113488   5.359   0.164   2.736
 4494TIP3    H213489   5.252   0.095   2.819
 4495TIP3   OH213490   4.965   1.150   1.539
 4495TIP3    H113491   5.027   1.209   1.497
 4495TIP3    H213492   4.883   1.163   1.491
 4496TIP3   OH213493   5.798   0.805   0.429
 4496TIP3    H113494   5.724   0.865   0.440
 4496TIP3    H213495   5.853   0.822   0.506
 4497TIP3   OH213496   1.128   5.167   1.869
 4497TIP3    H113497   1.159   5.087   1.912
 4497TIP3    H213498   1.053   5.138   1.816
 4498TIP3   OH213499   1.963   3.369   4.704
 4498TIP3    H113500   1.967   3.444   4.645
 4498TIP3    H213501   1.875   3.334   4.692
 4499TIP3   OH213502   3.373   1.377   0.928
 4499TIP3    H113503   3.341   1.385   0.838
 4499TIP3    H213504   3.458   1.421   0.928
 4500TIP3   OH213505   0.574   3.997   3.953
 4500TIP3    H113506   0.505   4.012   4.017
 4500TIP3    H213507   0.540   3.927   3.897
 4501TIP3   OH213508   5.852   4.638   4.321
 4501TIP3    H113509   5.759   4.614   4.314
 4501TIP3    H213510   5.868   4.644   4.415
 4502TIP3   OH213511   2.151   0.306   2.193
 4502TIP3    H113512   2.071   0.285   2.240
 4502TIP3    H213513   2.122   0.342   2.110
 4503TIP3   OH213514   0.683   4.935   2.062
 4503TIP3    H113515   0.588   4.944   2.057
 4503TIP3    H213516   0.699   4.901   2.150
 4504TIP3   OH213517   4.724   0.734   0.780
 4504TIP3    H113518   4.781   0.691   0.844
 4504TIP3    H213519   4.715   0.670   0.709
 4505TIP3   OH213520   4.299   1.572   1.798
 4505TIP3    H113521   4.348   1.527   1.867
 4505TIP3    H213522   4.300   1.664   1.824
 4506TIP3   OH213523   5.696   1.091   1.530
 4506TIP3    H113524   5.628   1.084   1.464
 4506TIP3    H213525   5.778   1.091   1.480
 4507TIP3   OH213526   1.746   2.109   0.764
 4507TIP3    H113527   1.807   2.113   0.838
 4507TIP3    H213528   1.745   2.016   0.740
 4508TIP3   OH213529   5.764   0.475   0.726
 4508TIP3    H113530   5.849   0.471   0.682
 4508TIP3    H213531   5.701   0.488   0.655
 4509TIP3   OH213532   3.265   2.465   2.110
 4509TIP3    H113533   3.217   2.547   2.100
 4509TIP3    H213534   3.335   2.485   2.172
 4510TIP3   OH213535   3.043   4.884   0.573
 4510TIP3    H113536   2.994   4.966   0.573
 4510TIP3    H213537   3.101   4.891   0.497
 4511TIP3   OH213538   2.365   3.989   4.848
 4511TIP3    H113539   2.412   4.005   4.766
 4511TIP3    H213540   2.355   4.076   4.887
 4512TIP3   OH213541   5.009   2.664   3.665
 4512TIP3    H113542   4.948   2.711   3.722
 4512TIP3    H213543   5.052   2.600   3.722
 4513TIP3   OH213544   2.806   1.185   1.564
 4513TIP3    H113545   2.757   1.178   1.646
 4513TIP3    H213546   2.795   1.277   1.538
 4514TIP3   OH213547   5.578   2.117   1.437
 4514TIP3    H113548   5.515   2.103   1.508
 4514TIP3    H213549   5.659   2.141   1.481
 4515TIP3   OH213550   1.585   2.110   3.558
 4515TIP3    H113551   1.550   2.094   3.471
 4515TIP3    H213552   1.508   2.110   3.615
 4516TIP3   OH213553   2.533   2.229   1.919
 4516TIP3    H113554   2.482   2.155   1.886
 4516TIP3    H213555   2.607   2.236   1.859
 4517TIP3   OH213556   2.004   3.300   1.118
 4517TIP3    H113557   1.955   3.338   1.045
 4517TIP3    H213558   1.938   3.254   1.170
 4518TIP3   OH213559   2.097   1.833   0.695
 4518TIP3    H113560   2.021   1.827   0.638
 4518TIP3    H213561   2.078   1.906   0.753
 4519TIP3   OH213562   5.857   2.781   2.288
 4519TIP3    H113563   5.842   2.688   2.300
 4519TIP3    H213564   5.856   2.794   2.193
 4520TIP3   OH213565   4.099   0.608   3.048
 4520TIP3    H113566   4.175   0.552   3.064
 4520TIP3    H213567   4.043   0.594   3.124
 4521TIP3   OH213568   2.656   1.416   4.117
 4521TIP3    H113569   2.581   1.412   4.059
 4521TIP3    H213570   2.695   1.329   4.114
 4522TIP3   OH213571   1.131   5.801   4.973
 4522TIP3    H113572   1.056   5.749   4.942
 4522TIP3    H213573   1.188   5.808   4.896
 4523TIP3   OH213574   2.125   3.137   0.824
 4523TIP3    H113575   2.034   3.139   0.795
 4523TIP3    H213576   2.127   3.069   0.892
 4524TIP3   OH213577   5.635   0.819   2.651
 4524TIP3    H113578   5.617   0.789   2.562
 4524TIP3    H213579   5.653   0.913   2.641
 4525TIP3   OH213580   4.850   5.258   2.705
 4525TIP3    H113581   4.925   5.256   2.645
 4525TIP3    H213582   4.781   5.212   2.658
 4526TIP3   OH213583   4.713   5.957   3.526
 4526TIP3    H113584   4.678   5.896   3.461
 4526TIP3    H213585   4.808   5.952   3.513
 4527TIP3   OH213586   2.612   3.968   0.721
 4527TIP3    H113587   2.519   3.973   0.742
 4527TIP3    H213588   2.650   4.044   0.764
 4528TIP3   OH213589   6.160   1.657   3.589
 4528TIP3    H113590   6.069   1.681   3.608
 4528TIP3    H213591   6.168   1.667   3.495
 4529TIP3   OH213592   4.671   1.420   1.495
 4529TIP3    H113593   4.641   1.498   1.541
 4529TIP3    H213594   4.705   1.363   1.564
 4530TIP3   OH213595   5.662  -0.002   2.611
 4530TIP3    H113596   5.644   0.021   2.702
 4530TIP3    H213597   5.757   0.007   2.603
 4531TIP3   OH213598   0.922   3.469   4.906
 4531TIP3    H113599   0.945   3.519   4.984
 4531TIP3    H213600   0.831   3.442   4.920
 4532TIP3   OH213601   1.330   1.199   1.803
 4532TIP3    H113602   1.313   1.135   1.734
 4532TIP3    H213603   1.268   1.270   1.786
 4533TIP3   OH213604   0.493   1.987   3.596
 4533TIP3    H113605   0.478   2.051   3.665
 4533TIP3    H213606   0.412   1.988   3.545
 4534TIP3   OH213607   2.862   0.300   5.057
 4534TIP3    H113608   2.906   0.385   5.050
 4534TIP3    H213609   2.933   0.237   5.063
 4535TIP3   OH213610   4.862   1.928   2.286
 4535TIP3    H113611   4.767   1.935   2.277
 4535TIP3    H213612   4.876   1.842   2.326
 4536TIP3   OH213613   3.359   4.582   3.403
 4536TIP3    H113614   3.335   4.491   3.388
 4536TIP3    H213615   3.452   4.579   3.425
 4537TIP3   OH213616   6.168   1.182   3.298
 4537TIP3    H113617   6.192   1.241   3.227
 4537TIP3    H213618   6.218   1.215   3.374
 4538TIP3   OH213619   2.783   0.854   1.566
 4538TIP3    H113620   2.733   0.777   1.542
 4538TIP3    H213621   2.810   0.838   1.656
 4539TIP3   OH213622   2.803   5.961   3.318
 4539TIP3    H113623   2.863   6.009   3.375
 4539TIP3    H213624   2.729   5.937   3.374
 4540TIP3   OH213625   4.677   1.195   4.811
 4540TIP3    H113626   4.690   1.229   4.900
 4540TIP3    H213627   4.715   1.263   4.754
 4541TIP3   OH213628   6.102   5.426   3.961
 4541TIP3    H113629   6.137   5.487   3.896
 4541TIP3    H213630   6.007   5.441   3.959
 4542TIP3   OH213631   5.777   4.219   2.405
 4542TIP3    H113632   5.762   4.143   2.348
 4542TIP3    H213633   5.861   4.255   2.375
 4543TIP3   OH213634   3.753  -0.003   1.853
 4543TIP3    H113635   3.824   0.060   1.852
 4543TIP3    H213636   3.678   0.045   1.889
 4544TIP3   OH213637   4.373   2.480   0.189
 4544TIP3    H113638   4.317   2.544   0.233
 4544TIP3    H213639   4.437   2.533   0.141
 4545TIP3   OH213640   4.406   1.502   2.375
 4545TIP3    H113641   4.444   1.581   2.414
 4545TIP3    H213642   4.313   1.506   2.399
 4546TIP3   OH213643   5.923   4.668   2.597
 4546TIP3    H113644   5.873   4.675   2.516
 4546TIP3    H213645   5.897   4.583   2.634
 4547TIP3   OH213646   1.079   0.380   2.924
 4547TIP3    H113647   0.984   0.379   2.934
 4547TIP3    H213648   1.092   0.373   2.829
 4548TIP3   OH213649   4.334   5.192   0.963
 4548TIP3    H113650   4.354   5.102   0.986
 4548TIP3    H213651   4.285   5.186   0.881
 4549TIP3   OH213652   2.384   2.664   3.027
 4549TIP3    H113653   2.454   2.684   3.089
 4549TIP3    H213654   2.380   2.740   2.970
 4550TIP3   OH213655   2.287   3.468   1.427
 4550TIP3    H113656   2.206   3.495   1.384
 4550TIP3    H213657   2.276   3.498   1.518
 4551TIP3   OH213658   2.128   2.721   2.027
 4551TIP3    H113659   2.056   2.782   2.012
 4551TIP3    H213660   2.160   2.742   2.115
 4552TIP3   OH213661   4.666   0.514   0.212
 4552TIP3    H113662   4.642   0.563   0.133
 4552TIP3    H213663   4.690   0.427   0.181
 4553TIP3   OH213664   0.665   2.503   4.021
 4553TIP3    H113665   0.619   2.498   3.937
 4553TIP3    H213666   0.758   2.496   3.998
 4554TIP3   OH213667   2.092   3.663   4.981
 4554TIP3    H113668   2.025   3.730   4.993
 4554TIP3    H213669   2.045   3.589   4.943
 4555TIP3   OH213670   4.742   2.740   1.957
 4555TIP3    H113671   4.769   2.796   1.884
 4555TIP3    H213672   4.768   2.652   1.931
 4556TIP3   OH213673   0.206   0.338   4.863
 4556TIP3    H113674   0.193   0.307   4.952
 4556TIP3    H213675   0.226   0.259   4.812
 4557TIP3   OH213676   1.683   3.335   4.667
 4557TIP3    H113677   1.661   3.263   4.608
 4557TIP3    H213678   1.640   3.411   4.630
 4558TIP3   OH213679   0.221   2.827   3.790
 4558TIP3    H113680   0.232   2.903   3.732
 4558TIP3    H213681   0.127   2.807   3.786
 4559TIP3   OH213682   1.592   0.154   1.485
 4559TIP3    H113683   1.585   0.065   1.519
 4559TIP3    H213684   1.509   0.170   1.440
 4560TIP3   OH213685   4.529   4.054   4.696
 4560TIP3    H113686   4.509   3.967   4.661
 4560TIP3    H213687   4.545   4.039   4.789
 4561TIP3   OH213688   3.288   5.083   5.071
 4561TIP3    H113689   3.290   5.164   5.123
 4561TIP3    H213690   3.305   5.112   4.981
 4562TIP3   OH213691   4.068   2.688   1.142
 4562TIP3    H113692   4.049   2.782   1.144
 4562TIP3    H213693   4.153   2.682   1.098
 4563TIP3   OH213694   0.950   4.198   3.976
 4563TIP3    H113695   1.030   4.193   3.924
 4563TIP3    H213696   0.956   4.124   4.037
 4564TIP3   OH213697   4.789   0.052   2.883
 4564TIP3    H113698   4.799  -0.023   2.942
 4564TIP3    H213699   4.842   0.121   2.924
 4565TIP3   OH213700   5.488   1.768   0.136
 4565TIP3    H113701   5.418   1.794   0.196
 4565TIP3    H213702   5.547   1.715   0.190
 4566TIP3   OH213703   2.748   0.511   0.196
 4566TIP3    H113704   2.741   0.603   0.171
 4566TIP3    H213705   2.795   0.470   0.122
 4567TIP3   OH213706   0.966   0.120   4.043
 4567TIP3    H113707   0.960   0.203   4.091
 4567TIP3    H213708   1.023   0.140   3.968
 4568TIP3   OH213709   6.197   0.069   0.796
 4568TIP3    H113710   6.145   0.021   0.859
 4568TIP3    H213711   6.148   0.149   0.779
 4569TIP3   OH213712   3.448   4.358   0.888
 4569TIP3    H113713   3.377   4.310   0.846
 4569TIP3    H213714   3.526   4.332   0.839
 4570TIP3   OH213715   2.700   3.292   4.588
 4570TIP3    H113716   2.730   3.334   4.669
 4570TIP3    H213717   2.767   3.226   4.569
 4571TIP3   OH213718   5.674   1.347   1.307
 4571TIP3    H113719   5.752   1.293   1.320
 4571TIP3    H213720   5.601   1.289   1.330
 4572TIP3   OH213721   3.140   5.471   4.198
 4572TIP3    H113722   3.093   5.456   4.116
 4572TIP3    H213723   3.193   5.549   4.182
 4573TIP3   OH213724   2.327   0.784   4.104
 4573TIP3    H113725   2.321   0.715   4.038
 4573TIP3    H213726   2.386   0.749   4.171
 4574TIP3   OH213727   3.150   0.697   4.575
 4574TIP3    H113728   3.146   0.773   4.634
 4574TIP3    H213729   3.219   0.642   4.612
 4575TIP3   OH213730   0.328   1.168   1.753
 4575TIP3    H113731   0.306   1.219   1.676
 4575TIP3    H213732   0.397   1.109   1.723
 4576TIP3   OH213733   3.263   3.421   2.885
 4576TIP3    H113734   3.175   3.429   2.921
 4576TIP3    H213735   3.263   3.336   2.840
 4577TIP3   OH213736   1.800   1.133   2.446
 4577TIP3    H113737   1.781   1.179   2.364
 4577TIP3    H213738   1.770   1.043   2.432
 4578TIP3   OH213739   3.325   4.058   0.407
 4578TIP3    H113740   3.270   4.118   0.457
 4578TIP3    H213741   3.411   4.101   0.405
 4579TIP3   OH213742   4.274   3.765   1.158
 4579TIP3    H113743   4.337   3.730   1.220
 4579TIP3    H213744   4.281   3.860   1.168
 4580TIP3   OH213745   2.459   5.363   0.492
 4580TIP3    H113746   2.526   5.406   0.439
 4580TIP3    H213747   2.421   5.434   0.544
 4581TIP3   OH213748   2.567   4.275   4.749
 4581TIP3    H113749   2.555   4.185   4.720
 4581TIP3    H213750   2.508   4.285   4.823
 4582TIP3   OH213751   3.148   0.813   5.012
 4582TIP3    H113752   3.078   0.760   5.050
 4582TIP3    H213753   3.227   0.760   5.024
 4583TIP3   OH213754   3.727   5.973   1.214
 4583TIP3    H113755   3.648   5.939   1.255
 4583TIP3    H213756   3.780   5.895   1.194
 4584TIP3   OH213757   2.258   4.747   5.051
 4584TIP3    H113758   2.196   4.815   5.075
 4584TIP3    H213759   2.258   4.686   5.124
 4585TIP3   OH213760   5.281   3.886   2.344
 4585TIP3    H113761   5.295   3.868   2.437
 4585TIP3    H213762   5.319   3.811   2.299
 4586TIP3   OH213763   1.701   2.925   3.728
 4586TIP3    H113764   1.640   2.862   3.690
 4586TIP3    H213765   1.658   3.010   3.718
 4587TIP3   OH213766   4.925   4.363   3.366
 4587TIP3    H113767   5.009   4.342   3.324
 4587TIP3    H213768   4.939   4.449   3.406
 4588TIP3   OH213769   3.201   5.929   5.201
 4588TIP3    H113770   3.143   5.853   5.210
 4588TIP3    H213771   3.254   5.910   5.124
 4589TIP3   OH213772   5.095  -0.006   1.024
 4589TIP3    H113773   5.177   0.037   1.048
 4589TIP3    H213774   5.038   0.065   0.994
 4590TIP3   OH213775   5.723   4.804   4.092
 4590TIP3    H113776   5.650   4.798   4.154
 4590TIP3    H213777   5.726   4.718   4.051
 4591TIP3   OH213778   5.187   3.628   5.139
 4591TIP3    H113779   5.200   3.722   5.125
 4591TIP3    H213780   5.169   3.593   5.051
 4592TIP3   OH213781   2.754   1.911   0.556
 4592TIP3    H113782   2.849   1.909   0.567
 4592TIP3    H213783   2.727   1.996   0.589
 4593TIP3   OH213784   1.281   5.209   3.979
 4593TIP3    H113785   1.193   5.185   4.008
 4593TIP3    H213786   1.326   5.126   3.967
 4594TIP3   OH213787   4.180   3.817   0.232
 4594TIP3    H113788   4.191   3.891   0.293
 4594TIP3    H213789   4.086   3.815   0.215
 4595TIP3   OH213790   0.523   0.493   4.592
 4595TIP3    H113791   0.572   0.451   4.662
 4595TIP3    H213792   0.460   0.427   4.563
 4596TIP3   OH213793   3.713   4.854   4.717
 4596TIP3    H113794   3.626   4.880   4.686
 4596TIP3    H213795   3.697   4.815   4.803
 4597TIP3   OH213796   5.156   3.439   3.440
 4597TIP3    H113797   5.112   3.524   3.428
 4597TIP3    H213798   5.085   3.376   3.447
 4598TIP3   OH213799   3.100   2.575   4.406
 4598TIP3    H113800   3.182   2.624   4.396
 4598TIP3    H213801   3.124   2.484   4.392
 4599TIP3   OH213802   5.265   4.394   3.246
 4599TIP3    H113803   5.349   4.404   3.291
 4599TIP3    H213804   5.280   4.430   3.159
 4600TIP3   OH213805   5.406   1.939   2.657
 4600TIP3    H113806   5.467   1.891   2.600
 4600TIP3    H213807   5.324   1.940   2.607
 4601TIP3   OH213808   0.987   2.225   1.720
 4601TIP3    H113809   0.991   2.173   1.640
 4601TIP3    H213810   1.002   2.315   1.691
 4602TIP3   OH213811   4.261   0.623   0.777
 4602TIP3    H113812   4.176   0.589   0.803
 4602TIP3    H213813   4.241   0.703   0.730
 4603TIP3   OH213814   1.286   4.740   5.051
 4603TIP3    H113815   1.273   4.752   5.145
 4603TIP3    H213816   1.302   4.828   5.018
 4604TIP3   OH213817   1.699   2.841   1.683
 4604TIP3    H113818   1.630   2.801   1.735
 4604TIP3    H213819   1.661   2.851   1.596
 4605TIP3   OH213820   0.898   2.454   3.150
 4605TIP3    H113821   0.827   2.427   3.092
 4605TIP3    H213822   0.978   2.436   3.100
 4606TIP3   OH213823   2.112   1.493   4.549
 4606TIP3    H113824   2.035   1.539   4.515
 4606TIP3    H213825   2.100   1.402   4.521
 4607TIP3   OH213826   1.213   1.012   3.942
 4607TIP3    H113827   1.151   0.939   3.935
 4607TIP3    H213828   1.287   0.985   3.889
 4608TIP3   OH213829   1.747   1.287   2.194
 4608TIP3    H113830   1.829   1.242   2.171
 4608TIP3    H213831   1.689   1.269   2.120
 4609TIP3   OH213832   5.734   1.755   1.287
 4609TIP3    H113833   5.820   1.776   1.249
 4609TIP3    H213834   5.703   1.681   1.235
 4610TIP3   OH213835   4.384   5.131   4.261
 4610TIP3    H113836   4.399   5.065   4.328
 4610TIP3    H213837   4.290   5.150   4.266
 4611TIP3   OH213838   2.840   4.460   4.174
 4611TIP3    H113839   2.767   4.522   4.174
 4611TIP3    H213840   2.857   4.443   4.267
 4612TIP3   OH213841   5.140   4.101   1.048
 4612TIP3    H113842   5.175   4.075   1.133
 4612TIP3    H213843   5.048   4.121   1.066
 4613TIP3   OH213844   0.771   3.927   0.787
 4613TIP3    H113845   0.683   3.964   0.782
 4613TIP3    H213846   0.827   3.993   0.746
 4614TIP3   OH213847   2.181   4.395   3.928
 4614TIP3    H113848   2.103   4.427   3.882
 4614TIP3    H213849   2.195   4.459   3.998
 4615TIP3   OH213850   0.099   3.189   4.687
 4615TIP3    H113851   0.176   3.235   4.655
 4615TIP3    H213852   0.102   3.199   4.782
 4616TIP3   OH213853   5.057   3.696   3.340
 4616TIP3    H113854   5.065   3.791   3.356
 4616TIP3    H213855   5.104   3.681   3.258
 4617TIP3   OH213856   1.365   4.582   2.665
 4617TIP3    H113857   1.378   4.633   2.585
 4617TIP3    H213858   1.297   4.518   2.642
 4618TIP3   OH213859   3.768   3.615   0.784
 4618TIP3    H113860   3.800   3.647   0.700
 4618TIP3    H213861   3.847   3.608   0.838
 4619TIP3   OH213862   6.229   4.113   4.131
 4619TIP3    H113863   6.221   4.201   4.168
 4619TIP3    H213864   6.290   4.124   4.058
 4620TIP3   OH213865   3.921   5.398   3.618
 4620TIP3    H113866   3.936   5.485   3.655
 4620TIP3    H213867   3.826   5.393   3.607
 4621TIP3   OH213868   3.581   5.156   1.986
 4621TIP3    H113869   3.488   5.174   1.969
 4621TIP3    H213870   3.605   5.089   1.921
 4622TIP3   OH213871   5.759   1.072   0.289
 4622TIP3    H113872   5.775   1.166   0.299
 4622TIP3    H213873   5.836   1.039   0.245
 4623TIP3   OH213874   3.579   2.611   0.864
 4623TIP3    H113875   3.515   2.581   0.799
 4623TIP3    H213876   3.563   2.705   0.872
 4624TIP3   OH213877   0.274   5.625   5.160
 4624TIP3    H113878   0.343   5.691   5.158
 4624TIP3    H213879   0.226   5.639   5.079
 4625TIP3   OH213880   2.235   2.790   4.266
 4625TIP3    H113881   2.141   2.787   4.250
 4625TIP3    H213882   2.257   2.703   4.300
 4626TIP3   OH213883   4.168   3.790   0.908
 4626TIP3    H113884   4.238   3.753   0.855
 4626TIP3    H213885   4.202   3.787   0.998
 4627TIP3   OH213886   2.543   5.696   2.060
 4627TIP3    H113887   2.623   5.746   2.044
 4627TIP3    H213888   2.541   5.684   2.155
 4628TIP3   OH213889   2.448   4.026   4.390
 4628TIP3    H113890   2.356   4.035   4.369
 4628TIP3    H213891   2.474   3.942   4.352
 4629TIP3   OH213892   0.063   1.295   3.415
 4629TIP3    H113893   0.133   1.339   3.463
 4629TIP3    H213894  -0.017   1.334   3.450
 4630TIP3   OH213895   4.181   1.462   0.139
 4630TIP3    H113896   4.124   1.440   0.065
 4630TIP3    H213897   4.217   1.378   0.168
 4631TIP3   OH213898   1.132   4.559   4.767
 4631TIP3    H113899   1.054   4.614   4.764
 4631TIP3    H213900   1.166   4.561   4.677
 4632TIP3   OH213901   2.142   4.598   2.004
 4632TIP3    H113902   2.050   4.607   2.027
 4632TIP3    H213903   2.152   4.654   1.926
 4633TIP3   OH213904   5.525   1.097   0.121
 4633TIP3    H113905   5.608   1.144   0.109
 4633TIP3    H213906   5.551   1.005   0.126
 4634TIP3   OH213907   5.407   1.623   0.500
 4634TIP3    H113908   5.338   1.611   0.565
 4634TIP3    H213909   5.362   1.664   0.426
 4635TIP3   OH213910   4.777   3.482   0.056
 4635TIP3    H113911   4.868   3.454   0.060
 4635TIP3    H213912   4.737   3.444   0.134
 4636TIP3   OH213913   0.904   5.713   5.213
 4636TIP3    H113914   0.935   5.695   5.125
 4636TIP3    H213915   0.829   5.770   5.202
 4637TIP3   OH213916   0.431   4.630   2.298
 4637TIP3    H113917   0.507   4.689   2.295
 4637TIP3    H213918   0.443   4.580   2.379
 4638TIP3   OH213919   1.044   2.238   4.512
 4638TIP3    H113920   0.971   2.280   4.557
 4638TIP3    H213921   1.040   2.146   4.540
 4639TIP3   OH213922   5.774   2.088   2.706
 4639TIP3    H113923   5.781   2.057   2.616
 4639TIP3    H213924   5.844   2.153   2.715
 4640TIP3   OH213925   5.770   0.130   1.736
 4640TIP3    H113926   5.755   0.200   1.672
 4640TIP3    H213927   5.849   0.157   1.783
 4641TIP3   OH213928   4.389   0.758   0.354
 4641TIP3    H113929   4.448   0.734   0.425
 4641TIP3    H213930   4.304   0.723   0.381
 4642TIP3   OH213931   5.649   3.751   3.092
 4642TIP3    H113932   5.579   3.784   3.148
 4642TIP3    H213933   5.725   3.804   3.115
 4643TIP3   OH213934   0.590   0.851   3.399
 4643TIP3    H113935   0.508   0.870   3.355
 4643TIP3    H213936   0.564   0.815   3.484
 4644TIP3   OH213937   3.362   1.378   2.712
 4644TIP3    H113938   3.300   1.354   2.780
 4644TIP3    H213939   3.310   1.378   2.631
 4645TIP3   OH213940   1.349   5.623   1.783
 4645TIP3    H113941   1.330   5.716   1.799
 4645TIP3    H213942   1.433   5.623   1.739
 4646TIP3   OH213943   2.804   1.630   1.247
 4646TIP3    H113944   2.754   1.559   1.207
 4646TIP3    H213945   2.884   1.636   1.195
 4647TIP3   OH213946   2.539   5.876   4.932
 4647TIP3    H113947   2.629   5.844   4.933
 4647TIP3    H213948   2.518   5.887   4.839
 4648TIP3   OH213949   0.935   5.759   0.575
 4648TIP3    H113950   1.026   5.735   0.594
 4648TIP3    H213951   0.905   5.692   0.514
 4649TIP3   OH213952   1.790   0.494   3.291
 4649TIP3    H113953   1.779   0.559   3.221
 4649TIP3    H213954   1.822   0.416   3.247
 4650TIP3   OH213955   3.836   5.363   4.483
 4650TIP3    H113956   3.920   5.404   4.503
 4650TIP3    H213957   3.817   5.389   4.393
 4651TIP3   OH213958   4.050   3.703   3.474
 4651TIP3    H113959   4.037   3.754   3.554
 4651TIP3    H213960   3.997   3.749   3.408
 4652TIP3   OH213961   5.045   1.850   4.360
 4652TIP3    H113962   5.010   1.762   4.371
 4652TIP3    H213963   4.981   1.896   4.306
 4653TIP3   OH213964   0.281   4.374   3.821
 4653TIP3    H113965   0.199   4.423   3.824
 4653TIP3    H213966   0.287   4.331   3.906
 4654TIP3   OH213967   1.997   4.925   4.954
 4654TIP3    H113968   2.038   4.968   5.029
 4654TIP3    H213969   1.927   4.872   4.992
 4655TIP3   OH213970   0.368   1.487   3.946
 4655TIP3    H113971   0.295   1.441   3.903
 4655TIP3    H213972   0.353   1.579   3.925
 4656TIP3   OH213973   1.827   3.672   1.826
 4656TIP3    H113974   1.889   3.739   1.797
 4656TIP3    H213975   1.830   3.676   1.921
 4657TIP3   OH213976   3.384   5.391   4.721
 4657TIP3    H113977   3.380   5.296   4.734
 4657TIP3    H213978   3.410   5.401   4.629
 4658TIP3   OH213979   1.574   4.799   2.492
 4658TIP3    H113980   1.630   4.721   2.495
 4658TIP3    H213981   1.492   4.768   2.453
 4659TIP3   OH213982   1.953   2.343   2.890
 4659TIP3    H113983   1.922   2.361   2.978
 4659TIP3    H213984   1.996   2.257   2.896
 4660TIP3   OH213985   1.213   2.961   0.466
 4660TIP3    H113986   1.172   3.005   0.392
 4660TIP3    H213987   1.298   2.932   0.433
 4661TIP3   OH213988   3.316   3.433   3.829
 4661TIP3    H113989   3.323   3.374   3.903
 4661TIP3    H213990   3.406   3.443   3.797
 4662TIP3   OH213991   3.709   1.546   1.717
 4662TIP3    H113992   3.625   1.513   1.686
 4662TIP3    H213993   3.773   1.508   1.656
 4663TIP3   OH213994   2.659   1.135   1.048
 4663TIP3    H113995   2.592   1.149   0.980
 4663TIP3    H213996   2.730   1.090   1.002
 4664TIP3   OH213997   0.221   0.662   4.460
 4664TIP3    H113998   0.276   0.629   4.389
 4664TIP3    H213999   0.144   0.697   4.417
 4665TIP3   OH214000   4.159   3.227   3.418
 4665TIP3    H114001   4.133   3.170   3.490
 4665TIP3    H214002   4.079   3.273   3.393
 4666TIP3   OH214003   5.474   5.522   4.021
 4666TIP3    H114004   5.386   5.548   4.049
 4666TIP3    H214005   5.479   5.548   3.929
 4667TIP3   OH214006   2.159   2.170   0.723
 4667TIP3    H114007   2.153   2.132   0.636
 4667TIP3    H214008   2.089   2.235   0.726
 4668TIP3   OH214009   2.403   3.820   4.146
 4668TIP3    H114010   2.371   3.736   4.177
 4668TIP3    H214011   2.482   3.799   4.096
 4669TIP3   OH214012   5.918   1.400   3.408
 4669TIP3    H114013   5.908   1.492   3.386
 4669TIP3    H214014   5.834   1.375   3.446
 4670TIP3   OH214015   0.692   3.786   4.830
 4670TIP3    H114016   0.690   3.873   4.871
 4670TIP3    H214017   0.607   3.748   4.850
 4671TIP3   OH214018   4.556   0.845   5.263
 4671TIP3    H114019   4.536   0.753   5.245
 4671TIP3    H214020   4.500   0.894   5.203
 4672TIP3   OH214021   3.270   1.394   0.673
 4672TIP3    H114022   3.324   1.461   0.632
 4672TIP3    H214023   3.184   1.405   0.634
 4673TIP3   OH214024   2.434   5.822   3.119
 4673TIP3    H114025   2.433   5.911   3.153
 4673TIP3    H214026   2.527   5.802   3.105
 4674TIP3   OH214027   3.304   1.737   3.431
 4674TIP3    H114028   3.239   1.668   3.416
 4674TIP3    H214029   3.375   1.716   3.370
 4675TIP3   OH214030   5.764   5.089   0.179
 4675TIP3    H114031   5.740   5.085   0.086
 4675TIP3    H214032   5.823   5.015   0.192
 4676TIP3   OH214033   4.975   4.982   1.133
 4676TIP3    H114034   5.060   5.005   1.170
 4676TIP3    H214035   4.994   4.917   1.065
 4677TIP3   OH214036   2.158   4.146   2.033
 4677TIP3    H114037   2.166   4.145   2.128
 4677TIP3    H214038   2.188   4.233   2.007
 4678TIP3   OH214039   1.218   5.514   3.834
 4678TIP3    H114040   1.151   5.447   3.843
 4678TIP3    H214041   1.245   5.510   3.742
 4679TIP3   OH214042   5.878   2.235   2.264
 4679TIP3    H114043   5.911   2.192   2.185
 4679TIP3    H214044   5.919   2.321   2.264
 4680TIP3   OH214045   4.125   0.618   0.414
 4680TIP3    H114046   4.080   0.540   0.447
 4680TIP3    H214047   4.140   0.600   0.322
 4681TIP3   OH214048   6.293   5.813   2.060
 4681TIP3    H114049   6.201   5.830   2.080
 4681TIP3    H214050   6.332   5.900   2.048
 4682TIP3   OH214051   5.188   3.012   3.770
 4682TIP3    H114052   5.214   3.103   3.784
 4682TIP3    H214053   5.182   2.975   3.858
 4683TIP3   OH214054   6.164   5.580   3.719
 4683TIP3    H114055   6.148   5.664   3.761
 4683TIP3    H214056   6.156   5.598   3.625
 4684TIP3   OH214057   4.030   2.076   1.294
 4684TIP3    H114058   4.015   1.999   1.349
 4684TIP3    H214059   3.947   2.123   1.296
 4685TIP3   OH214060   4.126   3.405   3.880
 4685TIP3    H114061   4.088   3.416   3.967
 4685TIP3    H214062   4.101   3.316   3.854
 4686TIP3   OH214063   3.324   3.985   0.014
 4686TIP3    H114064   3.405   4.029   0.041
 4686TIP3    H214065   3.257   4.020   0.072
 4687TIP3   OH214066   2.972   0.975   3.818
 4687TIP3    H114067   2.956   0.925   3.739
 4687TIP3    H214068   3.063   0.955   3.841
 4688TIP3   OH214069   6.232   5.384   4.570
 4688TIP3    H114070   6.237   5.290   4.551
 4688TIP3    H214071   6.232   5.389   4.666
 4689TIP3   OH214072   3.442   3.248   0.894
 4689TIP3    H114073   3.432   3.281   0.805
 4689TIP3    H214074   3.468   3.325   0.945
 4690TIP3   OH214075   0.419   3.838   1.950
 4690TIP3    H114076   0.457   3.786   1.879
 4690TIP3    H214077   0.476   3.822   2.025
 4691TIP3   OH214078   3.111   6.021   1.302
 4691TIP3    H114079   3.102   5.925   1.301
 4691TIP3    H214080   3.205   6.036   1.291
 4692TIP3   OH214081   4.979   4.959   0.648
 4692TIP3    H114082   5.014   4.965   0.738
 4692TIP3    H214083   5.055   4.974   0.592
 4693TIP3   OH214084   0.780   4.414   4.054
 4693TIP3    H114085   0.824   4.454   3.979
 4693TIP3    H214086   0.825   4.331   4.066
 4694TIP3   OH214087   3.120   1.850   1.305
 4694TIP3    H114088   3.152   1.922   1.251
 4694TIP3    H214089   3.076   1.791   1.244
 4695TIP3   OH214090   1.856   3.159   0.219
 4695TIP3    H114091   1.857   3.248   0.184
 4695TIP3    H214092   1.840   3.103   0.143
 4696TIP3   OH214093   6.305   4.888   4.200
 4696TIP3    H114094   6.258   4.810   4.228
 4696TIP3    H214095   6.381   4.853   4.152
 4697TIP3   OH214096   0.286   3.574   3.857
 4697TIP3    H114097   0.330   3.587   3.941
 4697TIP3    H214098   0.255   3.483   3.861
 4698TIP3   OH214099   0.542   5.598   4.851
 4698TIP3    H114100   0.530   5.534   4.780
 4698TIP3    H214101   0.559   5.544   4.929
 4699TIP3   OH214102   4.270   3.917   3.001
 4699TIP3    H114103   4.245   3.826   2.986
 4699TIP3    H214104   4.220   3.967   2.937
 4700TIP3   OH214105   4.637   1.620   1.916
 4700TIP3    H114106   4.605   1.704   1.884
 4700TIP3    H214107   4.566   1.558   1.898
 4701TIP3   OH214108   6.047   0.068   4.862
 4701TIP3    H114109   6.075   0.007   4.794
 4701TIP3    H214110   5.953   0.080   4.846
 4702TIP3   OH214111   4.547   2.670   0.775
 4702TIP3    H114112   4.487   2.600   0.799
 4702TIP3    H214113   4.503   2.715   0.703
 4703TIP3   OH214114   3.236   0.150   2.265
 4703TIP3    H114115   3.266   0.191   2.346
 4703TIP3    H214116   3.145   0.178   2.256
 4704TIP3   OH214117   3.411   4.514   4.637
 4704TIP3    H114118   3.445   4.529   4.725
 4704TIP3    H214119   3.325   4.473   4.651
 4705TIP3   OH214120   1.625   1.295   1.363
 4705TIP3    H114121   1.640   1.243   1.442
 4705TIP3    H214122   1.548   1.348   1.384
 4706TIP3   OH214123   3.173   3.769   4.703
 4706TIP3    H114124   3.097   3.723   4.666
 4706TIP3    H214125   3.175   3.852   4.655
 4707TIP3   OH214126   3.381   3.897   4.895
 4707TIP3    H114127   3.315   3.830   4.914
 4707TIP3    H214128   3.422   3.915   4.980
 4708TIP3   OH214129   1.558   1.229   0.712
 4708TIP3    H114130   1.641   1.224   0.760
 4708TIP3    H214131   1.513   1.147   0.734
 4709TIP3   OH214132   2.446   1.768   5.155
 4709TIP3    H114133   2.377   1.762   5.220
 4709TIP3    H214134   2.432   1.853   5.113
 4710TIP3   OH214135   5.233   0.882   4.471
 4710TIP3    H114136   5.285   0.911   4.396
 4710TIP3    H214137   5.260   0.791   4.485
 4711TIP3   OH214138   0.049   1.680   0.162
 4711TIP3    H114139   0.046   1.771   0.190
 4711TIP3    H214140   0.088   1.634   0.236
 4712TIP3   OH214141   2.618   1.644   0.620
 4712TIP3    H114142   2.659   1.728   0.600
 4712TIP3    H214143   2.525   1.663   0.622
 4713TIP3   OH214144   5.574   2.240   3.194
 4713TIP3    H114145   5.489   2.279   3.172
 4713TIP3    H214146   5.597   2.280   3.278
 4714TIP3   OH214147   2.685   1.600   0.962
 4714TIP3    H114148   2.728   1.514   0.963
 4714TIP3    H214149   2.594   1.581   0.938
 4715TIP3   OH214150   3.563   0.793   0.755
 4715TIP3    H114151   3.652   0.827   0.746
 4715TIP3    H214152   3.507   0.869   0.742
 4716TIP3   OH214153   3.063   1.364   1.108
 4716TIP3    H114154   3.068   1.321   1.023
 4716TIP3    H214155   3.111   1.307   1.167
 4717TIP3   OH214156   4.466   2.069   3.522
 4717TIP3    H114157   4.535   2.011   3.489
 4717TIP3    H214158   4.410   2.086   3.446
 4718TIP3   OH214159   5.577   1.814   2.477
 4718TIP3    H114160   5.500   1.765   2.448
 4718TIP3    H214161   5.629   1.825   2.397
 4719TIP3   OH214162   1.378   3.385   0.201
 4719TIP3    H114163   1.389   3.379   0.106
 4719TIP3    H214164   1.414   3.304   0.235
 4720TIP3   OH214165   4.676   3.907   1.195
 4720TIP3    H114166   4.723   3.837   1.240
 4720TIP3    H214167   4.630   3.954   1.265
 4721TIP3   OH214168   4.958   1.238   1.816
 4721TIP3    H114169   4.983   1.328   1.794
 4721TIP3    H214170   4.925   1.202   1.733
 4722TIP3   OH214171   1.476   1.991   2.109
 4722TIP3    H114172   1.500   1.913   2.159
 4722TIP3    H214173   1.422   2.043   2.170
 4723TIP3   OH214174   3.003   5.027   3.800
 4723TIP3    H114175   3.075   5.038   3.739
 4723TIP3    H214176   3.031   5.073   3.879
 4724TIP3   OH214177   1.686   1.000   0.966
 4724TIP3    H114178   1.680   1.095   0.981
 4724TIP3    H214179   1.753   0.970   1.028
 4725TIP3   OH214180   1.541   0.503   3.666
 4725TIP3    H114181   1.611   0.568   3.667
 4725TIP3    H214182   1.546   0.463   3.579
 4726TIP3   OH214183   1.920   3.385   1.549
 4726TIP3    H114184   1.886   3.417   1.633
 4726TIP3    H214185   2.006   3.349   1.570
 4727TIP3   OH214186   2.826   4.941   3.370
 4727TIP3    H114187   2.773   4.943   3.450
 4727TIP3    H214188   2.762   4.935   3.300
 4728TIP3   OH214189   4.502   4.745   4.941
 4728TIP3    H114190   4.445   4.671   4.919
 4728TIP3    H214191   4.581   4.732   4.888
 4729TIP3   OH214192   0.856   3.288   1.390
 4729TIP3    H114193   0.826   3.379   1.397
 4729TIP3    H214194   0.851   3.267   1.297
 4730TIP3   OH214195   2.450   5.220   4.235
 4730TIP3    H114196   2.406   5.285   4.180
 4730TIP3    H214197   2.395   5.142   4.227
 4731TIP3   OH214198   0.326   0.908   5.184
 4731TIP3    H114199   0.231   0.902   5.188
 4731TIP3    H214200   0.352   0.841   5.121
 4732TIP3   OH214201   1.104   2.052   0.667
 4732TIP3    H114202   1.192   2.084   0.690
 4732TIP3    H214203   1.091   1.975   0.722
 4733TIP3   OH214204   5.959   4.661   0.371
 4733TIP3    H114205   5.997   4.697   0.452
 4733TIP3    H214206   5.865   4.662   0.386
 4734TIP3   OH214207   1.890   1.922   1.256
 4734TIP3    H114208   1.898   1.914   1.351
 4734TIP3    H214209   1.980   1.935   1.225
 4735TIP3   OH214210   3.827   5.915   3.972
 4735TIP3    H114211   3.903   5.935   3.917
 4735TIP3    H214212   3.813   5.994   4.024
 4736TIP3   OH214213   4.286   3.090   3.941
 4736TIP3    H114214   4.291   3.002   3.978
 4736TIP3    H214215   4.345   3.088   3.866
 4737TIP3   OH214216   4.094   1.134   1.115
 4737TIP3    H114217   4.009   1.123   1.156
 4737TIP3    H214218   4.086   1.215   1.064
 4738TIP3   OH214219   4.648   3.659   0.665
 4738TIP3    H114220   4.690   3.594   0.721
 4738TIP3    H214221   4.718   3.717   0.637
 4739TIP3   OH214222   1.508   0.199   3.248
 4739TIP3    H114223   1.581   0.138   3.248
 4739TIP3    H214224   1.488   0.212   3.155
 4740TIP3   OH214225   2.659   2.724   4.350
 4740TIP3    H114226   2.630   2.712   4.260
 4740TIP3    H214227   2.638   2.642   4.394
 4741TIP3   OH214228   0.298   4.837   2.516
 4741TIP3    H114229   0.217   4.785   2.518
 4741TIP3    H214230   0.366   4.775   2.541
 4742TIP3   OH214231   3.140   3.082   2.493
 4742TIP3    H114232   3.200   3.021   2.450
 4742TIP3    H214233   3.053   3.048   2.472
 4743TIP3   OH214234   3.179   2.315   4.332
 4743TIP3    H114235   3.116   2.325   4.261
 4743TIP3    H214236   3.147   2.239   4.381
 4744TIP3   OH214237   0.132   5.243   2.525
 4744TIP3    H114238   0.145   5.233   2.430
 4744TIP3    H214239   0.203   5.191   2.564
 4745TIP3   OH214240   1.462   1.502   0.859
 4745TIP3    H114241   1.491   1.458   0.779
 4745TIP3    H214242   1.369   1.478   0.868
 4746TIP3   OH214243   6.277   2.995   3.699
 4746TIP3    H114244   6.314   2.916   3.661
 4746TIP3    H214245   6.247   2.969   3.786
 4747TIP3   OH214246   1.971   0.824   2.087
 4747TIP3    H114247   1.877   0.830   2.076
 4747TIP3    H214248   2.008   0.874   2.014
 4748TIP3   OH214249   5.140   5.245   1.693
 4748TIP3    H114250   5.192   5.227   1.615
 4748TIP3    H214251   5.056   5.203   1.676
 4749TIP3   OH214252   2.922   4.487   3.466
 4749TIP3    H114253   2.869   4.444   3.399
 4749TIP3    H214254   2.954   4.415   3.521
 4750TIP3   OH214255   1.368   0.326   2.292
 4750TIP3    H114256   1.283   0.286   2.275
 4750TIP3    H214257   1.348   0.418   2.312
 4751TIP3   OH214258   1.050   6.047   0.251
 4751TIP3    H114259   1.063   5.968   0.304
 4751TIP3    H214260   1.100   6.031   0.171
 4752TIP3   OH214261   1.036   0.285   0.489
 4752TIP3    H114262   1.049   0.204   0.439
 4752TIP3    H214263   0.941   0.301   0.483
 4753TIP3   OH214264   2.333   1.314   3.749
 4753TIP3    H114265   2.410   1.322   3.806
 4753TIP3    H214266   2.363   1.346   3.664
 4754TIP3   OH214267   3.659   1.941   5.106
 4754TIP3    H114268   3.709   1.876   5.155
 4754TIP3    H214269   3.652   1.904   5.018
 4755TIP3   OH214270   5.025   5.528   2.763
 4755TIP3    H114271   4.983   5.460   2.815
 4755TIP3    H214272   4.985   5.610   2.792
 4756TIP3   OH214273   4.410   3.359   4.026
 4756TIP3    H114274   4.369   3.313   3.952
 4756TIP3    H214275   4.503   3.357   4.006
 4757TIP3   OH214276   3.589   1.987   0.992
 4757TIP3    H114277   3.612   2.052   1.058
 4757TIP3    H214278   3.589   1.904   1.039
 4758TIP3   OH214279   4.004   5.285   4.095
 4758TIP3    H114280   4.055   5.263   4.174
 4758TIP3    H214281   4.060   5.346   4.047
 4759TIP3   OH214282   5.725   2.617   2.945
 4759TIP3    H114283   5.711   2.657   3.030
 4759TIP3    H214284   5.810   2.573   2.953
 4760TIP3   OH214285   1.691   5.484   1.974
 4760TIP3    H114286   1.654   5.423   1.910
 4760TIP3    H214287   1.656   5.455   2.058
 4761TIP3   OH214288   2.289   4.993   3.453
 4761TIP3    H114289   2.333   5.078   3.447
 4761TIP3    H214290   2.198   5.014   3.474
 4762TIP3   OH214291   0.701   3.186   5.168
 4762TIP3    H114292   0.714   3.092   5.151
 4762TIP3    H214293   0.788   3.224   5.156
 4763TIP3   OH214294   4.483   0.672   1.160
 4763TIP3    H114295   4.527   0.625   1.089
 4763TIP3    H214296   4.390   0.666   1.139
 4764TIP3   OH214297   3.212   2.531   0.852
 4764TIP3    H114298   3.119   2.545   0.830
 4764TIP3    H214299   3.213   2.524   0.947
 4765TIP3   OH214300   3.417   0.576   1.773
 4765TIP3    H114301   3.453   0.490   1.751
 4765TIP3    H214302   3.324   0.559   1.791
 4766TIP3   OH214303   1.064   1.172   1.688
 4766TIP3    H114304   1.117   1.100   1.653
 4766TIP3    H214305   1.063   1.156   1.783
 4767TIP3   OH214306   3.607   4.869   3.301
 4767TIP3    H114307   3.607   4.776   3.323
 4767TIP3    H214308   3.600   4.871   3.206
 4768TIP3   OH214309   3.778   5.642   4.401
 4768TIP3    H114310   3.818   5.579   4.341
 4768TIP3    H214311   3.756   5.717   4.346
 4769TIP3   OH214312   0.542   1.555   0.459
 4769TIP3    H114313   0.608   1.488   0.478
 4769TIP3    H214314   0.546   1.568   0.365
 4770TIP3   OH214315   2.699   3.832   4.700
 4770TIP3    H114316   2.644   3.761   4.734
 4770TIP3    H214317   2.775   3.787   4.662
 4771TIP3   OH214318   0.117   4.651   4.396
 4771TIP3    H114319   0.159   4.568   4.374
 4771TIP3    H214320   0.032   4.627   4.432
 4772TIP3   OH214321   1.476   2.502   0.567
 4772TIP3    H114322   1.542   2.562   0.533
 4772TIP3    H214323   1.526   2.426   0.597
 4773TIP3   OH214324   5.434   0.850   3.708
 4773TIP3    H114325   5.456   0.904   3.633
 4773TIP3    H214326   5.456   0.761   3.681
 4774TIP3   OH214327   0.503   1.237   3.260
 4774TIP3    H114328   0.458   1.163   3.220
 4774TIP3    H214329   0.501   1.306   3.193
 4775TIP3   OH214330   5.630   4.740   1.785
 4775TIP3    H114331   5.579   4.782   1.716
 4775TIP3    H214332   5.645   4.651   1.753
 4776TIP3   OH214333   1.356   3.514   4.796
 4776TIP3    H114334   1.330   3.424   4.777
 4776TIP3    H214335   1.283   3.567   4.764
 4777TIP3   OH214336   4.071   0.104   0.258
 4777TIP3    H114337   3.993   0.155   0.236
 4777TIP3    H214338   4.038   0.031   0.311
 4778TIP3   OH214339   4.630   2.278   2.273
 4778TIP3    H114340   4.688   2.319   2.337
 4778TIP3    H214341   4.610   2.348   2.211
 4779TIP3   OH214342   2.313   4.452   3.585
 4779TIP3    H114343   2.269   4.458   3.500
 4779TIP3    H214344   2.380   4.385   3.572
 4780TIP3   OH214345   1.684   4.265   0.031
 4780TIP3    H114346   1.717   4.175   0.038
 4780TIP3    H214347   1.761   4.320   0.046
 4781TIP3   OH214348   1.252   2.900   3.123
 4781TIP3    H114349   1.203   2.979   3.147
 4781TIP3    H214350   1.209   2.868   3.044
 4782TIP3   OH214351   5.297   5.349   4.360
 4782TIP3    H114352   5.385   5.351   4.322
 4782TIP3    H214353   5.311   5.325   4.452
 4783TIP3   OH214354   4.145   1.926   0.327
 4783TIP3    H114355   4.092   1.850   0.308
 4783TIP3    H214356   4.235   1.893   0.328
 4784TIP3   OH214357   5.667   5.178   4.748
 4784TIP3    H114358   5.575   5.152   4.743
 4784TIP3    H214359   5.696   5.183   4.657
 4785TIP3   OH214360   6.049   1.642   1.741
 4785TIP3    H114361   6.139   1.650   1.772
 4785TIP3    H214362   6.004   1.719   1.777
 4786TIP3   OH214363   0.257   0.209   0.542
 4786TIP3    H114364   0.335   0.237   0.494
 4786TIP3    H214365   0.195   0.281   0.531
 4787TIP3   OH214366   4.711   3.865   0.893
 4787TIP3    H114367   4.750   3.896   0.974
 4787TIP3    H214368   4.667   3.784   0.917
 4788TIP3   OH214369   5.243   2.957   0.127
 4788TIP3    H114370   5.244   2.922   0.216
 4788TIP3    H214371   5.204   2.887   0.074
 4789TIP3   OH214372   3.445   4.537   0.094
 4789TIP3    H114373   3.495   4.509   0.017
 4789TIP3    H214374   3.363   4.488   0.088
 4790TIP3   OH214375   3.342   3.203   3.131
 4790TIP3    H114376   3.291   3.158   3.063
 4790TIP3    H214377   3.413   3.142   3.150
 4791TIP3   OH214378   0.951   1.994   5.179
 4791TIP3    H114379   1.042   2.023   5.184
 4791TIP3    H214380   0.948   1.934   5.104
 4792TIP3   OH214381   2.825   0.729   0.939
 4792TIP3    H114382   2.771   0.672   0.993
 4792TIP3    H214383   2.870   0.786   1.002
 4793TIP3   OH214384   0.901   0.859   2.011
 4793TIP3    H114385   0.956   0.801   1.959
 4793TIP3    H214386   0.858   0.802   2.074
 4794TIP3   OH214387   4.839   3.720   1.335
 4794TIP3    H114388   4.884   3.668   1.269
 4794TIP3    H214389   4.830   3.661   1.410
 4795TIP3   OH214390   3.704   1.393   3.897
 4795TIP3    H114391   3.655   1.457   3.948
 4795TIP3    H214392   3.690   1.310   3.941
 4796TIP3   OH214393   4.068   2.745   4.382
 4796TIP3    H114394   4.092   2.814   4.444
 4796TIP3    H214395   4.106   2.665   4.418
 4797TIP3   OH214396   0.923   2.939   2.057
 4797TIP3    H114397   0.857   2.895   2.003
 4797TIP3    H214398   0.999   2.882   2.054
 4798TIP3   OH214399   0.132   3.112   2.171
 4798TIP3    H114400   0.051   3.064   2.185
 4798TIP3    H214401   0.104   3.201   2.149
 4799TIP3   OH214402   5.154   2.652   1.553
 4799TIP3    H114403   5.095   2.659   1.478
 4799TIP3    H214404   5.132   2.568   1.593
 4800TIP3   OH214405   6.138   2.512   3.687
 4800TIP3    H114406   6.141   2.460   3.767
 4800TIP3    H214407   6.072   2.469   3.633
 4801TIP3   OH214408   3.482   5.709   4.656
 4801TIP3    H114409   3.553   5.718   4.720
 4801TIP3    H214410   3.405   5.687   4.708
 4802TIP3   OH214411   4.407   0.952   4.128
 4802TIP3    H114412   4.426   1.044   4.110
 4802TIP3    H214413   4.399   0.911   4.042
 4803TIP3   OH214414   3.201   0.289   2.859
 4803TIP3    H114415   3.132   0.275   2.794
 4803TIP3    H214416   3.162   0.263   2.942
 4804TIP3   OH214417   1.998   1.924   5.183
 4804TIP3    H114418   2.043   1.993   5.135
 4804TIP3    H214419   1.927   1.968   5.229
 4805TIP3   OH214420   4.817   5.083   2.436
 4805TIP3    H114421   4.740   5.068   2.381
 4805TIP3    H214422   4.840   5.175   2.420
 4806TIP3   OH214423   6.075   3.099   3.987
 4806TIP3    H114424   6.029   3.031   3.939
 4806TIP3    H214425   6.007   3.162   4.011
 4807TIP3   OH214426   0.533   4.610   4.670
 4807TIP3    H114427   0.508   4.533   4.720
 4807TIP3    H214428   0.449   4.647   4.639
 4808TIP3   OH214429   1.526   4.871   2.913
 4808TIP3    H114430   1.503   4.891   2.823
 4808TIP3    H214431   1.497   4.947   2.963
 4809TIP3   OH214432   2.442   0.392   2.261
 4809TIP3    H114433   2.376   0.436   2.315
 4809TIP3    H214434   2.395   0.321   2.218
 4810TIP3   OH214435   5.217   1.875   5.126
 4810TIP3    H114436   5.275   1.910   5.059
 4810TIP3    H214437   5.187   1.952   5.175
 4811TIP3   OH214438   6.257   5.665   1.044
 4811TIP3    H114439   6.237   5.662   1.138
 4811TIP3    H214440   6.251   5.758   1.021
 4812TIP3   OH214441   0.063   5.370   1.209
 4812TIP3    H114442   0.080   5.280   1.235
 4812TIP3    H214443   0.085   5.373   1.116
 4813TIP3   OH214444   3.174   4.378   4.694
 4813TIP3    H114445   3.128   4.352   4.614
 4813TIP3    H214446   3.211   4.297   4.729
 4814TIP3   OH214447   4.900   2.533   4.427
 4814TIP3    H114448   4.823   2.478   4.441
 4814TIP3    H214449   4.959   2.511   4.499
 4815TIP3   OH214450   4.032   3.550   2.152
 4815TIP3    H114451   4.072   3.581   2.234
 4815TIP3    H214452   3.988   3.627   2.116
 4816TIP3   OH214453   0.146   0.833   2.954
 4816TIP3    H114454   0.080   0.830   2.885
 4816TIP3    H214455   0.226   0.862   2.909
 4817TIP3   OH214456   2.394   5.423   4.074
 4817TIP3    H114457   2.451   5.499   4.086
 4817TIP3    H214458   2.426   5.382   3.994
 4818TIP3   OH214459   4.877   2.023   0.057
 4818TIP3    H114460   4.870   2.112   0.091
 4818TIP3    H214461   4.801   1.978   0.093
 4819TIP3   OH214462   4.502   3.659   1.255
 4819TIP3    H114463   4.551   3.692   1.179
 4819TIP3    H214464   4.478   3.570   1.231
 4820TIP3   OH214465   1.737   0.696   4.935
 4820TIP3    H114466   1.706   0.606   4.930
 4820TIP3    H214467   1.669   0.742   4.985
 4821TIP3   OH214468   4.878   3.125   0.072
 4821TIP3    H114469   4.789   3.160   0.075
 4821TIP3    H214470   4.925   3.184   0.013
 4822TIP3   OH214471   4.458   5.212   4.570
 4822TIP3    H114472   4.365   5.217   4.549
 4822TIP3    H214473   4.464   5.145   4.638
 4823TIP3   OH214474   0.561   2.550   0.743
 4823TIP3    H114475   0.543   2.499   0.822
 4823TIP3    H214476   0.510   2.507   0.674
 4824TIP3   OH214477   3.286   5.065   3.206
 4824TIP3    H114478   3.206   5.103   3.244
 4824TIP3    H214479   3.356   5.124   3.233
 4825TIP3   OH214480   2.620   3.415   2.647
 4825TIP3    H114481   2.572   3.455   2.575
 4825TIP3    H214482   2.552   3.377   2.703
 4826TIP3   OH214483   1.660   5.732   4.807
 4826TIP3    H114484   1.650   5.663   4.741
 4826TIP3    H214485   1.755   5.749   4.808
 4827TIP3   OH214486   4.598   2.285   3.654
 4827TIP3    H114487   4.619   2.251   3.741
 4827TIP3    H214488   4.576   2.207   3.603
 4828TIP3   OH214489   3.451   5.460   2.996
 4828TIP3    H114490   3.357   5.473   3.007
 4828TIP3    H214491   3.471   5.498   2.911
 4829TIP3   OH214492   1.758   0.804   2.388
 4829TIP3    H114493   1.742   0.715   2.420
 4829TIP3    H214494   1.731   0.860   2.460
 4830TIP3   OH214495   4.956   4.608   0.114
 4830TIP3    H114496   4.945   4.591   0.020
 4830TIP3    H214497   5.034   4.558   0.138
 4831TIP3   OH214498   4.497   5.189   0.638
 4831TIP3    H114499   4.545   5.269   0.660
 4831TIP3    H214500   4.513   5.130   0.712
 4832TIP3   OH214501   2.365   5.811   0.979
 4832TIP3    H114502   2.307   5.873   1.021
 4832TIP3    H214503   2.404   5.860   0.906
 4833TIP3   OH214504   2.691   2.443   2.358
 4833TIP3    H114505   2.673   2.396   2.276
 4833TIP3    H214506   2.783   2.470   2.350
 4834TIP3   OH214507   3.024   1.076   2.152
 4834TIP3    H114508   3.097   1.100   2.094
 4834TIP3    H214509   3.041   0.985   2.175
 4835TIP3   OH214510   5.005   3.878   2.929
 4835TIP3    H114511   5.079   3.837   2.975
 4835TIP3    H214512   4.951   3.915   2.999
 4836TIP3   OH214513   0.295   5.241   0.438
 4836TIP3    H114514   0.213   5.287   0.455
 4836TIP3    H214515   0.357   5.279   0.501
 4837TIP3   OH214516   2.637   4.900   3.170
 4837TIP3    H114517   2.613   4.870   3.083
 4837TIP3    H214518   2.579   4.974   3.186
 4838TIP3   OH214519   1.869   4.471   2.661
 4838TIP3    H114520   1.899   4.527   2.733
 4838TIP3    H214521   1.929   4.397   2.662
 4839TIP3   OH214522   5.311   2.582   1.306
 4839TIP3    H114523   5.219   2.597   1.284
 4839TIP3    H214524   5.358   2.593   1.224
 4840TIP3   OH214525   0.574   0.199   3.363
 4840TIP3    H114526   0.647   0.144   3.392
 4840TIP3    H214527   0.547   0.160   3.280
 4841TIP3   OH214528   4.346   1.350   4.922
 4841TIP3    H114529   4.388   1.435   4.914
 4841TIP3    H214530   4.257   1.369   4.952
 4842TIP3   OH214531   4.020   5.461   0.629
 4842TIP3    H114532   4.098   5.441   0.577
 4842TIP3    H214533   3.964   5.513   0.571
 4843TIP3   OH214534   6.011   2.486   1.326
 4843TIP3    H114535   6.105   2.470   1.329
 4843TIP3    H214536   5.976   2.439   1.402
 4844TIP3   OH214537   5.571   0.103   2.160
 4844TIP3    H114538   5.511   0.123   2.232
 4844TIP3    H214539   5.651   0.074   2.202
 4845TIP3   OH214540   2.330   1.777   1.417
 4845TIP3    H114541   2.304   1.689   1.446
 4845TIP3    H214542   2.369   1.763   1.331
 4846TIP3   OH214543   3.250   2.025   1.148
 4846TIP3    H114544   3.337   2.057   1.170
 4846TIP3    H214545   3.207   2.098   1.104
 4847TIP3   OH214546   0.190   4.711   0.307
 4847TIP3    H114547   0.226   4.798   0.289
 4847TIP3    H214548   0.257   4.650   0.275
 4848TIP3   OH214549   0.300   3.324   1.264
 4848TIP3    H114550   0.337   3.407   1.291
 4848TIP3    H214551   0.207   3.330   1.287
 4849TIP3   OH214552   2.225   0.051   0.566
 4849TIP3    H114553   2.251   0.143   0.560
 4849TIP3    H214554   2.144   0.052   0.618
 4850TIP3   OH214555   4.471   3.592   3.226
 4850TIP3    H114556   4.391   3.595   3.280
 4850TIP3    H214557   4.472   3.676   3.181
 4851TIP3   OH214558   2.882   3.102   1.240
 4851TIP3    H114559   2.887   3.011   1.268
 4851TIP3    H214560   2.795   3.131   1.269
 4852TIP3   OH214561   3.849   3.118   0.440
 4852TIP3    H114562   3.788   3.046   0.427
 4852TIP3    H214563   3.923   3.079   0.487
 4853TIP3   OH214564   5.647   1.544   2.081
 4853TIP3    H114565   5.713   1.484   2.047
 4853TIP3    H214566   5.564   1.499   2.068
 4854TIP3   OH214567   2.822   4.873   1.803
 4854TIP3    H114568   2.731   4.848   1.821
 4854TIP3    H214569   2.835   4.850   1.711
 4855TIP3   OH214570   5.793   3.934   1.493
 4855TIP3    H114571   5.794   3.895   1.406
 4855TIP3    H214572   5.716   3.897   1.536
 4856TIP3   OH214573   2.666   3.639   2.050
 4856TIP3    H114574   2.611   3.634   2.129
 4856TIP3    H214575   2.731   3.706   2.070
 4857TIP3   OH214576   1.058   1.572   1.402
 4857TIP3    H114577   1.048   1.479   1.382
 4857TIP3    H214578   1.140   1.578   1.451
 4858TIP3   OH214579   6.052   3.111   4.865
 4858TIP3    H114580   6.103   3.122   4.785
 4858TIP3    H214581   6.105   3.052   4.919
 4859TIP3   OH214582   2.621   2.001   4.481
 4859TIP3    H114583   2.603   2.081   4.431
 4859TIP3    H214584   2.557   2.003   4.552
 4860TIP3   OH214585   2.113   4.410   3.061
 4860TIP3    H114586   2.018   4.404   3.054
 4860TIP3    H214587   2.139   4.468   2.990
 4861TIP3   OH214588   3.302   3.912   3.204
 4861TIP3    H114589   3.362   3.934   3.133
 4861TIP3    H214590   3.257   3.833   3.175
 4862TIP3   OH214591   0.380   2.343   1.410
 4862TIP3    H114592   0.351   2.377   1.495
 4862TIP3    H214593   0.438   2.411   1.376
 4863TIP3   OH214594   3.008   4.581   1.477
 4863TIP3    H114595   2.931   4.536   1.445
 4863TIP3    H214596   3.082   4.531   1.443
 4864TIP3   OH214597   5.787   1.968   0.053
 4864TIP3    H114598   5.702   2.009   0.038
 4864TIP3    H214599   5.778   1.925   0.138
 4865TIP3   OH214600   5.781   2.582   3.589
 4865TIP3    H114601   5.802   2.644   3.518
 4865TIP3    H214602   5.866   2.561   3.628
 4866TIP3   OH214603   6.164   4.507   3.254
 4866TIP3    H114604   6.071   4.529   3.252
 4866TIP3    H214605   6.200   4.547   3.175
 4867TIP3   OH214606   3.752   3.939   4.707
 4867TIP3    H114607   3.780   3.978   4.624
 4867TIP3    H214608   3.792   3.994   4.774
 4868TIP3   OH214609   5.318   0.803   1.143
 4868TIP3    H114610   5.231   0.768   1.123
 4868TIP3    H214611   5.301   0.885   1.190
 4869TIP3   OH214612  -0.008   1.831   0.850
 4869TIP3    H114613   0.029   1.807   0.935
 4869TIP3    H214614   0.068   1.842   0.793
 4870TIP3   OH214615   0.952   5.320   4.315
 4870TIP3    H114616   1.038   5.360   4.315
 4870TIP3    H214617   0.932   5.306   4.222
 4871TIP3   OH214618   0.602   2.169   4.123
 4871TIP3    H114619   0.626   2.258   4.149
 4871TIP3    H214620   0.686   2.125   4.107
 4872TIP3   OH214621   0.616   2.508   3.762
 4872TIP3    H114622   0.630   2.437   3.700
 4872TIP3    H214623   0.544   2.558   3.725
 4873TIP3   OH214624   1.606   5.205   3.494
 4873TIP3    H114625   1.641   5.289   3.464
 4873TIP3    H214626   1.610   5.209   3.589
 4874TIP3   OH214627   2.167   3.940   2.335
 4874TIP3    H114628   2.126   3.857   2.311
 4874TIP3    H214629   2.131   3.960   2.421
 4875TIP3   OH214630   3.184   3.664   3.127
 4875TIP3    H114631   3.260   3.615   3.097
 4875TIP3    H214632   3.182   3.649   3.222
 4876TIP3   OH214633   4.207   3.427   0.776
 4876TIP3    H114634   4.209   3.421   0.680
 4876TIP3    H214635   4.136   3.488   0.795
 4877TIP3   OH214636   2.856   3.577   4.335
 4877TIP3    H114637   2.764   3.556   4.321
 4877TIP3    H214638   2.891   3.592   4.247
 4878TIP3   OH214639   2.981   0.251   0.275
 4878TIP3    H114640   3.010   0.301   0.199
 4878TIP3    H214641   3.029   0.168   0.269
 4879TIP3   OH214642   0.942   5.095   3.406
 4879TIP3    H114643   0.879   5.093   3.478
 4879TIP3    H214644   0.956   5.188   3.388
 4880TIP3   OH214645   2.922   1.420   2.837
 4880TIP3    H114646   2.904   1.512   2.854
 4880TIP3    H214647   2.902   1.376   2.920
 4881TIP3   OH214648   3.305   4.837   3.551
 4881TIP3    H114649   3.363   4.819   3.625
 4881TIP3    H214650   3.281   4.929   3.561
 4882TIP3   OH214651   5.996   4.858   2.089
 4882TIP3    H114652   6.013   4.804   2.166
 4882TIP3    H214653   5.972   4.797   2.020
 4883TIP3   OH214654   0.276   2.580   2.635
 4883TIP3    H114655   0.327   2.639   2.580
 4883TIP3    H214656   0.279   2.496   2.589
 4884TIP3   OH214657   2.982   5.305   4.456
 4884TIP3    H114658   2.912   5.352   4.501
 4884TIP3    H214659   3.049   5.372   4.440
 4885TIP3   OH214660   2.819   5.321   1.915
 4885TIP3    H114661   2.859   5.407   1.896
 4885TIP3    H214662   2.830   5.310   2.009
 4886TIP3   OH214663   4.852   2.674   4.140
 4886TIP3    H114664   4.920   2.662   4.205
 4886TIP3    H214665   4.850   2.592   4.091
 4887TIP3   OH214666   0.440   5.593   4.053
 4887TIP3    H114667   0.346   5.577   4.042
 4887TIP3    H214668   0.481   5.539   3.985
 4888TIP3   OH214669   3.968   2.476   2.048
 4888TIP3    H114670   3.952   2.568   2.069
 4888TIP3    H214671   4.063   2.471   2.036
 4889TIP3   OH214672   6.305   4.874   1.122
 4889TIP3    H114673   6.375   4.814   1.147
 4889TIP3    H214674   6.290   4.855   1.029
 4890TIP3   OH214675   3.264   0.046   2.709
 4890TIP3    H114676   3.274   0.094   2.626
 4890TIP3    H214677   3.170   0.037   2.720
 4891TIP3   OH214678   1.180   0.334   2.681
 4891TIP3    H114679   1.273   0.357   2.687
 4891TIP3    H214680   1.174   0.280   2.603
 4892TIP3   OH214681   5.992   3.258   5.145
 4892TIP3    H114682   6.004   3.163   5.148
 4892TIP3    H214683   5.962   3.276   5.056
 4893TIP3   OH214684   6.356   3.225   1.523
 4893TIP3    H114685   6.288   3.292   1.531
 4893TIP3    H214686   6.352   3.198   1.431
 4894TIP3   OH214687   3.159   2.319   3.293
 4894TIP3    H114688   3.178   2.268   3.215
 4894TIP3    H214689   3.203   2.272   3.364
 4895TIP3   OH214690   5.771   3.677   2.234
 4895TIP3    H114691   5.776   3.765   2.271
 4895TIP3    H214692   5.836   3.627   2.284
 4896TIP3   OH214693   4.404   1.585   2.714
 4896TIP3    H114694   4.482   1.538   2.745
 4896TIP3    H214695   4.333   1.551   2.769
 4897TIP3   OH214696   4.472   2.012   0.996
 4897TIP3    H114697   4.425   2.045   0.919
 4897TIP3    H214698   4.404   1.970   1.049
 4898TIP3   OH214699   5.516   0.116   4.322
 4898TIP3    H114700   5.605   0.149   4.324
 4898TIP3    H214701   5.508   0.064   4.403
 4899TIP3   OH214702   2.807   1.366   0.969
 4899TIP3    H114703   2.875   1.376   1.036
 4899TIP3    H214704   2.787   1.273   0.969
 4900TIP3   OH214705   0.099   0.150   2.275
 4900TIP3    H114706   0.050   0.147   2.192
 4900TIP3    H214707   0.077   0.235   2.313
 4901TIP3   OH214708   0.606   5.493   2.145
 4901TIP3    H114709   0.695   5.518   2.122
 4901TIP3    H214710   0.604   5.398   2.133
 4902TIP3   OH214711   0.826   2.795  -0.003
 4902TIP3    H114712   0.824   2.891  -0.002
 4902TIP3    H214713   0.824   2.770   0.089
 4903TIP3   OH214714   4.963   4.299   0.800
 4903TIP3    H114715   4.967   4.286   0.895
 4903TIP3    H214716   4.966   4.395   0.789
 4904TIP3   OH214717   5.984   3.277   0.925
 4904TIP3    H114718   5.990   3.200   0.982
 4904TIP3    H214719   5.955   3.241   0.840
 4905TIP3   OH214720   2.566   5.661   0.439
 4905TIP3    H114721   2.489   5.672   0.495
 4905TIP3    H214722   2.541   5.702   0.356
 4906TIP3   OH214723   1.793   1.462   3.659
 4906TIP3    H114724   1.746   1.421   3.587
 4906TIP3    H214725   1.818   1.389   3.716
 4907TIP3   OH214726   4.474   2.168   0.375
 4907TIP3    H114727   4.439   2.233   0.437
 4907TIP3    H214728   4.490   2.217   0.295
 4908TIP3   OH214729   4.034   3.933  -0.041
 4908TIP3    H114730   3.959   3.898   0.009
 4908TIP3    H214731   4.074   3.997   0.018
 4909TIP3   OH214732   1.567   3.981   0.851
 4909TIP3    H114733   1.542   4.020   0.935
 4909TIP3    H214734   1.485   3.950   0.813
 4910TIP3   OH214735   0.756   5.142   1.431
 4910TIP3    H114736   0.811   5.064   1.438
 4910TIP3    H214737   0.704   5.142   1.511
 4911TIP3   OH214738   6.325   0.337   0.013
 4911TIP3    H114739   6.268   0.296  -0.052
 4911TIP3    H214740   6.293   0.303   0.097
 4912TIP3   OH214741   2.187   0.685   3.056
 4912TIP3    H114742   2.275   0.715   3.077
 4912TIP3    H214743   2.185   0.680   2.960
 4913TIP3   OH214744   1.341   2.097   4.456
 4913TIP3    H114745   1.380   2.149   4.527
 4913TIP3    H214746   1.247   2.098   4.475
 4914TIP3   OH214747   3.516   1.668   1.109
 4914TIP3    H114748   3.611   1.674   1.101
 4914TIP3    H214749   3.502   1.639   1.199
 4915TIP3   OH214750   3.557   1.015   2.053
 4915TIP3    H114751   3.587   0.983   2.138
 4915TIP3    H214752   3.531   0.936   2.005
 4916TIP3   OH214753   0.529   5.899   4.275
 4916TIP3    H114754   0.566   5.821   4.234
 4916TIP3    H214755   0.602   5.960   4.281
 4917TIP3   OH214756   1.950   1.601   2.716
 4917TIP3    H114757   1.925   1.599   2.624
 4917TIP3    H214758   1.873   1.569   2.763
 4918TIP3   OH214759   1.227   2.423   3.576
 4918TIP3    H114760   1.318   2.397   3.567
 4918TIP3    H214761   1.218   2.500   3.520
 4919TIP3   OH214762   4.989   2.898   0.956
 4919TIP3    H114763   4.903   2.861   0.939
 4919TIP3    H214764   5.032   2.898   0.870
 4920TIP3   OH214765   5.105   1.561   2.764
 4920TIP3    H114766   5.142   1.569   2.852
 4920TIP3    H214767   5.013   1.538   2.779
 4921TIP3   OH214768   1.216   2.322   2.248
 4921TIP3    H114769   1.215   2.237   2.293
 4921TIP3    H214770   1.260   2.381   2.309
 4922TIP3   OH214771   2.795   0.977   0.530
 4922TIP3    H114772   2.846   0.973   0.449
 4922TIP3    H214773   2.821   0.898   0.577
 4923TIP3   OH214774   0.688   5.926   3.131
 4923TIP3    H114775   0.772   5.961   3.099
 4923TIP3    H214776   0.657   5.870   3.060
 4924TIP3   OH214777   3.455   2.406   4.272
 4924TIP3    H114778   3.450   2.437   4.182
 4924TIP3    H214779   3.371   2.363   4.287
 4925TIP3   OH214780   1.072   5.309   3.196
 4925TIP3    H114781   1.013   5.382   3.182
 4925TIP3    H214782   1.041   5.241   3.137
 4926TIP3   OH214783   2.642   5.577   4.494
 4926TIP3    H114784   2.550   5.572   4.517
 4926TIP3    H214785   2.662   5.493   4.452
 4927TIP3   OH214786   4.988   3.431   1.718
 4927TIP3    H114787   5.063   3.483   1.688
 4927TIP3    H214788   5.007   3.413   1.810
 4928TIP3   OH214789   4.826   4.188   2.444
 4928TIP3    H114790   4.830   4.179   2.349
 4928TIP3    H214791   4.893   4.128   2.477
 4929TIP3   OH214792   4.076   0.874   4.743
 4929TIP3    H114793   4.044   0.963   4.735
 4929TIP3    H214794   4.039   0.828   4.668
 4930TIP3   OH214795   4.292   0.207   4.154
 4930TIP3    H114796   4.223   0.141   4.149
 4930TIP3    H214797   4.291   0.237   4.245
 4931TIP3   OH214798   1.976   2.926   3.167
 4931TIP3    H114799   1.974   2.884   3.081
 4931TIP3    H214800   1.929   3.008   3.155
 4932TIP3   OH214801   2.570   5.818   4.139
 4932TIP3    H114802   2.503   5.775   4.192
 4932TIP3    H214803   2.533   5.903   4.117
 4933TIP3   OH214804   4.035   3.558   0.172
 4933TIP3    H114805   4.120   3.601   0.164
 4933TIP3    H214806   3.972   3.630   0.167
 4934TIP3   OH214807   3.482   1.857   2.479
 4934TIP3    H114808   3.507   1.865   2.571
 4934TIP3    H214809   3.421   1.929   2.464
 4935TIP3   OH214810   3.241   5.583   3.779
 4935TIP3    H114811   3.239   5.511   3.841
 4935TIP3    H214812   3.156   5.625   3.788
 4936TIP3   OH214813   5.403   3.937   4.544
 4936TIP3    H114814   5.334   3.931   4.609
 4936TIP3    H214815   5.420   4.031   4.537
 4937TIP3   OH214816   5.117   4.440   4.792
 4937TIP3    H114817   5.180   4.491   4.743
 4937TIP3    H214818   5.035   4.489   4.786
 4938TIP3   OH214819   2.439   1.080   2.760
 4938TIP3    H114820   2.495   1.005   2.737
 4938TIP3    H214821   2.498   1.155   2.755
 4939TIP3   OH214822   3.250   4.043   5.214
 4939TIP3    H114823   3.272   3.959   5.255
 4939TIP3    H214824   3.332   4.093   5.219
 4940TIP3   OH214825   3.755   3.001   2.910
 4940TIP3    H114826   3.796   3.080   2.946
 4940TIP3    H214827   3.747   3.019   2.816
 4941TIP3   OH214828   6.228   3.622   0.451
 4941TIP3    H114829   6.306   3.659   0.493
 4941TIP3    H214830   6.204   3.548   0.507
 4942TIP3   OH214831   2.048   0.985   1.883
 4942TIP3    H114832   2.075   1.077   1.884
 4942TIP3    H214833   2.116   0.941   1.833
 4943TIP3   OH214834   2.591   5.268   2.508
 4943TIP3    H114835   2.656   5.243   2.442
 4943TIP3    H214836   2.520   5.308   2.459
 4944TIP3   OH214837   2.346   2.367   0.564
 4944TIP3    H114838   2.303   2.282   0.557
 4944TIP3    H214839   2.438   2.345   0.582
 4945TIP3   OH214840   2.308   4.749   4.365
 4945TIP3    H114841   2.350   4.768   4.449
 4945TIP3    H214842   2.346   4.665   4.339
 4946TIP3   OH214843   5.665   2.113   1.102
 4946TIP3    H114844   5.626   2.137   1.018
 4946TIP3    H214845   5.606   2.047   1.138
 4947TIP3   OH214846   4.836   2.122   3.149
 4947TIP3    H114847   4.868   2.179   3.220
 4947TIP3    H214848   4.914   2.102   3.098
 4948TIP3   OH214849   1.413   0.318   4.998
 4948TIP3    H114850   1.414   0.303   5.092
 4948TIP3    H214851   1.404   0.230   4.960
 4949TIP3   OH214852   2.265   4.963   2.750
 4949TIP3    H114853   2.211   4.946   2.827
 4949TIP3    H214854   2.285   5.057   2.756
 4950TIP3   OH214855   2.691   1.247   4.725
 4950TIP3    H114856   2.729   1.301   4.794
 4950TIP3    H214857   2.727   1.160   4.739
 4951TIP3   OH214858   6.322   3.910   3.653
 4951TIP3    H114859   6.390   3.975   3.673
 4951TIP3    H214860   6.271   3.904   3.733
 4952TIP3   OH214861   5.658   4.091   4.931
 4952TIP3    H114862   5.709   4.010   4.928
 4952TIP3    H214863   5.711   4.151   4.985
 4953TIP3   OH214864   3.026   2.435   1.880
 4953TIP3    H114865   3.036   2.500   1.949
 4953TIP3    H214866   3.116   2.412   1.856
 4954TIP3   OH214867   0.417   1.951   0.335
 4954TIP3    H114868   0.468   1.899   0.272
 4954TIP3    H214869   0.481   1.976   0.401
 4955TIP3   OH214870   5.964   1.783   2.526
 4955TIP3    H114871   5.912   1.704   2.541
 4955TIP3    H214872   5.902   1.855   2.533
 4956TIP3   OH214873   0.494   1.962   0.620
 4956TIP3    H114874   0.414   1.929   0.662
 4956TIP3    H214875   0.502   2.052   0.653
 4957TIP3   OH214876   1.099   2.040   4.110
 4957TIP3    H114877   1.184   2.069   4.142
 4957TIP3    H214878   1.099   2.064   4.017
 4958TIP3   OH214879   2.919   5.028   4.508
 4958TIP3    H114880   2.929   5.117   4.472
 4958TIP3    H214881   2.909   5.042   4.602
 4959TIP3   OH214882   3.836   0.109   4.336
 4959TIP3    H114883   3.835   0.196   4.295
 4959TIP3    H214884   3.745   0.079   4.329
 4960TIP3   OH214885   0.685   4.624   0.096
 4960TIP3    H114886   0.737   4.616   0.016
 4960TIP3    H214887   0.749   4.642   0.165
 4961TIP3   OH214888   0.902   1.555   0.721
 4961TIP3    H114889   0.837   1.487   0.734
 4961TIP3    H214890   0.890   1.615   0.794
 4962TIP3   OH214891   3.954   5.130   2.334
 4962TIP3    H114892   3.934   5.186   2.409
 4962TIP3    H214893   3.898   5.164   2.264
 4963TIP3   OH214894   2.498   2.234   0.165
 4963TIP3    H114895   2.454   2.154   0.196
 4963TIP3    H214896   2.570   2.246   0.226
 4964TIP3   OH214897   1.145   3.212   5.072
 4964TIP3    H114898   1.200   3.289   5.056
 4964TIP3    H214899   1.062   3.248   5.102
 4965TIP3   OH214900   1.345   5.782   3.815
 4965TIP3    H114901   1.297   5.712   3.860
 4965TIP3    H214902   1.289   5.859   3.823
 4966TIP3   OH214903   3.289   1.754   3.993
 4966TIP3    H114904   3.334   1.820   4.046
 4966TIP3    H214905   3.220   1.720   4.049
 4967TIP3   OH214906   2.191   1.348   4.217
 4967TIP3    H114907   2.226   1.431   4.250
 4967TIP3    H214908   2.266   1.302   4.181
 4968TIP3   OH214909   2.443   0.749   1.253
 4968TIP3    H114910   2.368   0.806   1.241
 4968TIP3    H214911   2.446   0.694   1.175
 4969TIP3   OH214912   4.823   0.614   1.534
 4969TIP3    H114913   4.765   0.653   1.468
 4969TIP3    H214914   4.821   0.520   1.515
 4970TIP3   OH214915   4.089   0.481   4.756
 4970TIP3    H114916   4.123   0.567   4.783
 4970TIP3    H214917   4.157   0.420   4.783
 4971TIP3   OH214918   0.890   4.220   1.430
 4971TIP3    H114919   0.961   4.255   1.484
 4971TIP3    H214920   0.855   4.148   1.483
 4972TIP3   OH214921   1.621   3.764   1.673
 4972TIP3    H114922   1.679   3.724   1.738
 4972TIP3    H214923   1.655   3.733   1.589
 4973TIP3   OH214924   4.012   3.058   4.720
 4973TIP3    H114925   4.039   3.147   4.741
 4973TIP3    H214926   3.922   3.066   4.689
 4974TIP3   OH214927   6.344   1.693   1.097
 4974TIP3    H114928   6.359   1.603   1.066
 4974TIP3    H214929   6.365   1.689   1.190
 4975TIP3   OH214930   3.070   4.593   4.065
 4975TIP3    H114931   3.058   4.612   3.972
 4975TIP3    H214932   2.996   4.538   4.089
 4976TIP3   OH214933   5.280   2.421   0.786
 4976TIP3    H114934   5.242   2.439   0.872
 4976TIP3    H214935   5.236   2.341   0.756
 4977TIP3   OH214936   0.486   4.165   0.458
 4977TIP3    H114937   0.434   4.101   0.410
 4977TIP3    H214938   0.440   4.248   0.446
 4978TIP3   OH214939   5.362   4.095   2.147
 4978TIP3    H114940   5.332   4.014   2.189
 4978TIP3    H214941   5.427   4.066   2.083
 4979TIP3   OH214942   5.132   2.791   1.918
 4979TIP3    H114943   5.088   2.707   1.933
 4979TIP3    H214944   5.060   2.854   1.906
 4980TIP3   OH214945   3.593   4.491   2.565
 4980TIP3    H114946   3.662   4.430   2.540
 4980TIP3    H214947   3.561   4.457   2.649
 4981TIP3   OH214948   4.368   0.900   5.024
 4981TIP3    H114949   4.313   0.900   4.946
 4981TIP3    H214950   4.457   0.909   4.992
 4982TIP3   OH214951   1.948   0.706   4.431
 4982TIP3    H114952   2.010   0.653   4.482
 4982TIP3    H214953   1.901   0.642   4.378
 4983TIP3   OH214954   1.590   1.347   0.458
 4983TIP3    H114955   1.588   1.438   0.486
 4983TIP3    H214956   1.581   1.296   0.538
 4984TIP3   OH214957   0.187   2.026   4.167
 4984TIP3    H114958   0.152   1.938   4.161
 4984TIP3    H214959   0.263   2.018   4.225
 4985TIP3   OH214960   5.317   4.600   1.868
 4985TIP3    H114961   5.309   4.654   1.789
 4985TIP3    H214962   5.243   4.627   1.922
 4986TIP3   OH214963   2.051   1.739   3.694
 4986TIP3    H114964   2.111   1.698   3.756
 4986TIP3    H214965   1.973   1.758   3.746
 4987TIP3   OH214966   1.339   4.142   4.493
 4987TIP3    H114967   1.403   4.172   4.558
 4987TIP3    H214968   1.341   4.209   4.425
 4988TIP3   OH214969   2.159   2.243   2.608
 4988TIP3    H114970   2.218   2.177   2.570
 4988TIP3    H214971   2.163   2.227   2.702
 4989TIP3   OH214972   1.135   3.649   1.253
 4989TIP3    H114973   1.150   3.730   1.302
 4989TIP3    H214974   1.146   3.579   1.318
 4990TIP3   OH214975   3.603   0.604   4.652
 4990TIP3    H114976   3.673   0.559   4.699
 4990TIP3    H214977   3.523   0.582   4.699
 4991TIP3   OH214978   4.127   2.120   3.744
 4991TIP3    H114979   4.199   2.070   3.707
 4991TIP3    H214980   4.056   2.057   3.755
 4992TIP3   OH214981   2.478   3.825   3.523
 4992TIP3    H114982   2.551   3.783   3.569
 4992TIP3    H214983   2.512   3.845   3.436
 4993TIP3   OH214984   4.262   1.118   1.346
 4993TIP3    H114985   4.186   1.101   1.403
 4993TIP3    H214986   4.225   1.124   1.258
 4994TIP3   OH214987   4.248   5.325   0.571
 4994TIP3    H114988   4.335   5.288   0.555
 4994TIP3    H214989   4.199   5.253   0.611
 4995TIP3   OH214990   2.508   4.439   1.167
 4995TIP3    H114991   2.475   4.435   1.257
 4995TIP3    H214992   2.436   4.405   1.114
 4996TIP3   OH214993   5.889   3.554   3.683
 4996TIP3    H114994   5.810   3.523   3.638
 4996TIP3    H214995   5.922   3.477   3.729
 4997TIP3   OH214996   5.955   1.453   5.012
 4997TIP3    H114997   5.887   1.477   4.949
 4997TIP3    H214998   5.912   1.391   5.071
 4998TIP3   OH214999   5.694   1.297   0.987
 4998TIP3    H115000   5.758   1.230   1.013
 4998TIP3    H215001   5.610   1.252   0.991
 4999TIP3   OH215002   1.920   5.570   2.087
 4999TIP3    H115003   1.838   5.563   2.038
 4999TIP3    H215004   1.954   5.481   2.090
 5000TIP3   OH215005   5.320   0.149   0.973
 5000TIP3    H115006   5.347   0.195   1.052
 5000TIP3    H215007   5.364   0.195   0.902
 5001TIP3   OH215008   4.234   4.917   1.106
 5001TIP3    H115009   4.229   4.882   1.017
 5001TIP3    H215010   4.143   4.916   1.137
 5002TIP3   OH215011   5.167   1.596   2.503
 5002TIP3    H115012   5.153   1.565   2.592
 5002TIP3    H215013   5.080   1.604   2.466
 5003TIP3   OH215014   4.135   4.832   3.072
 5003TIP3    H115015   4.217   4.787   3.052
 5003TIP3    H215016   4.121   4.816   3.165
 5004TIP3   OH215017   3.128   5.729   1.304
 5004TIP3    H115018   3.182   5.650   1.302
 5004TIP3    H215019   3.085   5.728   1.389
 5005TIP3   OH215020   5.846   2.861   0.780
 5005TIP3    H115021   5.833   2.871   0.874
 5005TIP3    H215022   5.781   2.918   0.740
 5006TIP3   OH215023   3.849   1.845   0.143
 5006TIP3    H115024   3.796   1.874   0.217
 5006TIP3    H215025   3.852   1.921   0.084
 5007TIP3   OH215026   4.218   2.600   4.785
 5007TIP3    H115027   4.295   2.624   4.837
 5007TIP3    H215028   4.144   2.621   4.842
 5008TIP3   OH215029   4.336   2.993   4.405
 5008TIP3    H115030   4.277   2.958   4.471
 5008TIP3    H215031   4.279   3.022   4.334
 5009TIP3   OH215032   2.793   1.187   0.074
 5009TIP3    H115033   2.725   1.235   0.026
 5009TIP3    H215034   2.825   1.250   0.138
 5010TIP3   OH215035   1.896   1.705   5.015
 5010TIP3    H115036   1.836   1.659   5.074
 5010TIP3    H215037   1.949   1.760   5.074
 5011TIP3   OH215038   4.377   0.614   3.926
 5011TIP3    H115039   4.354   0.654   4.010
 5011TIP3    H215040   4.361   0.682   3.862
 5012TIP3   OH215041   5.270   2.201   4.340
 5012TIP3    H115042   5.251   2.204   4.246
 5012TIP3    H215043   5.287   2.108   4.357
 5013TIP3   OH215044   2.703   3.215   3.837
 5013TIP3    H115045   2.707   3.158   3.914
 5013TIP3    H215046   2.774   3.185   3.780
 5014TIP3   OH215047   2.195   5.393   0.659
 5014TIP3    H115048   2.104   5.424   0.660
 5014TIP3    H215049   2.193   5.312   0.709
 5015TIP3   OH215050   4.801   5.179   0.877
 5015TIP3    H115051   4.771   5.260   0.920
 5015TIP3    H215052   4.814   5.204   0.786
 5016TIP3   OH215053   5.985   2.477   2.869
 5016TIP3    H115054   5.914   2.488   2.806
 5016TIP3    H215055   6.004   2.383   2.867
 5017TIP3   OH215056   4.831   3.081   0.581
 5017TIP3    H115057   4.762   3.025   0.544
 5017TIP3    H215058   4.906   3.068   0.524
 5018TIP3   OH215059   4.898   1.203   2.820
 5018TIP3    H115060   4.825   1.227   2.762
 5018TIP3    H215061   4.916   1.283   2.869
 5019TIP3   OH215062   3.684   3.688   1.159
 5019TIP3    H115063   3.779   3.701   1.154
 5019TIP3    H215064   3.651   3.766   1.204
 5020TIP3   OH215065   2.050   1.983   3.906
 5020TIP3    H115066   1.977   2.036   3.875
 5020TIP3    H215067   2.009   1.910   3.953
 5021TIP3   OH215068   1.648   2.403   0.142
 5021TIP3    H115069   1.735   2.436   0.166
 5021TIP3    H215070   1.656   2.380   0.049
 5022TIP3   OH215071   0.063   5.507   3.717
 5022TIP3    H115072   0.070   5.432   3.776
 5022TIP3    H215073  -0.024   5.544   3.734
 5023TIP3   OH215074   1.737   2.279   3.724
 5023TIP3    H115075   1.757   2.251   3.813
 5023TIP3    H215076   1.687   2.207   3.687
 5024TIP3   OH215077   1.276   4.989   3.818
 5024TIP3    H115078   1.350   4.931   3.801
 5024TIP3    H215079   1.291   5.064   3.761
 5025TIP3   OH215080   0.791   1.280   0.060
 5025TIP3    H115081   0.856   1.321   0.003
 5025TIP3    H215082   0.731   1.236   0.000
 5026TIP3   OH215083   5.023   3.732   1.742
 5026TIP3    H115084   5.106   3.691   1.719
 5026TIP3    H215085   5.044   3.825   1.752
 5027TIP3   OH215086   1.674   5.063   1.651
 5027TIP3    H115087   1.635   5.149   1.637
 5027TIP3    H215088   1.694   5.030   1.564
 5028TIP3   OH215089   1.323   4.644   0.212
 5028TIP3    H115090   1.398   4.652   0.153
 5028TIP3    H215091   1.359   4.610   0.293
 5029TIP3   OH215092   5.385   3.368   2.953
 5029TIP3    H115093   5.403   3.275   2.942
 5029TIP3    H215094   5.356   3.397   2.866
 5030TIP3   OH215095   4.710   3.738   3.936
 5030TIP3    H115096   4.786   3.767   3.885
 5030TIP3    H215097   4.635   3.774   3.888
 5031TIP3   OH215098   1.056   3.075   0.685
 5031TIP3    H115099   1.092   3.003   0.632
 5031TIP3    H215100   1.107   3.151   0.658
 5032TIP3   OH215101   5.396   2.044   1.655
 5032TIP3    H115102   5.420   2.056   1.747
 5032TIP3    H215103   5.400   1.949   1.641
 5033TIP3   OH215104   4.872   2.371   3.757
 5033TIP3    H115105   4.967   2.368   3.758
 5033TIP3    H215106   4.844   2.279   3.758
 5034TIP3   OH215107   4.473   3.390   2.893
 5034TIP3    H115108   4.481   3.382   2.988
 5034TIP3    H215109   4.487   3.301   2.860
 5035TIP3   OH215110   1.753   0.057   3.254
 5035TIP3    H115111   1.772  -0.004   3.325
 5035TIP3    H215112   1.747   0.002   3.176
 5036TIP3   OH215113   0.308   3.421   1.869
 5036TIP3    H115114   0.375   3.484   1.841
 5036TIP3    H215115   0.352   3.367   1.935
 5037TIP3   OH215116   1.621   2.595   4.327
 5037TIP3    H115117   1.672   2.516   4.344
 5037TIP3    H215118   1.635   2.650   4.404
 5038TIP3   OH215119   1.711   0.631   1.067
 5038TIP3    H115120   1.711   0.571   0.992
 5038TIP3    H215121   1.777   0.696   1.046
 5039TIP3   OH215122   1.484   5.454   1.119
 5039TIP3    H115123   1.474   5.510   1.043
 5039TIP3    H215124   1.400   5.408   1.126
 5040TIP3   OH215125   0.604   1.204   1.954
 5040TIP3    H115126   0.688   1.207   1.908
 5040TIP3    H215127   0.584   1.111   1.963
 5041TIP3   OH215128   5.193   4.147   3.142
 5041TIP3    H115129   5.214   4.233   3.178
 5041TIP3    H215130   5.128   4.111   3.203
 5042TIP3   OH215131   6.324   5.310   2.008
 5042TIP3    H115132   6.305   5.246   2.076
 5042TIP3    H215133   6.412   5.289   1.978
 5043TIP3   OH215134   3.134   5.633   2.137
 5043TIP3    H115135   3.086   5.624   2.055
 5043TIP3    H215136   3.226   5.636   2.111
 5044TIP3   OH215137   4.825   0.201   1.356
 5044TIP3    H115138   4.779   0.197   1.440
 5044TIP3    H215139   4.823   0.112   1.323
 5045TIP3   OH215140   0.106   4.775   4.004
 5045TIP3    H115141   0.200   4.773   4.026
 5045TIP3    H215142   0.088   4.689   3.968
 5046TIP3   OH215143   6.308   4.806   0.505
 5046TIP3    H115144   6.314   4.775   0.595
 5046TIP3    H215145   6.234   4.866   0.505
 5047TIP3   OH215146   1.569   2.280   3.170
 5047TIP3    H115147   1.501   2.278   3.103
 5047TIP3    H215148   1.627   2.208   3.147
 5048TIP3   OH215149   5.048   3.410   4.525
 5048TIP3    H115150   5.005   3.328   4.549
 5048TIP3    H215151   5.140   3.386   4.513
 5049TIP3   OH215152   0.117   2.064   0.563
 5049TIP3    H115153   0.192   2.120   0.544
 5049TIP3    H215154   0.152   1.993   0.616
 5050TIP3   OH215155   6.191   4.620   2.335
 5050TIP3    H115156   6.187   4.527   2.358
 5050TIP3    H215157   6.141   4.625   2.253
 5051TIP3   OH215158   0.492   4.600   1.445
 5051TIP3    H115159   0.565   4.538   1.438
 5051TIP3    H215160   0.414   4.545   1.441
 5052TIP3   OH215161   1.574   3.573   3.645
 5052TIP3    H115162   1.572   3.534   3.733
 5052TIP3    H215163   1.541   3.504   3.588
 5053TIP3   OH215164   2.766   2.684   3.455
 5053TIP3    H115165   2.673   2.675   3.478
 5053TIP3    H215166   2.790   2.770   3.490
 5054TIP3   OH215167   2.461   5.208   1.801
 5054TIP3    H115168   2.472   5.291   1.847
 5054TIP3    H215169   2.495   5.225   1.713
 5055TIP3   OH215170   3.603   5.599   0.751
 5055TIP3    H115171   3.627   5.528   0.811
 5055TIP3    H215172   3.625   5.679   0.799
 5056TIP3   OH215173   6.131   3.671   3.265
 5056TIP3    H115174   6.088   3.730   3.326
 5056TIP3    H215175   6.184   3.728   3.209
 5057TIP3   OH215176   4.071   2.996   3.031
 5057TIP3    H115177   4.051   3.081   3.071
 5057TIP3    H215178   4.067   3.013   2.937
 5058TIP3   OH215179   1.525   3.045   3.989
 5058TIP3    H115180   1.448   3.050   4.046
 5058TIP3    H215181   1.490   3.053   3.901
 5059TIP3   OH215182   4.609   0.730   2.570
 5059TIP3    H115183   4.700   0.708   2.588
 5059TIP3    H215184   4.612   0.819   2.535
 5060TIP3   OH215185   4.455   5.536   4.213
 5060TIP3    H115186   4.491   5.562   4.128
 5060TIP3    H215187   4.363   5.515   4.195
 5061TIP3   OH215188   2.166   1.926   1.619
 5061TIP3    H115189   2.231   1.888   1.560
 5061TIP3    H215190   2.083   1.913   1.574
 5062TIP3   OH215191   3.843   0.259   0.217
 5062TIP3    H115192   3.837   0.279   0.124
 5062TIP3    H215193   3.768   0.201   0.234
 5063TIP3   OH215194   2.879   5.325   4.867
 5063TIP3    H115195   2.894   5.296   4.957
 5063TIP3    H215196   2.931   5.404   4.857
 5064TIP3   OH215197   1.269   5.100   0.273
 5064TIP3    H115198   1.248   5.185   0.234
 5064TIP3    H215199   1.357   5.080   0.240
 5065TIP3   OH215200   2.783   4.467   1.354
 5065TIP3    H115201   2.851   4.409   1.320
 5065TIP3    H215202   2.719   4.409   1.395
 5066TIP3   OH215203   6.163   1.671   3.299
 5066TIP3    H115204   6.222   1.699   3.229
 5066TIP3    H215205   6.076   1.694   3.268
 5067TIP3   OH215206   4.989  -0.001   1.720
 5067TIP3    H115207   5.074   0.043   1.715
 5067TIP3    H215208   4.929   0.066   1.753
 5068TIP3   OH215209   1.791   4.866   5.125
 5068TIP3    H115210   1.702   4.877   5.158
 5068TIP3    H215211   1.815   4.777   5.149
 5069TIP3   OH215212   3.144   5.527   0.447
 5069TIP3    H115213   3.187   5.542   0.531
 5069TIP3    H215214   3.063   5.578   0.452
 5070TIP3   OH215215   5.003   3.114   4.481
 5070TIP3    H115216   4.938   3.044   4.481
 5070TIP3    H215217   5.050   3.103   4.564
 5071TIP3   OH215218   0.193   2.609   5.015
 5071TIP3    H115219   0.144   2.537   5.055
 5071TIP3    H215220   0.127   2.656   4.963
 5072TIP3   OH215221   1.329   5.586   2.557
 5072TIP3    H115222   1.332   5.558   2.465
 5072TIP3    H215223   1.410   5.552   2.595
 5073TIP3   OH215224   1.736   5.684   3.466
 5073TIP3    H115225   1.656   5.721   3.504
 5073TIP3    H215226   1.805   5.746   3.491
 5074TIP3   OH215227   2.684   2.231   0.370
 5074TIP3    H115228   2.645   2.233   0.457
 5074TIP3    H215229   2.777   2.213   0.385
 5075TIP3   OH215230   3.773   4.146   1.070
 5075TIP3    H115231   3.718   4.073   1.040
 5075TIP3    H215232   3.823   4.171   0.993
 5076TIP3   OH215233   2.504   4.468   0.798
 5076TIP3    H115234   2.469   4.494   0.883
 5076TIP3    H215235   2.447   4.396   0.769
 5077TIP3   OH215236   5.043   1.366   5.097
 5077TIP3    H115237   5.037   1.461   5.089
 5077TIP3    H215238   5.130   1.351   5.134
 5078TIP3   OH215239   3.139   4.483   2.785
 5078TIP3    H115240   3.101   4.399   2.762
 5078TIP3    H215241   3.078   4.548   2.751
 5079TIP3   OH215242   2.559   0.364   2.619
 5079TIP3    H115243   2.489   0.393   2.561
 5079TIP3    H215244   2.516   0.346   2.702
 5080TIP3   OH215245   5.216   4.982   1.492
 5080TIP3    H115246   5.221   5.073   1.461
 5080TIP3    H215247   5.123   4.961   1.490
 5081TIP3   OH215248   3.607   5.861   0.851
 5081TIP3    H115249   3.528   5.851   0.904
 5081TIP3    H215250   3.581   5.916   0.778
 5082TIP3   OH215251   3.085   0.998   2.562
 5082TIP3    H115252   3.148   0.949   2.614
 5082TIP3    H215253   3.029   1.041   2.627
 5083TIP3   OH215254   3.505   0.473   3.617
 5083TIP3    H115255   3.505   0.406   3.685
 5083TIP3    H215256   3.430   0.529   3.638
 5084TIP3   OH215257   4.147   5.659   1.583
 5084TIP3    H115258   4.240   5.666   1.604
 5084TIP3    H215259   4.135   5.720   1.510
 5085TIP3   OH215260   2.788   4.835   4.326
 5085TIP3    H115261   2.822   4.895   4.392
 5085TIP3    H215262   2.819   4.870   4.243
 5086TIP3   OH215263   2.321   1.643   3.487
 5086TIP3    H115264   2.289   1.700   3.556
 5086TIP3    H215265   2.263   1.660   3.413
 5087TIP3   OH215266   2.049   1.137   0.436
 5087TIP3    H115267   1.976   1.198   0.447
 5087TIP3    H215268   2.010   1.050   0.448
 5088TIP3   OH215269   4.902   0.659   0.327
 5088TIP3    H115270   4.842   0.725   0.362
 5088TIP3    H215271   4.846   0.596   0.282
 5089TIP3   OH215272   2.455   2.999   4.714
 5089TIP3    H115273   2.523   2.990   4.780
 5089TIP3    H215274   2.503   3.000   4.631
 5090TIP3   OH215275   5.004   2.957   4.003
 5090TIP3    H115276   4.930   2.906   3.970
 5090TIP3    H215277   4.965   3.027   4.054
 5091TIP3   OH215278   1.690   3.097   2.116
 5091TIP3    H115279   1.710   3.022   2.173
 5091TIP3    H215280   1.693   3.173   2.174
 5092TIP3   OH215281   4.425   4.011   0.119
 5092TIP3    H115282   4.372   3.969   0.051
 5092TIP3    H215283   4.367   4.074   0.160
 5093TIP3   OH215284   3.792   3.301   1.721
 5093TIP3    H115285   3.778   3.229   1.660
 5093TIP3    H215286   3.809   3.258   1.805
 5094TIP3   OH215287   2.490   4.440   3.251
 5094TIP3    H115288   2.558   4.507   3.256
 5094TIP3    H215289   2.408   4.489   3.254
 5095TIP3   OH215290  -0.005   0.137   4.646
 5095TIP3    H115291  -0.031   0.218   4.602
 5095TIP3    H215292   0.076   0.158   4.692
 5096TIP3   OH215293   3.098   5.218   4.013
 5096TIP3    H115294   3.169   5.274   3.980
 5096TIP3    H215295   3.141   5.138   4.041
 5097TIP3   OH215296   6.033   3.631   0.677
 5097TIP3    H115297   6.094   3.589   0.737
 5097TIP3    H215298   5.959   3.570   0.671
 5098TIP3   OH215299   0.220   1.618   0.846
 5098TIP3    H115300   0.168   1.537   0.852
 5098TIP3    H215301   0.305   1.589   0.812
 5099TIP3   OH215302   5.706   5.859   3.313
 5099TIP3    H115303   5.611   5.871   3.316
 5099TIP3    H215304   5.720   5.796   3.242
 5100TIP3   OH215305   6.075   0.521   0.578
 5100TIP3    H115306   6.128   0.537   0.500
 5100TIP3    H215307   6.086   0.599   0.631
 5101TIP3   OH215308   4.080   1.878   2.463
 5101TIP3    H115309   4.075   1.823   2.385
 5101TIP3    H215310   4.070   1.817   2.536
 5102TIP3   OH215311   5.424   5.129   1.013
 5102TIP3    H115312   5.388   5.214   0.989
 5102TIP3    H215313   5.414   5.075   0.935
 5103TIP3   OH215314   6.344   5.200   0.285
 5103TIP3    H115315   6.400   5.124   0.298
 5103TIP3    H215316   6.256   5.168   0.304
 5104TIP3   OH215317   3.574   2.881   2.386
 5104TIP3    H115318   3.619   2.960   2.355
 5104TIP3    H215319   3.644   2.828   2.424
 5105TIP3   OH215320   5.587   0.413   4.871
 5105TIP3    H115321   5.510   0.458   4.905
 5105TIP3    H215322   5.592   0.442   4.779
 5106TIP3   OH215323   4.088   5.678   2.718
 5106TIP3    H115324   4.078   5.592   2.677
 5106TIP3    H215325   4.141   5.728   2.656
 5107TIP3   OH215326   0.300   1.736   3.888
 5107TIP3    H115327   0.276   1.770   3.802
 5107TIP3    H215328   0.376   1.788   3.913
 5108TIP3   OH215329   1.023   2.726   1.643
 5108TIP3    H115330   1.080   2.689   1.575
 5108TIP3    H215331   0.973   2.794   1.597
 5109TIP3   OH215332   4.066   1.187   3.179
 5109TIP3    H115333   4.130   1.238   3.228
 5109TIP3    H215334   3.994   1.173   3.240
 5110TIP3   OH215335   5.868   3.525   0.949
 5110TIP3    H115336   5.817   3.520   0.868
 5110TIP3    H215337   5.912   3.441   0.955
 5111TIP3   OH215338   3.405   2.978   1.285
 5111TIP3    H115339   3.327   3.029   1.263
 5111TIP3    H215340   3.419   2.995   1.378
 5112TIP3   OH215341   0.393   0.402   3.644
 5112TIP3    H115342   0.459   0.357   3.695
 5112TIP3    H215343   0.358   0.335   3.585
 5113TIP3   OH215344   4.831   3.932  -0.047
 5113TIP3    H115345   4.789   3.867   0.010
 5113TIP3    H215346   4.823   4.014   0.000
 5114TIP3   OH215347   3.708   1.263   3.117
 5114TIP3    H115348   3.758   1.210   3.179
 5114TIP3    H215349   3.645   1.202   3.078
 5115TIP3   OH215350   3.887   0.717   4.584
 5115TIP3    H115351   3.795   0.735   4.605
 5115TIP3    H215352   3.892   0.725   4.489
 5116TIP3   OH215353   3.099   1.455   2.619
 5116TIP3    H115354   3.123   1.546   2.599
 5116TIP3    H215355   3.022   1.463   2.676
 5117TIP3   OH215356   5.326   3.312   4.554
 5117TIP3    H115357   5.369   3.302   4.639
 5117TIP3    H215358   5.396   3.300   4.490
 5118TIP3   OH215359   6.151   1.643   0.004
 5118TIP3    H115360   6.241   1.651   0.033
 5118TIP3    H215361   6.132   1.549   0.011
 5119TIP3   OH215362   4.009   4.442   2.447
 5119TIP3    H115363   3.998   4.461   2.540
 5119TIP3    H215364   4.103   4.451   2.432
 5120TIP3   OH215365   1.540   2.167   1.504
 5120TIP3    H115366   1.586   2.130   1.429
 5120TIP3    H215367   1.594   2.144   1.579
 5121TIP3   OH215368   5.496   3.618   2.574
 5121TIP3    H115369   5.582   3.647   2.603
 5121TIP3    H215370   5.442   3.696   2.576
 5122TIP3   OH215371   4.608   3.924   1.710
 5122TIP3    H115372   4.558   3.843   1.703
 5122TIP3    H215373   4.543   3.993   1.703
 5123TIP3   OH215374   3.968   3.432   3.310
 5123TIP3    H115375   4.055   3.464   3.334
 5123TIP3    H215376   3.976   3.407   3.218
 5124TIP3   OH215377   1.647   1.266   1.070
 5124TIP3    H115378   1.607   1.342   1.028
 5124TIP3    H215379   1.625   1.276   1.162
 5125TIP3   OH215380   0.580   0.609   0.559
 5125TIP3    H115381   0.629   0.556   0.622
 5125TIP3    H215382   0.633   0.688   0.547
 5126TIP3   OH215383   1.041   0.890   0.958
 5126TIP3    H115384   1.007   0.905   0.869
 5126TIP3    H215385   0.973   0.837   1.001
 5127TIP3   OH215386   3.319   3.687   5.083
 5127TIP3    H115387   3.413   3.683   5.101
 5127TIP3    H215388   3.297   3.599   5.052
 5128TIP3   OH215389   2.305   4.766   3.024
 5128TIP3    H115390   2.293   4.694   2.962
 5128TIP3    H215391   2.248   4.743   3.098
 5129TIP3   OH215392   3.504   3.224   4.926
 5129TIP3    H115393   3.569   3.155   4.919
 5129TIP3    H215394   3.554   3.305   4.916
 5130TIP3   OH215395   5.812   3.611   3.350
 5130TIP3    H115396   5.888   3.555   3.366
 5130TIP3    H215397   5.774   3.577   3.269
 5131TIP3   OH215398   2.965   3.269   2.813
 5131TIP3    H115399   2.889   3.216   2.787
 5131TIP3    H215400   3.039   3.224   2.774
 5132TIP3   OH215401   6.144   1.505   2.219
 5132TIP3    H115402   6.095   1.466   2.291
 5132TIP3    H215403   6.143   1.599   2.237
 5133TIP3   OH215404   6.148   5.027   0.557
 5133TIP3    H115405   6.087   5.001   0.626
 5133TIP3    H215406   6.095   5.077   0.495
 5134TIP3   OH215407   0.846   2.086  -0.008
 5134TIP3    H115408   0.795   2.020  -0.055
 5134TIP3    H215409   0.933   2.047   0.001
 5135TIP3   OH215410   2.095   3.836   4.312
 5135TIP3    H115411   2.014   3.840   4.261
 5135TIP3    H215412   2.155   3.783   4.258
 5136TIP3   OH215413   2.087   1.534   0.575
 5136TIP3    H115414   2.149   1.506   0.508
 5136TIP3    H215415   2.012   1.567   0.526
 5137TIP3   OH215416   0.624   3.216   2.030
 5137TIP3    H115417   0.565   3.183   1.963
 5137TIP3    H215418   0.589   3.302   2.053
 5138TIP3   OH215419   5.560   4.536   3.025
 5138TIP3    H115420   5.466   4.541   3.013
 5138TIP3    H215421   5.579   4.603   3.091
 5139TIP3   OH215422   0.678   2.725   2.775
 5139TIP3    H115423   0.717   2.813   2.779
 5139TIP3    H215424   0.601   2.735   2.720
 5140TIP3   OH215425   3.809   1.695   3.167
 5140TIP3    H115426   3.890   1.645   3.159
 5140TIP3    H215427   3.782   1.712   3.076
 5141TIP3   OH215428   1.989   5.315   1.912
 5141TIP3    H115429   2.002   5.319   1.817
 5141TIP3    H215430   2.075   5.297   1.948
 5142TIP3   OH215431   5.675   0.396   5.132
 5142TIP3    H115432   5.647   0.419   5.044
 5142TIP3    H215433   5.727   0.316   5.121
 5143TIP3   OH215434   2.125   1.788   1.092
 5143TIP3    H115435   2.165   1.852   1.033
 5143TIP3    H215436   2.109   1.711   1.037
 5144TIP3   OH215437   3.400   2.308   0.172
 5144TIP3    H115438   3.317   2.354   0.167
 5144TIP3    H215439   3.464   2.375   0.196
 5145TIP3   OH215440   0.533   2.897   1.271
 5145TIP3    H115441   0.513   2.827   1.333
 5145TIP3    H215442   0.448   2.937   1.251
 5146TIP3   OH215443   3.387   4.180   3.025
 5146TIP3    H115444   3.469   4.138   3.052
 5146TIP3    H215445   3.348   4.212   3.106
 5147TIP3   OH215446   2.922   0.946   0.068
 5147TIP3    H115447   2.861   1.018   0.087
 5147TIP3    H215448   3.000   0.989   0.033
 5148TIP3   OH215449   2.174   0.065   2.034
 5148TIP3    H115450   2.184   0.149   1.990
 5148TIP3    H215451   2.220   0.075   2.117
 5149TIP3   OH215452   1.204   3.399   3.131
 5149TIP3    H115453   1.196   3.413   3.225
 5149TIP3    H215454   1.170   3.479   3.092
 5150TIP3   OH215455   0.866   4.995   0.363
 5150TIP3    H115456   0.946   4.952   0.333
 5150TIP3    H215457   0.890   5.038   0.445
 5151TIP3   OH215458   5.661   2.081   4.115
 5151TIP3    H115459   5.578   2.034   4.109
 5151TIP3    H215460   5.714   2.045   4.044
 5152TIP3   OH215461   2.000   5.287   3.126
 5152TIP3    H115462   2.061   5.326   3.063
 5152TIP3    H215463   2.014   5.337   3.207
 5153TIP3   OH215464   5.073   4.119   4.997
 5153TIP3    H115465   5.017   4.137   4.921
 5153TIP3    H215466   5.023   4.154   5.071
 5154TIP3   OH215467   1.524   3.962   1.835
 5154TIP3    H115468   1.582   3.907   1.783
 5154TIP3    H215469   1.519   4.045   1.787
 5155TIP3   OH215470   1.925   5.088   1.440
 5155TIP3    H115471   1.965   5.130   1.516
 5155TIP3    H215472   1.980   5.115   1.366
 5156TIP3   OH215473   2.770   2.337   1.010
 5156TIP3    H115474   2.789   2.348   1.103
 5156TIP3    H215475   2.803   2.417   0.969
 5157TIP3   OH215476   3.215   1.143   0.525
 5157TIP3    H115477   3.130   1.133   0.568
 5157TIP3    H215478   3.256   1.217   0.570
 5158TIP3   OH215479   3.004   4.426   0.779
 5158TIP3    H115480   2.922   4.473   0.798
 5158TIP3    H215481   3.031   4.391   0.864
 5159TIP3   OH215482   0.138   0.859   1.398
 5159TIP3    H115483   0.145   0.764   1.398
 5159TIP3    H215484   0.058   0.877   1.349
 5160TIP3   OH215485   3.207   2.925   0.755
 5160TIP3    H115486   3.170   2.887   0.835
 5160TIP3    H215487   3.167   3.012   0.749
 5161TIP3   OH215488   4.690   2.518   1.533
 5161TIP3    H115489   4.662   2.533   1.442
 5161TIP3    H215490   4.780   2.484   1.524
 5162TIP3   OH215491   4.676   0.427   4.434
 5162TIP3    H115492   4.761   0.464   4.413
 5162TIP3    H215493   4.653   0.463   4.519
 5163TIP3   OH215494   4.002   1.805   2.214
 5163TIP3    H115495   3.982   1.769   2.128
 5163TIP3    H215496   3.970   1.895   2.211
 5164TIP3   OH215497   0.729   4.826   4.221
 5164TIP3    H115498   0.802   4.802   4.279
 5164TIP3    H215499   0.768   4.887   4.159
 5165TIP3   OH215500   1.581   0.685   4.380
 5165TIP3    H115501   1.492   0.650   4.372
 5165TIP3    H215502   1.630   0.643   4.309
 5166TIP3   OH215503   2.912   2.051   4.207
 5166TIP3    H115504   2.909   2.031   4.113
 5166TIP3    H215505   2.919   2.147   4.210
 5167TIP3   OH215506   0.390   5.760   3.196
 5167TIP3    H115507   0.350   5.836   3.240
 5167TIP3    H215508   0.315   5.712   3.160
 5168TIP3   OH215509   3.088   4.885   0.843
 5168TIP3    H115510   3.087   4.902   0.749
 5168TIP3    H215511   3.003   4.845   0.862
 5169TIP3   OH215512   2.034   4.310   0.434
 5169TIP3    H115513   2.126   4.325   0.414
 5169TIP3    H215514   2.000   4.264   0.358
 5170TIP3   OH215515   6.273   4.354   2.389
 5170TIP3    H115516   6.332   4.368   2.463
 5170TIP3    H215517   6.323   4.383   2.312
 5171TIP3   OH215518   1.717   0.549   0.584
 5171TIP3    H115519   1.641   0.493   0.567
 5171TIP3    H215520   1.680   0.637   0.591
 5172TIP3   OH215521   5.101   3.344   0.578
 5172TIP3    H115522   5.073   3.433   0.556
 5172TIP3    H215523   5.027   3.307   0.626
 5173TIP3   OH215524   2.453   1.005   4.637
 5173TIP3    H115525   2.425   0.924   4.681
 5173TIP3    H215526   2.415   0.999   4.550
 5174TIP3   OH215527   0.318   5.098   5.037
 5174TIP3    H115528   0.242   5.157   5.041
 5174TIP3    H215529   0.280   5.010   5.042
 5175TIP3   OH215530   0.727   1.493   2.425
 5175TIP3    H115531   0.663   1.439   2.380
 5175TIP3    H215532   0.810   1.444   2.417
 5176TIP3   OH215533   5.078   0.518   3.154
 5176TIP3    H115534   5.134   0.551   3.084
 5176TIP3    H215535   5.013   0.587   3.168
 5177TIP3   OH215536   1.091   4.347   0.458
 5177TIP3    H115537   1.041   4.299   0.392
 5177TIP3    H215538   1.129   4.279   0.513
 5178TIP3   OH215539   5.412   1.986   2.323
 5178TIP3    H115540   5.454   1.927   2.386
 5178TIP3    H215541   5.463   2.067   2.328
 5179TIP3   OH215542   0.239   5.312   2.018
 5179TIP3    H115543   0.298   5.334   1.946
 5179TIP3    H215544   0.222   5.395   2.062
 5180TIP3   OH215545   2.465   5.314   4.726
 5180TIP3    H115546   2.513   5.233   4.710
 5180TIP3    H215547   2.528   5.384   4.708
 5181TIP3   OH215548   4.704   1.239   1.724
 5181TIP3    H115549   4.615   1.266   1.747
 5181TIP3    H215550   4.715   1.154   1.766
 5182TIP3   OH215551   5.865   1.090   0.978
 5182TIP3    H115552   5.807   1.048   0.914
 5182TIP3    H215553   5.952   1.081   0.940
 5183TIP3   OH215554   6.352   1.509   2.878
 5183TIP3    H115555   6.383   1.425   2.843
 5183TIP3    H215556   6.283   1.536   2.817
 5184TIP3   OH215557   2.700   1.569   0.252
 5184TIP3    H115558   2.692   1.527   0.338
 5184TIP3    H215559   2.670   1.502   0.191
 5185TIP3   OH215560   6.051   3.088   1.592
 5185TIP3    H115561   6.014   3.072   1.506
 5185TIP3    H215562   6.019   3.016   1.646
 5186TIP3   OH215563   3.810   4.116   3.418
 5186TIP3    H115564   3.742   4.134   3.483
 5186TIP3    H215565   3.787   4.031   3.381
 5187TIP3   OH215566   1.790   0.750   0.246
 5187TIP3    H115567   1.798   0.770   0.153
 5187TIP3    H215568   1.844   0.672   0.258
 5188TIP3   OH215569   2.517   5.565   4.843
 5188TIP3    H115570   2.574   5.542   4.916
 5188TIP3    H215571   2.534   5.658   4.828
 5189TIP3   OH215572   2.504   3.338   4.122
 5189TIP3    H115573   2.410   3.321   4.117
 5189TIP3    H215574   2.535   3.285   4.195
 5190TIP3   OH215575   2.850   0.489   1.274
 5190TIP3    H115576   2.934   0.458   1.240
 5190TIP3    H215577   2.785   0.435   1.229
 5191TIP3   OH215578   5.854   3.492   4.091
 5191TIP3    H115579   5.905   3.564   4.127
 5191TIP3    H215580   5.765   3.507   4.123
 5192TIP3   OH215581   1.590   0.949   2.577
 5192TIP3    H115582   1.565   1.041   2.564
 5192TIP3    H215583   1.519   0.912   2.629
 5193TIP3   OH215584   5.933   2.399   5.110
 5193TIP3    H115585   5.851   2.447   5.124
 5193TIP3    H215586   5.906   2.308   5.096
 5194TIP3   OH215587   4.507   0.543   1.757
 5194TIP3    H115588   4.583   0.505   1.801
 5194TIP3    H215589   4.453   0.577   1.828
 5195TIP3   OH215590   5.765   3.749   0.540
 5195TIP3    H115591   5.812   3.832   0.539
 5195TIP3    H215592   5.834   3.683   0.554
 5196TIP3   OH215593   2.803   2.034   0.113
 5196TIP3    H115594   2.882   2.004   0.159
 5196TIP3    H215595   2.731   1.998   0.165
 5197TIP3   OH215596   5.102   2.650   4.932
 5197TIP3    H115597   5.173   2.637   4.994
 5197TIP3    H215598   5.139   2.707   4.864
 5198TIP3   OH215599   4.458   4.927   4.447
 5198TIP3    H115600   4.464   4.872   4.368
 5198TIP3    H215601   4.544   4.919   4.487
 5199TIP3   OH215602   4.021   4.214   0.094
 5199TIP3    H115603   4.022   4.281   0.024
 5199TIP3    H215604   4.076   4.251   0.163
 5200TIP3   OH215605   3.062   3.537   2.002
 5200TIP3    H115606   3.097   3.563   2.087
 5200TIP3    H215607   3.089   3.607   1.943
 5201TIP3   OH215608   1.146   5.263   2.776
 5201TIP3    H115609   1.072   5.290   2.830
 5201TIP3    H215610   1.221   5.311   2.812
 5202TIP3   OH215611   3.675   4.664   0.864
 5202TIP3    H115612   3.696   4.572   0.849
 5202TIP3    H215613   3.737   4.692   0.932
 5203TIP3   OH215614   3.523   1.744   3.795
 5203TIP3    H115615   3.450   1.704   3.843
 5203TIP3    H215616   3.485   1.820   3.752
 5204TIP3   OH215617   3.350   1.646   4.827
 5204TIP3    H115618   3.389   1.671   4.911
 5204TIP3    H215619   3.336   1.551   4.835
 5205TIP3   OH215620   2.077   3.068   2.566
 5205TIP3    H115621   2.052   2.985   2.526
 5205TIP3    H215622   2.054   3.059   2.658
 5206TIP3   OH215623   4.664   5.281   4.184
 5206TIP3    H115624   4.705   5.236   4.258
 5206TIP3    H215625   4.573   5.295   4.212
 5207TIP3   OH215626   1.127   0.932   4.627
 5207TIP3    H115627   1.109   0.838   4.626
 5207TIP3    H215628   1.170   0.949   4.543
 5208TIP3   OH215629   0.708   1.118   4.666
 5208TIP3    H115630   0.684   1.048   4.606
 5208TIP3    H215631   0.796   1.144   4.638
 5209TIP3   OH215632   1.408   1.550   2.075
 5209TIP3    H115633   1.433   1.495   2.149
 5209TIP3    H215634   1.490   1.590   2.046
 5210TIP3   OH215635   1.515   4.617   4.578
 5210TIP3    H115636   1.479   4.662   4.654
 5210TIP3    H215637   1.443   4.612   4.516
 5211TIP3   OH215638   0.229   5.552   4.713
 5211TIP3    H115639   0.203   5.583   4.800
 5211TIP3    H215640   0.149   5.559   4.660
 5212TIP3   OH215641   5.276   5.506   1.293
 5212TIP3    H115642   5.268   5.587   1.242
 5212TIP3    H215643   5.323   5.532   1.372
 5213TIP3   OH215644   4.578   4.265   3.607
 5213TIP3    H115645   4.645   4.216   3.656
 5213TIP3    H215646   4.559   4.209   3.531
 5214TIP3   OH215647   4.827   0.850   2.350
 5214TIP3    H115648   4.779   0.905   2.412
 5214TIP3    H215649   4.858   0.911   2.284
 5215TIP3   OH215650   4.075   1.053   0.531
 5215TIP3    H115651   3.994   1.056   0.583
 5215TIP3    H215652   4.044   1.044   0.440
 5216TIP3   OH215653   2.872   1.669   2.942
 5216TIP3    H115654   2.887   1.663   3.036
 5216TIP3    H215655   2.790   1.719   2.934
 5217TIP3   OH215656   4.025   5.097   4.755
 5217TIP3    H115657   3.988   5.024   4.706
 5217TIP3    H215658   4.102   5.123   4.705
 5218TIP3   OH215659   5.778   1.910   0.576
 5218TIP3    H115660   5.750   2.001   0.588
 5218TIP3    H215661   5.867   1.908   0.613
 5219TIP3   OH215662   5.440   5.572   0.787
 5219TIP3    H115663   5.514   5.511   0.785
 5219TIP3    H215664   5.459   5.635   0.717
 5220TIP3   OH215665   6.123   4.048   0.479
 5220TIP3    H115666   6.090   4.008   0.559
 5220TIP3    H215667   6.151   3.974   0.425
 5221TIP3   OH215668   0.424   4.614   3.075
 5221TIP3    H115669   0.476   4.656   3.144
 5221TIP3    H215670   0.473   4.534   3.053
 5222TIP3   OH215671   1.491   5.738   0.354
 5222TIP3    H115672   1.500   5.646   0.329
 5222TIP3    H215673   1.560   5.752   0.419
 5223TIP3   OH215674   4.144   0.800   0.012
 5223TIP3    H115675   4.095   0.880  -0.007
 5223TIP3    H215676   4.078   0.731   0.015
 5224TIP3   OH215677   5.613   0.342   4.536
 5224TIP3    H115678   5.646   0.428   4.562
 5224TIP3    H215679   5.631   0.335   4.443
 5225TIP3   OH215680   5.454   5.378   5.031
 5225TIP3    H115681   5.497   5.457   5.063
 5225TIP3    H215682   5.395   5.353   5.102
 5226TIP3   OH215683   6.124   4.967   2.920
 5226TIP3    H115684   6.066   5.043   2.919
 5226TIP3    H215685   6.212   5.004   2.923
 5227TIP3   OH215686   2.343   3.777   4.993
 5227TIP3    H115687   2.332   3.849   4.930
 5227TIP3    H215688   2.254   3.747   5.011
 5228TIP3   OH215689   4.772   4.580   5.061
 5228TIP3    H115690   4.786   4.531   4.980
 5228TIP3    H215691   4.822   4.660   5.050
 5229TIP3   OH215692   1.293   1.037   4.406
 5229TIP3    H115693   1.301   1.088   4.325
 5229TIP3    H215694   1.282   1.102   4.475
 5230TIP3   OH215695   3.309   3.603   1.263
 5230TIP3    H115696   3.287   3.608   1.170
 5230TIP3    H215697   3.395   3.644   1.270
 5231TIP3   OH215698   2.212   2.752   0.898
 5231TIP3    H115699   2.294   2.781   0.860
 5231TIP3    H215700   2.210   2.657   0.883
 5232TIP3   OH215701   0.228   0.666   2.620
 5232TIP3    H115702   0.247   0.756   2.646
 5232TIP3    H215703   0.173   0.632   2.690
 5233TIP3   OH215704   1.285   1.643   3.392
 5233TIP3    H115705   1.257   1.554   3.376
 5233TIP3    H215706   1.249   1.694   3.320
 5234TIP3   OH215707   1.729   3.806   3.408
 5234TIP3    H115708   1.807   3.830   3.356
 5234TIP3    H215709   1.714   3.714   3.388
 5235TIP3   OH215710   3.184   4.429   0.103
 5235TIP3    H115711   3.090   4.415   0.089
 5235TIP3    H215712   3.196   4.414   0.197
 5236TIP3   OH215713   2.916   1.985   1.794
 5236TIP3    H115714   3.008   1.965   1.780
 5236TIP3    H215715   2.877   1.903   1.824
 5237TIP3   OH215716   3.001   5.559   4.993
 5237TIP3    H115717   2.974   5.641   5.035
 5237TIP3    H215718   3.061   5.587   4.924
 5238TIP3   OH215719   5.568   4.652   1.317
 5238TIP3    H115720   5.648   4.637   1.265
 5238TIP3    H215721   5.593   4.720   1.380
 5239TIP3   OH215722   3.156   0.579   1.539
 5239TIP3    H115723   3.187   0.499   1.497
 5239TIP3    H215724   3.070   0.556   1.576
 5240TIP3   OH215725   5.531   0.511   2.527
 5240TIP3    H115726   5.593   0.440   2.509
 5240TIP3    H215727   5.580   0.591   2.507
 5241TIP3   OH215728   2.871   4.594   2.656
 5241TIP3    H115729   2.814   4.518   2.644
 5241TIP3    H215730   2.833   4.640   2.732
 5242TIP3   OH215731   1.538   5.355   3.732
 5242TIP3    H115732   1.454   5.310   3.728
 5242TIP3    H215733   1.590   5.304   3.794
 5243TIP3   OH215734   1.918   5.051   2.851
 5243TIP3    H115735   1.945   5.141   2.828
 5243TIP3    H215736   1.896   5.011   2.767
 5244TIP3   OH215737   1.748   3.924   2.557
 5244TIP3    H115738   1.677   3.949   2.498
 5244TIP3    H215739   1.749   3.993   2.623
 5245TIP3   OH215740   5.149   1.459   4.470
 5245TIP3    H115741   5.071   1.496   4.429
 5245TIP3    H215742   5.171   1.521   4.539
 5246TIP3   OH215743   0.875   4.328   2.436
 5246TIP3    H115744   0.960   4.337   2.480
 5246TIP3    H215745   0.894   4.278   2.357
 5247TIP3   OH215746   1.311   5.047   1.462
 5247TIP3    H115747   1.279   4.999   1.539
 5247TIP3    H215748   1.286   5.138   1.478
 5248TIP3   OH215749   5.716   0.474   3.999
 5248TIP3    H115750   5.807   0.488   4.027
 5248TIP3    H215751   5.718   0.489   3.905
 5249TIP3   OH215752   2.240   1.680   4.741
 5249TIP3    H115753   2.282   1.624   4.806
 5249TIP3    H215754   2.201   1.619   4.678
 5250TIP3   OH215755   5.398   5.133   4.110
 5250TIP3    H115756   5.453   5.123   4.188
 5250TIP3    H215757   5.451   5.185   4.050
 5251TIP3   OH215758   0.806   4.633   0.764
 5251TIP3    H115759   0.788   4.713   0.715
 5251TIP3    H215760   0.838   4.664   0.849
 5252TIP3   OH215761   1.519   5.863   1.131
 5252TIP3    H115762   1.477   5.948   1.142
 5252TIP3    H215763   1.607   5.875   1.168
 5253TIP3   OH215764   2.604   1.720   4.942
 5253TIP3    H115765   2.558   1.687   5.019
 5253TIP3    H215766   2.580   1.659   4.872
 5254TIP3   OH215767   3.484   0.644   1.478
 5254TIP3    H115768   3.558   0.608   1.526
 5254TIP3    H215769   3.418   0.661   1.545
 5255TIP3   OH215770   5.674   2.354   3.732
 5255TIP3    H115771   5.681   2.423   3.666
 5255TIP3    H215772   5.672   2.272   3.682
 5256TIP3   OH215773   2.665   3.991   0.459
 5256TIP3    H115774   2.628   3.961   0.542
 5256TIP3    H215775   2.631   3.930   0.394
 5257TIP3   OH215776   3.295   5.870   1.500
 5257TIP3    H115777   3.201   5.884   1.489
 5257TIP3    H215778   3.318   5.925   1.575
 5258TIP3   OH215779   1.586   5.922   3.874
 5258TIP3    H115780   1.500   5.881   3.884
 5258TIP3    H215781   1.609   5.907   3.782
 5259TIP3   OH215782   2.489   0.091   0.966
 5259TIP3    H115783   2.409   0.039   0.953
 5259TIP3    H215784   2.473   0.171   0.917
 5260TIP3   OH215785   0.315   3.915   2.273
 5260TIP3    H115786   0.377   3.968   2.222
 5260TIP3    H215787   0.370   3.864   2.332
 5261TIP3   OH215788   6.206   5.694   0.202
 5261TIP3    H115789   6.117   5.716   0.176
 5261TIP3    H215790   6.259   5.715   0.124
 5262TIP3   OH215791   6.050   0.625   3.814
 5262TIP3    H115792   6.062   0.708   3.861
 5262TIP3    H215793   6.081   0.558   3.875
 5263TIP3   OH215794   4.797   1.317   2.012
 5263TIP3    H115795   4.721   1.318   1.955
 5263TIP3    H215796   4.870   1.295   1.954
 5264TIP3   OH215797   3.114   3.554   3.664
 5264TIP3    H115798   3.188   3.511   3.707
 5264TIP3    H215799   3.038   3.534   3.719
 5265TIP3   OH215800   0.744   5.650   4.303
 5265TIP3    H115801   0.696   5.581   4.258
 5265TIP3    H215802   0.763   5.615   4.390
 5266TIP3   OH215803   1.377   2.412   4.291
 5266TIP3    H115804   1.458   2.463   4.289
 5266TIP3    H215805   1.341   2.429   4.378
 5267TIP3   OH215806   6.174   0.809   0.207
 5267TIP3    H115807   6.185   0.737   0.145
 5267TIP3    H215808   6.217   0.883   0.165
 5268TIP3   OH215809   0.723   2.129   5.073
 5268TIP3    H115810   0.647   2.145   5.018
 5268TIP3    H215811   0.773   2.211   5.070
 5269TIP3   OH215812   3.719   4.911   0.777
 5269TIP3    H115813   3.791   4.937   0.835
 5269TIP3    H215814   3.692   4.825   0.810
 5270TIP3   OH215815   0.356   1.657   0.205
 5270TIP3    H115816   0.394   1.571   0.187
 5270TIP3    H215817   0.423   1.719   0.177
 5271TIP3   OH215818   3.156   0.154   4.484
 5271TIP3    H115819   3.118   0.084   4.430
 5271TIP3    H215820   3.218   0.109   4.541
 5272TIP3   OH215821   4.028   1.857   0.827
 5272TIP3    H115822   3.996   1.877   0.739
 5272TIP3    H215823   4.119   1.829   0.813
 5273TIP3   OH215824   0.390   1.610   4.603
 5273TIP3    H115825   0.434   1.562   4.533
 5273TIP3    H215826   0.330   1.669   4.557
 5274TIP3   OH215827   3.594   0.260   3.152
 5274TIP3    H115828   3.534   0.330   3.180
 5274TIP3    H215829   3.586   0.259   3.056
 5275TIP3   OH215830   1.571   3.851   3.017
 5275TIP3    H115831   1.483   3.822   3.037
 5275TIP3    H215832   1.569   3.946   3.033
 5276TIP3   OH215833   1.422   1.874   0.511
 5276TIP3    H115834   1.365   1.837   0.578
 5276TIP3    H215835   1.362   1.898   0.440
 5277TIP3   OH215836   3.861   2.831   3.195
 5277TIP3    H115837   3.922   2.850   3.123
 5277TIP3    H215838   3.774   2.840   3.156
 5278TIP3   OH215839   6.185   5.541   1.959
 5278TIP3    H115840   6.220   5.617   2.005
 5278TIP3    H215841   6.224   5.466   2.004
 5279TIP3   OH215842   5.998   2.100   1.341
 5279TIP3    H115843   5.944   2.170   1.377
 5279TIP3    H215844   5.988   2.109   1.246
 5280TIP3   OH215845   5.299   0.212   0.488
 5280TIP3    H115846   5.350   0.284   0.452
 5280TIP3    H215847   5.329   0.204   0.579
 5281TIP3   OH215848   2.712   5.624   0.713
 5281TIP3    H115849   2.806   5.639   0.723
 5281TIP3    H215850   2.697   5.632   0.619
 5282TIP3   OH215851   1.431   2.415   3.357
 5282TIP3    H115852   1.463   2.341   3.306
 5282TIP3    H215853   1.373   2.463   3.297
 5283TIP3   OH215854   0.285   5.210   2.288
 5283TIP3    H115855   0.285   5.247   2.200
 5283TIP3    H215856   0.290   5.116   2.274
 5284TIP3   OH215857   4.710   4.594   2.639
 5284TIP3    H115858   4.752   4.556   2.562
 5284TIP3    H215859   4.783   4.630   2.690
 5285TIP3   OH215860   2.046   5.009   1.005
 5285TIP3    H115861   2.097   5.090   0.996
 5285TIP3    H215862   1.955   5.037   0.996
 5286TIP3   OH215863   2.402   3.247   1.073
 5286TIP3    H115864   2.420   3.338   1.096
 5286TIP3    H215865   2.335   3.219   1.135
 5287TIP3   OH215866   2.537   1.935   1.472
 5287TIP3    H115867   2.544   2.010   1.412
 5287TIP3    H215868   2.452   1.896   1.452
 5288TIP3   OH215869   5.165   3.024   1.294
 5288TIP3    H115870   5.113   3.052   1.370
 5288TIP3    H215871   5.124   3.068   1.220
 5289TIP3   OH215872   4.970   2.513   0.723
 5289TIP3    H115873   4.932   2.485   0.806
 5289TIP3    H215874   4.909   2.482   0.656
 5290TIP3   OH215875   5.177   0.093   3.956
 5290TIP3    H115876   5.137   0.006   3.965
 5290TIP3    H215877   5.103   0.150   3.934
 5291TIP3   OH215878   3.892   0.098   2.652
 5291TIP3    H115879   3.923   0.040   2.721
 5291TIP3    H215880   3.971   0.145   2.624
 5292TIP3   OH215881   3.792   1.461   1.332
 5292TIP3    H115882   3.712   1.410   1.322
 5292TIP3    H215883   3.836   1.453   1.247
 5293TIP3   OH215884   2.670   0.608   1.654
 5293TIP3    H115885   2.635   0.544   1.717
 5293TIP3    H215886   2.593   0.641   1.608
 5294TIP3   OH215887   1.311   1.415   3.125
 5294TIP3    H115888   1.258   1.415   3.205
 5294TIP3    H215889   1.264   1.475   3.066
 5295TIP3   OH215890   2.560   1.981   3.990
 5295TIP3    H115891   2.577   1.901   4.039
 5295TIP3    H215892   2.478   2.015   4.026
 5296TIP3   OH215893   0.436   2.722   2.209
 5296TIP3    H115894   0.357   2.769   2.234
 5296TIP3    H215895   0.437   2.726   2.113
 5297TIP3   OH215896   3.905   5.098   4.465
 5297TIP3    H115897   3.881   5.059   4.381
 5297TIP3    H215898   3.839   5.165   4.480
 5298TIP3   OH215899   3.130   5.742   1.033
 5298TIP3    H115900   3.137   5.711   1.124
 5298TIP3    H215901   3.070   5.815   1.038
 5299TIP3   OH215902   4.843   4.409   2.974
 5299TIP3    H115903   4.870   4.423   3.065
 5299TIP3    H215904   4.764   4.354   2.980
 5300TIP3   OH215905   1.894   2.281   3.451
 5300TIP3    H115906   1.860   2.210   3.398
 5300TIP3    H215907   1.865   2.261   3.540
 5301TIP3   OH215908   0.239   2.920   1.088
 5301TIP3    H115909   0.252   3.006   1.049
 5301TIP3    H215910   0.162   2.930   1.144
 5302TIP3   OH215911   6.244   5.571   0.567
 5302TIP3    H115912   6.169   5.568   0.509
 5302TIP3    H215913   6.207   5.560   0.655
 5303TIP3   OH215914   3.806   5.100   0.106
 5303TIP3    H115915   3.831   5.150   0.184
 5303TIP3    H215916   3.846   5.014   0.119
 5304TIP3   OH215917   2.806   3.437   4.798
 5304TIP3    H115918   2.900   3.426   4.812
 5304TIP3    H215919   2.768   3.434   4.886
 5305TIP3   OH215920   2.976   4.329   2.474
 5305TIP3    H115921   2.984   4.323   2.569
 5305TIP3    H215922   3.051   4.382   2.447
 5306TIP3   OH215923   5.312   3.867   1.583
 5306TIP3    H115924   5.300   3.801   1.514
 5306TIP3    H215925   5.265   3.944   1.551
 5307TIP3   OH215926   6.090   3.479   4.930
 5307TIP3    H115927   6.182   3.480   4.903
 5307TIP3    H215928   6.048   3.417   4.871
 5308TIP3   OH215929   6.280   0.174   3.970
 5308TIP3    H115930   6.283   0.098   3.913
 5308TIP3    H215931   6.333   0.150   4.046
 5309TIP3   OH215932   3.653   0.958   1.290
 5309TIP3    H115933   3.611   0.969   1.376
 5309TIP3    H215934   3.607   0.885   1.250
 5310TIP3   OH215935   0.510   2.821   0.046
 5310TIP3    H115936   0.533   2.914   0.039
 5310TIP3    H215937   0.416   2.818   0.027
 5311TIP3   OH215938   0.763   0.718   1.666
 5311TIP3    H115939   0.701   0.686   1.600
 5311TIP3    H215940   0.722   0.696   1.750
 5312TIP3   OH215941   3.895   1.476   2.498
 5312TIP3    H115942   3.842   1.406   2.460
 5312TIP3    H215943   3.886   1.465   2.593
 5313TIP3   OH215944   0.214   2.372   2.967
 5313TIP3    H115945   0.119   2.361   2.976
 5313TIP3    H215946   0.244   2.292   2.925
 5314TIP3   OH215947   0.572   0.310   1.589
 5314TIP3    H115948   0.661   0.321   1.621
 5314TIP3    H215949   0.579   0.318   1.494
 5315TIP3   OH215950   1.219   1.404   0.751
 5315TIP3    H115951   1.229   1.318   0.791
 5315TIP3    H215952   1.168   1.388   0.671
 5316TIP3   OH215953   3.238   4.872   4.588
 5316TIP3    H115954   3.175   4.806   4.560
 5316TIP3    H215955   3.254   4.926   4.510
 5317TIP3   OH215956   0.105   4.626   5.157
 5317TIP3    H115957   0.105   4.596   5.248
 5317TIP3    H215958   0.026   4.587   5.120
 5318TIP3   OH215959   2.214   0.129   4.378
 5318TIP3    H115960   2.129   0.085   4.370
 5318TIP3    H215961   2.278   0.065   4.347
 5319TIP3   OH215962   1.910   3.281   2.140
 5319TIP3    H115963   1.831   3.333   2.157
 5319TIP3    H215964   1.961   3.335   2.079
 5320TIP3   OH215965   1.091   1.830   0.908
 5320TIP3    H115966   1.074   1.909   0.959
 5320TIP3    H215967   1.057   1.759   0.962
 5321TIP3   OH215968   1.128   4.565   0.622
 5321TIP3    H115969   1.176   4.503   0.678
 5321TIP3    H215970   1.098   4.512   0.549
 5322TIP3   OH215971   2.734   1.283   3.765
 5322TIP3    H115972   2.693   1.214   3.713
 5322TIP3    H215973   2.754   1.242   3.849
 5323TIP3   OH215974   4.593   0.965   2.136
 5323TIP3    H115975   4.551   1.040   2.179
 5323TIP3    H215976   4.521   0.919   2.094
 5324TIP3   OH215977   4.225   4.568   4.201
 5324TIP3    H115978   4.177   4.568   4.284
 5324TIP3    H215979   4.232   4.476   4.177
 5325TIP3   OH215980   2.157   3.264   3.211
 5325TIP3    H115981   2.079   3.298   3.167
 5325TIP3    H215982   2.135   3.268   3.304
 5326TIP3   OH215983   3.587   1.580   2.443
 5326TIP3    H115984   3.619   1.515   2.380
 5326TIP3    H215985   3.582   1.532   2.525
 5327TIP3   OH215986   1.223   5.956   4.579
 5327TIP3    H115987   1.276   5.928   4.504
 5327TIP3    H215988   1.261   5.908   4.654
 5328TIP3   OH215989   5.076   1.590   1.972
 5328TIP3    H115990   5.049   1.562   1.884
 5328TIP3    H215991   4.994   1.611   2.017
 5329TIP3   OH215992   5.537   3.246   2.421
 5329TIP3    H115993   5.543   3.155   2.448
 5329TIP3    H215994   5.563   3.296   2.498
 5330TIP3   OH215995   1.582   2.505   5.073
 5330TIP3    H115996   1.613   2.538   5.157
 5330TIP3    H215997   1.659   2.464   5.034
 5331TIP3   OH215998   3.269   2.007   1.857
 5331TIP3    H115999   3.351   2.050   1.836
 5331TIP3    H216000   3.218   2.011   1.776
 5332TIP3   OH216001   5.886   3.292   2.206
 5332TIP3    H116002   5.979   3.270   2.216
 5332TIP3    H216003   5.840   3.209   2.221
 5333TIP3   OH216004   3.489   2.858   0.875
 5333TIP3    H116005   3.550   2.891   0.941
 5333TIP3    H216006   3.424   2.928   0.864
 5334TIP3   OH216007   1.303   5.898   2.344
 5334TIP3    H116008   1.390   5.858   2.339
 5334TIP3    H216009   1.268   5.892   2.255
 5335TIP3   OH216010   6.002   0.716   1.907
 5335TIP3    H116011   5.931   0.779   1.897
 5335TIP3    H216012   6.082   0.766   1.893
 5336TIP3   OH216013   5.215   0.496   1.059
 5336TIP3    H116014   5.199   0.506   0.965
 5336TIP3    H216015   5.210   0.401   1.073
 5337TIP3   OH216016   1.075   3.517   0.066
 5337TIP3    H116017   0.992   3.561   0.081
 5337TIP3    H216018   1.083   3.455   0.139
 5338TIP3   OH216019   0.475   2.064   1.078
 5338TIP3    H116020   0.554   2.044   1.127
 5338TIP3    H216021   0.403   2.039   1.136
 5339TIP3   OH216022   0.194   0.009   2.521
 5339TIP3    H116023   0.153   0.045   2.442
 5339TIP3    H216024   0.282   0.048   2.522
 5340TIP3   OH216025   4.173   2.571   4.073
 5340TIP3    H116026   4.215   2.540   4.153
 5340TIP3    H216027   4.182   2.498   4.011
 5341TIP3   OH216028   0.562   0.636   1.470
 5341TIP3    H116029   0.577   0.713   1.415
 5341TIP3    H216030   0.504   0.668   1.539
 5342TIP3   OH216031   0.653   2.353   4.482
 5342TIP3    H116032   0.563   2.386   4.478
 5342TIP3    H216033   0.707   2.430   4.462
 5343TIP3   OH216034   0.155   5.489   2.881
 5343TIP3    H116035   0.153   5.524   2.792
 5343TIP3    H216036   0.246   5.465   2.895
 5344TIP3   OH216037   5.418   0.297   0.749
 5344TIP3    H116038   5.380   0.370   0.700
 5344TIP3    H216039   5.512   0.308   0.739
 5345TIP3   OH216040   0.551   1.815   4.925
 5345TIP3    H116041   0.511   1.890   4.969
 5345TIP3    H216042   0.500   1.740   4.954
 5346TIP3   OH216043   3.183   1.534   1.687
 5346TIP3    H116044   3.133   1.575   1.616
 5346TIP3    H216045   3.137   1.451   1.703
 5347TIP3   OH216046   2.184   2.118   1.189
 5347TIP3    H116047   2.252   2.079   1.242
 5347TIP3    H216048   2.173   2.058   1.115
 5348TIP3   OH216049   2.590   3.264   0.860
 5348TIP3    H116050   2.538   3.286   0.937
 5348TIP3    H216051   2.546   3.308   0.788
 5349TIP3   OH216052   1.872   3.751   0.084
 5349TIP3    H116053   1.945   3.689   0.078
 5349TIP3    H216054   1.798   3.704   0.046
 5350TIP3   OH216055   4.104   4.333   1.022
 5350TIP3    H116056   4.144   4.318   0.936
 5350TIP3    H216057   4.057   4.253   1.040
 5351TIP3   OH216058   5.700   3.812   1.259
 5351TIP3    H116059   5.709   3.811   1.163
 5351TIP3    H216060   5.621   3.863   1.275
 5352TIP3   OH216061   2.235   1.354   0.733
 5352TIP3    H116062   2.205   1.381   0.820
 5352TIP3    H216063   2.195   1.416   0.673
 5353TIP3   OH216064   0.878   1.190   1.113
 5353TIP3    H116065   0.808   1.220   1.054
 5353TIP3    H216066   0.953   1.175   1.055
 5354TIP3   OH216067   4.821   3.219   1.757
 5354TIP3    H116068   4.900   3.273   1.754
 5354TIP3    H216069   4.754   3.277   1.795
 5355TIP3   OH216070   4.423   2.044   2.879
 5355TIP3    H116071   4.489   2.114   2.882
 5355TIP3    H216072   4.387   2.049   2.790
 5356TIP3   OH216073   1.687   2.833   3.230
 5356TIP3    H116074   1.667   2.852   3.321
 5356TIP3    H216075   1.773   2.873   3.215
 5357TIP3   OH216076   3.388   2.036   0.119
 5357TIP3    H116077   3.405   2.129   0.138
 5357TIP3    H216078   3.355   2.001   0.201
 5358TIP3   OH216079   1.579   4.448   3.936
 5358TIP3    H116080   1.611   4.522   3.884
 5358TIP3    H216081   1.530   4.489   4.007
 5359TIP3   OH216082   2.786   2.858   3.029
 5359TIP3    H116083   2.730   2.798   3.077
 5359TIP3    H216084   2.870   2.854   3.075
 5360TIP3   OH216085   3.865   3.317   2.326
 5360TIP3    H116086   3.931   3.248   2.333
 5360TIP3    H216087   3.889   3.366   2.248
 5361TIP3   OH216088   1.354   2.308   5.059
 5361TIP3    H116089   1.407   2.387   5.063
 5361TIP3    H216090   1.413   2.239   5.091
 5362TIP3   OH216091   4.337   5.264   2.858
 5362TIP3    H116092   4.324   5.170   2.849
 5362TIP3    H216093   4.252   5.302   2.833
 5363TIP3   OH216094   4.047   0.255   2.954
 5363TIP3    H116095   4.118   0.283   2.896
 5363TIP3    H216096   4.091   0.224   3.033
 5364TIP3   OH216097   5.793   2.771   3.392
 5364TIP3    H116098   5.750   2.836   3.448
 5364TIP3    H216099   5.879   2.809   3.374
 5365TIP3   OH216100   4.950   0.438   4.383
 5365TIP3    H116101   4.995   0.512   4.341
 5365TIP3    H216102   4.994   0.429   4.468
 5366TIP3   OH216103   2.239   1.339   3.191
 5366TIP3    H116104   2.153   1.374   3.213
 5366TIP3    H216105   2.245   1.256   3.237
 5367TIP3   OH216106   4.137   1.471   2.799
 5367TIP3    H116107   4.048   1.435   2.794
 5367TIP3    H216108   4.170   1.442   2.883
 5368TIP3   OH216109   3.005   5.411   1.721
 5368TIP3    H116110   2.958   5.328   1.724
 5368TIP3    H216111   3.091   5.390   1.686
 5369TIP3   OH216112   4.403   5.679   1.694
 5369TIP3    H116113   4.436   5.591   1.677
 5369TIP3    H216114   4.363   5.674   1.780
 5370TIP3   OH216115   3.990   3.178   3.802
 5370TIP3    H116116   4.040   3.136   3.731
 5370TIP3    H216117   3.974   3.107   3.864
 5371TIP3   OH216118   3.440   2.673   0.288
 5371TIP3    H116119   3.427   2.733   0.361
 5371TIP3    H216120   3.413   2.723   0.211
 5372TIP3   OH216121   2.176   3.355   0.227
 5372TIP3    H116122   2.248   3.317   0.176
 5372TIP3    H216123   2.163   3.294   0.299
 5373TIP3   OH216124   5.961   4.122   4.099
 5373TIP3    H116125   6.056   4.115   4.098
 5373TIP3    H216126   5.935   4.087   4.184
 5374TIP3   OH216127   0.699   4.243   2.645
 5374TIP3    H116128   0.775   4.231   2.701
 5374TIP3    H216129   0.735   4.281   2.564
 5375TIP3   OH216130   3.713   3.378   0.466
 5375TIP3    H116131   3.775   3.307   0.445
 5375TIP3    H216132   3.627   3.341   0.443
 5376TIP3   OH216133   4.466   5.072   4.003
 5376TIP3    H116134   4.415   4.996   3.977
 5376TIP3    H216135   4.433   5.094   4.091
 5377TIP3   OH216136   3.465   5.253   3.247
 5377TIP3    H116137   3.449   5.332   3.196
 5377TIP3    H216138   3.534   5.207   3.198
 5378TIP3   OH216139   2.445   2.000   1.176
 5378TIP3    H116140   2.512   2.033   1.117
 5378TIP3    H216141   2.448   1.905   1.165
 5379TIP3   OH216142   1.699   0.832   2.114
 5379TIP3    H116143   1.728   0.833   2.205
 5379TIP3    H216144   1.661   0.744   2.103
 5380TIP3   OH216145   3.325   3.950   1.792
 5380TIP3    H116146   3.319   3.887   1.865
 5380TIP3    H216147   3.272   3.910   1.722
 5381TIP3   OH216148   3.153   3.962   2.202
 5381TIP3    H116149   3.121   3.955   2.292
 5381TIP3    H216150   3.193   4.049   2.198
 5382TIP3   OH216151   2.956   1.686   0.292
 5382TIP3    H116152   2.876   1.633   0.290
 5382TIP3    H216153   2.992   1.678   0.205
 5383TIP3   OH216154   1.714   0.352   4.395
 5383TIP3    H116155   1.715   0.435   4.347
 5383TIP3    H216156   1.798   0.350   4.441
 5384TIP3   OH216157   3.319   0.044   3.271
 5384TIP3    H116158   3.365   0.120   3.235
 5384TIP3    H216159   3.296  -0.008   3.194
 5385TIP3   OH216160   0.602   3.733   3.225
 5385TIP3    H116161   0.588   3.672   3.153
 5385TIP3    H216162   0.545   3.807   3.206
 5386TIP3   OH216163   5.121   0.632   4.768
 5386TIP3    H116164   5.150   0.560   4.712
 5386TIP3    H216165   5.025   0.625   4.768
 5387TIP3   OH216166   1.599   1.988   3.110
 5387TIP3    H116167   1.572   1.969   3.021
 5387TIP3    H216168   1.557   1.921   3.163
 5388TIP3   OH216169   1.988   0.691   2.607
 5388TIP3    H116170   1.902   0.714   2.643
 5388TIP3    H216171   2.015   0.770   2.559
 5389TIP3   OH216172   2.050   5.314   4.999
 5389TIP3    H116173   2.112   5.241   5.010
 5389TIP3    H216174   2.101   5.392   5.019
 5390TIP3   OH216175   5.420   4.160   4.835
 5390TIP3    H116176   5.505   4.132   4.868
 5390TIP3    H216177   5.357   4.110   4.888
 5391TIP3   OH216178   3.327   2.526   4.016
 5391TIP3    H116179   3.310   2.502   3.925
 5391TIP3    H216180   3.416   2.562   4.015
 5392TIP3   OH216181   5.583   4.649   0.829
 5392TIP3    H116182   5.508   4.595   0.852
 5392TIP3    H216183   5.598   4.704   0.906
 5393TIP3   OH216184   2.550   3.565   4.302
 5393TIP3    H116185   2.493   3.495   4.334
 5393TIP3    H216186   2.545   3.557   4.206
 5394TIP3   OH216187   3.821   4.836   0.098
 5394TIP3    H116188   3.779   4.787   0.169
 5394TIP3    H216189   3.846   4.770   0.034
 5395TIP3   OH216190   5.226   3.475   1.147
 5395TIP3    H116191   5.220   3.436   1.059
 5395TIP3    H216192   5.141   3.519   1.159
 5396TIP3   OH216193   5.077   5.411   1.038
 5396TIP3    H116194   5.092   5.462   1.118
 5396TIP3    H216195   4.989   5.436   1.010
 5397TIP3   OH216196   3.856   2.264   2.776
 5397TIP3    H116197   3.828   2.181   2.814
 5397TIP3    H216198   3.801   2.330   2.818
 5398TIP3   OH216199   3.531   5.160   4.591
 5398TIP3    H116200   3.544   5.242   4.544
 5398TIP3    H216201   3.600   5.159   4.657
 5399TIP3   OH216202   4.050   5.192   2.834
 5399TIP3    H116203   3.999   5.120   2.797
 5399TIP3    H216204   4.030   5.190   2.927
 5400TIP3   OH216205   0.105   4.519   0.859
 5400TIP3    H116206   0.042   4.583   0.893
 5400TIP3    H216207   0.066   4.434   0.881
 5401TIP3   OH216208   5.837   3.962   4.323
 5401TIP3    H116209   5.818   3.887   4.266
 5401TIP3    H216210   5.782   4.032   4.289
 5402TIP3   OH216211   5.990   1.353   4.630
 5402TIP3    H116212   6.078   1.378   4.658
 5402TIP3    H216213   5.991   1.365   4.535
 5403TIP3   OH216214   4.362   2.399   5.116
 5403TIP3    H116215   4.378   2.489   5.089
 5403TIP3    H216216   4.406   2.392   5.201
 5404TIP3   OH216217   1.512   1.193   3.815
 5404TIP3    H116218   1.510   1.197   3.910
 5404TIP3    H216219   1.606   1.193   3.793
 5405TIP3   OH216220   6.279   2.109   2.390
 5405TIP3    H116221   6.315   2.102   2.301
 5405TIP3    H216222   6.282   2.202   2.410
 5406TIP3   OH216223   0.245   1.858   0.705
 5406TIP3    H116224   0.264   1.814   0.621
 5406TIP3    H216225   0.267   1.792   0.771
 5407TIP3   OH216226   3.171   2.823   5.224
 5407TIP3    H116227   3.187   2.738   5.182
 5407TIP3    H216228   3.206   2.887   5.162
 5408TIP3   OH216229   5.420   5.739   4.449
 5408TIP3    H116230   5.485   5.698   4.392
 5408TIP3    H216231   5.419   5.831   4.421
 5409TIP3   OH216232   3.651   3.129   2.285
 5409TIP3    H116233   3.745   3.124   2.303
 5409TIP3    H216234   3.632   3.222   2.283
 5410TIP3   OH216235   3.451   5.441   1.061
 5410TIP3    H116236   3.509   5.365   1.061
 5410TIP3    H216237   3.403   5.435   1.143
 5411TIP3   OH216238   1.835   2.645   0.500
 5411TIP3    H116239   1.912   2.624   0.553
 5411TIP3    H216240   1.827   2.572   0.440
 5412TIP3   OH216241   3.450   1.991   0.729
 5412TIP3    H116242   3.498   1.986   0.811
 5412TIP3    H216243   3.512   2.029   0.666
 5413TIP3   OH216244   3.667   2.353   2.562
 5413TIP3    H116245   3.750   2.389   2.529
 5413TIP3    H216246   3.691   2.314   2.646
 5414TIP3   OH216247   2.038   0.471   1.994
 5414TIP3    H116248   1.955   0.476   1.946
 5414TIP3    H216249   2.092   0.540   1.954
 5415TIP3   OH216250   1.310   3.117   2.683
 5415TIP3    H116251   1.405   3.121   2.670
 5415TIP3    H216252   1.295   3.166   2.764
 5416TIP3   OH216253   1.211   5.287   1.534
 5416TIP3    H116254   1.266   5.347   1.484
 5416TIP3    H216255   1.122   5.310   1.510
 5417TIP3   OH216256   5.806   4.133   1.244
 5417TIP3    H116257   5.762   4.214   1.219
 5417TIP3    H216258   5.737   4.077   1.279
 5418TIP3   OH216259   5.159   5.253   4.164
 5418TIP3    H116260   5.238   5.199   4.157
 5418TIP3    H216261   5.171   5.301   4.246
 5419TIP3   OH216262   5.954   5.066   4.379
 5419TIP3    H116263   5.966   4.998   4.312
 5419TIP3    H216264   6.024   5.129   4.361
 5420TIP3   OH216265   4.944   5.346   0.330
 5420TIP3    H116266   4.857   5.385   0.338
 5420TIP3    H216267   4.928   5.255   0.306
 5421TIP3   OH216268   4.488   4.982   0.245
 5421TIP3    H116269   4.427   4.920   0.206
 5421TIP3    H216270   4.446   5.068   0.235
 5422TIP3   OH216271   4.837   5.923   5.065
 5422TIP3    H116272   4.842   5.828   5.068
 5422TIP3    H216273   4.913   5.953   5.114
 5423TIP3   OH216274   3.276   1.917   5.063
 5423TIP3    H116275   3.247   1.877   5.145
 5423TIP3    H216276   3.371   1.924   5.072
 5424TIP3   OH216277   5.692   0.618   1.983
 5424TIP3    H116278   5.760   0.577   2.037
 5424TIP3    H216279   5.662   0.549   1.925
 5425TIP3   OH216280   1.957   5.834   3.544
 5425TIP3    H116281   2.028   5.805   3.486
 5425TIP3    H216282   1.967   5.782   3.623
 5426TIP3   OH216283   0.232   3.629   0.336
 5426TIP3    H116284   0.310   3.595   0.379
 5426TIP3    H216285   0.202   3.700   0.393
 5427TIP3   OH216286   4.921   0.101   4.480
 5427TIP3    H116287   5.017   0.104   4.485
 5427TIP3    H216288   4.901   0.009   4.463
 5428TIP3   OH216289   1.547   4.505   1.042
 5428TIP3    H116290   1.616   4.500   0.976
 5428TIP3    H216291   1.509   4.417   1.044
 5429TIP3   OH216292   0.512   5.140   0.094
 5429TIP3    H116293   0.444   5.076   0.114
 5429TIP3    H216294   0.484   5.179   0.011
 5430TIP3   OH216295   1.269   0.577   2.339
 5430TIP3    H116296   1.263   0.672   2.339
 5430TIP3    H216297   1.185   0.548   2.375
 5431TIP3   OH216298   4.264   1.755   0.716
 5431TIP3    H116299   4.208   1.697   0.664
 5431TIP3    H216300   4.353   1.723   0.700
 5432TIP3   OH216301   3.231   2.233   2.227
 5432TIP3    H116302   3.230   2.313   2.175
 5432TIP3    H216303   3.291   2.252   2.299
 5433TIP3   OH216304   3.101   1.255   1.746
 5433TIP3    H116305   3.119   1.298   1.829
 5433TIP3    H216306   3.007   1.241   1.746
 5434TIP3   OH216307  -0.003   2.076   3.299
 5434TIP3    H116308   0.042   1.995   3.273
 5434TIP3    H216309   0.066   2.130   3.337
 5435TIP3   OH216310   2.823   2.872   1.016
 5435TIP3    H116311   2.794   2.962   0.999
 5435TIP3    H216312   2.918   2.877   1.013
 5436TIP3   OH216313   5.811   0.015   2.271
 5436TIP3    H116314   5.886   0.008   2.213
 5436TIP3    H216315   5.771  -0.072   2.269
 5437TIP3   OH216316   2.050   4.014   4.510
 5437TIP3    H116317   2.074   3.959   4.435
 5437TIP3    H216318   1.963   4.047   4.488
 5438TIP3   OH216319   0.132   4.458   4.799
 5438TIP3    H116320   0.226   4.445   4.787
 5438TIP3    H216321   0.119   4.451   4.893
 5439TIP3   OH216322   3.145   3.711   1.719
 5439TIP3    H116323   3.058   3.744   1.695
 5439TIP3    H216324   3.192   3.704   1.636
 5440TIP3   OH216325   0.465   3.467   0.754
 5440TIP3    H116326   0.517   3.391   0.729
 5440TIP3    H216327   0.411   3.436   0.827
 5441TIP3   OH216328   3.756   1.204   3.573
 5441TIP3    H116329   3.684   1.238   3.625
 5441TIP3    H216330   3.804   1.145   3.632
 5442TIP3   OH216331   4.441   2.906   1.483
 5442TIP3    H116332   4.395   2.823   1.478
 5442TIP3    H216333   4.490   2.902   1.565
 5443TIP3   OH216334   1.535   2.466   4.746
 5443TIP3    H116335   1.618   2.419   4.752
 5443TIP3    H216336   1.474   2.403   4.708
 5444TIP3   OH216337   1.941   0.689   0.843
 5444TIP3    H116338   1.960   0.609   0.892
 5444TIP3    H216339   2.017   0.702   0.787
 5445TIP3   OH216340   0.195   2.322   4.253
 5445TIP3    H116341   0.113   2.286   4.286
 5445TIP3    H216342   0.249   2.245   4.235
 5446TIP3   OH216343  -0.008   1.236   4.919
 5446TIP3    H116344  -0.013   1.158   4.864
 5446TIP3    H216345   0.058   1.291   4.875
 5447TIP3   OH216346   5.553   3.598   1.900
 5447TIP3    H116347   5.609   3.571   1.974
 5447TIP3    H216348   5.614   3.607   1.827
 5448TIP3   OH216349   3.245   4.205   2.210
 5448TIP3    H116350   3.326   4.222   2.258
 5448TIP3    H216351   3.267   4.225   2.119
 5449TIP3   OH216352   3.806   5.572   0.121
 5449TIP3    H116353   3.732   5.617   0.161
 5449TIP3    H216354   3.879   5.586   0.182
 5450TIP3   OH216355   5.569   4.370   2.809
 5450TIP3    H116356   5.526   4.446   2.772
 5450TIP3    H216357   5.596   4.397   2.897
 5451TIP3   OH216358   4.493   0.642   0.580
 5451TIP3    H116359   4.493   0.563   0.526
 5451TIP3    H216360   4.459   0.613   0.665
 5452TIP3   OH216361   4.039   2.682   2.374
 5452TIP3    H116362   4.105   2.639   2.428
 5452TIP3    H216363   4.067   2.667   2.284
 5453TIP3   OH216364   2.695   0.962   2.691
 5453TIP3    H116365   2.662   1.009   2.615
 5453TIP3    H216366   2.723   0.877   2.657
 5454TIP3   OH216367   4.366   2.298   1.056
 5454TIP3    H116368   4.454   2.283   1.092
 5454TIP3    H216369   4.308   2.289   1.132
 5455TIP3   OH216370   4.659   3.395   1.918
 5455TIP3    H116371   4.566   3.417   1.925
 5455TIP3    H216372   4.703   3.479   1.905
 5456TIP3   OH216373   1.505   0.551   0.192
 5456TIP3    H116374   1.542   0.463   0.195
 5456TIP3    H216375   1.546   0.597   0.265
 5457TIP3   OH216376   1.942   2.305   1.523
 5457TIP3    H116377   2.032   2.327   1.549
 5457TIP3    H216378   1.929   2.353   1.441
 5458TIP3   OH216379   6.163   3.497   2.096
 5458TIP3    H116380   6.079   3.512   2.051
 5458TIP3    H216381   6.147   3.422   2.152
 5459TIP3   OH216382   5.998   4.696   0.623
 5459TIP3    H116383   5.972   4.605   0.633
 5459TIP3    H216384   6.063   4.711   0.692
 5460TIP3   OH216385   2.598   2.788   1.522
 5460TIP3    H116386   2.518   2.752   1.561
 5460TIP3    H216387   2.606   2.743   1.438
 5461TIP3   OH216388   3.035   0.059   4.951
 5461TIP3    H116389   3.039  -0.025   4.997
 5461TIP3    H216390   2.958   0.052   4.895
 5462TIP3   OH216391   3.816   4.091   0.371
 5462TIP3    H116392   3.757   4.015   0.380
 5462TIP3    H216393   3.856   4.079   0.284
 5463TIP3   OH216394   3.808   0.951   3.705
 5463TIP3    H116395   3.728   0.899   3.712
 5463TIP3    H216396   3.877   0.887   3.687
 5464TIP3   OH216397   3.987   3.136   4.339
 5464TIP3    H116398   4.051   3.078   4.298
 5464TIP3    H216399   3.924   3.077   4.380
 5465TIP3   OH216400   2.242   1.720   0.262
 5465TIP3    H116401   2.306   1.718   0.191
 5465TIP3    H216402   2.161   1.751   0.221
 5466TIP3   OH216403   5.543   3.194   1.835
 5466TIP3    H116404   5.533   3.099   1.840
 5466TIP3    H216405   5.508   3.218   1.749
 5467TIP3   OH216406   0.923   3.149   3.388
 5467TIP3    H116407   0.840   3.113   3.357
 5467TIP3    H216408   0.940   3.101   3.469
 5468TIP3   OH216409   2.976   6.003   2.890
 5468TIP3    H116410   2.979   6.048   2.974
 5468TIP3    H216411   3.019   5.919   2.905
 5469TIP3   OH216412   6.248   3.015   4.709
 5469TIP3    H116413   6.274   2.991   4.798
 5469TIP3    H216414   6.323   3.063   4.675
 5470TIP3   OH216415   5.715   2.416   0.074
 5470TIP3    H116416   5.707   2.379   0.162
 5470TIP3    H216417   5.808   2.404   0.052
 5471TIP3   OH216418   0.085   2.418   0.326
 5471TIP3    H116419   0.040   2.413   0.410
 5471TIP3    H216420   0.016   2.398   0.262
 5472TIP3   OH216421   3.131   1.384   0.073
 5472TIP3    H116422   3.202   1.394   0.010
 5472TIP3    H216423   3.052   1.377   0.019
 5473TIP3   OH216424   3.745   4.396   3.691
 5473TIP3    H116425   3.684   4.427   3.758
 5473TIP3    H216426   3.810   4.345   3.740
 5474TIP3   OH216427   0.104   4.915   3.512
 5474TIP3    H116428   0.101   4.926   3.417
 5474TIP3    H216429   0.012   4.903   3.538
 5475TIP3   OH216430   3.299   5.933   3.293
 5475TIP3    H116431   3.342   5.978   3.365
 5475TIP3    H216432   3.268   6.003   3.235
 5476TIP3   OH216433   2.576   4.367   2.994
 5476TIP3    H116434   2.568   4.353   3.088
 5476TIP3    H216435   2.500   4.420   2.971
 5477TIP3   OH216436   3.549   0.237   4.397
 5477TIP3    H116437   3.469   0.186   4.415
 5477TIP3    H216438   3.583   0.259   4.484
 5478TIP3   OH216439   0.064   4.564   3.496
 5478TIP3    H116440  -0.003   4.497   3.482
 5478TIP3    H216441   0.040   4.636   3.439
 5479TIP3   OH216442   1.133   3.414   0.307
 5479TIP3    H116443   1.129   3.433   0.401
 5479TIP3    H216444   1.224   3.389   0.292
 5480TIP3   OH216445   5.632   5.558   1.374
 5480TIP3    H116446   5.624   5.652   1.355
 5480TIP3    H216447   5.667   5.521   1.293
 5481TIP3   OH216448   3.931   4.445   5.040
 5481TIP3    H116449   3.966   4.421   4.955
 5481TIP3    H216450   4.008   4.466   5.093
 5482TIP3   OH216451   5.896   0.813   3.147
 5482TIP3    H116452   5.890   0.908   3.144
 5482TIP3    H216453   5.855   0.788   3.230
 5483TIP3   OH216454   4.051   2.894   0.486
 5483TIP3    H116455   4.039   2.806   0.521
 5483TIP3    H216456   4.096   2.942   0.555
 5484TIP3   OH216457   6.189   3.205   1.247
 5484TIP3    H116458   6.094   3.209   1.235
 5484TIP3    H216459   6.225   3.226   1.161
 5485TIP3   OH216460   0.937   4.566   3.838
 5485TIP3    H116461   0.974   4.495   3.784
 5485TIP3    H216462   1.009   4.629   3.846
 5486TIP3   OH216463   5.103   2.276   3.304
 5486TIP3    H116464   5.047   2.333   3.356
 5486TIP3    H216465   5.099   2.191   3.349
 5487TIP3   OH216466   2.831   5.006   1.321
 5487TIP3    H116467   2.862   4.925   1.280
 5487TIP3    H216468   2.783   5.051   1.252
 5488TIP3   OH216469   1.795   3.824   0.848
 5488TIP3    H116470   1.746   3.765   0.792
 5488TIP3    H216471   1.729   3.883   0.884
 5489TIP3   OH216472   3.240   2.484   3.738
 5489TIP3    H116473   3.299   2.503   3.665
 5489TIP3    H216474   3.218   2.392   3.726
 5490TIP3   OH216475   0.724   1.304   1.455
 5490TIP3    H116476   0.658   1.335   1.392
 5490TIP3    H216477   0.757   1.383   1.496
 5491TIP3   OH216478   0.578   5.399   0.169
 5491TIP3    H116479   0.665   5.418   0.133
 5491TIP3    H216480   0.577   5.304   0.180
 5492TIP3   OH216481   1.562   3.997   4.908
 5492TIP3    H116482   1.638   4.014   4.852
 5492TIP3    H216483   1.522   4.083   4.920
 5493TIP3   OH216484   0.124   5.317   5.106
 5493TIP3    H116485   0.171   5.377   5.048
 5493TIP3    H216486   0.033   5.346   5.103
 5494TIP3   OH216487   3.576   3.958   3.065
 5494TIP3    H116488   3.591   3.883   3.123
 5494TIP3    H216489   3.599   3.927   2.978
 5495TIP3   OH216490   2.070   3.420   2.652
 5495TIP3    H116491   1.983   3.413   2.613
 5495TIP3    H216492   2.130   3.414   2.577
 5496TIP3   OH216493   4.618   4.876   2.727
 5496TIP3    H116494   4.594   4.967   2.707
 5496TIP3    H216495   4.648   4.841   2.643
 5497TIP3   OH216496   6.074   4.859   1.281
 5497TIP3    H116497   6.157   4.860   1.233
 5497TIP3    H216498   6.028   4.782   1.248
 5498TIP3   OH216499   4.364   4.471   3.376
 5498TIP3    H116500   4.458   4.484   3.383
 5498TIP3    H216501   4.337   4.442   3.463
 5499TIP3   OH216502   4.706   5.476   2.207
 5499TIP3    H116503   4.786   5.423   2.209
 5499TIP3    H216504   4.736   5.565   2.225
 5500TIP3   OH216505   3.381   4.802   2.483
 5500TIP3    H116506   3.467   4.833   2.512
 5500TIP3    H216507   3.373   4.836   2.393
 5501TIP3   OH216508   3.637   2.483   3.241
 5501TIP3    H116509   3.648   2.479   3.336
 5501TIP3    H216510   3.725   2.501   3.208
 5502TIP3   OH216511   0.145   1.330   1.300
 5502TIP3    H116512   0.152   1.413   1.255
 5502TIP3    H216513   0.077   1.344   1.366
 5503TIP3   OH216514   2.267   3.445   4.911
 5503TIP3    H116515   2.216   3.485   4.982
 5503TIP3    H216516   2.246   3.498   4.834
 5504TIP3   OH216517   4.087   3.533   0.529
 5504TIP3    H116518   4.129   3.493   0.453
 5504TIP3    H216519   4.003   3.565   0.497
 5505TIP3   OH216520   0.331   2.004   2.287
 5505TIP3    H116521   0.391   1.947   2.335
 5505TIP3    H216522   0.338   2.089   2.331
 5506TIP3   OH216523   1.761   0.643   3.612
 5506TIP3    H116524   1.821   0.662   3.684
 5506TIP3    H216525   1.815   0.600   3.546
 5507TIP3   OH216526   5.355   0.741   2.738
 5507TIP3    H116527   5.445   0.739   2.707
 5507TIP3    H216528   5.315   0.662   2.701
 5508TIP3   OH216529   6.241   2.034   0.662
 5508TIP3    H116530   6.321   2.045   0.610
 5508TIP3    H216531   6.221   1.940   0.656
 5509TIP3   OH216532   0.160   2.121   3.635
 5509TIP3    H116533   0.194   2.148   3.720
 5509TIP3    H216534   0.183   2.192   3.576
 5510TIP3   OH216535   1.516   0.444   1.235
 5510TIP3    H116536   1.423   0.438   1.257
 5510TIP3    H216537   1.533   0.366   1.182
 5511TIP3   OH216538   4.026   5.943   4.632
 5511TIP3    H116539   4.081   6.020   4.641
 5511TIP3    H216540   4.083   5.877   4.592
 5512TIP3   OH216541   4.346   4.316   4.107
 5512TIP3    H116542   4.428   4.317   4.156
 5512TIP3    H216543   4.366   4.267   4.028
 5513TIP3   OH216544   0.538   3.098   4.187
 5513TIP3    H116545   0.624   3.069   4.157
 5513TIP3    H216546   0.501   3.022   4.232
 5514TIP3   OH216547   3.974   5.159   3.686
 5514TIP3    H116548   3.932   5.243   3.668
 5514TIP3    H216549   3.901   5.099   3.702
 5515TIP3   OH216550   1.611   3.365   3.871
 5515TIP3    H116551   1.706   3.353   3.863
 5515TIP3    H216552   1.574   3.283   3.837
 5516TIP3   OH216553   5.587   2.544   2.715
 5516TIP3    H116554   5.524   2.607   2.751
 5516TIP3    H216555   5.662   2.549   2.774
 5517TIP3   OH216556   2.629   0.113   3.992
 5517TIP3    H116557   2.591   0.199   3.979
 5517TIP3    H216558   2.592   0.083   4.075
 5518TIP3   OH216559   0.950   1.133   4.526
 5518TIP3    H116560   1.014   1.095   4.586
 5518TIP3    H216561   0.988   1.121   4.439
 5519TIP3   OH216562   4.545   4.805   1.099
 5519TIP3    H116563   4.469   4.754   1.128
 5519TIP3    H216564   4.588   4.832   1.180
 5520TIP3   OH216565   0.089   3.971   2.415
 5520TIP3    H116566   0.039   4.000   2.339
 5520TIP3    H216567   0.167   3.930   2.379
 5521TIP3   OH216568   3.784   2.973   4.466
 5521TIP3    H116569   3.777   2.883   4.497
 5521TIP3    H216570   3.695   2.996   4.438
 5522TIP3   OH216571   4.816   2.146   3.479
 5522TIP3    H116572   4.774   2.071   3.437
 5522TIP3    H216573   4.906   2.119   3.493
 5523TIP3   OH216574   2.908   2.923   1.473
 5523TIP3    H116575   2.914   2.827   1.465
 5523TIP3    H216576   2.816   2.939   1.492
 5524TIP3   OH216577   1.568   3.634   0.852
 5524TIP3    H116578   1.545   3.689   0.777
 5524TIP3    H216579   1.531   3.548   0.831
 5525TIP3   OH216580   2.201   2.713   4.931
 5525TIP3    H116581   2.251   2.778   4.979
 5525TIP3    H216582   2.191   2.750   4.843
 5526TIP3   OH216583   3.356   4.295   3.537
 5526TIP3    H116584   3.338   4.262   3.448
 5526TIP3    H216585   3.286   4.258   3.590
 5527TIP3   OH216586   4.403   5.174   1.829
 5527TIP3    H116587   4.449   5.096   1.797
 5527TIP3    H216588   4.321   5.140   1.865
 5528TIP3   OH216589   2.106   4.296   2.703
 5528TIP3    H116590   2.178   4.254   2.655
 5528TIP3    H216591   2.149   4.337   2.779
 5529TIP3   OH216592   4.303   2.826   4.060
 5529TIP3    H116593   4.254   2.744   4.050
 5529TIP3    H216594   4.388   2.799   4.095
 5530TIP3   OH216595   5.764   2.172   4.346
 5530TIP3    H116596   5.682   2.182   4.395
 5530TIP3    H216597   5.737   2.166   4.254
 5531TIP3   OH216598   3.231   0.838   1.559
 5531TIP3    H116599   3.211   0.873   1.646
 5531TIP3    H216600   3.189   0.752   1.558
 5532TIP3   OH216601   5.127   3.647   4.206
 5532TIP3    H116602   5.167   3.561   4.190
 5532TIP3    H216603   5.041   3.642   4.163
 5533TIP3   OH216604   6.211   0.501   3.544
 5533TIP3    H116605   6.153   0.479   3.471
 5533TIP3    H216606   6.206   0.596   3.551
 5534TIP3   OH216607   3.953   3.867   4.317
 5534TIP3    H116608   3.919   3.932   4.379
 5534TIP3    H216609   3.875   3.838   4.269
 5535TIP3   OH216610   2.960   2.601   0.757
 5535TIP3    H116611   2.971   2.666   0.687
 5535TIP3    H216612   2.936   2.520   0.710
 5536TIP3   OH216613   1.923   5.588   1.760
 5536TIP3    H116614   1.844   5.554   1.803
 5536TIP3    H216615   1.968   5.511   1.728
 5537TIP3   OH216616   2.470   5.517   3.790
 5537TIP3    H116617   2.416   5.465   3.730
 5537TIP3    H216618   2.542   5.458   3.813
 5538TIP3   OH216619   2.177   2.866   3.339
 5538TIP3    H116620   2.108   2.904   3.284
 5538TIP3    H216621   2.156   2.772   3.341
 5539TIP3   OH216622   2.578   3.536   4.596
 5539TIP3    H116623   2.575   3.441   4.584
 5539TIP3    H216624   2.633   3.548   4.673
 5540TIP3   OH216625   5.095   5.225   2.551
 5540TIP3    H116626   5.059   5.233   2.462
 5540TIP3    H216627   5.171   5.284   2.551
 5541TIP3   OH216628   3.039   1.932   0.220
 5541TIP3    H116629   2.996   1.852   0.252
 5541TIP3    H216630   3.115   1.943   0.276
 5542TIP3   OH216631   2.867   1.203   1.894
 5542TIP3    H116632   2.817   1.139   1.843
 5542TIP3    H216633   2.882   1.160   1.978
 5543TIP3   OH216634   4.700   0.828   0.503
 5543TIP3    H116635   4.626   0.777   0.537
 5543TIP3    H216636   4.672   0.919   0.513
 5544TIP3   OH216637   2.579   0.708   3.243
 5544TIP3    H116638   2.618   0.709   3.331
 5544TIP3    H216639   2.495   0.665   3.255
 5545TIP3   OH216640   3.573   4.239   2.688
 5545TIP3    H116641   3.617   4.237   2.772
 5545TIP3    H216642   3.481   4.223   2.708
 5546TIP3   OH216643   0.157   3.822   2.078
 5546TIP3    H116644   0.200   3.860   2.001
 5546TIP3    H216645   0.202   3.862   2.153
 5547TIP3   OH216646   5.421   5.134   2.279
 5547TIP3    H116647   5.455   5.045   2.287
 5547TIP3    H216648   5.449   5.177   2.360
 5548TIP3   OH216649   4.656   0.544   3.704
 5548TIP3    H116650   4.700   0.480   3.760
 5548TIP3    H216651   4.628   0.612   3.765
 5549TIP3   OH216652   1.561   1.698   1.022
 5549TIP3    H116653   1.518   1.624   0.978
 5549TIP3    H216654   1.490   1.753   1.053
 5550TIP3   OH216655   3.837   3.269   1.998
 5550TIP3    H116656   3.923   3.311   1.999
 5550TIP3    H216657   3.776   3.339   2.022
 5551TIP3   OH216658   3.358   1.401   2.226
 5551TIP3    H116659   3.447   1.366   2.224
 5551TIP3    H216660   3.332   1.394   2.318
 5552TIP3   OH216661   4.057   2.966   3.636
 5552TIP3    H116662   3.996   2.921   3.577
 5552TIP3    H216663   4.122   2.899   3.658
 5553TIP3   OH216664   2.615   3.833   3.285
 5553TIP3    H116665   2.654   3.765   3.230
 5553TIP3    H216666   2.559   3.883   3.226
 5554TIP3   OH216667   6.111   3.863   2.874
 5554TIP3    H116668   6.150   3.834   2.956
 5554TIP3    H216669   6.104   3.958   2.883
 5555TIP3   OH216670   0.890   1.500   3.740
 5555TIP3    H116671   0.842   1.556   3.680
 5555TIP3    H216672   0.824   1.471   3.804
 5556TIP3   OH216673   4.777   2.464   3.054
 5556TIP3    H116674   4.849   2.404   3.036
 5556TIP3    H216675   4.704   2.408   3.079
 5557TIP3   OH216676   5.638   0.684   0.870
 5557TIP3    H116677   5.720   0.723   0.900
 5557TIP3    H216678   5.665   0.606   0.823
 5558TIP3   OH216679   3.218   3.830   2.577
 5558TIP3    H116680   3.163   3.752   2.570
 5558TIP3    H216681   3.165   3.900   2.538
 5559TIP3   OH216682   3.178   1.266   3.902
 5559TIP3    H116683   3.232   1.246   3.979
 5559TIP3    H216684   3.100   1.309   3.938
 5560TIP3   OH216685   5.776   0.362   0.373
 5560TIP3    H116686   5.846   0.420   0.342
 5560TIP3    H216687   5.725   0.417   0.433
 5561TIP3   OH216688   4.631   0.951   3.783
 5561TIP3    H116689   4.656   0.877   3.839
 5561TIP3    H216690   4.709   1.007   3.781
 5562TIP3   OH216691   3.542   1.348   1.343
 5562TIP3    H116692   3.522   1.273   1.287
 5562TIP3    H216693   3.457   1.386   1.364
 5563TIP3   OH216694   5.981   0.760   1.552
 5563TIP3    H116695   5.939   0.788   1.633
 5563TIP3    H216696   6.072   0.788   1.561
 5564TIP3   OH216697   3.891   5.613   3.197
 5564TIP3    H116698   3.960   5.562   3.239
 5564TIP3    H216699   3.913   5.614   3.104
 5565TIP3   OH216700   1.293   2.690   0.913
 5565TIP3    H116701   1.333   2.603   0.911
 5565TIP3    H216702   1.333   2.737   0.839
 5566TIP3   OH216703   2.105   2.099   4.753
 5566TIP3    H116704   2.046   2.026   4.770
 5566TIP3    H216705   2.097   2.155   4.830
 5567TIP3   OH216706   5.120   1.772   4.608
 5567TIP3    H116707   5.114   1.838   4.540
 5567TIP3    H216708   5.070   1.808   4.681
 5568TIP3   OH216709   3.680   5.826  -0.039
 5568TIP3    H116710   3.681   5.917  -0.012
 5568TIP3    H216711   3.630   5.781   0.029
 5569TIP3   OH216712   0.306   2.324   4.752
 5569TIP3    H116713   0.311   2.271   4.672
 5569TIP3    H216714   0.212   2.332   4.769
 5570TIP3   OH216715   3.637   3.543   1.405
 5570TIP3    H116716   3.715   3.509   1.449
 5570TIP3    H216717   3.667   3.565   1.317
 5571TIP3   OH216718   6.302   2.372   1.372
 5571TIP3    H116719   6.335   2.408   1.290
 5571TIP3    H216720   6.345   2.286   1.380
 5572TIP3   OH216721   2.230   4.908   0.323
 5572TIP3    H116722   2.309   4.874   0.365
 5572TIP3    H216723   2.224   4.999   0.353
 5573TIP3   OH216724   3.283   5.070   4.760
 5573TIP3    H116725   3.375   5.094   4.750
 5573TIP3    H216726   3.273   4.988   4.712
 5574TIP3   OH216727   2.463   3.381   2.082
 5574TIP3    H116728   2.492   3.291   2.095
 5574TIP3    H216729   2.440   3.411   2.170
 5575TIP3   OH216730   0.027   2.184   1.822
 5575TIP3    H116731   0.098   2.166   1.884
 5575TIP3    H216732  -0.008   2.098   1.800
 5576TIP3   OH216733   6.025   5.916   2.144
 5576TIP3    H116734   5.960   5.852   2.116
 5576TIP3    H216735   5.975   5.997   2.159
 5577TIP3   OH216736   0.776   5.830   0.828
 5577TIP3    H116737   0.850   5.881   0.797
 5577TIP3    H216738   0.734   5.886   0.893
 5578TIP3   OH216739   2.100   3.820   2.983
 5578TIP3    H116740   2.087   3.876   2.907
 5578TIP3    H216741   2.131   3.737   2.946
 5579TIP3   OH216742   2.551   2.543   1.344
 5579TIP3    H116743   2.459   2.517   1.349
 5579TIP3    H216744   2.565   2.565   1.252
 5580TIP3   OH216745   3.256   2.017   2.525
 5580TIP3    H116746   3.302   2.051   2.603
 5580TIP3    H216747   3.256   2.091   2.464
 5581TIP3   OH216748   4.620   3.260   1.352
 5581TIP3    H116749   4.691   3.303   1.401
 5581TIP3    H216750   4.601   3.321   1.281
 5582TIP3   OH216751   6.081   4.220   1.377
 5582TIP3    H116752   5.999   4.211   1.329
 5582TIP3    H216753   6.059   4.193   1.466
 5583TIP3   OH216754   5.804   5.068   2.295
 5583TIP3    H116755   5.897   5.086   2.286
 5583TIP3    H216756   5.769   5.143   2.344
 5584TIP3   OH216757   0.129   3.542   2.045
 5584TIP3    H116758   0.207   3.509   2.000
 5584TIP3    H216759   0.144   3.636   2.053
 5585TIP3   OH216760   3.680   3.547   0.251
 5585TIP3    H116761   3.702   3.522   0.341
 5585TIP3    H216762   3.725   3.631   0.239
 5586TIP3   OH216763   3.187   2.977   0.295
 5586TIP3    H116764   3.278   2.965   0.324
 5586TIP3    H216765   3.183   2.931   0.211
 5587TIP3   OH216766   3.463   4.551   3.107
 5587TIP3    H116767   3.409   4.562   3.185
 5587TIP3    H216768   3.537   4.498   3.136
 5588TIP3   OH216769   4.406   2.870   1.062
 5588TIP3    H116770   4.404   2.935   1.132
 5588TIP3    H216771   4.497   2.871   1.031
 5589TIP3   OH216772   3.228   0.591   2.734
 5589TIP3    H116773   3.228   0.537   2.814
 5589TIP3    H216774   3.289   0.545   2.675
 5590TIP3   OH216775   1.841   5.257   0.967
 5590TIP3    H116776   1.887   5.340   0.957
 5590TIP3    H216777   1.797   5.264   1.052
 5591TIP3   OH216778   2.832   5.000   2.114
 5591TIP3    H116779   2.884   4.921   2.097
 5591TIP3    H216780   2.794   5.023   2.029
 5592TIP3   OH216781   5.333   2.930   0.729
 5592TIP3    H116782   5.417   2.885   0.730
 5592TIP3    H216783   5.281   2.886   0.796
 5593TIP3   OH216784   3.640   3.019   0.125
 5593TIP3    H116785   3.698   2.964   0.073
 5593TIP3    H216786   3.681   3.105   0.123
 5594TIP3   OH216787   1.944   5.031   1.769
 5594TIP3    H116788   1.966   5.113   1.813
 5594TIP3    H216789   1.856   5.045   1.733
 5595TIP3   OH216790   2.386   3.949   2.688
 5595TIP3    H116791   2.449   3.949   2.617
 5595TIP3    H216792   2.384   4.040   2.719
 5596TIP3   OH216793   2.899   5.243   4.179
 5596TIP3    H116794   2.938   5.270   4.262
 5596TIP3    H216795   2.973   5.229   4.120
 5597TIP3   OH216796   1.157   1.891   1.521
 5597TIP3    H116797   1.231   1.883   1.462
 5597TIP3    H216798   1.196   1.912   1.606
 5598TIP3   OH216799   6.346   5.901   2.785
 5598TIP3    H116800   6.330   5.970   2.721
 5598TIP3    H216801   6.315   5.821   2.743
 5599TIP3   OH216802   3.058   0.158   0.657
 5599TIP3    H116803   3.045   0.252   0.666
 5599TIP3    H216804   2.976   0.126   0.618
 5600TIP3   OH216805   5.433   3.409   0.035
 5600TIP3    H116806   5.431   3.455   0.119
 5600TIP3    H216807   5.355   3.353   0.036
 5601TIP3   OH216808   5.476   1.555   1.472
 5601TIP3    H116809   5.462   1.581   1.381
 5601TIP3    H216810   5.570   1.540   1.478
 5602TIP3   OH216811   4.119   5.921   3.821
 5602TIP3    H116812   4.196   5.883   3.778
 5602TIP3    H216813   4.059   5.942   3.750
 5603TIP3   OH216814   2.252   3.585   4.204
 5603TIP3    H116815   2.226   3.530   4.130
 5603TIP3    H216816   2.265   3.524   4.276
 5604TIP3   OH216817   1.537   5.420   2.639
 5604TIP3    H116818   1.527   5.326   2.630
 5604TIP3    H216819   1.619   5.431   2.688
 5605TIP3   OH216820   6.108   1.955   1.625
 5605TIP3    H116821   6.040   1.891   1.607
 5605TIP3    H216822   6.175   1.907   1.674
 5606TIP3   OH216823   1.187   1.322   2.130
 5606TIP3    H116824   1.100   1.352   2.103
 5606TIP3    H216825   1.236   1.402   2.147
 5607TIP3   OH216826   5.259   5.001   0.769
 5607TIP3    H116827   5.197   5.073   0.779
 5607TIP3    H216828   5.232   4.937   0.834
 5608TIP3   OH216829   2.825   4.785   1.540
 5608TIP3    H116830   2.866   4.720   1.483
 5608TIP3    H216831   2.822   4.865   1.487
 5609TIP3   OH216832   6.129   2.035   0.145
 5609TIP3    H116833   6.119   2.122   0.107
 5609TIP3    H216834   6.098   1.975   0.077
 5610TIP3   OH216835   1.627   2.023   1.892
 5610TIP3    H116836   1.562   2.027   1.963
 5610TIP3    H216837   1.653   2.114   1.879
 5611TIP3   OH216838   4.054   1.229   1.758
 5611TIP3    H116839   3.990   1.161   1.736
 5611TIP3    H216840   4.070   1.275   1.676
 5612TIP3   OH216841   3.827   3.276   2.885
 5612TIP3    H116842   3.836   3.350   2.825
 5612TIP3    H216843   3.767   3.308   2.952
 5613TIP3   OH216844   0.745   3.527   1.424
 5613TIP3    H116845   0.685   3.543   1.352
 5613TIP3    H216846   0.740   3.605   1.478
 5614TIP3   OH216847   1.931   4.131   0.250
 5614TIP3    H116848   1.837   4.122   0.260
 5614TIP3    H216849   1.942   4.192   0.177
 5615TIP3   OH216850   5.476   5.837   2.431
 5615TIP3    H116851   5.556   5.886   2.451
 5615TIP3    H216852   5.507   5.750   2.407
 5616TIP3   OH216853   1.187   5.575   3.262
 5616TIP3    H116854   1.238   5.638   3.211
 5616TIP3    H216855   1.241   5.496   3.264
 5617TIP3   OH216856   5.941   0.529   0.242
 5617TIP3    H116857   6.019   0.540   0.187
 5617TIP3    H216858   5.881   0.597   0.212
 5618TIP3   OH216859   0.857   3.832   3.541
 5618TIP3    H116860   0.940   3.788   3.552
 5618TIP3    H216861   0.802   3.799   3.613
 5619TIP3   OH216862   1.651   4.213   3.848
 5619TIP3    H116863   1.685   4.212   3.758
 5619TIP3    H216864   1.611   4.300   3.856
 5620TIP3   OH216865   0.292   5.045   0.790
 5620TIP3    H116866   0.307   4.992   0.868
 5620TIP3    H216867   0.199   5.037   0.773
 5621TIP3   OH216868   3.661   2.412   2.933
 5621TIP3    H116869   3.601   2.485   2.945
 5621TIP3    H216870   3.734   2.431   2.992
 5622TIP3   OH216871   2.585   3.731   2.815
 5622TIP3    H116872   2.535   3.787   2.755
 5622TIP3    H216873   2.521   3.704   2.881
 5623TIP3   OH216874   1.022   1.052   4.268
 5623TIP3    H116875   0.995   1.133   4.225
 5623TIP3    H216876   1.006   0.983   4.203
 5624TIP3   OH216877   2.270   3.595   4.646
 5624TIP3    H116878   2.228   3.633   4.569
 5624TIP3    H216879   2.360   3.577   4.617
 5625TIP3   OH216880   3.301   4.832   3.900
 5625TIP3    H116881   3.265   4.876   3.977
 5625TIP3    H216882   3.228   4.780   3.866
 5626TIP3   OH216883   1.546   0.220   1.080
 5626TIP3    H116884   1.601   0.173   1.143
 5626TIP3    H216885   1.514   0.152   1.021
 5627TIP3   OH216886   5.100   0.445   0.815
 5627TIP3    H116887   5.145   0.470   0.734
 5627TIP3    H216888   5.051   0.366   0.792
 5628TIP3   OH216889   0.796   2.115   1.070
 5628TIP3    H116890   0.783   2.031   1.112
 5628TIP3    H216891   0.749   2.178   1.125
 5629TIP3   OH216892   3.887   4.795   1.022
 5629TIP3    H116893   3.905   4.874   1.074
 5629TIP3    H216894   3.900   4.723   1.083
 5630TIP3   OH216895   1.165   0.796   0.185
 5630TIP3    H116896   1.153   0.702   0.172
 5630TIP3    H216897   1.258   0.811   0.170
 5631TIP3   OH216898   4.100   2.615   3.164
 5631TIP3    H116899   4.112   2.701   3.205
 5631TIP3    H216900   4.149   2.555   3.221
 5632TIP3   OH216901   2.232   0.273   0.190
 5632TIP3    H116902   2.255   0.365   0.180
 5632TIP3    H216903   2.204   0.245   0.102
 5633TIP3   OH216904   0.415   1.147   4.729
 5633TIP3    H116905   0.505   1.150   4.695
 5633TIP3    H216906   0.426   1.139   4.823
 5634TIP3   OH216907   3.205   2.461   2.475
 5634TIP3    H116908   3.299   2.443   2.480
 5634TIP3    H216909   3.199   2.556   2.477
 5635TIP3   OH216910   0.057   3.768   4.768
 5635TIP3    H116911   0.112   3.765   4.690
 5635TIP3    H216912   0.055   3.677   4.800
 5636TIP3   OH216913   2.136   0.157   1.583
 5636TIP3    H116914   2.166   0.074   1.621
 5636TIP3    H216915   2.185   0.224   1.631
 5637TIP3   OH216916   0.088   1.523   4.259
 5637TIP3    H116917   0.164   1.563   4.300
 5637TIP3    H216918   0.065   1.582   4.187
 5638TIP3   OH216919   3.927   1.075   2.300
 5638TIP3    H116920   4.009   1.099   2.343
 5638TIP3    H216921   3.926   1.128   2.220
 5639TIP3   OH216922   4.520   1.985   0.600
 5639TIP3    H116923   4.519   1.898   0.561
 5639TIP3    H216924   4.512   2.045   0.525
 5640TIP3   OH216925   0.894   0.610   4.270
 5640TIP3    H116926   0.926   0.693   4.234
 5640TIP3    H216927   0.799   0.621   4.274
 5641TIP3   OH216928   6.051   3.621   5.160
 5641TIP3    H116929   6.062   3.571   5.079
 5641TIP3    H216930   5.969   3.589   5.198
 5642TIP3   OH216931   4.526   3.571   2.711
 5642TIP3    H116932   4.477   3.536   2.637
 5642TIP3    H216933   4.512   3.507   2.781
 5643TIP3   OH216934   3.116   2.391   0.468
 5643TIP3    H116935   3.163   2.337   0.532
 5643TIP3    H216936   3.075   2.328   0.409
 5644TIP3   OH216937   4.078   1.085   2.914
 5644TIP3    H116938   4.082   1.088   3.010
 5644TIP3    H216939   3.988   1.108   2.893
 5645TIP3   OH216940   4.552   5.594   3.423
 5645TIP3    H116941   4.638   5.632   3.441
 5645TIP3    H216942   4.545   5.522   3.486
 5646TIP3   OH216943   5.540   2.230   4.473
 5646TIP3    H116944   5.536   2.272   4.559
 5646TIP3    H216945   5.459   2.259   4.430
 5647TIP3   OH216946   1.341   2.363   1.540
 5647TIP3    H116947   1.312   2.384   1.629
 5647TIP3    H216948   1.415   2.304   1.552
 5648TIP3   OH216949   4.583   2.224   2.763
 5648TIP3    H116950   4.544   2.249   2.680
 5648TIP3    H216951   4.678   2.230   2.748
 5649TIP3   OH216952   1.962   2.845   1.748
 5649TIP3    H116953   1.872   2.838   1.717
 5649TIP3    H216954   1.954   2.861   1.842
 5650TIP3   OH216955   4.280   4.550   1.591
 5650TIP3    H116956   4.201   4.529   1.642
 5650TIP3    H216957   4.351   4.548   1.655
 5651TIP3   OH216958   6.330   2.722   1.104
 5651TIP3    H116959   6.423   2.739   1.121
 5651TIP3    H216960   6.327   2.629   1.080
 5652TIP3   OH216961   4.773   2.359   0.870
 5652TIP3    H116962   4.828   2.311   0.933
 5652TIP3    H216963   4.763   2.298   0.797
 5653TIP3   OH216964   4.328   4.524   0.541
 5653TIP3    H116965   4.356   4.507   0.631
 5653TIP3    H216966   4.405   4.505   0.488
 5654TIP3   OH216967   4.495   3.932   0.492
 5654TIP3    H116968   4.535   3.954   0.577
 5654TIP3    H216969   4.531   3.997   0.432
 5655TIP3   OH216970   0.714   1.102   4.137
 5655TIP3    H116971   0.784   1.166   4.135
 5655TIP3    H216972   0.637   1.149   4.106
 5656TIP3   OH216973   0.393   5.326   4.803
 5656TIP3    H116974   0.305   5.286   4.806
 5656TIP3    H216975   0.391   5.384   4.728
 5657TIP3   OH216976   0.521   2.260   3.356
 5657TIP3    H116977   0.554   2.206   3.284
 5657TIP3    H216978   0.463   2.323   3.314
 5658TIP3   OH216979   1.045   0.679   4.790
 5658TIP3    H116980   1.045   0.586   4.811
 5658TIP3    H216981   1.125   0.712   4.831
 5659TIP3   OH216982   2.849   5.670   3.496
 5659TIP3    H116983   2.793   5.701   3.426
 5659TIP3    H216984   2.793   5.669   3.574
 5660TIP3   OH216985   6.139   4.057   5.179
 5660TIP3    H116986   6.181   4.097   5.103
 5660TIP3    H216987   6.074   3.998   5.142
 5661TIP3   OH216988   1.224   5.489   3.560
 5661TIP3    H116989   1.134   5.521   3.548
 5661TIP3    H216990   1.229   5.412   3.503
 5662TIP3   OH216991   2.685   5.405   4.197
 5662TIP3    H116992   2.749   5.334   4.197
 5662TIP3    H216993   2.601   5.362   4.214
 5663TIP3   OH216994   4.648   2.231   5.036
 5663TIP3    H116995   4.563   2.253   4.997
 5663TIP3    H216996   4.669   2.145   5.000
 5664TIP3   OH216997   0.471   1.251   3.685
 5664TIP3    H116998   0.550   1.198   3.683
 5664TIP3    H216999   0.430   1.229   3.769
 5665TIP3   OH217000   0.671   2.469   2.580
 5665TIP3    H117001   0.714   2.433   2.658
 5665TIP3    H217002   0.619   2.542   2.613
 5666TIP3   OH217003   0.809   5.042   4.794
 5666TIP3    H117004   0.800   4.976   4.726
 5666TIP3    H217005   0.720   5.053   4.829
 5667TIP3   OH217006   0.377   1.025   1.406
 5667TIP3    H117007   0.328   1.107   1.415
 5667TIP3    H217008   0.311   0.957   1.420
 5668TIP3   OH217009   5.055   0.128   4.869
 5668TIP3    H117010   5.110   0.206   4.876
 5668TIP3    H217011   4.978   0.158   4.820
 5669TIP3   OH217012   2.822   2.470   4.390
 5669TIP3    H117013   2.795   2.421   4.467
 5669TIP3    H217014   2.898   2.520   4.419
 5670TIP3   OH217015   6.047   3.093   4.519
 5670TIP3    H117016   6.098   3.172   4.537
 5670TIP3    H217017   6.070   3.033   4.590
 5671TIP3   OH217018   5.877   0.744   2.889
 5671TIP3    H117019   5.794   0.697   2.884
 5671TIP3    H217020   5.874   0.790   2.973
 5672TIP3   OH217021   5.876   4.721   4.926
 5672TIP3    H117022   5.847   4.682   5.008
 5672TIP3    H217023   5.807   4.698   4.863
 5673TIP3   OH217024   3.321   2.861   3.040
 5673TIP3    H117025   3.330   2.823   2.953
 5673TIP3    H217026   3.226   2.864   3.055
 5674TIP3   OH217027   4.463   4.762   4.226
 5674TIP3    H117028   4.400   4.705   4.182
 5674TIP3    H217029   4.547   4.719   4.215
 5675TIP3   OH217030   2.037   2.321   4.162
 5675TIP3    H117031   2.061   2.396   4.216
 5675TIP3    H217032   2.029   2.249   4.224
 5676TIP3   OH217033   1.702   0.609   1.419
 5676TIP3    H117034   1.749   0.531   1.448
 5676TIP3    H217035   1.704   0.668   1.494
 5677TIP3   OH217036   0.721   0.008   3.509
 5677TIP3    H117037   0.764   0.061   3.576
 5677TIP3    H217038   0.777   0.017   3.431
 5678TIP3   OH217039   4.850   1.405   0.241
 5678TIP3    H117040   4.831   1.428   0.332
 5678TIP3    H217041   4.907   1.329   0.247
 5679TIP3   OH217042   1.091   4.546   0.093
 5679TIP3    H117043   1.166   4.591   0.131
 5679TIP3    H217044   1.017   4.569   0.150
 5680TIP3   OH217045   4.403   0.506   4.315
 5680TIP3    H117046   4.491   0.472   4.330
 5680TIP3    H217047   4.345   0.434   4.340
 5681TIP3   OH217048   0.597   2.109   3.117
 5681TIP3    H117049   0.603   2.158   3.035
 5681TIP3    H217050   0.555   2.026   3.093
 5682TIP3   OH217051   1.461   4.588   4.126
 5682TIP3    H117052   1.386   4.635   4.091
 5682TIP3    H217053   1.508   4.653   4.178
 5683TIP3   OH217054   3.461   0.704   0.094
 5683TIP3    H117055   3.547   0.664   0.105
 5683TIP3    H217056   3.410   0.673   0.169
 5684TIP3   OH217057   1.631   2.691   4.608
 5684TIP3    H117058   1.569   2.624   4.636
 5684TIP3    H217059   1.591   2.774   4.635
 5685TIP3   OH217060   3.894   4.569   4.146
 5685TIP3    H117061   3.878   4.648   4.198
 5685TIP3    H217062   3.898   4.498   4.209
 5686TIP3   OH217063   4.172   0.664   2.728
 5686TIP3    H117064   4.254   0.631   2.764
 5686TIP3    H217065   4.174   0.638   2.636
 5687TIP3   OH217066   3.516   4.697   1.174
 5687TIP3    H117067   3.546   4.772   1.224
 5687TIP3    H217068   3.451   4.732   1.114
 5688TIP3   OH217069   4.858   0.237   2.482
 5688TIP3    H117070   4.789   0.257   2.418
 5688TIP3    H217071   4.844   0.145   2.505
 5689TIP3   OH217072   1.183   2.296   1.334
 5689TIP3    H117073   1.248   2.281   1.266
 5689TIP3    H217074   1.234   2.314   1.413
 5690TIP3   OH217075   0.774   1.171   1.717
 5690TIP3    H117076   0.750   1.221   1.639
 5690TIP3    H217077   0.869   1.169   1.716
 5691TIP3   OH217078   5.869   1.745   0.838
 5691TIP3    H117079   5.909   1.706   0.760
 5691TIP3    H217080   5.941   1.788   0.883
 5692TIP3   OH217081   0.784   2.062   4.819
 5692TIP3    H117082   0.817   1.972   4.824
 5692TIP3    H217083   0.763   2.084   4.910
 5693TIP3   OH217084   3.025   2.738   1.639
 5693TIP3    H117085   3.095   2.802   1.627
 5693TIP3    H217086   3.069   2.653   1.640
 5694TIP3   OH217087   0.785   3.993   4.511
 5694TIP3    H117088   0.717   4.030   4.455
 5694TIP3    H217089   0.822   3.922   4.459
 5695TIP3   OH217090   1.206   2.497   0.662
 5695TIP3    H117091   1.242   2.523   0.578
 5695TIP3    H217092   1.282   2.479   0.717
 5696TIP3   OH217093   4.622   5.172   0.063
 5696TIP3    H117094   4.644   5.206   0.150
 5696TIP3    H217095   4.588   5.084   0.081
 5697TIP3   OH217096   5.737   2.040   3.046
 5697TIP3    H117097   5.726   2.047   3.141
 5697TIP3    H217098   5.655   2.075   3.011
 5698TIP3   OH217099   2.633   4.662   1.844
 5698TIP3    H117100   2.566   4.679   1.910
 5698TIP3    H217101   2.659   4.571   1.858
 5699TIP3   OH217102   0.575   3.556   1.207
 5699TIP3    H117103   0.534   3.492   1.148
 5699TIP3    H217104   0.622   3.615   1.148
 5700TIP3   OH217105   5.853   0.291   3.357
 5700TIP3    H117106   5.764   0.293   3.392
 5700TIP3    H217107   5.870   0.199   3.339
 5701TIP3   OH217108   6.264   0.907   1.874
 5701TIP3    H117109   6.226   0.954   1.800
 5701TIP3    H217110   6.351   0.945   1.885
 5702TIP3   OH217111   1.358   1.873   0.868
 5702TIP3    H117112   1.364   1.797   0.810
 5702TIP3    H217113   1.264   1.885   0.883
 5703TIP3   OH217114   1.127   3.867   0.008
 5703TIP3    H117115   1.088   3.889  -0.076
 5703TIP3    H217116   1.102   3.940   0.065
 5704TIP3   OH217117   0.016   2.529   2.199
 5704TIP3    H117118   0.078   2.584   2.150
 5704TIP3    H217119  -0.034   2.484   2.131
 5705TIP3   OH217120   0.114   3.548   5.103
 5705TIP3    H117121   0.165   3.559   5.024
 5705TIP3    H217122   0.172   3.576   5.174
 5706TIP3   OH217123   2.328   0.895   3.218
 5706TIP3    H117124   2.290   0.821   3.266
 5706TIP3    H217125   2.275   0.970   3.245
 5707TIP3   OH217126   4.071   0.199   0.704
 5707TIP3    H117127   4.065   0.118   0.653
 5707TIP3    H217128   4.058   0.269   0.641
 5708TIP3   OH217129   1.684   4.899   3.865
 5708TIP3    H117130   1.597   4.862   3.849
 5708TIP3    H217131   1.675   4.948   3.946
 5709TIP3   OH217132   0.962   0.364   4.161
 5709TIP3    H117133   0.984   0.444   4.208
 5709TIP3    H217134   0.869   0.374   4.139
 5710TIP3   OH217135   0.183   5.679   2.691
 5710TIP3    H117136   0.228   5.733   2.756
 5710TIP3    H217137   0.197   5.724   2.608
 5711TIP3   OH217138   3.945   1.104   4.691
 5711TIP3    H117139   4.011   1.173   4.701
 5711TIP3    H217140   3.867   1.140   4.732
 5712TIP3   OH217141   2.870   0.104   2.011
 5712TIP3    H117142   2.809   0.057   1.954
 5712TIP3    H217143   2.924   0.035   2.050
 5713TIP3   OH217144   5.507   3.294   4.786
 5713TIP3    H117145   5.589   3.316   4.830
 5713TIP3    H217146   5.440   3.302   4.853
 5714TIP3   OH217147   6.239   0.562   0.364
 5714TIP3    H117148   6.203   0.637   0.315
 5714TIP3    H217149   6.249   0.493   0.298
 5715TIP3   OH217150   4.490   1.837   2.622
 5715TIP3    H117151   4.423   1.905   2.626
 5715TIP3    H217152   4.440   1.755   2.626
 5716TIP3   OH217153   1.613   3.113   1.865
 5716TIP3    H117154   1.651   3.100   1.952
 5716TIP3    H217155   1.567   3.196   1.871
 5717TIP3   OH217156   2.196   0.313   0.467
 5717TIP3    H117157   2.173   0.339   0.377
 5717TIP3    H217158   2.275   0.362   0.487
 5718TIP3   OH217159   4.786   0.726   3.501
 5718TIP3    H117160   4.710   0.776   3.531
 5718TIP3    H217161   4.780   0.644   3.550
 5719TIP3   OH217162   2.578   3.963   5.023
 5719TIP3    H117163   2.498   3.982   4.975
 5719TIP3    H217164   2.586   3.867   5.020
 5720TIP3   OH217165   4.231   3.718   2.343
 5720TIP3    H117166   4.235   3.795   2.286
 5720TIP3    H217167   4.159   3.735   2.403
 5721TIP3   OH217168   2.619   1.149   1.762
 5721TIP3    H117169   2.570   1.112   1.689
 5721TIP3    H217170   2.554   1.195   1.814
 5722TIP3   OH217171   3.342   0.439   2.515
 5722TIP3    H117172   3.361   0.346   2.503
 5722TIP3    H217173   3.425   0.482   2.496
 5723TIP3   OH217174   4.731   3.041   4.941
 5723TIP3    H117175   4.799   3.105   4.922
 5723TIP3    H217176   4.770   2.982   5.005
 5724TIP3   OH217177   5.142   4.979   4.729
 5724TIP3    H117178   5.202   4.993   4.656
 5724TIP3    H217179   5.199   4.948   4.800
 5725TIP3   OH217180   2.361   3.625   0.232
 5725TIP3    H117181   2.276   3.628   0.277
 5725TIP3    H217182   2.360   3.542   0.185
 5726TIP3   OH217183   4.603   1.194   0.464
 5726TIP3    H117184   4.684   1.152   0.492
 5726TIP3    H217185   4.625   1.233   0.379
 5727TIP3   OH217186   2.031   4.865   4.534
 5727TIP3    H117187   2.047   4.815   4.614
 5727TIP3    H217188   2.113   4.911   4.517
 5728TIP3   OH217189   0.974   5.100   0.608
 5728TIP3    H117190   1.014   5.014   0.599
 5728TIP3    H217191   0.936   5.100   0.696
 5729TIP3   OH217192   6.199   1.095   2.330
 5729TIP3    H117193   6.289   1.125   2.321
 5729TIP3    H217194   6.159   1.113   2.245
 5730TIP3   OH217195   3.040   3.877   5.119
 5730TIP3    H117196   3.111   3.920   5.167
 5730TIP3    H217197   3.085   3.823   5.054
 5731TIP3   OH217198   0.237   3.055   2.655
 5731TIP3    H117199   0.253   3.148   2.644
 5731TIP3    H217200   0.229   3.021   2.565
 5732TIP3   OH217201   0.266   3.089   5.180
 5732TIP3    H117202   0.305   3.002   5.168
 5732TIP3    H217203   0.175   3.071   5.203
 5733TIP3   OH217204   2.627   0.195   4.962
 5733TIP3    H117205   2.574   0.166   5.036
 5733TIP3    H217206   2.674   0.272   4.994
 5734TIP3   OH217207   0.576   0.265   4.723
 5734TIP3    H117208   0.571   0.245   4.816
 5734TIP3    H217209   0.637   0.200   4.687
 5735TIP3   OH217210   1.494   1.813   5.108
 5735TIP3    H117211   1.475   1.720   5.093
 5735TIP3    H217212   1.536   1.816   5.193
 5736TIP3   OH217213   3.998   2.427   1.251
 5736TIP3    H117214   4.019   2.518   1.226
 5736TIP3    H217215   4.032   2.418   1.340
 5737TIP3   OH217216   2.816   0.092   4.777
 5737TIP3    H117217   2.756   0.141   4.833
 5737TIP3    H217218   2.760   0.054   4.709
 5738TIP3   OH217219   1.666   1.467   2.554
 5738TIP3    H117220   1.754   1.453   2.521
 5738TIP3    H217221   1.674   1.465   2.649
 5739TIP3   OH217222   2.553   0.080   2.929
 5739TIP3    H117223   2.627   0.089   2.869
 5739TIP3    H217224   2.587   0.111   3.013
 5740TIP3   OH217225   3.081   3.537   0.643
 5740TIP3    H117226   3.094   3.483   0.721
 5740TIP3    H217227   3.123   3.488   0.573
 5741TIP3   OH217228   3.185   3.914   1.469
 5741TIP3    H117229   3.257   3.855   1.494
 5741TIP3    H217230   3.147   3.874   1.391
 5742TIP3   OH217231   6.159   4.338   0.608
 5742TIP3    H117232   6.157   4.333   0.703
 5742TIP3    H217233   6.182   4.249   0.580
 5743TIP3   OH217234   1.279   1.296   0.269
 5743TIP3    H117235   1.257   1.389   0.266
 5743TIP3    H217236   1.352   1.288   0.207
 5744TIP3   OH217237   2.064   4.768   4.233
 5744TIP3    H117238   2.155   4.759   4.264
 5744TIP3    H217239   2.026   4.835   4.290
 5745TIP3   OH217240   4.561   3.793   2.436
 5745TIP3    H117241   4.519   3.857   2.380
 5745TIP3    H217242   4.507   3.789   2.515
 5746TIP3   OH217243   0.368   4.290   3.281
 5746TIP3    H117244   0.462   4.309   3.272
 5746TIP3    H217245   0.342   4.336   3.360
 5747TIP3   OH217246   0.684   5.203   2.138
 5747TIP3    H117247   0.664   5.117   2.100
 5747TIP3    H217248   0.659   5.194   2.230
 5748TIP3   OH217249   3.232   4.463   1.334
 5748TIP3    H117250   3.316   4.444   1.375
 5748TIP3    H217251   3.254   4.494   1.247
 5749TIP3   OH217252   4.996   3.702   0.314
 5749TIP3    H117253   4.932   3.774   0.316
 5749TIP3    H217254   5.081   3.746   0.311
 5750TIP3   OH217255   2.863   3.792   2.801
 5750TIP3    H117256   2.895   3.703   2.785
 5750TIP3    H217257   2.768   3.785   2.792
 5751TIP3   OH217258   3.016   1.945   2.610
 5751TIP3    H117259   3.059   1.967   2.692
 5751TIP3    H217260   3.052   2.008   2.547
 5752TIP3   OH217261   3.579   4.190   4.630
 5752TIP3    H117262   3.663   4.227   4.659
 5752TIP3    H217263   3.527   4.185   4.710
 5753TIP3   OH217264   4.538   2.320   1.653
 5753TIP3    H117265   4.578   2.239   1.620
 5753TIP3    H217266   4.577   2.390   1.600
 5754TIP3   OH217267   1.891   2.152   0.993
 5754TIP3    H117268   1.847   2.212   1.053
 5754TIP3    H217269   1.946   2.097   1.050
 5755TIP3   OH217270   4.175   2.884   4.598
 5755TIP3    H117271   4.140   2.958   4.648
 5755TIP3    H217272   4.172   2.811   4.660
 5756TIP3   OH217273   2.922   3.736   3.405
 5756TIP3    H117274   2.988   3.767   3.343
 5756TIP3    H217275   2.858   3.690   3.351
 5757TIP3   OH217276   0.884   5.610   1.989
 5757TIP3    H117277   0.925   5.536   1.944
 5757TIP3    H217278   0.823   5.647   1.924
 5758TIP3   OH217279   5.913   2.659   4.681
 5758TIP3    H117280   5.894   2.672   4.774
 5758TIP3    H217281   5.855   2.588   4.654
 5759TIP3   OH217282   4.020   4.209   3.581
 5759TIP3    H117283   3.962   4.165   3.519
 5759TIP3    H217284   4.100   4.226   3.530
 5760TIP3   OH217285   2.549   4.240   3.786
 5760TIP3    H117286   2.491   4.181   3.738
 5760TIP3    H217287   2.634   4.197   3.783
 5761TIP3   OH217288   5.371   4.470   1.319
 5761TIP3    H117289   5.425   4.407   1.366
 5761TIP3    H217290   5.430   4.543   1.301
 5762TIP3   OH217291   5.200   2.054   3.837
 5762TIP3    H117292   5.262   1.982   3.832
 5762TIP3    H217293   5.114   2.014   3.826
 5763TIP3   OH217294   0.508   1.782   2.303
 5763TIP3    H117295   0.533   1.721   2.372
 5763TIP3    H217296   0.552   1.748   2.224
 5764TIP3   OH217297   5.782   1.401   3.914
 5764TIP3    H117298   5.690   1.393   3.887
 5764TIP3    H217299   5.817   1.313   3.906
 5765TIP3   OH217300   2.304   2.939   3.955
 5765TIP3    H117301   2.256   2.912   4.033
 5765TIP3    H217302   2.332   2.857   3.914
 5766TIP3   OH217303   2.102   3.918   2.727
 5766TIP3    H117304   2.194   3.897   2.712
 5766TIP3    H217305   2.083   3.986   2.662
 5767TIP3   OH217306   3.383   1.243   3.432
 5767TIP3    H117307   3.432   1.325   3.433
 5767TIP3    H217308   3.373   1.220   3.524
 5768TIP3   OH217309   1.676   3.056   3.424
 5768TIP3    H117310   1.581   3.065   3.415
 5768TIP3    H217311   1.701   3.124   3.487
 5769TIP3   OH217312   0.382   0.700   5.021
 5769TIP3    H117313   0.388   0.723   4.928
 5769TIP3    H217314   0.463   0.653   5.039
 5770TIP3   OH217315   5.750   0.051   0.115
 5770TIP3    H117316   5.667   0.065   0.071
 5770TIP3    H217317   5.803   0.127   0.091
 5771TIP3   OH217318   2.508   1.079   1.516
 5771TIP3    H117319   2.570   1.033   1.459
 5771TIP3    H217320   2.422   1.047   1.489
 5772TIP3   OH217321   4.121   1.665   5.005
 5772TIP3    H117322   4.056   1.697   5.067
 5772TIP3    H217323   4.099   1.573   4.992
 5773TIP3   OH217324   0.353   4.402   0.419
 5773TIP3    H117325   0.303   4.449   0.486
 5773TIP3    H217326   0.405   4.471   0.376
 5774TIP3   OH217327   1.350   2.840   2.614
 5774TIP3    H117328   1.271   2.846   2.559
 5774TIP3    H217329   1.349   2.920   2.666
 5775TIP3   OH217330   1.161   2.663   4.070
 5775TIP3    H117331   1.255   2.650   4.056
 5775TIP3    H217332   1.134   2.718   3.996
 5776TIP3   OH217333   3.211   0.260   4.008
 5776TIP3    H117334   3.284   0.315   3.977
 5776TIP3    H217335   3.216   0.266   4.103
 5777TIP3   OH217336   0.451   2.586   4.774
 5777TIP3    H117337   0.418   2.501   4.745
 5777TIP3    H217338   0.433   2.645   4.700
 5778TIP3   OH217339   1.737   5.709   0.644
 5778TIP3    H117340   1.750   5.619   0.674
 5778TIP3    H217341   1.705   5.755   0.722
 5779TIP3   OH217342   1.251   3.213   2.928
 5779TIP3    H117343   1.156   3.209   2.914
 5779TIP3    H217344   1.264   3.293   2.980
 5780TIP3   OH217345   3.146   1.080   0.117
 5780TIP3    H117346   3.159   1.168   0.083
 5780TIP3    H217347   3.227   1.034   0.095
 5781TIP3   OH217348   5.610   3.928   0.337
 5781TIP3    H117349   5.669   3.981   0.282
 5781TIP3    H217350   5.635   3.950   0.427
 5782TIP3   OH217351   1.779   1.195   4.498
 5782TIP3    H117352   1.741   1.111   4.472
 5782TIP3    H217353   1.874   1.181   4.493
 5783TIP3   OH217354   0.464   0.748   4.714
 5783TIP3    H117355   0.369   0.760   4.704
 5783TIP3    H217356   0.480   0.658   4.686
 5784TIP3   OH217357   4.992   3.215   3.509
 5784TIP3    H117358   5.050   3.145   3.479
 5784TIP3    H217359   4.961   3.187   3.595
 5785TIP3   OH217360   3.157   4.960   2.080
 5785TIP3    H117361   3.122   4.872   2.092
 5785TIP3    H217362   3.141   4.980   1.987
 5786TIP3   OH217363   0.774   0.526   0.735
 5786TIP3    H117364   0.774   0.535   0.831
 5786TIP3    H217365   0.859   0.560   0.708
 5787TIP3   OH217366   2.586   5.049   1.423
 5787TIP3    H117367   2.541   5.088   1.348
 5787TIP3    H217368   2.678   5.046   1.397
 5788TIP3   OH217369   5.174   0.589   1.318
 5788TIP3    H117370   5.217   0.554   1.240
 5788TIP3    H217371   5.081   0.580   1.301
 5789TIP3   OH217372   5.664   1.318   1.680
 5789TIP3    H117373   5.655   1.235   1.633
 5789TIP3    H217374   5.751   1.349   1.658
 5790TIP3   OH217375   6.051   5.262   2.286
 5790TIP3    H117376   5.988   5.334   2.288
 5790TIP3    H217377   6.076   5.249   2.377
 5791TIP3   OH217378   3.040   4.342   3.684
 5791TIP3    H117379   2.968   4.324   3.744
 5791TIP3    H217380   3.106   4.384   3.739
 5792TIP3   OH217381   0.024   5.000   2.592
 5792TIP3    H117382   0.035   4.957   2.507
 5792TIP3    H217383   0.051   5.091   2.577
 5793TIP3   OH217384   5.311   3.606   3.764
 5793TIP3    H117385   5.259   3.528   3.746
 5793TIP3    H217386   5.377   3.607   3.695
 5794TIP3   OH217387   4.583   1.312   2.413
 5794TIP3    H117388   4.512   1.374   2.429
 5794TIP3    H217389   4.551   1.257   2.341
 5795TIP3   OH217390   4.932   4.629   2.800
 5795TIP3    H117391   5.009   4.590   2.758
 5795TIP3    H217392   4.898   4.559   2.856
 5796TIP3   OH217393   4.287   4.099   2.553
 5796TIP3    H117394   4.196   4.077   2.531
 5796TIP3    H217395   4.338   4.058   2.483
 5797TIP3   OH217396   3.521   5.839   1.337
 5797TIP3    H117397   3.515   5.744   1.322
 5797TIP3    H217398   3.441   5.861   1.384
 5798TIP3   OH217399   4.061   0.625   1.614
 5798TIP3    H117400   4.068   0.592   1.704
 5798TIP3    H217401   4.010   0.706   1.623
 5799TIP3   OH217402   1.094   5.679   2.159
 5799TIP3    H117403   1.027   5.635   2.106
 5799TIP3    H217404   1.101   5.766   2.121
 5800TIP3   OH217405   5.920   4.239   4.366
 5800TIP3    H117406   5.826   4.221   4.371
 5800TIP3    H217407   5.958   4.188   4.438
 5801TIP3   OH217408   4.498   5.437   1.724
 5801TIP3    H117409   4.527   5.347   1.735
 5801TIP3    H217410   4.533   5.484   1.800
 5802TIP3   OH217411   2.629   1.287   2.283
 5802TIP3    H117412   2.680   1.214   2.247
 5802TIP3    H217413   2.691   1.336   2.337
 5803TIP3   OH217414   4.525   5.283   1.325
 5803TIP3    H117415   4.574   5.365   1.337
 5803TIP3    H217416   4.579   5.232   1.265
 5804TIP3   OH217417   1.950   5.163   4.070
 5804TIP3    H117418   1.985   5.240   4.115
 5804TIP3    H217419   1.940   5.097   4.139
 5805TIP3   OH217420   3.498   3.857   4.624
 5805TIP3    H117421   3.439   3.863   4.699
 5805TIP3    H217422   3.576   3.906   4.650
 5806TIP3   OH217423   0.909   2.795   4.091
 5806TIP3    H117424   0.907   2.787   3.996
 5806TIP3    H217425   0.999   2.771   4.115
 5807TIP3   OH217426   1.006   5.110   2.177
 5807TIP3    H117427   1.058   5.037   2.144
 5807TIP3    H217428   0.929   5.112   2.120
 5808TIP3   OH217429   3.422   0.175   2.456
 5808TIP3    H117430   3.418   0.085   2.425
 5808TIP3    H217431   3.511   0.203   2.438
 5809TIP3   OH217432   3.609   0.517   4.972
 5809TIP3    H117433   3.676   0.491   4.909
 5809TIP3    H217434   3.569   0.435   4.999
 5810TIP3   OH217435   0.334   0.663   0.060
 5810TIP3    H117436   0.426   0.643   0.046
 5810TIP3    H217437   0.302   0.693  -0.025
 5811TIP3   OH217438   1.535   1.427   2.304
 5811TIP3    H117439   1.552   1.450   2.395
 5811TIP3    H217440   1.614   1.382   2.275
 5812TIP3   OH217441   4.995   1.038   4.501
 5812TIP3    H117442   4.913   0.990   4.484
 5812TIP3    H217443   5.062   0.970   4.502
 5813TIP3   OH217444   2.567   1.131   0.398
 5813TIP3    H117445   2.625   1.059   0.423
 5813TIP3    H217446   2.616   1.210   0.418
 5814TIP3   OH217447   3.674   1.299   4.555
 5814TIP3    H117448   3.652   1.245   4.631
 5814TIP3    H217449   3.705   1.236   4.490
 5815TIP3   OH217450   2.525   0.389   3.945
 5815TIP3    H117451   2.507   0.411   3.854
 5815TIP3    H217452   2.481   0.457   3.996
 5816TIP3   OH217453   0.317   2.515   2.380
 5816TIP3    H117454   0.356   2.429   2.390
 5816TIP3    H217455   0.366   2.556   2.309
 5817TIP3   OH217456   6.170   2.745   4.271
 5817TIP3    H117457   6.165   2.839   4.255
 5817TIP3    H217458   6.262   2.723   4.259
 5818TIP3   OH217459   3.205   0.323   1.761
 5818TIP3    H117460   3.158   0.264   1.702
 5818TIP3    H217461   3.156   0.405   1.756
 5819TIP3   OH217462   4.040   3.636   1.154
 5819TIP3    H117463   4.130   3.667   1.144
 5819TIP3    H217464   4.008   3.680   1.232
 5820TIP3   OH217465   5.900   2.694   1.145
 5820TIP3    H117466   5.925   2.627   1.208
 5820TIP3    H217467   5.829   2.742   1.187
 5821TIP3   OH217468   1.214   4.102   2.045
 5821TIP3    H117469   1.307   4.116   2.065
 5821TIP3    H217470   1.212   4.069   1.956
 5822TIP3   OH217471   3.462   1.702   1.508
 5822TIP3    H117472   3.392   1.676   1.448
 5822TIP3    H217473   3.469   1.629   1.569
 5823TIP3   OH217474   6.336   1.423   1.057
 5823TIP3    H117475   6.328   1.330   1.078
 5823TIP3    H217476   6.297   1.468   1.131
 5824TIP3   OH217477   2.177   3.751   2.001
 5824TIP3    H117478   2.188   3.842   1.977
 5824TIP3    H217479   2.235   3.739   2.077
 5825TIP3   OH217480   3.643   0.142   1.183
 5825TIP3    H117481   3.606   0.204   1.121
 5825TIP3    H217482   3.713   0.191   1.226
 5826TIP3   OH217483   0.848   5.431   0.718
 5826TIP3    H117484   0.778   5.488   0.685
 5826TIP3    H217485   0.858   5.454   0.810
 5827TIP3   OH217486   5.805   5.761   3.056
 5827TIP3    H117487   5.874   5.828   3.064
 5827TIP3    H217488   5.844   5.693   3.001
 5828TIP3   OH217489   2.436   4.249   4.988
 5828TIP3    H117490   2.470   4.322   5.039
 5828TIP3    H217491   2.343   4.246   5.009
 5829TIP3   OH217492   0.177   5.585   4.017
 5829TIP3    H117493   0.143   5.656   3.963
 5829TIP3    H217494   0.167   5.507   3.963
 5830TIP3   OH217495   1.861   0.149   1.748
 5830TIP3    H117496   1.875   0.070   1.695
 5830TIP3    H217497   1.816   0.210   1.689
 5831TIP3   OH217498   0.152   3.035   4.453
 5831TIP3    H117499   0.141   3.100   4.522
 5831TIP3    H217500   0.183   3.085   4.377
 5832TIP3   OH217501   4.232   0.031   3.134
 5832TIP3    H117502   4.300   0.054   3.196
 5832TIP3    H217503   4.264   0.064   3.050
 5833TIP3   OH217504   1.977   3.315   4.163
 5833TIP3    H117505   1.915   3.251   4.129
 5833TIP3    H217506   1.998   3.283   4.251
 5834TIP3   OH217507   1.818   6.044   3.157
 5834TIP3    H117508   1.912   6.054   3.151
 5834TIP3    H217509   1.791   6.015   3.069
 5835TIP3   OH217510   2.887   1.270   5.188
 5835TIP3    H117511   2.957   1.326   5.222
 5835TIP3    H217512   2.930   1.185   5.173
 5836TIP3   OH217513   0.921   4.854   3.267
 5836TIP3    H117514   0.856   4.839   3.336
 5836TIP3    H217515   0.950   4.944   3.280
 5837TIP3   OH217516   1.426   4.250   0.056
 5837TIP3    H117517   1.521   4.264   0.057
 5837TIP3    H217518   1.399   4.261   0.147
 5838TIP3   OH217519   4.106   0.029   4.125
 5838TIP3    H117520   4.075   0.012   4.214
 5838TIP3    H217521   4.034   0.076   4.084
 5839TIP3   OH217522   3.893   4.918   2.015
 5839TIP3    H117523   3.922   4.869   2.093
 5839TIP3    H217524   3.868   5.004   2.049
 5840TIP3   OH217525   5.087   2.386   1.628
 5840TIP3    H117526   5.002   2.383   1.584
 5840TIP3    H217527   5.086   2.311   1.688
 5841TIP3   OH217528   4.150   4.009   4.026
 5841TIP3    H117529   4.233   3.970   3.997
 5841TIP3    H217530   4.093   3.935   4.042
 5842TIP3   OH217531   0.849   1.264   0.732
 5842TIP3    H117532   0.933   1.220   0.722
 5842TIP3    H217533   0.810   1.225   0.809
 5843TIP3   OH217534   1.032   5.769   4.537
 5843TIP3    H117535   0.960   5.817   4.497
 5843TIP3    H217536   1.087   5.836   4.578
 5844TIP3   OH217537   3.646   4.931   2.204
 5844TIP3    H117538   3.701   4.870   2.252
 5844TIP3    H217539   3.602   4.877   2.139
 5845TIP3   OH217540   1.263   4.765   4.064
 5845TIP3    H117541   1.213   4.749   3.984
 5845TIP3    H217542   1.203   4.812   4.121
 5846TIP3   OH217543   1.042   0.445   3.322
 5846TIP3    H117544   1.049   0.410   3.411
 5846TIP3    H217545   0.963   0.499   3.324
 5847TIP3   OH217546   2.984   4.102   0.713
 5847TIP3    H117547   2.920   4.133   0.777
 5847TIP3    H217548   3.039   4.178   0.695
 5848TIP3   OH217549   5.770   4.404   1.073
 5848TIP3    H117550   5.679   4.424   1.049
 5848TIP3    H217551   5.820   4.423   0.994
 5849TIP3   OH217552   2.763   3.592   3.207
 5849TIP3    H117553   2.763   3.576   3.113
 5849TIP3    H217554   2.698   3.532   3.242
 5850TIP3   OH217555   1.896   1.895   0.526
 5850TIP3    H117556   1.927   1.919   0.439
 5850TIP3    H217557   1.805   1.924   0.529
 5851TIP3   OH217558   1.304   4.346   3.943
 5851TIP3    H117559   1.288   4.417   4.006
 5851TIP3    H217560   1.399   4.335   3.943
 5852TIP3   OH217561   2.607   3.796   4.417
 5852TIP3    H117562   2.578   3.716   4.374
 5852TIP3    H217563   2.634   3.768   4.504
 5853TIP3   OH217564   0.652   2.581   3.374
 5853TIP3    H117565   0.695   2.600   3.457
 5853TIP3    H217566   0.711   2.520   3.330
 5854TIP3   OH217567   3.927   0.142   1.374
 5854TIP3    H117568   3.877   0.120   1.453
 5854TIP3    H217569   4.018   0.140   1.402
 5855TIP3   OH217570   0.354   1.849   2.042
 5855TIP3    H117571   0.371   1.875   2.132
 5855TIP3    H217572   0.329   1.757   2.047
 5856TIP3   OH217573   5.559   4.484   3.882
 5856TIP3    H117574   5.635   4.540   3.899
 5856TIP3    H217575   5.563   4.467   3.788
 5857TIP3   OH217576   5.720   1.490   2.517
 5857TIP3    H117577   5.674   1.407   2.505
 5857TIP3    H217578   5.660   1.556   2.482
 5858TIP3   OH217579   5.177   4.825   0.950
 5858TIP3    H117580   5.264   4.832   0.990
 5858TIP3    H217581   5.158   4.731   0.950
 5859TIP3   OH217582   5.411   4.448   4.829
 5859TIP3    H117583   5.341   4.511   4.811
 5859TIP3    H217584   5.369   4.362   4.823
 5860TIP3   OH217585   6.006   3.292   4.210
 5860TIP3    H117586   5.984   3.375   4.168
 5860TIP3    H217587   5.939   3.281   4.278
 5861TIP3   OH217588   1.158   4.849   0.893
 5861TIP3    H117589   1.103   4.792   0.947
 5861TIP3    H217590   1.232   4.794   0.868
 5862TIP3   OH217591   3.471   2.975   0.349
 5862TIP3    H117592   3.522   3.023   0.284
 5862TIP3    H217593   3.513   2.996   0.433
 5863TIP3   OH217594   2.573   0.174   0.075
 5863TIP3    H117595   2.550   0.140  -0.011
 5863TIP3    H217596   2.502   0.235   0.097
 5864TIP3   OH217597   1.570   0.927   0.255
 5864TIP3    H117598   1.648   0.872   0.256
 5864TIP3    H217599   1.515   0.892   0.325
 5865TIP3   OH217600   3.114   3.787   4.240
 5865TIP3    H117601   3.091   3.810   4.330
 5865TIP3    H217602   3.079   3.858   4.187
 5866TIP3   OH217603   5.470   3.555   0.931
 5866TIP3    H117604   5.410   3.564   1.005
 5866TIP3    H217605   5.414   3.532   0.857
 5867TIP3   OH217606   0.852   0.454   0.077
 5867TIP3    H117607   0.881   0.502   0.155
 5867TIP3    H217608   0.863   0.362   0.100
 5868TIP3   OH217609   2.812   1.179   4.024
 5868TIP3    H117610   2.816   1.128   4.105
 5868TIP3    H217611   2.836   1.117   3.955
 5869TIP3   OH217612   3.582   2.742   2.132
 5869TIP3    H117613   3.543   2.815   2.181
 5869TIP3    H217614   3.587   2.671   2.196
 5870TIP3   OH217615   0.557   3.660   0.138
 5870TIP3    H117616   0.523   3.713   0.210
 5870TIP3    H217617   0.480   3.641   0.084
 5871TIP3   OH217618   2.985   4.099   4.947
 5871TIP3    H117619   2.918   4.165   4.967
 5871TIP3    H217620   2.978   4.035   5.017
 5872TIP3   OH217621   2.855   0.174   1.575
 5872TIP3    H117622   2.946   0.167   1.546
 5872TIP3    H217623   2.840   0.268   1.584
 5873TIP3   OH217624   2.732   4.082   2.264
 5873TIP3    H117625   2.710   4.162   2.312
 5873TIP3    H217626   2.662   4.073   2.199
 5874TIP3   OH217627   4.306   4.559   1.049
 5874TIP3    H117628   4.241   4.489   1.049
 5874TIP3    H217629   4.287   4.610   1.128
 5875TIP3   OH217630   2.083   5.767   2.898
 5875TIP3    H117631   2.143   5.836   2.870
 5875TIP3    H217632   2.138   5.705   2.946
 5876TIP3   OH217633   1.998   0.324   4.505
 5876TIP3    H117634   2.064   0.266   4.467
 5876TIP3    H217635   2.047   0.404   4.525
 5877TIP3   OH217636   4.551   4.359   1.038
 5877TIP3    H117637   4.532   4.265   1.031
 5877TIP3    H217638   4.511   4.397   0.960
 5878TIP3   OH217639   0.199   2.194   3.923
 5878TIP3    H117640   0.200   2.152   4.009
 5878TIP3    H217641   0.127   2.257   3.928
 5879TIP3   OH217642   1.559   3.281   4.252
 5879TIP3    H117643   1.506   3.342   4.202
 5879TIP3    H217644   1.626   3.336   4.294
 5880TIP3   OH217645   6.320   1.435   2.418
 5880TIP3    H117646   6.340   1.419   2.326
 5880TIP3    H217647   6.225   1.445   2.421
 5881TIP3   OH217648   0.078   3.657   1.653
 5881TIP3    H117649   0.174   3.659   1.661
 5881TIP3    H217650   0.056   3.738   1.607
 5882TIP3   OH217651   1.392   5.106   2.388
 5882TIP3    H117652   1.464   5.097   2.451
 5882TIP3    H217653   1.335   5.173   2.427
 5883TIP3   OH217654   1.445   2.693   4.119
 5883TIP3    H117655   1.515   2.666   4.178
 5883TIP3    H217656   1.423   2.782   4.148
 5884TIP3   OH217657   0.979   1.671   3.946
 5884TIP3    H117658   0.956   1.620   3.869
 5884TIP3    H217659   0.955   1.761   3.924
 5885TIP3   OH217660   4.936   4.815   1.736
 5885TIP3    H117661   4.841   4.817   1.734
 5885TIP3    H217662   4.963   4.867   1.660
 5886TIP3   OH217663   0.947   5.944   3.077
 5886TIP3    H117664   0.942   5.899   3.162
 5886TIP3    H217665   1.034   5.983   3.076
 5887TIP3   OH217666   4.229   5.882   0.636
 5887TIP3    H117667   4.232   5.809   0.697
 5887TIP3    H217668   4.178   5.950   0.681
 5888TIP3   OH217669   1.874   5.908   2.816
 5888TIP3    H117670   1.958   5.876   2.848
 5888TIP3    H217671   1.810   5.842   2.843
 5889TIP3   OH217672   3.520   3.072   0.609
 5889TIP3    H117673   3.438   3.119   0.623
 5889TIP3    H217674   3.561   3.069   0.695
 5890TIP3   OH217675   5.252   5.328   0.424
 5890TIP3    H117676   5.307   5.372   0.359
 5890TIP3    H217677   5.162   5.345   0.395
 5891TIP3   OH217678   5.760   0.829   5.150
 5891TIP3    H117679   5.721   0.775   5.219
 5891TIP3    H217680   5.769   0.916   5.190
 5892TIP3   OH217681   0.710   5.874   5.135
 5892TIP3    H117682   0.638   5.855   5.076
 5892TIP3    H217683   0.677   5.942   5.193
 5893TIP3   OH217684   4.553   0.583   5.198
 5893TIP3    H117685   4.492   0.515   5.226
 5893TIP3    H217686   4.543   0.587   5.103
 5894TIP3   OH217687   5.488   1.373   0.144
 5894TIP3    H117688   5.519   1.285   0.165
 5894TIP3    H217689   5.470   1.370   0.050
 5895TIP3   OH217690   3.386   5.942   4.558
 5895TIP3    H117691   3.337   5.972   4.635
 5895TIP3    H217692   3.438   5.868   4.589
 5896TIP3   OH217693   3.512   5.772   1.760
 5896TIP3    H117694   3.591   5.767   1.813
 5896TIP3    H217695   3.465   5.849   1.792
 5897TIP3   OH217696   2.613   4.423   2.693
 5897TIP3    H117697   2.624   4.389   2.782
 5897TIP3    H217698   2.546   4.491   2.702
 5898TIP3   OH217699   0.946   5.342   1.476
 5898TIP3    H117700   0.887   5.270   1.453
 5898TIP3    H217701   0.937   5.405   1.405
 5899TIP3   OH217702   1.168   2.076   3.199
 5899TIP3    H117703   1.079   2.089   3.167
 5899TIP3    H217704   1.161   2.089   3.294
 5900TIP3   OH217705   4.649   0.893   2.953
 5900TIP3    H117706   4.721   0.947   2.921
 5900TIP3    H217707   4.664   0.886   3.047
 5901TIP3   OH217708   1.705   1.532   0.781
 5901TIP3    H117709   1.631   1.564   0.832
 5901TIP3    H217710   1.678   1.545   0.690
 5902TIP3   OH217711   1.088   5.531   0.339
 5902TIP3    H117712   1.058   5.458   0.393
 5902TIP3    H217713   1.014   5.550   0.281
 5903TIP3   OH217714   0.791   1.579   1.482
 5903TIP3    H117715   0.885   1.584   1.498
 5903TIP3    H217716   0.778   1.625   1.399
 5904TIP3   OH217717   3.898   1.340   2.761
 5904TIP3    H117718   3.873   1.384   2.842
 5904TIP3    H217719   3.855   1.255   2.764
 5905TIP3   OH217720   4.960   1.877   4.808
 5905TIP3    H117721   4.902   1.929   4.752
 5905TIP3    H217722   4.912   1.796   4.824
 5906TIP3   OH217723   3.489   2.150   1.812
 5906TIP3    H117724   3.558   2.214   1.826
 5906TIP3    H217725   3.503   2.119   1.722
 5907TIP3   OH217726   5.497   0.256   0.161
 5907TIP3    H117727   5.584   0.281   0.191
 5907TIP3    H217728   5.504   0.257   0.065
 5908TIP3   OH217729   2.152   2.434   2.413
 5908TIP3    H117730   2.160   2.366   2.480
 5908TIP3    H217731   2.069   2.414   2.369
 5909TIP3   OH217732   3.558   3.016   3.117
 5909TIP3    H117733   3.490   2.950   3.105
 5909TIP3    H217734   3.616   3.005   3.041
 5910TIP3   OH217735   6.146   0.314   0.237
 5910TIP3    H117736   6.142   0.230   0.282
 5910TIP3    H217737   6.055   0.337   0.219
 5911TIP3   OH217738   2.350   5.086   3.960
 5911TIP3    H117739   2.348   5.057   4.052
 5911TIP3    H217740   2.293   5.024   3.914
 5912TIP3   OH217741   1.339   2.104   2.719
 5912TIP3    H117742   1.371   2.035   2.777
 5912TIP3    H217743   1.341   2.065   2.632
 5913TIP3   OH217744   2.558   2.247   4.321
 5913TIP3    H117745   2.481   2.270   4.269
 5913TIP3    H217746   2.631   2.289   4.276
 5914TIP3   OH217747   1.077   1.058   2.970
 5914TIP3    H117748   1.019   1.134   2.982
 5914TIP3    H217749   1.113   1.070   2.882
 5915TIP3   OH217750   3.546   0.578   2.770
 5915TIP3    H117751   3.637   0.565   2.795
 5915TIP3    H217752   3.549   0.648   2.704
 5916TIP3   OH217753   3.697   3.836   4.210
 5916TIP3    H117754   3.612   3.801   4.183
 5916TIP3    H217755   3.675   3.911   4.266
 5917TIP3   OH217756   2.918   0.167   3.336
 5917TIP3    H117757   2.857   0.094   3.336
 5917TIP3    H217758   2.878   0.233   3.279
 5918TIP3   OH217759   0.227   1.546   2.424
 5918TIP3    H117760   0.131   1.547   2.425
 5918TIP3    H217761   0.249   1.454   2.411
 5919TIP3   OH217762   5.801   0.396   0.992
 5919TIP3    H117763   5.814   0.456   0.918
 5919TIP3    H217764   5.799   0.309   0.952
 5920TIP3   OH217765   3.898   2.313   3.418
 5920TIP3    H117766   3.831   2.245   3.416
 5920TIP3    H217767   3.849   2.394   3.437
 5921TIP3   OH217768   6.279   4.654   0.200
 5921TIP3    H117769   6.276   4.575   0.147
 5921TIP3    H217770   6.236   4.721   0.147
 5922TIP3   OH217771   1.508   3.019   4.339
 5922TIP3    H117772   1.525   3.113   4.341
 5922TIP3    H217773   1.446   3.007   4.267
 5923TIP3   OH217774   0.454   4.652   0.257
 5923TIP3    H117775   0.502   4.619   0.181
 5923TIP3    H217776   0.505   4.728   0.286
 5924TIP3   OH217777   1.820   4.398   0.563
 5924TIP3    H117778   1.878   4.334   0.523
 5924TIP3    H217779   1.737   4.388   0.515
 5925TIP3   OH217780   3.749   0.324   2.053
 5925TIP3    H117781   3.809   0.286   2.117
 5925TIP3    H217782   3.783   0.293   1.969
 5926TIP3   OH217783   0.500   3.576   4.982
 5926TIP3    H117784   0.562   3.520   4.936
 5926TIP3    H217785   0.548   3.604   5.061
 5927TIP3   OH217786   5.070   4.948   3.781
 5927TIP3    H117787   4.976   4.965   3.777
 5927TIP3    H217788   5.079   4.854   3.768
 5928TIP3   OH217789   0.897   2.372   2.307
 5928TIP3    H117790   0.910   2.358   2.401
 5928TIP3    H217791   0.814   2.420   2.301
 5929TIP3   OH217792   5.967   3.417   2.844
 5929TIP3    H117793   5.974   3.337   2.897
 5929TIP3    H217794   5.882   3.453   2.867
 5930TIP3   OH217795   1.437   4.976   0.771
 5930TIP3    H117796   1.438   4.881   0.782
 5930TIP3    H217797   1.390   4.991   0.689
 5931TIP3   OH217798   3.811   5.724   2.646
 5931TIP3    H117799   3.822   5.819   2.639
 5931TIP3    H217800   3.883   5.695   2.702
 5932TIP3   OH217801   5.122   0.706   0.156
 5932TIP3    H117802   5.065   0.654   0.213
 5932TIP3    H217803   5.184   0.748   0.215
 5933TIP3   OH217804   2.658   2.759   5.188
 5933TIP3    H117805   2.701   2.679   5.159
 5933TIP3    H217806   2.595   2.730   5.254
 5934TIP3   OH217807   0.582   5.481   1.688
 5934TIP3    H117808   0.668   5.509   1.657
 5934TIP3    H217809   0.519   5.527   1.632
 5935TIP3   OH217810   2.360   0.576   3.361
 5935TIP3    H117811   2.290   0.620   3.409
 5935TIP3    H217812   2.328   0.487   3.349
 5936TIP3   OH217813   0.744   3.606   4.038
 5936TIP3    H117814   0.827   3.645   4.010
 5936TIP3    H217815   0.710   3.563   3.959
 5937TIP3   OH217816   5.781   2.058   1.705
 5937TIP3    H117817   5.824   2.138   1.676
 5937TIP3    H217818   5.811   1.991   1.644
 5938TIP3   OH217819   1.780   5.580   2.859
 5938TIP3    H117820   1.705   5.638   2.867
 5938TIP3    H217821   1.819   5.581   2.947
 5939TIP3   OH217822   2.359   5.649   1.554
 5939TIP3    H117823   2.419   5.714   1.517
 5939TIP3    H217824   2.355   5.670   1.647
 5940TIP3   OH217825   4.561   4.944   2.984
 5940TIP3    H117826   4.483   4.983   2.944
 5940TIP3    H217827   4.613   4.912   2.911
 5941TIP3   OH217828   2.009   4.038   0.766
 5941TIP3    H117829   1.964   3.960   0.799
 5941TIP3    H217830   1.998   4.034   0.671
 5942TIP3   OH217831   4.971   4.028   2.681
 5942TIP3    H117832   4.956   4.117   2.711
 5942TIP3    H217833   4.969   3.975   2.761
 5943TIP3   OH217834   3.935   2.992   2.563
 5943TIP3    H117835   3.862   3.039   2.603
 5943TIP3    H217836   3.896   2.909   2.533
 5944TIP3   OH217837   2.138   5.985   5.031
 5944TIP3    H117838   2.096   5.952   5.110
 5944TIP3    H217839   2.231   5.987   5.053
 5945TIP3   OH217840   2.617   4.274   1.489
 5945TIP3    H117841   2.635   4.298   1.579
 5945TIP3    H217842   2.541   4.327   1.465
 5946TIP3   OH217843   4.711   2.806   3.564
 5946TIP3    H117844   4.681   2.723   3.601
 5946TIP3    H217845   4.762   2.846   3.635
 5947TIP3   OH217846   5.697   3.431   1.465
 5947TIP3    H117847   5.753   3.392   1.532
 5947TIP3    H217848   5.755   3.445   1.390
 5948TIP3   OH217849   5.974   3.517   2.346
 5948TIP3    H117850   5.943   3.493   2.434
 5948TIP3    H217851   5.933   3.453   2.288
 5949TIP3   OH217852   3.108   3.873   0.715
 5949TIP3    H117853   3.060   3.953   0.696
 5949TIP3    H217854   3.166   3.896   0.788
 5950TIP3   OH217855   4.240   5.165   2.356
 5950TIP3    H117856   4.260   5.072   2.363
 5950TIP3    H217857   4.144   5.169   2.356
 5951TIP3   OH217858   2.312   0.924   1.765
 5951TIP3    H117859   2.343   0.963   1.847
 5951TIP3    H217860   2.282   0.999   1.713
 5952TIP3   OH217861   0.950   4.277   1.169
 5952TIP3    H117862   0.920   4.252   1.256
 5952TIP3    H217863   0.894   4.350   1.144
 5953TIP3   OH217864   5.681   0.570   4.632
 5953TIP3    H117865   5.675   0.611   4.718
 5953TIP3    H217866   5.724   0.635   4.577
 5954TIP3   OH217867   5.769   2.541   2.123
 5954TIP3    H117868   5.677   2.548   2.147
 5954TIP3    H217869   5.771   2.557   2.029
 5955TIP3   OH217870   1.702   3.466   2.205
 5955TIP3    H117871   1.629   3.487   2.147
 5955TIP3    H217872   1.746   3.550   2.219
 5956TIP3   OH217873   5.287   5.429   2.964
 5956TIP3    H117874   5.306   5.480   3.042
 5956TIP3    H217875   5.191   5.428   2.959
 5957TIP3   OH217876   3.347   0.726   3.682
 5957TIP3    H117877   3.330   0.787   3.610
 5957TIP3    H217878   3.260   0.710   3.720
 5958TIP3   OH217879   2.789   2.896   0.609
 5958TIP3    H117880   2.873   2.851   0.599
 5958TIP3    H217881   2.725   2.826   0.620
 5959TIP3   OH217882   0.091   4.181   0.389
 5959TIP3    H117883   0.014   4.185   0.332
 5959TIP3    H217884   0.137   4.263   0.373
 5960TIP3   OH217885   4.354   0.138   1.898
 5960TIP3    H117886   4.419   0.069   1.884
 5960TIP3    H217887   4.288   0.097   1.955
 5961TIP3   OH217888   2.782   1.926   4.921
 5961TIP3    H117889   2.769   1.963   5.009
 5961TIP3    H217890   2.715   1.858   4.914
 5962TIP3   OH217891   3.870   4.092   2.253
 5962TIP3    H117892   3.840   4.156   2.189
 5962TIP3    H217893   3.803   4.024   2.253
 5963TIP3   OH217894   2.162   2.617   1.766
 5963TIP3    H117895   2.187   2.633   1.857
 5963TIP3    H217896   2.089   2.677   1.750
 5964TIP3   OH217897   1.569   5.298   4.730
 5964TIP3    H117898   1.598   5.213   4.698
 5964TIP3    H217899   1.638   5.327   4.789
 5965TIP3   OH217900   5.162   1.473   3.934
 5965TIP3    H117901   5.098   1.530   3.976
 5965TIP3    H217902   5.164   1.395   3.989
 5966TIP3   OH217903   3.595   4.189   3.590
 5966TIP3    H117904   3.514   4.225   3.554
 5966TIP3    H217905   3.647   4.266   3.614
 5967TIP3   OH217906   0.849   3.463   2.864
 5967TIP3    H117907   0.921   3.503   2.914
 5967TIP3    H217908   0.796   3.419   2.931
 5968TIP3   OH217909   0.907   5.902   4.340
 5968TIP3    H117910   0.855   5.978   4.313
 5968TIP3    H217911   0.856   5.827   4.309
 5969TIP3   OH217912   5.661   1.195   4.835
 5969TIP3    H117913   5.754   1.173   4.828
 5969TIP3    H217914   5.622   1.164   4.753
 5970TIP3   OH217915   4.130   5.821   1.379
 5970TIP3    H117916   4.160   5.842   1.290
 5970TIP3    H217917   4.070   5.893   1.401
 5971TIP3   OH217918   1.851   5.824   2.040
 5971TIP3    H117919   1.767   5.809   1.995
 5971TIP3    H217920   1.884   5.736   2.058
 5972TIP3   OH217921   1.174   2.218   4.853
 5972TIP3    H117922   1.217   2.266   4.924
 5972TIP3    H217923   1.171   2.280   4.781
 5973TIP3   OH217924   1.519   1.337   2.773
 5973TIP3    H117925   1.585   1.386   2.821
 5973TIP3    H217926   1.481   1.278   2.839
 5974TIP3   OH217927   4.992   1.679   0.982
 5974TIP3    H117928   5.018   1.662   1.072
 5974TIP3    H217929   4.941   1.760   0.986
 5975TIP3   OH217930   2.992  -0.023   1.741
 5975TIP3    H117931   2.942   0.044   1.694
 5975TIP3    H217932   3.082  -0.013   1.709
 5976TIP3   OH217933   2.443   0.789   2.701
 5976TIP3    H117934   2.523   0.737   2.696
 5976TIP3    H217935   2.383   0.735   2.752
 5977TIP3   OH217936   2.252   3.289   4.642
 5977TIP3    H117937   2.291   3.335   4.716
 5977TIP3    H217938   2.160   3.317   4.642
 5978TIP3   OH217939   4.158   2.283   0.772
 5978TIP3    H117940   4.221   2.217   0.743
 5978TIP3    H217941   4.134   2.256   0.861
 5979TIP3   OH217942   4.864   5.060   4.758
 5979TIP3    H117943   4.839   4.991   4.696
 5979TIP3    H217944   4.959   5.059   4.758
 5980TIP3   OH217945   3.368   0.603   5.035
 5980TIP3    H117946   3.334   0.554   5.110
 5980TIP3    H217947   3.456   0.567   5.021
 5981TIP3   OH217948   5.116   3.739   2.155
 5981TIP3    H117949   5.146   3.792   2.228
 5981TIP3    H217950   5.189   3.738   2.093
 5982TIP3   OH217951   1.356   4.133   2.471
 5982TIP3    H117952   1.283   4.195   2.471
 5982TIP3    H217953   1.346   4.084   2.552
 5983TIP3   OH217954   6.143   2.152   5.199
 5983TIP3    H117955   6.068   2.124   5.148
 5983TIP3    H217956   6.218   2.145   5.139
 5984TIP3   OH217957   0.267   3.752   1.071
 5984TIP3    H117958   0.353   3.744   1.030
 5984TIP3    H217959   0.282   3.734   1.164
 5985TIP3   OH217960   5.110   0.404   3.405
 5985TIP3    H117961   5.085   0.447   3.323
 5985TIP3    H217962   5.166   0.467   3.449
 5986TIP3   OH217963   4.150   5.721   0.831
 5986TIP3    H117964   4.177   5.718   0.923
 5986TIP3    H217965   4.056   5.699   0.833
 5987TIP3   OH217966   3.686   1.601   4.397
 5987TIP3    H117967   3.687   1.591   4.492
 5987TIP3    H217968   3.601   1.641   4.378
 5988TIP3   OH217969   4.518   1.681   0.590
 5988TIP3    H117970   4.535   1.643   0.504
 5988TIP3    H217971   4.516   1.605   0.649
 5989TIP3   OH217972   5.948   5.014   4.662
 5989TIP3    H117973   5.940   5.015   4.566
 5989TIP3    H217974   5.881   5.074   4.692
 5990TIP3   OH217975   2.543   0.817   2.997
 5990TIP3    H117976   2.598   0.744   2.966
 5990TIP3    H217977   2.529   0.798   3.090
 5991TIP3   OH217978   4.570   2.645   3.930
 5991TIP3    H117979   4.628   2.570   3.947
 5991TIP3    H217980   4.513   2.615   3.860
 5992TIP3   OH217981   0.030   5.254   0.930
 5992TIP3    H117982   0.109   5.295   0.896
 5992TIP3    H217983   0.019   5.175   0.877
 5993TIP3   OH217984   6.238   1.771   0.442
 5993TIP3    H117985   6.216   1.780   0.349
 5993TIP3    H217986   6.253   1.677   0.453
 5994TIP3   OH217987   2.132   3.685   0.360
 5994TIP3    H117988   2.053   3.733   0.336
 5994TIP3    H217989   2.099   3.608   0.408
 5995TIP3   OH217990   4.865   1.951   1.076
 5995TIP3    H117991   4.896   2.022   1.020
 5995TIP3    H217992   4.895   1.975   1.164
 5996TIP3   OH217993   2.996   0.313   4.729
 5996TIP3    H117994   3.091   0.306   4.725
 5996TIP3    H217995   2.967   0.227   4.761
 5997TIP3   OH217996   3.598   4.945   4.443
 5997TIP3    H117997   3.543   5.003   4.495
 5997TIP3    H217998   3.608   4.991   4.360
 5998TIP3   OH217999   2.593   3.753   1.012
 5998TIP3    H118000   2.586   3.824   0.948
 5998TIP3    H218001   2.586   3.797   1.097
 5999TIP3   OH218002   4.973   1.947   3.754
 5999TIP3    H118003   4.954   1.867   3.706
 5999TIP3    H218004   4.887   1.983   3.776
 6000TIP3   OH218005   5.044   0.782   1.085
 6000TIP3    H118006   4.998   0.768   1.168
 6000TIP3    H218007   5.013   0.710   1.028
 6001TIP3   OH218008   4.044   2.252   0.513
 6001TIP3    H118009   4.116   2.199   0.548
 6001TIP3    H218010   4.039   2.328   0.571
 6002TIP3   OH218011   0.495   5.871   0.032
 6002TIP3    H118012   0.562   5.938   0.048
 6002TIP3    H218013   0.494   5.819   0.112
 6003TIP3   OH218014   5.004   1.253   4.350
 6003TIP3    H118015   5.051   1.309   4.412
 6003TIP3    H218016   5.006   1.166   4.389
 6004TIP3   OH218017   0.716   4.712   1.315
 6004TIP3    H118018   0.656   4.682   1.383
 6004TIP3    H218019   0.803   4.705   1.354
 6005TIP3   OH218020   5.428   2.652   4.589
 6005TIP3    H118021   5.397   2.697   4.667
 6005TIP3    H218022   5.358   2.663   4.525
 6006TIP3   OH218023   0.671   2.765   1.041
 6006TIP3    H118024   0.650   2.849   1.000
 6006TIP3    H218025   0.588   2.736   1.079
 6007TIP3   OH218026   1.952   2.463   4.409
 6007TIP3    H118027   1.872   2.438   4.363
 6007TIP3    H218028   1.989   2.381   4.440
 6008TIP3   OH218029   4.447   2.629   3.031
 6008TIP3    H118030   4.416   2.709   3.073
 6008TIP3    H218031   4.539   2.644   3.014
 6009TIP3   OH218032   1.807   5.339   4.884
 6009TIP3    H118033   1.786   5.394   4.960
 6009TIP3    H218034   1.895   5.306   4.902
 6010TIP3   OH218035   6.049   3.339   3.810
 6010TIP3    H118036   6.122   3.281   3.829
 6010TIP3    H218037   5.972   3.295   3.845
 6011TIP3   OH218038   4.505   5.671   3.965
 6011TIP3    H118039   4.434   5.635   3.911
 6011TIP3    H218040   4.579   5.681   3.905
 6012TIP3   OH218041   0.171   2.141   4.557
 6012TIP3    H118042   0.086   2.097   4.546
 6012TIP3    H218043   0.170   2.211   4.491
 6013TIP3   OH218044   6.337   5.148   4.264
 6013TIP3    H118045   6.329   5.061   4.223
 6013TIP3    H218046   6.408   5.138   4.327
 6014TIP3   OH218047   2.971   3.011   1.940
 6014TIP3    H118048   2.935   3.018   1.851
 6014TIP3    H218049   3.061   2.981   1.927
 6015TIP3   OH218050   1.512   5.695   2.047
 6015TIP3    H118051   1.568   5.655   1.981
 6015TIP3    H218052   1.451   5.749   1.997
 6016TIP3   OH218053   5.284   2.830   4.226
 6016TIP3    H118054   5.375   2.848   4.253
 6016TIP3    H218055   5.292   2.781   4.145
 6017TIP3   OH218056   5.636   4.225   3.954
 6017TIP3    H118057   5.623   4.313   3.920
 6017TIP3    H218058   5.547   4.194   3.975
 6018TIP3   OH218059   2.202   5.226   1.005
 6018TIP3    H118060   2.202   5.207   0.911
 6018TIP3    H218061   2.293   5.248   1.026
 6019TIP3   OH218062   5.510   5.007   0.667
 6019TIP3    H118063   5.540   4.921   0.636
 6019TIP3    H218064   5.432   4.987   0.719
 6020TIP3   OH218065   4.619   4.664   3.264
 6020TIP3    H118066   4.680   4.730   3.233
 6020TIP3    H218067   4.573   4.706   3.337
 6021TIP3   OH218068   5.438   3.756   2.175
 6021TIP3    H118069   5.530   3.730   2.173
 6021TIP3    H218070   5.413   3.764   2.083
 6022TIP3   OH218071   2.259   4.193   2.289
 6022TIP3    H118072   2.215   4.114   2.319
 6022TIP3    H218073   2.303   4.227   2.367
 6023TIP3   OH218074   0.666   1.555   4.229
 6023TIP3    H118075   0.728   1.513   4.288
 6023TIP3    H218076   0.584   1.557   4.278
 6024TIP3   OH218077   0.051   4.516   3.894
 6024TIP3    H118078   0.024   4.474   3.976
 6024TIP3    H218079  -0.025   4.505   3.836
 6025TIP3   OH218080   4.041   0.141   0.989
 6025TIP3    H118081   4.045   0.181   0.902
 6025TIP3    H218082   4.021   0.213   1.048
 6026TIP3   OH218083   2.364   4.666   3.791
 6026TIP3    H118084   2.432   4.629   3.847
 6026TIP3    H218085   2.351   4.601   3.722
 6027TIP3   OH218086   3.296   2.361   1.863
 6027TIP3    H118087   3.272   2.364   1.955
 6027TIP3    H218088   3.363   2.293   1.857
 6028TIP3   OH218089   2.519   2.090   2.602
 6028TIP3    H118090   2.503   1.998   2.622
 6028TIP3    H218091   2.609   2.092   2.569
 6029TIP3   OH218092   5.022   5.880   0.786
 6029TIP3    H118093   5.043   5.859   0.877
 6029TIP3    H218094   4.948   5.940   0.792
 6030TIP3   OH218095   4.470   5.522   2.367
 6030TIP3    H118096   4.519   5.545   2.445
 6030TIP3    H218097   4.536   5.510   2.299
 6031TIP3   OH218098   2.681   0.433   3.582
 6031TIP3    H118099   2.752   0.370   3.584
 6031TIP3    H218100   2.640   0.426   3.668
 6032TIP3   OH218101   1.990   1.604   0.857
 6032TIP3    H118102   1.903   1.586   0.820
 6032TIP3    H218103   2.039   1.643   0.785
 6033TIP3   OH218104   2.006   0.084   2.558
 6033TIP3    H118105   1.963   0.076   2.473
 6033TIP3    H218106   2.098   0.101   2.538
 6034TIP3   OH218107   5.526   4.985   0.313
 6034TIP3    H118108   5.479   5.054   0.359
 6034TIP3    H218109   5.607   5.026   0.284
 6035TIP3   OH218110   1.489   0.987   1.367
 6035TIP3    H118111   1.478   1.065   1.422
 6035TIP3    H218112   1.438   1.006   1.288
 6036TIP3   OH218113   0.700   1.400   4.641
 6036TIP3    H118114   0.662   1.313   4.658
 6036TIP3    H218115   0.695   1.409   4.546
 6037TIP3   OH218116   5.069   3.988   1.774
 6037TIP3    H118117   5.000   4.039   1.817
 6037TIP3    H218118   5.106   4.049   1.710
 6038TIP3   OH218119   1.172   3.860   4.856
 6038TIP3    H118120   1.120   3.787   4.821
 6038TIP3    H218121   1.122   3.938   4.833
 6039TIP3   OH218122   1.153   5.555   4.102
 6039TIP3    H118123   1.162   5.534   4.009
 6039TIP3    H218124   1.110   5.640   4.103
 6040TIP3   OH218125   4.152   5.797   2.943
 6040TIP3    H118126   4.217   5.858   2.906
 6040TIP3    H218127   4.108   5.760   2.866
 6041TIP3   OH218128   2.891   2.385   0.151
 6041TIP3    H118129   2.840   2.362   0.073
 6041TIP3    H218130   2.834   2.445   0.200
 6042TIP3   OH218131   1.525   5.646   4.173
 6042TIP3    H118132   1.430   5.642   4.188
 6042TIP3    H218133   1.547   5.560   4.137
 6043TIP3   OH218134   0.949   1.334   2.375
 6043TIP3    H118135   0.977   1.243   2.379
 6043TIP3    H218136   0.931   1.350   2.283
 6044TIP3   OH218137   3.445   1.456   1.686
 6044TIP3    H118138   3.450   1.378   1.740
 6044TIP3    H218139   3.356   1.489   1.697
 6045TIP3   OH218140   1.328   0.078   4.930
 6045TIP3    H118141   1.396   0.013   4.911
 6045TIP3    H218142   1.247   0.028   4.936
 6046TIP3   OH218143   0.724   4.232   4.701
 6046TIP3    H118144   0.748   4.240   4.793
 6046TIP3    H218145   0.762   4.148   4.673
 6047TIP3   OH218146   3.399   1.104   4.670
 6047TIP3    H118147   3.431   1.038   4.732
 6047TIP3    H218148   3.408   1.187   4.716
 6048TIP3   OH218149   4.324   5.940   1.736
 6048TIP3    H118150   4.395   5.984   1.782
 6048TIP3    H218151   4.361   5.856   1.709
 6049TIP3   OH218152   1.068   4.353   1.861
 6049TIP3    H118153   0.994   4.385   1.913
 6049TIP3    H218154   1.145   4.377   1.912
 6050TIP3   OH218155   2.617   4.085   4.064
 6050TIP3    H118156   2.555   4.015   4.086
 6050TIP3    H218157   2.570   4.166   4.087
 6051TIP3   OH218158   6.207   2.731   3.251
 6051TIP3    H118159   6.260   2.771   3.182
 6051TIP3    H218160   6.169   2.806   3.298
 6052TIP3   OH218161   3.120   0.912   4.755
 6052TIP3    H118162   3.168   0.992   4.736
 6052TIP3    H218163   3.129   0.901   4.850
 6053TIP3   OH218164   6.263   5.386   3.290
 6053TIP3    H118165   6.340   5.353   3.335
 6053TIP3    H218166   6.289   5.389   3.197
 6054TIP3   OH218167   2.482   4.781   3.476
 6054TIP3    H118168   2.409   4.830   3.437
 6054TIP3    H218169   2.440   4.727   3.544
 6055TIP3   OH218170   5.829   4.041   3.870
 6055TIP3    H118171   5.751   4.094   3.888
 6055TIP3    H218172   5.884   4.053   3.947
 6056TIP3   OH218173   1.631   3.123   0.855
 6056TIP3    H118174   1.567   3.151   0.789
 6056TIP3    H218175   1.578   3.085   0.925
 6057TIP3   OH218176   4.727   4.313   3.861
 6057TIP3    H118177   4.669   4.386   3.880
 6057TIP3    H218178   4.683   4.237   3.900
 6058TIP3   OH218179   1.911   2.365   0.477
 6058TIP3    H118180   1.831   2.355   0.529
 6058TIP3    H218181   1.982   2.352   0.539
 6059TIP3   OH218182   5.672   4.168   4.222
 6059TIP3    H118183   5.598   4.109   4.228
 6059TIP3    H218184   5.679   4.190   4.130
 6060TIP3   OH218185   2.052   4.488   4.213
 6060TIP3    H118186   1.960   4.473   4.194
 6060TIP3    H218187   2.059   4.582   4.230
 6061TIP3   OH218188   2.258   0.006   0.253
 6061TIP3    H118189   2.199  -0.035   0.190
 6061TIP3    H218190   2.252   0.100   0.234
 6062TIP3   OH218191   2.867   0.927   3.237
 6062TIP3    H118192   2.832   0.962   3.156
 6062TIP3    H218193   2.801   0.949   3.303
 6063TIP3   OH218194   0.298   1.721   0.476
 6063TIP3    H118195   0.295   1.793   0.413
 6063TIP3    H218196   0.384   1.682   0.463
 6064TIP3   OH218197   3.858   3.186   3.459
 6064TIP3    H118198   3.859   3.243   3.536
 6064TIP3    H218199   3.770   3.195   3.423
 6065TIP3   OH218200   4.617   5.413   5.037
 6065TIP3    H118201   4.581   5.421   4.949
 6065TIP3    H218202   4.544   5.379   5.089
 6066TIP3   OH218203   5.970   2.294   2.648
 6066TIP3    H118204   6.022   2.214   2.640
 6066TIP3    H218205   6.009   2.354   2.585
 6067TIP3   OH218206   5.371   2.865   3.153
 6067TIP3    H118207   5.327   2.791   3.196
 6067TIP3    H218208   5.320   2.881   3.074
 6068TIP3   OH218209   3.932   0.572   3.311
 6068TIP3    H118210   3.913   0.515   3.385
 6068TIP3    H218211   3.879   0.537   3.239
 6069TIP3   OH218212   2.316   4.999   1.292
 6069TIP3    H118213   2.387   4.984   1.230
 6069TIP3    H218214   2.316   5.094   1.305
 6070TIP3   OH218215   2.150   1.251   1.206
 6070TIP3    H118216   2.083   1.255   1.273
 6070TIP3    H218217   2.127   1.175   1.153
 6071TIP3   OH218218   2.821   1.455   1.983
 6071TIP3    H118219   2.848   1.381   1.929
 6071TIP3    H218220   2.860   1.437   2.069
 6072TIP3   OH218221   4.334   3.649   0.049
 6072TIP3    H118222   4.280   3.718   0.086
 6072TIP3    H218223   4.368   3.685  -0.033
 6073TIP3   OH218224   1.461   5.996   3.039
 6073TIP3    H118225   1.519   6.042   2.978
 6073TIP3    H218226   1.473   6.041   3.123
 6074TIP3   OH218227   5.349   5.390   0.991
 6074TIP3    H118228   5.374   5.461   0.932
 6074TIP3    H218229   5.256   5.404   1.008
 6075TIP3   OH218230   4.618   2.781   4.663
 6075TIP3    H118231   4.598   2.699   4.708
 6075TIP3    H218232   4.705   2.766   4.625
 6076TIP3   OH218233   5.388   3.381   0.653
 6076TIP3    H118234   5.295   3.404   0.658
 6076TIP3    H218235   5.398   3.341   0.566
 6077TIP3   OH218236   2.413   0.400   2.912
 6077TIP3    H118237   2.394   0.322   2.860
 6077TIP3    H218238   2.458   0.368   2.990
 6078TIP3   OH218239   0.171   4.701   1.150
 6078TIP3    H118240   0.240   4.677   1.088
 6078TIP3    H218241   0.187   4.646   1.227
 6079TIP3   OH218242   1.263   2.981   5.176
 6079TIP3    H118243   1.199   3.043   5.141
 6079TIP3    H218244   1.214   2.900   5.188
 6080TIP3   OH218245   3.357   5.566   3.403
 6080TIP3    H118246   3.355   5.661   3.388
 6080TIP3    H218247   3.265   5.541   3.413
 6081TIP3   OH218248   5.706   4.287   3.165
 6081TIP3    H118249   5.631   4.344   3.179
 6081TIP3    H218250   5.754   4.328   3.092
 6082TIP3   OH218251   4.515   1.828   1.773
 6082TIP3    H118252   4.460   1.870   1.839
 6082TIP3    H218253   4.468   1.841   1.691
 6083TIP3   OH218254   5.494   2.640   1.078
 6083TIP3    H118255   5.560   2.571   1.086
 6083TIP3    H218256   5.472   2.642   0.985
 6084TIP3   OH218257   2.113   5.412   4.424
 6084TIP3    H118258   2.113   5.505   4.402
 6084TIP3    H218259   2.116   5.410   4.520
 6085TIP3   OH218260   2.507   5.578   2.319
 6085TIP3    H118261   2.424   5.621   2.340
 6085TIP3    H218262   2.481   5.495   2.278
 6086TIP3   OH218263   4.059   0.570   2.163
 6086TIP3    H118264   4.061   0.535   2.252
 6086TIP3    H218265   3.981   0.626   2.161
 6087TIP3   OH218266   3.716   3.429   5.045
 6087TIP3    H118267   3.677   3.349   5.080
 6087TIP3    H218268   3.783   3.398   4.984
 6088TIP3   OH218269   5.516   1.156   2.216
 6088TIP3    H118270   5.470   1.139   2.134
 6088TIP3    H218271   5.466   1.107   2.282
 6089TIP3   OH218272   3.947   3.595   3.794
 6089TIP3    H118273   3.987   3.509   3.789
 6089TIP3    H218274   3.859   3.579   3.828
 6090TIP3   OH218275   0.842   0.228   0.224
 6090TIP3    H118276   0.765   0.174   0.211
 6090TIP3    H218277   0.916   0.167   0.216
 6091TIP3   OH218278   1.413   2.837   2.258
 6091TIP3    H118279   1.442   2.749   2.283
 6091TIP3    H218280   1.491   2.878   2.221
 6092TIP3   OH218281   2.779   2.753   1.243
 6092TIP3    H118282   2.835   2.801   1.182
 6092TIP3    H218283   2.690   2.769   1.212
 6093TIP3   OH218284   5.828   3.938   4.610
 6093TIP3    H118285   5.744   3.892   4.613
 6093TIP3    H218286   5.840   3.959   4.517
 6094TIP3   OH218287   3.026   0.556   2.955
 6094TIP3    H118288   3.022   0.499   2.878
 6094TIP3    H218289   2.934   0.575   2.975
 6095TIP3   OH218290   4.868   3.202   4.035
 6095TIP3    H118291   4.869   3.211   4.130
 6095TIP3    H218292   4.781   3.232   4.008
 6096TIP3   OH218293   3.313   0.015   3.000
 6096TIP3    H118294   3.407   0.034   2.996
 6096TIP3    H218295   3.274   0.076   2.938
 6097TIP3   OH218296   2.890   5.436   3.759
 6097TIP3    H118297   2.913   5.353   3.801
 6097TIP3    H218298   2.913   5.503   3.823
 6098TIP3   OH218299   2.170   3.655   2.492
 6098TIP3    H118300   2.093   3.629   2.541
 6098TIP3    H218301   2.209   3.727   2.542
 6099TIP3   OH218302   4.813   0.505   0.625
 6099TIP3    H118303   4.854   0.449   0.559
 6099TIP3    H218304   4.720   0.488   0.618
 6100TIP3   OH218305   4.633   1.177   1.104
 6100TIP3    H118306   4.694   1.132   1.162
 6100TIP3    H218307   4.560   1.115   1.093
 6101TIP3   OH218308   3.916   0.419   2.611
 6101TIP3    H118309   3.988   0.467   2.571
 6101TIP3    H218310   3.897   0.466   2.692
 6102TIP3   OH218311   2.188   0.147   0.891
 6102TIP3    H118312   2.111   0.102   0.859
 6102TIP3    H218313   2.157   0.234   0.916
 6103TIP3   OH218314   5.323   1.384   2.675
 6103TIP3    H118315   5.286   1.466   2.708
 6103TIP3    H218316   5.286   1.375   2.587
 6104TIP3   OH218317   6.360   3.506   3.350
 6104TIP3    H118318   6.383   3.561   3.425
 6104TIP3    H218319   6.295   3.557   3.301
 6105TIP3   OH218320   2.371   2.328   4.154
 6105TIP3    H118321   2.359   2.252   4.097
 6105TIP3    H218322   2.358   2.403   4.097
 6106TIP3   OH218323   1.255   0.958   1.634
 6106TIP3    H118324   1.308   0.900   1.688
 6106TIP3    H218325   1.175   0.908   1.616
 6107TIP3   OH218326   3.261   4.801   3.225
 6107TIP3    H118327   3.258   4.765   3.137
 6107TIP3    H218328   3.257   4.896   3.212
 6108TIP3   OH218329   0.909   5.032   1.135
 6108TIP3    H118330   0.990   5.026   1.185
 6108TIP3    H218331   0.840   5.017   1.199
 6109TIP3   OH218332   2.300   4.558   0.988
 6109TIP3    H118333   2.252   4.485   1.026
 6109TIP3    H218334   2.274   4.634   1.041
 6110TIP3   OH218335   0.918   4.668   0.273
 6110TIP3    H118336   0.900   4.654   0.366
 6110TIP3    H218337   0.984   4.737   0.271
 6111TIP3   OH218338   4.255   1.796   2.960
 6111TIP3    H118339   4.208   1.849   2.896
 6111TIP3    H218340   4.337   1.843   2.975
 6112TIP3   OH218341   3.065   5.972   0.742
 6112TIP3    H118342   3.080   6.013   0.827
 6112TIP3    H218343   2.975   5.994   0.719
 6113TIP3   OH218344   3.743   3.294   1.004
 6113TIP3    H118345   3.757   3.324   0.914
 6113TIP3    H218346   3.671   3.232   0.998
 6114TIP3   OH218347   0.325   0.753   3.338
 6114TIP3    H118348   0.293   0.717   3.255
 6114TIP3    H218349   0.344   0.677   3.392
 6115TIP3   OH218350   1.303   4.987   0.543
 6115TIP3    H118351   1.223   4.936   0.538
 6115TIP3    H218352   1.348   4.968   0.460
 6116TIP3   OH218353   5.892   1.152   3.283
 6116TIP3    H118354   5.971   1.099   3.275
 6116TIP3    H218355   5.920   1.228   3.336
 6117TIP3   OH218356   3.497   3.264   0.334
 6117TIP3    H118357   3.418   3.270   0.387
 6117TIP3    H218358   3.468   3.284   0.245
 6118TIP3   OH218359   4.582   1.816   2.948
 6118TIP3    H118360   4.521   1.882   2.915
 6118TIP3    H218361   4.637   1.795   2.873
 6119TIP3   OH218362   5.049   3.446   3.949
 6119TIP3    H118363   5.043   3.422   3.856
 6119TIP3    H218364   5.022   3.367   3.995
 6120TIP3   OH218365   1.774   4.235   3.595
 6120TIP3    H118366   1.865   4.262   3.586
 6120TIP3    H218367   1.764   4.165   3.530
 6121TIP3   OH218368   1.266   5.720   2.796
 6121TIP3    H118369   1.247   5.654   2.729
 6121TIP3    H218370   1.319   5.785   2.751
 6122TIP3   OH218371   5.275   5.249   1.454
 6122TIP3    H118372   5.368   5.269   1.466
 6122TIP3    H218373   5.241   5.323   1.403
 6123TIP3   OH218374   4.506   1.207   4.043
 6123TIP3    H118375   4.591   1.245   4.062
 6123TIP3    H218376   4.503   1.201   3.948
 6124TIP3   OH218377   4.907   4.521   3.795
 6124TIP3    H118378   4.861   4.605   3.803
 6124TIP3    H218379   4.836   4.457   3.783
 6125TIP3   OH218380   3.490   3.071   3.749
 6125TIP3    H118381   3.429   3.130   3.705
 6125TIP3    H218382   3.573   3.120   3.753
 6126TIP3   OH218383   0.325   5.805   2.210
 6126TIP3    H118384   0.363   5.746   2.275
 6126TIP3    H218385   0.305   5.749   2.135
 6127TIP3   OH218386   5.664   3.019   0.629
 6127TIP3    H118387   5.582   3.006   0.581
 6127TIP3    H218388   5.639   3.077   0.702
 6128TIP3   OH218389   3.482   0.939   3.969
 6128TIP3    H118390   3.523   0.870   3.917
 6128TIP3    H218391   3.554   1.000   3.990
 6129TIP3   OH218392   3.427   0.175   0.780
 6129TIP3    H118393   3.402   0.095   0.826
 6129TIP3    H218394   3.394   0.163   0.691
 6130TIP3   OH218395   4.462   5.419   1.010
 6130TIP3    H118396   4.412   5.337   1.009
 6130TIP3    H218397   4.496   5.428   0.921
 6131TIP3   OH218398   2.205   0.398   1.265
 6131TIP3    H118399   2.136   0.382   1.201
 6131TIP3    H218400   2.165   0.377   1.350
 6132TIP3   OH218401   0.519   3.828   2.944
 6132TIP3    H118402   0.601   3.858   2.905
 6132TIP3    H218403   0.466   3.798   2.869
 6133TIP3   OH218404   1.960   3.036   2.848
 6133TIP3    H118405   2.036   2.979   2.859
 6133TIP3    H218406   1.988   3.120   2.884
 6134TIP3   OH218407   4.098   0.169   2.425
 6134TIP3    H118408   4.155   0.243   2.444
 6134TIP3    H218409   4.156   0.103   2.388
 6135TIP3   OH218410   4.173   3.353   4.757
 6135TIP3    H118411   4.248   3.411   4.764
 6135TIP3    H218412   4.140   3.366   4.668
 6136TIP3   OH218413   4.904   5.758   2.910
 6136TIP3    H118414   4.809   5.763   2.921
 6136TIP3    H218415   4.934   5.849   2.917
 6137TIP3   OH218416   3.003   5.954   0.395
 6137TIP3    H118417   3.053   5.965   0.314
 6137TIP3    H218418   3.062   5.909   0.455
 6138TIP3   OH218419   0.301   0.710   1.874
 6138TIP3    H118420   0.250   0.639   1.836
 6138TIP3    H218421   0.291   0.698   1.968
 6139TIP3   OH218422   2.590   4.555   4.684
 6139TIP3    H118423   2.593   4.465   4.715
 6139TIP3    H218424   2.580   4.608   4.763
 6140TIP3   OH218425   3.335   5.029   0.090
 6140TIP3    H118426   3.415   5.057   0.047
 6140TIP3    H218427   3.365   4.979   0.167
 6141TIP3   OH218428   1.212   0.933   3.615
 6141TIP3    H118429   1.291   0.883   3.636
 6141TIP3    H218430   1.242   1.023   3.605
 6142TIP3   OH218431   2.780   5.962   1.257
 6142TIP3    H118432   2.807   5.952   1.166
 6142TIP3    H218433   2.859   5.946   1.308
 6143TIP3   OH218434   6.273   0.613   4.172
 6143TIP3    H118435   6.190   0.636   4.214
 6143TIP3    H218436   6.338   0.671   4.213
 6144TIP3   OH218437   2.348   2.876   0.265
 6144TIP3    H118438   2.348   2.833   0.351
 6144TIP3    H218439   2.298   2.817   0.209
 6145TIP3   OH218440   6.105   1.062   0.853
 6145TIP3    H118441   6.195   1.032   0.862
 6145TIP3    H218442   6.089   1.060   0.758
 6146TIP3   OH218443   5.857   3.542   1.983
 6146TIP3    H118444   5.838   3.611   2.046
 6146TIP3    H218445   5.914   3.584   1.918
 6147TIP3   OH218446   4.342   4.262   4.860
 6147TIP3    H118447   4.342   4.220   4.774
 6147TIP3    H218448   4.287   4.206   4.914
 6148TIP3   OH218449   0.503   1.329   0.783
 6148TIP3    H118450   0.484   1.311   0.691
 6148TIP3    H218451   0.489   1.423   0.792
 6149TIP3   OH218452   2.133   3.100   3.772
 6149TIP3    H118453   2.166   3.047   3.844
 6149TIP3    H218454   2.069   3.045   3.728
 6150TIP3   OH218455   5.885   0.143   0.488
 6150TIP3    H118456   5.932   0.079   0.435
 6150TIP3    H218457   5.862   0.213   0.427
 6151TIP3   OH218458   3.470   1.532   0.540
 6151TIP3    H118459   3.425   1.608   0.576
 6151TIP3    H218460   3.496   1.559   0.452
 6152TIP3   OH218461   5.265   0.805   1.491
 6152TIP3    H118462   5.345   0.762   1.462
 6152TIP3    H218463   5.200   0.781   1.425
 6153TIP3   OH218464   5.409   4.320   2.322
 6153TIP3    H118465   5.504   4.333   2.329
 6153TIP3    H218466   5.399   4.245   2.263
 6154TIP3   OH218467   3.589   3.674   5.121
 6154TIP3    H118468   3.639   3.608   5.072
 6154TIP3    H218469   3.599   3.648   5.213
 6155TIP3   OH218470   1.515   4.966   0.349
 6155TIP3    H118471   1.559   4.926   0.274
 6155TIP3    H218472   1.554   4.923   0.425
 6156TIP3   OH218473   4.191   3.399   2.808
 6156TIP3    H118474   4.285   3.382   2.818
 6156TIP3    H218475   4.151   3.312   2.807
 6157TIP3   OH218476   5.826   0.481   3.744
 6157TIP3    H118477   5.846   0.399   3.698
 6157TIP3    H218478   5.911   0.519   3.764
 6158TIP3   OH218479   5.397   2.122   0.938
 6158TIP3    H118480   5.409   2.034   0.903
 6158TIP3    H218481   5.378   2.109   1.031
 6159TIP3   OH218482   2.275   3.362   3.732
 6159TIP3    H118483   2.261   3.270   3.709
 6159TIP3    H218484   2.271   3.364   3.828
 6160TIP3   OH218485   2.172   3.198   0.530
 6160TIP3    H118486   2.251   3.147   0.508
 6160TIP3    H218487   2.155   3.176   0.621
 6161TIP3   OH218488   6.076   1.449   3.096
 6161TIP3    H118489   6.020   1.484   3.165
 6161TIP3    H218490   6.165   1.456   3.131
 6162TIP3   OH218491   2.885   1.064   0.903
 6162TIP3    H118492   2.893   0.998   0.834
 6162TIP3    H218493   2.968   1.111   0.901
 6163TIP3   OH218494   2.881   4.362   3.925
 6163TIP3    H118495   2.806   4.306   3.905
 6163TIP3    H218496   2.856   4.408   4.005
 6164TIP3   OH218497   5.537   5.090   3.652
 6164TIP3    H118498   5.574   5.034   3.585
 6164TIP3    H218499   5.446   5.060   3.662
 6165TIP3   OH218500   5.923   0.976   4.151
 6165TIP3    H118501   5.946   0.935   4.068
 6165TIP3    H218502   5.865   1.048   4.127
 6166TIP3   OH218503   4.897   1.604   4.849
 6166TIP3    H118504   4.815   1.556   4.863
 6166TIP3    H218505   4.934   1.567   4.770
 6167TIP3   OH218506   0.187   0.957   1.874
 6167TIP3    H118507   0.250   1.013   1.830
 6167TIP3    H218508   0.186   0.877   1.822
 6168TIP3   OH218509   2.811   3.819   3.823
 6168TIP3    H118510   2.796   3.762   3.898
 6168TIP3    H218511   2.771   3.773   3.749
 6169TIP3   OH218512   0.877   2.347   5.098
 6169TIP3    H118513   0.961   2.337   5.142
 6169TIP3    H218514   0.884   2.431   5.052
 6170TIP3   OH218515   0.092   0.016   3.450
 6170TIP3    H118516   0.021   0.046   3.392
 6170TIP3    H218517   0.070   0.053   3.535
 6171TIP3   OH218518   1.944   2.315   4.857
 6171TIP3    H118519   1.972   2.395   4.902
 6171TIP3    H218520   1.885   2.272   4.919
 6172TIP3   OH218521   3.207   2.755   3.783
 6172TIP3    H118522   3.247   2.787   3.863
 6172TIP3    H218523   3.227   2.661   3.781
 6173TIP3   OH218524   2.809   3.100   0.822
 6173TIP3    H118525   2.799   3.034   0.753
 6173TIP3    H218526   2.725   3.147   0.821
 6174TIP3   OH218527   3.435   5.621   2.510
 6174TIP3    H118528   3.400   5.710   2.500
 6174TIP3    H218529   3.361   5.564   2.493
 6175TIP3   OH218530   1.939   3.675   2.095
 6175TIP3    H118531   2.023   3.716   2.076
 6175TIP3    H218532   1.894   3.738   2.151
 6176TIP3   OH218533   4.507   2.916   3.398
 6176TIP3    H118534   4.467   3.003   3.403
 6176TIP3    H218535   4.571   2.915   3.469
 6177TIP3   OH218536   5.745   1.951   3.350
 6177TIP3    H118537   5.751   1.870   3.401
 6177TIP3    H218538   5.765   2.020   3.413
 6178TIP3   OH218539   5.429   1.837   4.075
 6178TIP3    H118540   5.345   1.791   4.068
 6178TIP3    H218541   5.477   1.808   3.997
 6179TIP3   OH218542   4.434   1.771   3.224
 6179TIP3    H118543   4.383   1.750   3.303
 6179TIP3    H218544   4.424   1.694   3.168
 6180TIP3   OH218545   0.468   5.399   3.249
 6180TIP3    H118546   0.508   5.483   3.272
 6180TIP3    H218547   0.541   5.336   3.251
 6181TIP3   OH218548   1.004   3.563   1.024
 6181TIP3    H118549   1.020   3.591   1.114
 6181TIP3    H218550   1.087   3.523   0.996
 6182TIP3   OH218551   0.620   0.453   3.838
 6182TIP3    H118552   0.658   0.393   3.773
 6182TIP3    H218553   0.675   0.531   3.833
 6183TIP3   OH218554   2.957   5.728   3.001
 6183TIP3    H118555   3.012   5.719   3.079
 6183TIP3    H218556   2.947   5.639   2.968
 6184TIP3   OH218557   1.627   1.133   4.769
 6184TIP3    H118558   1.715   1.096   4.769
 6184TIP3    H218559   1.639   1.225   4.745
 6185TIP3   OH218560   2.928   0.923   1.788
 6185TIP3    H118561   3.015   0.963   1.786
 6185TIP3    H218562   2.922   0.884   1.875
 6186TIP3   OH218563   0.010   1.376   0.752
 6186TIP3    H118564  -0.060   1.440   0.738
 6186TIP3    H218565  -0.020   1.323   0.825
 6187TIP3   OH218566   1.169   4.719   3.772
 6187TIP3    H118567   1.211   4.804   3.785
 6187TIP3    H218568   1.236   4.666   3.729
 6188TIP3   OH218569   4.190   5.265   4.591
 6188TIP3    H118570   4.164   5.320   4.666
 6188TIP3    H218571   4.181   5.323   4.515
 6189TIP3   OH218572   4.707   4.707   4.079
 6189TIP3    H118573   4.724   4.799   4.056
 6189TIP3    H218574   4.792   4.664   4.068
 6190TIP3   OH218575   4.807   3.015   3.387
 6190TIP3    H118576   4.760   2.954   3.444
 6190TIP3    H218577   4.815   3.095   3.439
 6191TIP3   OH218578   2.509   2.728   4.650
 6191TIP3    H118579   2.448   2.797   4.677
 6191TIP3    H218580   2.593   2.773   4.640
 6192TIP3   OH218581   3.399   3.608   0.209
 6192TIP3    H118582   3.484   3.571   0.233
 6192TIP3    H218583   3.381   3.674   0.276
 6193TIP3   OH218584   6.334   4.412   5.015
 6193TIP3    H118585   6.294   4.326   5.025
 6193TIP3    H218586   6.282   4.455   4.947
 6194TIP3   OH218587   0.549   5.427   3.871
 6194TIP3    H118588   0.558   5.451   3.779
 6194TIP3    H218589   0.525   5.334   3.870
 6195TIP3   OH218590   0.215   4.895   4.290
 6195TIP3    H118591   0.186   4.967   4.346
 6195TIP3    H218592   0.201   4.817   4.344
 6196TIP3   OH218593   6.093   2.042   2.586
 6196TIP3    H118594   6.049   1.957   2.576
 6196TIP3    H218595   6.157   2.044   2.515
 6197TIP3   OH218596   5.479   4.282   1.481
 6197TIP3    H118597   5.387   4.265   1.503
 6197TIP3    H218598   5.520   4.196   1.481
 6198TIP3   OH218599   1.914   3.390   3.196
 6198TIP3    H118600   1.905   3.445   3.118
 6198TIP3    H218601   1.868   3.438   3.265
 6199TIP3   OH218602   2.665   0.883   1.949
 6199TIP3    H118603   2.595   0.927   1.901
 6199TIP3    H218604   2.720   0.844   1.881
 6200TIP3   OH218605   4.062   2.018   2.795
 6200TIP3    H118606   3.998   2.055   2.735
 6200TIP3    H218607   4.146   2.054   2.766
 6201TIP3   OH218608  -0.007   3.488   4.788
 6201TIP3    H118609   0.071   3.446   4.825
 6201TIP3    H218610   0.018   3.509   4.698
 6202TIP3   OH218611   0.511   5.633   0.259
 6202TIP3    H118612   0.504   5.554   0.206
 6202TIP3    H218613   0.445   5.622   0.327
 6203TIP3   OH218614   4.335   4.795   0.116
 6203TIP3    H118615   4.255   4.830   0.077
 6203TIP3    H218616   4.310   4.711   0.153
 6204TIP3   OH218617   6.273   1.731   4.823
 6204TIP3    H118618   6.234   1.727   4.736
 6204TIP3    H218619   6.248   1.649   4.865
 6205TIP3   OH218620   2.913   3.649   4.619
 6205TIP3    H118621   2.897   3.632   4.526
 6205TIP3    H218622   2.887   3.568   4.662
 6206TIP3   OH218623   3.725   0.993   0.995
 6206TIP3    H118624   3.741   1.067   1.054
 6206TIP3    H218625   3.644   0.954   1.027
 6207TIP3   OH218626   3.956   5.023   1.141
 6207TIP3    H118627   3.893   5.034   1.212
 6207TIP3    H218628   3.941   5.098   1.083
 6208TIP3   OH218629   3.437   3.290   1.969
 6208TIP3    H118630   3.350   3.317   1.938
 6208TIP3    H218631   3.492   3.367   1.959
 6209TIP3   OH218632   5.673   5.912   4.588
 6209TIP3    H118633   5.683   5.949   4.501
 6209TIP3    H218634   5.702   5.821   4.579
 6210TIP3   OH218635   2.836   4.791   0.908
 6210TIP3    H118636   2.802   4.705   0.883
 6210TIP3    H218637   2.760   4.849   0.903
 6211TIP3   OH218638   2.325   0.327   4.235
 6211TIP3    H118639   2.273   0.261   4.281
 6211TIP3    H218640   2.329   0.295   4.145
 6212TIP3   OH218641   4.488   5.224   2.472
 6212TIP3    H118642   4.528   5.303   2.437
 6212TIP3    H218643   4.394   5.235   2.455
 6213TIP3   OH218644   3.630   0.668   4.363
 6213TIP3    H118645   3.605   0.683   4.454
 6213TIP3    H218646   3.566   0.605   4.330
 6214TIP3   OH218647   1.513   4.504   5.089
 6214TIP3    H118648   1.464   4.461   5.019
 6214TIP3    H218649   1.451   4.568   5.124
 6215TIP3   OH218650   5.347   4.042   3.882
 6215TIP3    H118651   5.337   3.968   3.943
 6215TIP3    H218652   5.311   4.117   3.930
 6216TIP3   OH218653   4.935   1.009   2.158
 6216TIP3    H118654   4.962   1.009   2.066
 6216TIP3    H218655   4.939   1.100   2.185
 6217TIP3   OH218656   3.117   2.731   2.437
 6217TIP3    H118657   3.188   2.783   2.399
 6217TIP3    H218658   3.042   2.748   2.380
 6218TIP3   OH218659   0.514   4.754   2.765
 6218TIP3    H118660   0.565   4.805   2.702
 6218TIP3    H218661   0.573   4.684   2.792
 6219TIP3   OH218662   3.766   0.596   1.550
 6219TIP3    H118663   3.825   0.552   1.612
 6219TIP3    H218664   3.825   0.637   1.486
 6220TIP3   OH218665   3.661   1.303   5.158
 6220TIP3    H118666   3.641   1.375   5.218
 6220TIP3    H218667   3.612   1.325   5.078
 6221TIP3   OH218668   0.480   1.588   0.737
 6221TIP3    H118669   0.545   1.634   0.791
 6221TIP3    H218670   0.505   1.607   0.647
 6222TIP3   OH218671   1.162   4.898   4.670
 6222TIP3    H118672   1.196   4.975   4.624
 6222TIP3    H218673   1.110   4.934   4.742
 6223TIP3   OH218674   1.466   0.074   3.656
 6223TIP3    H118675   1.443   0.072   3.563
 6223TIP3    H218676   1.382   0.068   3.702
 6224TIP3   OH218677   2.898   5.857   3.926
 6224TIP3    H118678   2.918   5.875   3.834
 6224TIP3    H218679   2.837   5.783   3.922
 6225TIP3   OH218680   2.664   3.315   0.219
 6225TIP3    H118681   2.688   3.274   0.302
 6225TIP3    H218682   2.650   3.242   0.159
 6226TIP3   OH218683   4.876   5.383   3.210
 6226TIP3    H118684   4.788   5.403   3.179
 6226TIP3    H218685   4.934   5.433   3.152
 6227TIP3   OH218686   5.130   0.118   3.449
 6227TIP3    H118687   5.224   0.125   3.467
 6227TIP3    H218688   5.103   0.207   3.427
 6228TIP3   OH218689   3.087   3.918   4.500
 6228TIP3    H118690   3.002   3.936   4.539
 6228TIP3    H218691   3.105   3.994   4.445
 6229TIP3   OH218692   4.161   1.268   2.602
 6229TIP3    H118693   4.173   1.358   2.631
 6229TIP3    H218694   4.077   1.241   2.639
 6230TIP3   OH218695   3.938   1.218   2.067
 6230TIP3    H118696   3.921   1.138   2.017
 6230TIP3    H218697   3.874   1.281   2.035
 6231TIP3   OH218698   3.549   2.575   1.917
 6231TIP3    H118699   3.471   2.524   1.941
 6231TIP3    H218700   3.561   2.635   1.990
 6232TIP3   OH218701   2.469   2.238   3.469
 6232TIP3    H118702   2.374   2.248   3.463
 6232TIP3    H218703   2.499   2.318   3.513
 6233TIP3   OH218704   0.917   2.270   3.630
 6233TIP3    H118705   0.824   2.272   3.650
 6233TIP3    H218706   0.927   2.327   3.553
 6234TIP3   OH218707   6.016   2.312   3.516
 6234TIP3    H118708   6.009   2.364   3.436
 6234TIP3    H218709   6.067   2.235   3.490
 6235TIP3   OH218710   3.478   1.660   3.260
 6235TIP3    H118711   3.524   1.576   3.256
 6235TIP3    H218712   3.414   1.656   3.188
 6236TIP3   OH218713   2.403   0.126   4.827
 6236TIP3    H118714   2.483   0.156   4.871
 6236TIP3    H218715   2.434   0.082   4.748
 6237TIP3   OH218716   2.768   2.100   2.834
 6237TIP3    H118717   2.836   2.058   2.781
 6237TIP3    H218718   2.712   2.028   2.863
 6238TIP3   OH218719   1.049   1.398   0.537
 6238TIP3    H118720   0.977   1.397   0.599
 6238TIP3    H218721   1.013   1.360   0.457
 6239TIP3   OH218722   5.210   1.603   0.738
 6239TIP3    H118723   5.227   1.625   0.830
 6239TIP3    H218724   5.155   1.525   0.742
 6240TIP3   OH218725   5.885   5.067   2.696
 6240TIP3    H118726   5.894   4.972   2.705
 6240TIP3    H218727   5.799   5.086   2.733
 6241TIP3   OH218728   6.006   2.080   4.302
 6241TIP3    H118729   6.028   2.030   4.380
 6241TIP3    H218730   5.928   2.130   4.326
 6242TIP3   OH218731   0.089   2.747   1.553
 6242TIP3    H118732   0.101   2.826   1.606
 6242TIP3    H218733  -0.006   2.742   1.539
 6243TIP3   OH218734   4.421   0.469   1.483
 6243TIP3    H118735   4.400   0.556   1.452
 6243TIP3    H218736   4.413   0.474   1.578
 6244TIP3   OH218737   4.193   0.833   5.235
 6244TIP3    H118738   4.260   0.865   5.175
 6244TIP3    H218739   4.120   0.807   5.179
 6245TIP3   OH218740   5.809   3.987   2.679
 6245TIP3    H118741   5.862   4.061   2.649
 6245TIP3    H218742   5.820   3.986   2.774
 6246TIP3   OH218743   4.038   1.065   1.528
 6246TIP3    H118744   3.988   0.998   1.482
 6246TIP3    H218745   4.115   1.019   1.562
 6247TIP3   OH218746   6.125   5.211   1.014
 6247TIP3    H118747   6.218   5.232   1.009
 6247TIP3    H218748   6.111   5.147   0.944
 6248TIP3   OH218749   0.679   4.403   1.442
 6248TIP3    H118750   0.676   4.387   1.536
 6248TIP3    H218751   0.761   4.362   1.413
 6249TIP3   OH218752   5.703   4.069   0.123
 6249TIP3    H118753   5.773   4.121   0.164
 6249TIP3    H218754   5.690   4.111   0.038
 6250TIP3   OH218755   3.921   2.067   2.164
 6250TIP3    H118756   3.911   2.115   2.082
 6250TIP3    H218757   3.990   2.113   2.211
 6251TIP3   OH218758   4.656   5.254   0.321
 6251TIP3    H118759   4.615   5.329   0.363
 6251TIP3    H218760   4.650   5.184   0.386
 6252TIP3   OH218761   4.613   5.820   4.819
 6252TIP3    H118762   4.526   5.816   4.778
 6252TIP3    H218763   4.659   5.743   4.784
 6253TIP3   OH218764   3.489   1.685   0.317
 6253TIP3    H118765   3.424   1.678   0.247
 6253TIP3    H218766   3.551   1.751   0.285
 6254TIP3   OH218767   4.458   1.482   3.130
 6254TIP3    H118768   4.374   1.459   3.090
 6254TIP3    H218769   4.460   1.432   3.212
 6255TIP3   OH218770   0.493   0.652   2.947
 6255TIP3    H118771   0.416   0.596   2.942
 6255TIP3    H218772   0.463   0.737   2.915
 6256TIP3   OH218773   3.120   0.933   3.179
 6256TIP3    H118774   3.134   1.025   3.200
 6256TIP3    H218775   3.031   0.915   3.209
 6257TIP3   OH218776   3.291   1.905   4.592
 6257TIP3    H118777   3.256   1.821   4.619
 6257TIP3    H218778   3.250   1.922   4.507
 6258TIP3   OH218779   3.483   5.531   1.650
 6258TIP3    H118780   3.450   5.618   1.673
 6258TIP3    H218781   3.577   5.544   1.639
 6259TIP3   OH218782   0.669   3.059   3.291
 6259TIP3    H118783   0.574   3.056   3.292
 6259TIP3    H218784   0.691   3.096   3.205
 6260TIP3   OH218785   3.557   5.317   0.210
 6260TIP3    H118786   3.577   5.368   0.132
 6260TIP3    H218787   3.640   5.315   0.258
 6261TIP3   OH218788   6.025   3.427   3.390
 6261TIP3    H118789   6.066   3.495   3.337
 6261TIP3    H218790   6.099   3.379   3.428
 6262TIP3   OH218791   3.001   3.361   1.767
 6262TIP3    H118792   3.081   3.375   1.717
 6262TIP3    H218793   2.960   3.285   1.724
 6263TIP3   OH218794   2.630   4.963   4.042
 6263TIP3    H118795   2.559   5.026   4.032
 6263TIP3    H218796   2.587   4.882   4.068
 6264TIP3   OH218797   5.574   0.877   1.188
 6264TIP3    H118798   5.607   0.824   1.260
 6264TIP3    H218799   5.495   0.832   1.158
 6265TIP3   OH218800   0.080   2.694   2.983
 6265TIP3    H118801   0.075   2.758   2.912
 6265TIP3    H218802   0.036   2.616   2.948
 6266TIP3   OH218803   4.762   2.642   3.257
 6266TIP3    H118804   4.818   2.662   3.333
 6266TIP3    H218805   4.817   2.587   3.202
 6267TIP3   OH218806   1.908   4.572   2.934
 6267TIP3    H118807   1.848   4.519   2.987
 6267TIP3    H218808   1.896   4.661   2.966
 6268TIP3   OH218809   0.913   4.347   2.791
 6268TIP3    H118810   0.981   4.366   2.726
 6268TIP3    H218811   0.959   4.340   2.874
 6269TIP3   OH218812   2.004   2.103   4.308
 6269TIP3    H118813   2.053   2.023   4.286
 6269TIP3    H218814   2.043   2.134   4.390
 6270TIP3   OH218815   1.364   5.822   0.012
 6270TIP3    H118816   1.380   5.758  -0.058
 6270TIP3    H218817   1.316   5.773   0.078
 6271TIP3   OH218818   0.587   2.950   3.576
 6271TIP3    H118819   0.594   2.854   3.580
 6271TIP3    H218820   0.539   2.966   3.495
 6272TIP3   OH218821   3.123   0.462   0.891
 6272TIP3    H118822   3.204   0.481   0.843
 6272TIP3    H218823   3.054   0.472   0.825
 6273TIP3   OH218824   0.002   3.761   0.960
 6273TIP3    H118825   0.016   3.803   0.875
 6273TIP3    H218826   0.086   3.768   1.004
 6274TIP3   OH218827   4.480   4.402   2.297
 6274TIP3    H118828   4.528   4.357   2.366
 6274TIP3    H218829   4.514   4.365   2.215
 6275TIP3   OH218830   3.199   2.857   2.686
 6275TIP3    H118831   3.178   2.801   2.611
 6275TIP3    H218832   3.138   2.830   2.755
 6276TIP3   OH218833   2.805   1.021   4.896
 6276TIP3    H118834   2.882   1.062   4.935
 6276TIP3    H218835   2.750   0.998   4.971
 6277TIP3   OH218836   1.707   3.528   3.320
 6277TIP3    H118837   1.635   3.480   3.358
 6277TIP3    H218838   1.674   3.557   3.235
 6278TIP3   OH218839   2.558   3.866   1.246
 6278TIP3    H118840   2.612   3.847   1.322
 6278TIP3    H218841   2.525   3.954   1.261
 6279TIP3   OH218842   4.980   3.500   2.210
 6279TIP3    H118843   5.012   3.569   2.152
 6279TIP3    H218844   5.028   3.515   2.292
 6280TIP3   OH218845   3.795   2.699   0.710
 6280TIP3    H118846   3.726   2.658   0.761
 6280TIP3    H218847   3.848   2.746   0.774
 6281TIP3   OH218848   4.645   2.110   1.196
 6281TIP3    H118849   4.599   2.079   1.118
 6281TIP3    H218850   4.687   2.032   1.232
 6282TIP3   OH218851   3.032   1.996   0.603
 6282TIP3    H118852   3.097   2.066   0.611
 6282TIP3    H218853   3.080   1.922   0.565
 6283TIP3   OH218854   2.732   4.900   0.024
 6283TIP3    H118855   2.663   4.950  -0.018
 6283TIP3    H218856   2.686   4.845   0.088
 6284TIP3   OH218857   0.393   0.277   1.799
 6284TIP3    H118858   0.440   0.277   1.715
 6284TIP3    H218859   0.369   0.368   1.813
 6285TIP3   OH218860   3.752   2.846   0.438
 6285TIP3    H118861   3.780   2.842   0.530
 6285TIP3    H218862   3.665   2.808   0.437
 6286TIP3   OH218863   5.850   3.881   3.231
 6286TIP3    H118864   5.840   3.803   3.285
 6286TIP3    H218865   5.880   3.949   3.291
 6287TIP3   OH218866   1.243   1.054   0.535
 6287TIP3    H118867   1.314   0.995   0.560
 6287TIP3    H218868   1.278   1.142   0.552
 6288TIP3   OH218869   3.826   3.168   1.260
 6288TIP3    H118870   3.740   3.159   1.300
 6288TIP3    H218871   3.812   3.225   1.184
 6289TIP3   OH218872   5.074   5.830   4.824
 6289TIP3    H118873   4.984   5.821   4.856
 6289TIP3    H218874   5.086   5.755   4.766
 6290TIP3   OH218875   4.701   2.606   5.150
 6290TIP3    H118876   4.751   2.557   5.216
 6290TIP3    H218877   4.729   2.696   5.160
 6291TIP3   OH218878   5.277   3.675   1.375
 6291TIP3    H118879   5.289   3.691   1.281
 6291TIP3    H218880   5.307   3.585   1.388
 6292TIP3   OH218881   1.045  -0.056   0.737
 6292TIP3    H118882   0.951  -0.073   0.735
 6292TIP3    H218883   1.066  -0.025   0.649
 6293TIP3   OH218884   1.099   2.657   4.635
 6293TIP3    H118885   1.137   2.732   4.679
 6293TIP3    H218886   1.127   2.666   4.544
 6294TIP3   OH218887   4.959   3.945   2.271
 6294TIP3    H118888   4.998   3.871   2.225
 6294TIP3    H218889   4.967   4.018   2.209
 6295TIP3   OH218890   1.995   0.967   4.572
 6295TIP3    H118891   2.000   0.932   4.661
 6295TIP3    H218892   1.976   0.891   4.517
 6296TIP3   OH218893   5.912   0.948   1.761
 6296TIP3    H118894   5.877   1.015   1.821
 6296TIP3    H218895   5.974   0.996   1.705
 6297TIP3   OH218896   6.040   2.497   3.297
 6297TIP3    H118897   5.951   2.500   3.263
 6297TIP3    H218898   6.082   2.576   3.262
 6298TIP3   OH218899   3.176   2.965   1.602
 6298TIP3    H118900   3.132   2.980   1.518
 6298TIP3    H218901   3.249   3.027   1.603
 6299TIP3   OH218902   2.075   1.057   0.139
 6299TIP3    H118903   1.993   1.058   0.089
 6299TIP3    H218904   2.048   1.083   0.227
 6300TIP3   OH218905   0.483   0.932   1.014
 6300TIP3    H118906   0.476   0.849   0.968
 6300TIP3    H218907   0.428   0.992   0.964
 6301TIP3   OH218908   2.186   2.399   1.610
 6301TIP3    H118909   2.270   2.354   1.611
 6301TIP3    H218910   2.191   2.461   1.683
 6302TIP3   OH218911   5.772   0.756   0.163
 6302TIP3    H118912   5.845   0.810   0.131
 6302TIP3    H218913   5.760   0.784   0.254
 6303TIP3   OH218914   0.991   0.214   3.180
 6303TIP3    H118915   1.016   0.293   3.227
 6303TIP3    H218916   0.933   0.245   3.110
 6304TIP3   OH218917   6.202   4.141   4.876
 6304TIP3    H118918   6.176   4.060   4.833
 6304TIP3    H218919   6.298   4.139   4.875
 6305TIP3   OH218920   4.870   3.297   3.242
 6305TIP3    H118921   4.890   3.204   3.254
 6305TIP3    H218922   4.909   3.319   3.158
 6306TIP3   OH218923   3.929   1.788   4.654
 6306TIP3    H118924   3.917   1.693   4.643
 6306TIP3    H218925   3.840   1.822   4.658
 6307TIP3   OH218926   4.159   2.538   4.533
 6307TIP3    H118927   4.204   2.568   4.612
 6307TIP3    H218928   4.161   2.443   4.538
 6308TIP3   OH218929   3.472   0.902   4.831
 6308TIP3    H118930   3.560   0.907   4.867
 6308TIP3    H218931   3.453   0.808   4.825
 6309TIP3   OH218932   5.862   2.533   0.878
 6309TIP3    H118933   5.842   2.439   0.873
 6309TIP3    H218934   5.863   2.552   0.971
 6310TIP3   OH218935   6.053   3.084   3.587
 6310TIP3    H118936   5.998   3.051   3.658
 6310TIP3    H218937   6.140   3.094   3.628
 6311TIP3   OH218938   5.373   2.042   4.718
 6311TIP3    H118939   5.414   2.059   4.633
 6311TIP3    H218940   5.432   1.982   4.762
 6312TIP3   OH218941   1.476   4.362   2.986
 6312TIP3    H118942   1.461   4.452   3.017
 6312TIP3    H218943   1.510   4.374   2.897
 6313TIP3   OH218944   0.361   0.888   4.195
 6313TIP3    H118945   0.413   0.955   4.240
 6313TIP3    H218946   0.276   0.929   4.180
 6314TIP3   OH218947   4.142   5.501   4.439
 6314TIP3    H118948   4.163   5.519   4.348
 6314TIP3    H218949   4.155   5.584   4.484
 6315TIP3   OH218950   4.621   4.312   4.230
 6315TIP3    H118951   4.616   4.407   4.216
 6315TIP3    H218952   4.654   4.277   4.148
 6316TIP3   OH218953   0.473   1.294   2.549
 6316TIP3    H118954   0.555   1.244   2.557
 6316TIP3    H218955   0.446   1.280   2.458
 6317TIP3   OH218956   0.165   3.879   5.015
 6317TIP3    H118957   0.132   3.845   5.099
 6317TIP3    H218958   0.103   3.848   4.950
 6318TIP3   OH218959   1.211   2.365   0.068
 6318TIP3    H118960   1.274   2.294   0.082
 6318TIP3    H218961   1.155   2.363   0.145
 6319TIP3   OH218962   4.092   5.969   0.105
 6319TIP3    H118963   4.065   6.025   0.032
 6319TIP3    H218964   4.052   5.884   0.086
 6320TIP3   OH218965   2.583   4.744   0.659
 6320TIP3    H118966   2.519   4.720   0.591
 6320TIP3    H218967   2.660   4.691   0.639
 6321TIP3   OH218968   1.906   3.269   3.817
 6321TIP3    H118969   1.890   3.278   3.724
 6321TIP3    H218970   1.999   3.246   3.823
 6322TIP3   OH218971   5.384   1.309   3.577
 6322TIP3    H118972   5.289   1.314   3.582
 6322TIP3    H218973   5.415   1.380   3.634
 6323TIP3   OH218974   3.357   2.768   3.293
 6323TIP3    H118975   3.268   2.760   3.326
 6323TIP3    H218976   3.346   2.802   3.204
 6324TIP3   OH218977   4.967   0.885   3.345
 6324TIP3    H118978   4.911   0.822   3.392
 6324TIP3    H218979   5.054   0.873   3.383
 6325TIP3   OH218980   5.917   5.489   1.155
 6325TIP3    H118981   5.935   5.398   1.179
 6325TIP3    H218982   5.885   5.483   1.065
 6326TIP3   OH218983   1.214   2.598   0.281
 6326TIP3    H118984   1.172   2.645   0.209
 6326TIP3    H218985   1.308   2.617   0.270
 6327TIP3   OH218986   4.552   0.956   0.804
 6327TIP3    H118987   4.601   0.874   0.803
 6327TIP3    H218988   4.537   0.974   0.897
 6328TIP3   OH218989   3.271   1.639   0.131
 6328TIP3    H118990   3.226   1.554   0.132
 6328TIP3    H218991   3.223   1.691   0.067
 6329TIP3   OH218992   2.542   3.226   4.370
 6329TIP3    H118993   2.536   3.134   4.394
 6329TIP3    H218994   2.600   3.265   4.436
 6330TIP3   OH218995   0.852   3.793   3.266
 6330TIP3    H118996   0.870   3.816   3.357
 6330TIP3    H218997   0.765   3.753   3.268
 6331TIP3   OH218998   4.453   5.760   4.373
 6331TIP3    H118999   4.453   5.683   4.317
 6331TIP3    H219000   4.532   5.808   4.348
 6332TIP3   OH219001   4.207   1.607   3.997
 6332TIP3    H119002   4.220   1.582   3.905
 6332TIP3    H219003   4.207   1.703   3.995
 6333TIP3   OH219004   5.921   5.680   2.547
 6333TIP3    H119005   5.948   5.588   2.546
 6333TIP3    H219006   5.877   5.691   2.631
 6334TIP3   OH219007   5.767   1.555   2.774
 6334TIP3    H119008   5.741   1.498   2.702
 6334TIP3    H219009   5.708   1.630   2.768
 6335TIP3   OH219010   3.215   0.952   1.840
 6335TIP3    H119011   3.308   0.950   1.821
 6335TIP3    H219012   3.211   0.957   1.936
 6336TIP3   OH219013   1.440   4.798   3.279
 6336TIP3    H119014   1.356   4.832   3.309
 6336TIP3    H219015   1.505   4.840   3.335
 6337TIP3   OH219016   5.291   1.898   1.126
 6337TIP3    H119017   5.227   1.931   1.188
 6337TIP3    H219018   5.374   1.900   1.174
 6338TIP3   OH219019   1.012   6.015   0.903
 6338TIP3    H119020   1.106   5.997   0.904
 6338TIP3    H219021   0.998   6.069   0.824
 6339TIP3   OH219022   4.377   3.181   1.858
 6339TIP3    H119023   4.289   3.200   1.891
 6339TIP3    H219024   4.425   3.150   1.935
 6340TIP3   OH219025   5.802   4.257   0.299
 6340TIP3    H119026   5.869   4.319   0.329
 6340TIP3    H219027   5.726   4.312   0.280
 6341TIP3   OH219028   5.183   4.407   1.112
 6341TIP3    H119029   5.185   4.311   1.108
 6341TIP3    H219030   5.239   4.428   1.187
 6342TIP3   OH219031   0.341   1.057   0.096
 6342TIP3    H119032   0.382   1.078   0.012
 6342TIP3    H219033   0.359   1.133   0.151
 6343TIP3   OH219034   3.104   3.433   4.716
 6343TIP3    H119035   3.191   3.463   4.689
 6343TIP3    H219036   3.107   3.435   4.812
 6344TIP3   OH219037   4.392   4.699   3.110
 6344TIP3    H119038   4.401   4.782   3.063
 6344TIP3    H219039   4.475   4.689   3.157
 6345TIP3   OH219040   2.586   1.748   4.113
 6345TIP3    H119041   2.599   1.778   4.203
 6345TIP3    H219042   2.641   1.670   4.106
 6346TIP3   OH219043   5.302   1.519   1.202
 6346TIP3    H119044   5.273   1.449   1.143
 6346TIP3    H219045   5.222   1.548   1.245
 6347TIP3   OH219046   3.592   5.764   4.007
 6347TIP3    H119047   3.530   5.812   3.952
 6347TIP3    H219048   3.677   5.804   3.989
 6348TIP3   OH219049   2.755   1.952   3.234
 6348TIP3    H119050   2.849   1.939   3.246
 6348TIP3    H219051   2.720   1.955   3.323
 6349TIP3   OH219052   5.076   1.089   1.036
 6349TIP3    H119053   5.074   0.994   1.045
 6349TIP3    H219054   5.108   1.120   1.121
 6350TIP3   OH219055   2.649   5.223   3.057
 6350TIP3    H119056   2.622   5.146   3.008
 6350TIP3    H219057   2.675   5.286   2.990
 6351TIP3   OH219058   1.710   5.303   1.219
 6351TIP3    H119059   1.634   5.351   1.185
 6351TIP3    H219060   1.675   5.217   1.242
 6352TIP3   OH219061   2.517   4.740   4.939
 6352TIP3    H119062   2.422   4.752   4.947
 6352TIP3    H219063   2.554   4.826   4.961
 6353TIP3   OH219064   5.173   2.918   3.505
 6353TIP3    H119065   5.201   2.950   3.591
 6353TIP3    H219066   5.248   2.869   3.472
 6354TIP3   OH219067   5.280   1.846   3.080
 6354TIP3    H119068   5.343   1.899   3.130
 6354TIP3    H219069   5.300   1.756   3.104
 6355TIP3   OH219070   1.854   1.936   2.045
 6355TIP3    H119071   1.899   1.889   1.975
 6355TIP3    H219072   1.791   1.992   1.999
 6356TIP3   OH219073   0.246   4.544   2.605
 6356TIP3    H119074   0.188   4.587   2.543
 6356TIP3    H219075   0.188   4.504   2.669
 6357TIP3   OH219076   1.724   2.238   5.014
 6357TIP3    H119077   1.706   2.199   5.100
 6357TIP3    H219078   1.705   2.168   4.951
 6358TIP3   OH219079   2.914   3.717   1.016
 6358TIP3    H119080   2.898   3.740   0.924
 6358TIP3    H219081   2.838   3.664   1.041
 6359TIP3   OH219082   0.748   0.839   4.279
 6359TIP3    H119083   0.687   0.842   4.353
 6359TIP3    H219084   0.740   0.925   4.238
 6360TIP3   OH219085   4.284   0.720   4.761
 6360TIP3    H119086   4.219   0.790   4.753
 6360TIP3    H219087   4.361   0.753   4.714
 6361TIP3   OH219088   3.919   2.312   1.036
 6361TIP3    H119089   3.949   2.364   1.111
 6361TIP3    H219090   3.999   2.272   1.002
 6362TIP3   OH219091   4.391   0.101   0.799
 6362TIP3    H119092   4.347   0.098   0.714
 6362TIP3    H219093   4.335   0.049   0.857
 6363TIP3   OH219094   3.864   4.187   2.659
 6363TIP3    H119095   3.773   4.208   2.638
 6363TIP3    H219096   3.905   4.273   2.673
 6364TIP3   OH219097   3.926   4.198   1.778
 6364TIP3    H119098   3.959   4.286   1.797
 6364TIP3    H219099   3.939   4.150   1.860
 6365TIP3   OH219100   4.071   2.076   0.976
 6365TIP3    H119101   4.043   1.990   0.944
 6365TIP3    H219102   4.033   2.082   1.064
 6366TIP3   OH219103   0.483   4.299   5.039
 6366TIP3    H119104   0.543   4.362   5.080
 6366TIP3    H219105   0.398   4.317   5.078
 6367TIP3   OH219106   1.089   2.048   1.072
 6367TIP3    H119107   1.141   2.122   1.040
 6367TIP3    H219108   0.999   2.081   1.073
 6368TIP3   OH219109   0.231   1.621   2.154
 6368TIP3    H119110   0.189   1.537   2.140
 6368TIP3    H219111   0.228   1.635   2.248
 6369TIP3   OH219112   2.282   0.965   1.416
 6369TIP3    H119113   2.286   0.968   1.320
 6369TIP3    H219114   2.194   0.932   1.434
 6370TIP3   OH219115   4.947   0.904   1.355
 6370TIP3    H119116   4.864   0.874   1.316
 6370TIP3    H219117   4.923   0.931   1.444
 6371TIP3   OH219118   2.192   3.571   1.658
 6371TIP3    H119119   2.251   3.529   1.721
 6371TIP3    H219120   2.134   3.625   1.712
 6372TIP3   OH219121   5.478   4.848   2.654
 6372TIP3    H119122   5.387   4.817   2.658
 6372TIP3    H219123   5.475   4.924   2.596
 6373TIP3   OH219124   5.610   1.834   1.732
 6373TIP3    H119125   5.629   1.927   1.719
 6373TIP3    H219126   5.628   1.793   1.648
 6374TIP3   OH219127   5.076   2.175   2.415
 6374TIP3    H119128   4.990   2.216   2.420
 6374TIP3    H219129   5.058   2.082   2.406
 6375TIP3   OH219130   1.259   3.247   4.780
 6375TIP3    H119131   1.269   3.193   4.858
 6375TIP3    H219132   1.167   3.240   4.756
 6376TIP3   OH219133   4.622   5.455   3.143
 6376TIP3    H119134   4.546   5.482   3.092
 6376TIP3    H219135   4.601   5.482   3.232
 6377TIP3   OH219136   1.481   0.821   0.536
 6377TIP3    H119137   1.559   0.850   0.583
 6377TIP3    H219138   1.432   0.771   0.602
 6378TIP3   OH219139   4.336   0.938   2.055
 6378TIP3    H119140   4.291   1.007   2.006
 6378TIP3    H219141   4.354   0.977   2.140
 6379TIP3   OH219142   2.857   2.371   0.645
 6379TIP3    H119143   2.904   2.293   0.619
 6379TIP3    H219144   2.773   2.339   0.679
 6380TIP3   OH219145   2.420   0.014   3.344
 6380TIP3    H119146   2.334   0.013   3.387
 6380TIP3    H219147   2.459   0.098   3.370
 6381TIP3   OH219148   1.680   4.622   3.471
 6381TIP3    H119149   1.699   4.535   3.434
 6381TIP3    H219150   1.715   4.684   3.407
 6382TIP3   OH219151   5.172   0.730   1.901
 6382TIP3    H119152   5.259   0.746   1.863
 6382TIP3    H219153   5.120   0.698   1.827
 6383TIP3   OH219154   4.839   2.181   2.718
 6383TIP3    H119155   4.905   2.182   2.787
 6383TIP3    H219156   4.819   2.088   2.707
 6384TIP3   OH219157   5.000   2.751   2.694
 6384TIP3    H119158   4.993   2.838   2.655
 6384TIP3    H219159   5.050   2.764   2.774
 6385TIP3   OH219160   5.931   2.873   1.694
 6385TIP3    H119161   5.837   2.863   1.680
 6385TIP3    H219162   5.953   2.805   1.758
 6386TIP3   OH219163   4.452   2.038   3.170
 6386TIP3    H119164   4.439   1.945   3.183
 6386TIP3    H219165   4.448   2.050   3.075
 6387TIP3   OH219166   1.772   2.592   2.541
 6387TIP3    H119167   1.706   2.660   2.528
 6387TIP3    H219168   1.840   2.613   2.477
 6388TIP3   OH219169   5.258   1.540   3.006
 6388TIP3    H119170   5.320   1.581   3.065
 6388TIP3    H219171   5.216   1.471   3.058
 6389TIP3   OH219172   6.350   2.998   3.097
 6389TIP3    H119173   6.381   2.940   3.028
 6389TIP3    H219174   6.381   3.084   3.072
 6390TIP3   OH219175   0.182   5.661   1.811
 6390TIP3    H119176   0.100   5.621   1.837
 6390TIP3    H219177   0.237   5.656   1.890
 6391TIP3   OH219178   6.289   0.713   1.170
 6391TIP3    H119179   6.250   0.652   1.233
 6391TIP3    H219180   6.240   0.794   1.182
 6392TIP3   OH219181   2.587   4.511   3.887
 6392TIP3    H119182   2.570   4.417   3.882
 6392TIP3    H219183   2.638   4.531   3.809
 6393TIP3   OH219184   1.727   0.214   5.006
 6393TIP3    H119185   1.783   0.284   5.037
 6393TIP3    H219186   1.711   0.160   5.084
 6394TIP3   OH219187   4.065   1.011   3.819
 6394TIP3    H119188   3.971   1.025   3.808
 6394TIP3    H219189   4.085   1.051   3.903
 6395TIP3   OH219190   1.375   5.377   2.876
 6395TIP3    H119191   1.409   5.446   2.932
 6395TIP3    H219192   1.449   5.355   2.818
 6396TIP3   OH219193   1.120   0.264   2.194
 6396TIP3    H119194   1.125   0.192   2.132
 6396TIP3    H219195   1.039   0.310   2.173
 6397TIP3   OH219196   0.889   1.723   4.467
 6397TIP3    H119197   0.964   1.773   4.435
 6397TIP3    H219198   0.815   1.783   4.458
 6398TIP3   OH219199   0.179   1.859   3.665
 6398TIP3    H119200   0.169   1.844   3.571
 6398TIP3    H219201   0.180   1.954   3.674
 6399TIP3   OH219202   0.384   0.217   0.915
 6399TIP3    H119203   0.295   0.186   0.931
 6399TIP3    H219204   0.413   0.168   0.837
 6400TIP3   OH219205   5.510   5.225   0.505
 6400TIP3    H119206   5.518   5.154   0.569
 6400TIP3    H219207   5.416   5.241   0.499
 6401TIP3   OH219208   2.557   0.282   3.118
 6401TIP3    H119209   2.612   0.340   3.171
 6401TIP3    H219210   2.475   0.276   3.167
 6402TIP3   OH219211   2.332   3.258   5.127
 6402TIP3    H119212   2.250   3.283   5.171
 6402TIP3    H219213   2.305   3.236   5.038
 6403TIP3   OH219214   1.575   5.216   1.878
 6403TIP3    H119215   1.575   5.163   1.799
 6403TIP3    H219216   1.483   5.230   1.898
 6404TIP3   OH219217   5.916   1.541   1.370
 6404TIP3    H119218   5.928   1.507   1.281
 6404TIP3    H219219   5.925   1.636   1.360
 6405TIP3   OH219220   2.078   3.958   4.781
 6405TIP3    H119221   2.162   3.981   4.820
 6405TIP3    H219222   2.090   3.974   4.688
 6406TIP3   OH219223   3.155   2.447   0.061
 6406TIP3    H119224   3.070   2.407   0.081
 6406TIP3    H219225   3.136   2.539   0.047
 6407TIP3   OH219226   4.408   1.127   4.772
 6407TIP3    H119227   4.502   1.120   4.760
 6407TIP3    H219228   4.397   1.177   4.853
 6408TIP3   OH219229   2.706   5.822   1.561
 6408TIP3    H119230   2.750   5.885   1.618
 6408TIP3    H219231   2.719   5.738   1.604
 6409TIP3   OH219232   3.864   5.939   3.634
 6409TIP3    H119233   3.848   5.914   3.543
 6409TIP3    H219234   3.819   5.871   3.685
 6410TIP3   OH219235   1.375   5.354   4.960
 6410TIP3    H119236   1.441   5.311   4.906
 6410TIP3    H219237   1.295   5.353   4.907
 6411TIP3   OH219238   3.150   5.598   4.464
 6411TIP3    H119239   3.219   5.575   4.401
 6411TIP3    H219240   3.101   5.668   4.422
 6412TIP3   OH219241   1.011   3.817   4.027
 6412TIP3    H119242   1.049   3.751   3.969
 6412TIP3    H219243   1.084   3.875   4.047
 6413TIP3   OH219244   5.387   5.514   3.200
 6413TIP3    H119245   5.328   5.448   3.236
 6413TIP3    H219246   5.447   5.534   3.272
 6414TIP3   OH219247   4.575   3.062   4.108
 6414TIP3    H119248   4.610   3.099   4.189
 6414TIP3    H219249   4.487   3.101   4.100
 6415TIP3   OH219250   5.824   0.108   4.724
 6415TIP3    H119251   5.732   0.085   4.734
 6415TIP3    H219252   5.832   0.137   4.633
 6416TIP3   OH219253   0.347   2.457   0.252
 6416TIP3    H119254   0.394   2.515   0.312
 6416TIP3    H219255   0.257   2.458   0.284
 6417TIP3   OH219256   0.570   1.601   1.672
 6417TIP3    H119257   0.567   1.695   1.691
 6417TIP3    H219258   0.618   1.594   1.589
 6418TIP3   OH219259   3.131   1.013   4.136
 6418TIP3    H119260   3.205   1.024   4.196
 6418TIP3    H219261   3.171   1.014   4.049
 6419TIP3   OH219262   0.457   3.098   3.749
 6419TIP3    H119263   0.527   3.163   3.742
 6419TIP3    H219264   0.497   3.017   3.715
 6420TIP3   OH219265   6.333   2.945   4.040
 6420TIP3    H119266   6.281   2.889   3.982
 6420TIP3    H219267   6.272   2.975   4.106
 6421TIP3   OH219268   4.715   4.376   5.243
 6421TIP3    H119269   4.664   4.329   5.178
 6421TIP3    H219270   4.743   4.457   5.199
 6422TIP3   OH219271   1.264   4.203   2.863
 6422TIP3    H119272   1.253   4.249   2.779
 6422TIP3    H219273   1.322   4.260   2.913
 6423TIP3   OH219274   1.012   0.548   1.737
 6423TIP3    H119275   0.963   0.615   1.690
 6423TIP3    H219276   0.970   0.466   1.712
 6424TIP3   OH219277   0.840   3.664   2.673
 6424TIP3    H119278   0.928   3.669   2.635
 6424TIP3    H219279   0.854   3.626   2.760
 6425TIP3   OH219280   4.142   4.108   2.804
 6425TIP3    H119281   4.138   4.204   2.807
 6425TIP3    H219282   4.195   4.089   2.726
 6426TIP3   OH219283   1.356   4.440   1.663
 6426TIP3    H119284   1.322   4.520   1.623
 6426TIP3    H219285   1.413   4.470   1.734
 6427TIP3   OH219286   4.859   1.190   0.891
 6427TIP3    H119287   4.779   1.206   0.941
 6427TIP3    H219288   4.915   1.138   0.950
 6428TIP3   OH219289   6.137   4.492   4.852
 6428TIP3    H119290   6.133   4.569   4.794
 6428TIP3    H219291   6.050   4.453   4.846
 6429TIP3   OH219292   0.098   4.691   2.421
 6429TIP3    H119293   0.138   4.713   2.337
 6429TIP3    H219294   0.010   4.660   2.397
 6430TIP3   OH219295   3.160   2.039   4.849
 6430TIP3    H119296   3.200   2.023   4.935
 6430TIP3    H219297   3.185   1.964   4.797
 6431TIP3   OH219298   6.181   4.480   3.769
 6431TIP3    H119299   6.206   4.455   3.680
 6431TIP3    H219300   6.138   4.402   3.804
 6432TIP3   OH219301   2.731   1.025   1.310
 6432TIP3    H119302   2.746   0.935   1.281
 6432TIP3    H219303   2.726   1.076   1.229
 6433TIP3   OH219304   5.876   3.531   1.240
 6433TIP3    H119305   5.824   3.610   1.255
 6433TIP3    H219306   5.883   3.524   1.145
 6434TIP3   OH219307   4.143   3.592   1.894
 6434TIP3    H119308   4.068   3.643   1.924
 6434TIP3    H219309   4.137   3.509   1.942
 6435TIP3   OH219310   2.081   5.765   1.907
 6435TIP3    H119311   2.010   5.814   1.947
 6435TIP3    H219312   2.038   5.699   1.853
 6436TIP3   OH219313   0.073   5.501   1.607
 6436TIP3    H119314   0.124   5.581   1.622
 6436TIP3    H219315   0.023   5.519   1.527
 6437TIP3   OH219316   4.308   4.325   1.797
 6437TIP3    H119317   4.226   4.364   1.766
 6437TIP3    H219318   4.353   4.397   1.842
 6438TIP3   OH219319   4.924   3.392   4.289
 6438TIP3    H119320   4.979   3.427   4.359
 6438TIP3    H219321   4.905   3.468   4.234
 6439TIP3   OH219322   5.821   5.150   3.803
 6439TIP3    H119323   5.742   5.184   3.760
 6439TIP3    H219324   5.893   5.198   3.763
 6440TIP3   OH219325   5.083   1.628   5.072
 6440TIP3    H119326   5.029   1.627   4.993
 6440TIP3    H219327   5.123   1.715   5.072
 6441TIP3   OH219328   3.126   0.026   3.459
 6441TIP3    H119329   3.066   0.087   3.415
 6441TIP3    H219330   3.192   0.006   3.393
 6442TIP3   OH219331   6.288   1.641   1.903
 6442TIP3    H119332   6.320   1.581   1.970
 6442TIP3    H219333   6.288   1.727   1.944
 6443TIP3   OH219334   3.786   4.495   1.392
 6443TIP3    H119335   3.723   4.502   1.321
 6443TIP3    H219336   3.863   4.454   1.352
 6444TIP3   OH219337  -0.006   0.045   2.024
 6444TIP3    H119338   0.059  -0.023   2.006
 6444TIP3    H219339  -0.087  -0.004   2.042
 6445TIP3   OH219340   6.242   3.563   3.954
 6445TIP3    H119341   6.279   3.486   3.997
 6445TIP3    H219342   6.253   3.546   3.861
 6446TIP3   OH219343   2.157   5.419   0.015
 6446TIP3    H119344   2.100   5.470   0.073
 6446TIP3    H219345   2.197   5.354   0.073
 6447TIP3   OH219346   5.535   2.559   4.162
 6447TIP3    H119347   5.577   2.549   4.247
 6447TIP3    H219348   5.469   2.490   4.159
 6448TIP3   OH219349   0.225   0.646   3.621
 6448TIP3    H119350   0.319   0.664   3.624
 6448TIP3    H219351   0.212   0.578   3.687
 6449TIP3   OH219352   1.274   4.880   1.699
 6449TIP3    H119353   1.249   4.923   1.781
 6449TIP3    H219354   1.367   4.860   1.710
 6450TIP3   OH219355   5.357   5.185   4.851
 6450TIP3    H119356   5.340   5.097   4.886
 6450TIP3    H219357   5.386   5.236   4.927
 6451TIP3   OH219358   3.862   0.880   1.442
 6451TIP3    H119359   3.888   0.803   1.392
 6451TIP3    H219360   3.793   0.921   1.389
 6452TIP3   OH219361   3.830   2.667   4.445
 6452TIP3    H119362   3.804   2.595   4.388
 6452TIP3    H219363   3.906   2.705   4.402
 6453TIP3   OH219364   3.110   1.766   0.500
 6453TIP3    H119365   3.142   1.694   0.554
 6453TIP3    H219366   3.045   1.725   0.442
 6454TIP3   OH219367   3.714   3.234   3.818
 6454TIP3    H119368   3.801   3.198   3.804
 6454TIP3    H219369   3.715   3.265   3.908
 6455TIP3   OH219370   6.091   2.672   0.764
 6455TIP3    H119371   6.077   2.753   0.813
 6455TIP3    H219372   6.026   2.611   0.799
 6456TIP3   OH219373   2.041   4.433   1.601
 6456TIP3    H119374   2.086   4.511   1.568
 6456TIP3    H219375   2.005   4.392   1.522
 6457TIP3   OH219376   5.098   5.809   2.613
 6457TIP3    H119377   5.012   5.769   2.606
 6457TIP3    H219378   5.081   5.898   2.646
 6458TIP3   OH219379   4.602   4.064   0.743
 6458TIP3    H119380   4.627   4.103   0.660
 6458TIP3    H219381   4.676   4.008   0.767
 6459TIP3   OH219382   3.014   1.301   0.315
 6459TIP3    H119383   3.069   1.225   0.335
 6459TIP3    H219384   3.053   1.338   0.235
 6460TIP3   OH219385   0.916   4.163   4.305
 6460TIP3    H119386   0.876   4.224   4.367
 6460TIP3    H219387   0.966   4.103   4.359
 6461TIP3   OH219388   2.236   3.248   2.382
 6461TIP3    H119389   2.220   3.219   2.292
 6461TIP3    H219390   2.172   3.201   2.435
 6462TIP3   OH219391   2.666   5.006   0.527
 6462TIP3    H119392   2.734   5.046   0.582
 6462TIP3    H219393   2.664   4.914   0.555
 6463TIP3   OH219394   1.726   0.832   0.734
 6463TIP3    H119395   1.691   0.888   0.803
 6463TIP3    H219396   1.781   0.768   0.780
 6464TIP3   OH219397   0.604   2.103   2.831
 6464TIP3    H119398   0.555   2.026   2.803
 6464TIP3    H219399   0.566   2.175   2.780
 6465TIP3   OH219400   0.174   5.678   3.561
 6465TIP3    H119401   0.123   5.671   3.481
 6465TIP3    H219402   0.146   5.604   3.614
 6466TIP3   OH219403   5.919   0.508   2.180
 6466TIP3    H119404   5.882   0.452   2.248
 6466TIP3    H219405   5.988   0.455   2.141
 6467TIP3   OH219406   3.071   4.657   3.795
 6467TIP3    H119407   3.118   4.601   3.733
 6467TIP3    H219408   3.013   4.709   3.740
 6468TIP3   OH219409   5.928   5.707   0.103
 6468TIP3    H119410   5.927   5.611   0.098
 6468TIP3    H219411   5.843   5.730   0.141
 6469TIP3   OH219412   5.024   5.361   4.504
 6469TIP3    H119413   5.107   5.404   4.486
 6469TIP3    H219414   4.958   5.427   4.487
 6470TIP3   OH219415   3.079   5.254   0.405
 6470TIP3    H119416   3.162   5.206   0.412
 6470TIP3    H219417   3.105   5.346   0.394
 6471TIP3   OH219418   2.867   1.544   4.212
 6471TIP3    H119419   2.876   1.533   4.307
 6471TIP3    H219420   2.791   1.491   4.189
 6472TIP3   OH219421   3.649   3.477   2.076
 6472TIP3    H119422   3.620   3.564   2.047
 6472TIP3    H219423   3.604   3.463   2.159
 6473TIP3   OH219424   3.824   3.510   3.554
 6473TIP3    H119425   3.878   3.583   3.584
 6473TIP3    H219426   3.872   3.474   3.479
 6474TIP3   OH219427   5.690   0.280   2.544
 6474TIP3    H119428   5.772   0.315   2.509
 6474TIP3    H219429   5.708   0.187   2.558
 6475TIP3   OH219430   3.842   4.753   2.938
 6475TIP3    H119431   3.778   4.728   2.872
 6475TIP3    H219432   3.856   4.674   2.990
 6476TIP3   OH219433   0.029   2.799   4.504
 6476TIP3    H119434  -0.052   2.845   4.526
 6476TIP3    H219435   0.084   2.866   4.465
 6477TIP3   OH219436   4.978   2.248   4.407
 6477TIP3    H119437   5.059   2.200   4.390
 6477TIP3    H219438   4.963   2.237   4.500
 6478TIP3   OH219439   2.678   1.922   2.052
 6478TIP3    H119440   2.728   1.996   2.017
 6478TIP3    H219441   2.726   1.845   2.022
 6479TIP3   OH219442   3.250   5.448   2.401
 6479TIP3    H119443   3.158   5.473   2.405
 6479TIP3    H219444   3.250   5.352   2.403
 6480TIP3   OH219445   0.173   4.151   3.711
 6480TIP3    H119446   0.192   4.134   3.618
 6480TIP3    H219447   0.246   4.206   3.741
 6481TIP3   OH219448   6.216   1.864   1.384
 6481TIP3    H119449   6.254   1.939   1.339
 6481TIP3    H219450   6.158   1.903   1.450
 6482TIP3   OH219451   3.814   0.669   2.134
 6482TIP3    H119452   3.787   0.581   2.159
 6482TIP3    H219453   3.796   0.674   2.040
 6483TIP3   OH219454   5.533   1.934   1.239
 6483TIP3    H119455   5.603   1.870   1.248
 6483TIP3    H219456   5.522   1.969   1.328
 6484TIP3   OH219457   0.289   0.136   4.729
 6484TIP3    H119458   0.284   0.103   4.639
 6484TIP3    H219459   0.375   0.178   4.733
 6485TIP3   OH219460   3.931  -0.049   1.145
 6485TIP3    H119461   3.945  -0.002   1.228
 6485TIP3    H219462   3.973   0.006   1.079
 6486TIP3   OH219463   1.866   3.357   0.043
 6486TIP3    H119464   1.915   3.302  -0.017
 6486TIP3    H219465   1.904   3.445   0.033
 6487TIP3   OH219466   2.519   2.940   2.361
 6487TIP3    H119467   2.435   2.926   2.317
 6487TIP3    H219468   2.548   2.852   2.386
 6488TIP3   OH219469   0.025   0.039   4.920
 6488TIP3    H119470   0.010   0.061   4.827
 6488TIP3    H219471   0.098   0.094   4.946
 6489TIP3   OH219472   4.829   5.795   1.400
 6489TIP3    H119473   4.759   5.762   1.457
 6489TIP3    H219474   4.910   5.769   1.444
 6490TIP3   OH219475   0.273   3.180   1.034
 6490TIP3    H119476   0.299   3.228   1.113
 6490TIP3    H219477   0.210   3.236   0.991
 6491TIP3   OH219478   3.886   1.647   2.010
 6491TIP3    H119479   3.951   1.582   1.984
 6491TIP3    H219480   3.843   1.672   1.928
 6492TIP3   OH219481   5.303   4.917   0.175
 6492TIP3    H119482   5.393   4.939   0.200
 6492TIP3    H219483   5.249   4.951   0.246
 6493TIP3   OH219484   5.846   0.524   1.476
 6493TIP3    H119485   5.894   0.606   1.490
 6493TIP3    H219486   5.914   0.458   1.464
 6494TIP3   OH219487   2.941   0.821   0.718
 6494TIP3    H119488   2.895   0.753   0.768
 6494TIP3    H219489   3.016   0.775   0.680
 6495TIP3   OH219490   3.779   2.442   4.824
 6495TIP3    H119491   3.855   2.435   4.881
 6495TIP3    H219492   3.788   2.527   4.782
 6496TIP3   OH219493   3.815   4.904   1.359
 6496TIP3    H119494   3.720   4.891   1.358
 6496TIP3    H219495   3.852   4.816   1.358
 6497TIP3   OH219496   5.155   3.407   3.144
 6497TIP3    H119497   5.151   3.382   3.236
 6497TIP3    H219498   5.237   3.368   3.112
 6498TIP3   OH219499   2.937   1.802   4.725
 6498TIP3    H119500   2.889   1.823   4.805
 6498TIP3    H219501   2.915   1.873   4.665
 6499TIP3   OH219502   3.782   4.920   3.703
 6499TIP3    H119503   3.779   4.951   3.612
 6499TIP3    H219504   3.831   4.838   3.699
 6500TIP3   OH219505   4.696   3.194   3.558
 6500TIP3    H119506   4.732   3.227   3.641
 6500TIP3    H219507   4.721   3.261   3.494
 6501TIP3   OH219508   1.279   5.299   3.372
 6501TIP3    H119509   1.345   5.285   3.304
 6501TIP3    H219510   1.195   5.287   3.327
 6502TIP3   OH219511   1.150   3.755   2.164
 6502TIP3    H119512   1.227   3.792   2.121
 6502TIP3    H219513   1.143   3.667   2.128
 6503TIP3   OH219514   5.851   5.387   4.218
 6503TIP3    H119515   5.944   5.370   4.232
 6503TIP3    H219516   5.816   5.305   4.183
 6504TIP3   OH219517   3.971   4.830   4.577
 6504TIP3    H119518   3.942   4.890   4.508
 6504TIP3    H219519   3.900   4.831   4.641
 6505TIP3   OH219520   6.005   5.014   0.845
 6505TIP3    H119521   6.063   4.938   0.835
 6505TIP3    H219522   5.937   4.985   0.905
 6506TIP3   OH219523   5.996   0.319   4.339
 6506TIP3    H119524   6.015   0.390   4.401
 6506TIP3    H219525   5.967   0.247   4.395
 6507TIP3   OH219526   0.714   3.688   2.401
 6507TIP3    H119527   0.805   3.715   2.393
 6507TIP3    H219528   0.715   3.623   2.472
 6508TIP3   OH219529   2.644   5.724   1.099
 6508TIP3    H119530   2.705   5.655   1.128
 6508TIP3    H219531   2.597   5.686   1.025
 6509TIP3   OH219532   2.928   4.402   0.206
 6509TIP3    H119533   2.903   4.372   0.119
 6509TIP3    H219534   2.906   4.329   0.264
 6510TIP3   OH219535   4.066   4.211   0.513
 6510TIP3    H119536   3.997   4.162   0.470
 6510TIP3    H219537   4.137   4.148   0.525
 6511TIP3   OH219538   5.523   1.438   3.348
 6511TIP3    H119539   5.465   1.381   3.397
 6511TIP3    H219540   5.577   1.379   3.296
 6512TIP3   OH219541   2.905   3.629   4.054
 6512TIP3    H119542   2.921   3.569   3.981
 6512TIP3    H219543   2.981   3.688   4.053
 6513TIP3   OH219544   1.520   3.715   0.591
 6513TIP3    H119545   1.576   3.662   0.534
 6513TIP3    H219546   1.453   3.750   0.533
 6514TIP3   OH219547   1.100   1.542   5.042
 6514TIP3    H119548   1.129   1.626   5.077
 6514TIP3    H219549   1.082   1.489   5.120
 6515TIP3   OH219550   2.706   2.883   0.184
 6515TIP3    H119551   2.633   2.827   0.156
 6515TIP3    H219552   2.785   2.835   0.160
 6516TIP3   OH219553   0.851   1.993   3.346
 6516TIP3    H119554   0.759   1.970   3.333
 6516TIP3    H219555   0.861   2.077   3.301
 6517TIP3   OH219556   0.821   5.637   0.318
 6517TIP3    H119557   0.838   5.702   0.250
 6517TIP3    H219558   0.726   5.623   0.315
 6518TIP3   OH219559   4.290   0.969   0.192
 6518TIP3    H119560   4.254   0.919   0.118
 6518TIP3    H219561   4.309   0.902   0.258
 6519TIP3   OH219562   4.891   0.562   0.937
 6519TIP3    H119563   4.833   0.488   0.956
 6519TIP3    H219564   4.943   0.533   0.862
 6520TIP3   OH219565   3.587   1.972   4.388
 6520TIP3    H119566   3.575   1.901   4.452
 6520TIP3    H219567   3.606   2.049   4.440
 6521TIP3   OH219568   1.345   3.637   1.084
 6521TIP3    H119569   1.301   3.618   1.167
 6521TIP3    H219570   1.421   3.689   1.108
 6522TIP3   OH219571   3.928   2.335   0.137
 6522TIP3    H119572   3.859   2.341   0.203
 6522TIP3    H219573   3.989   2.270   0.171
 6523TIP3   OH219574   1.578   0.936   1.886
 6523TIP3    H119575   1.662   0.973   1.857
 6523TIP3    H219576   1.599   0.892   1.969
 6524TIP3   OH219577   0.610   2.857   0.406
 6524TIP3    H119578   0.561   2.776   0.388
 6524TIP3    H219579   0.542   2.924   0.413
 6525TIP3   OH219580   4.972   3.711   3.817
 6525TIP3    H119581   4.981   3.621   3.848
 6525TIP3    H219582   5.036   3.761   3.867
 6526TIP3   OH219583   1.606   1.601   0.548
 6526TIP3    H119584   1.683   1.632   0.501
 6526TIP3    H219585   1.539   1.667   0.529
 6527TIP3   OH219586   2.059   3.439   1.921
 6527TIP3    H119587   1.972   3.443   1.881
 6527TIP3    H219588   2.057   3.507   1.988
 6528TIP3   OH219589   6.339   5.164   3.699
 6528TIP3    H119590   6.341   5.086   3.644
 6528TIP3    H219591   6.323   5.131   3.788
 6529TIP3   OH219592   1.167   4.204   4.236
 6529TIP3    H119593   1.071   4.201   4.236
 6529TIP3    H219594   1.189   4.259   4.161
 6530TIP3   OH219595   5.498   5.113   1.812
 6530TIP3    H119596   5.536   5.092   1.727
 6530TIP3    H219597   5.516   5.206   1.825
 6531TIP3   OH219598   3.105   0.647   3.879
 6531TIP3    H119599   3.033   0.591   3.850
 6531TIP3    H219600   3.097   0.646   3.974
 6532TIP3   OH219601   1.731   4.912   4.482
 6532TIP3    H119602   1.678   4.919   4.562
 6532TIP3    H219603   1.821   4.907   4.514
 6533TIP3   OH219604   2.261   1.395   1.729
 6533TIP3    H119605   2.334   1.399   1.667
 6533TIP3    H219606   2.192   1.448   1.690
 6534TIP3   OH219607   6.124   4.839   2.512
 6534TIP3    H119608   6.056   4.799   2.566
 6534TIP3    H219609   6.181   4.766   2.486
 6535TIP3   OH219610   5.414   0.227   2.574
 6535TIP3    H119611   5.367   0.198   2.496
 6535TIP3    H219612   5.504   0.239   2.545
 6536TIP3   OH219613   5.652   4.377   3.635
 6536TIP3    H119614   5.630   4.464   3.601
 6536TIP3    H219615   5.715   4.342   3.572
 6537TIP3   OH219616   2.121   0.365   2.745
 6537TIP3    H119617   2.095   0.380   2.654
 6537TIP3    H219618   2.208   0.325   2.738
 6538TIP3   OH219619   4.221   0.377   3.602
 6538TIP3    H119620   4.312   0.399   3.580
 6538TIP3    H219621   4.214   0.396   3.695
 6539TIP3   OH219622   1.630   4.054   2.072
 6539TIP3    H119623   1.603   4.016   1.988
 6539TIP3    H219624   1.724   4.065   2.065
 6540TIP3   OH219625   4.131   5.113   0.701
 6540TIP3    H119626   4.045   5.156   0.693
 6540TIP3    H219627   4.119   5.051   0.773
 6541TIP3   OH219628   1.630   0.594   3.071
 6541TIP3    H119629   1.602   0.512   3.031
 6541TIP3    H219630   1.598   0.662   3.011
 6542TIP3   OH219631   2.866   0.248   3.606
 6542TIP3    H119632   2.883   0.203   3.523
 6542TIP3    H219633   2.851   0.177   3.668
 6543TIP3   OH219634   2.471   1.695   1.182
 6543TIP3    H119635   2.442   1.651   1.102
 6543TIP3    H219636   2.556   1.657   1.200
 6544TIP3   OH219637   1.035   2.086   2.712
 6544TIP3    H119638   1.126   2.117   2.717
 6544TIP3    H219639   1.036   2.019   2.644
 6545TIP3   OH219640   5.133   1.072   1.936
 6545TIP3    H119641   5.150   1.042   1.846
 6545TIP3    H219642   5.076   1.148   1.925
 6546TIP3   OH219643   1.033   2.553   3.709
 6546TIP3    H119644   1.081   2.488   3.658
 6546TIP3    H219645   0.977   2.501   3.767
 6547TIP3   OH219646   2.483   1.379   0.650
 6547TIP3    H119647   2.475   1.447   0.583
 6547TIP3    H219648   2.394   1.369   0.684
 6548TIP3   OH219649   5.328   4.773   3.205
 6548TIP3    H119650   5.347   4.857   3.165
 6548TIP3    H219651   5.244   4.747   3.168
 6549TIP3   OH219652   6.074   1.324   0.851
 6549TIP3    H119653   6.046   1.241   0.813
 6549TIP3    H219654   6.076   1.384   0.777
 6550TIP3   OH219655   2.502   3.962   1.813
 6550TIP3    H119656   2.499   3.945   1.719
 6550TIP3    H219657   2.573   3.906   1.845
 6551TIP3   OH219658   5.955   5.904   5.153
 6551TIP3    H119659   5.949   5.810   5.135
 6551TIP3    H219660   5.995   5.941   5.074
 6552TIP3   OH219661   5.437   4.577   2.705
 6552TIP3    H119662   5.484   4.658   2.725
 6552TIP3    H219663   5.355   4.605   2.665
 6553TIP3   OH219664   4.730   2.463   0.593
 6553TIP3    H119665   4.723   2.394   0.659
 6553TIP3    H219666   4.640   2.476   0.563
 6554TIP3   OH219667   0.531   3.181   4.810
 6554TIP3    H119668   0.462   3.123   4.843
 6554TIP3    H219669   0.582   3.127   4.750
 6555TIP3   OH219670   0.548   5.943   1.507
 6555TIP3    H119671   0.489   5.950   1.582
 6555TIP3    H219672   0.613   6.012   1.520
 6556TIP3   OH219673   1.246   2.855   4.745
 6556TIP3    H119674   1.303   2.890   4.676
 6556TIP3    H219675   1.305   2.809   4.804
 6557TIP3   OH219676   2.336   2.831   1.636
 6557TIP3    H119677   2.272   2.800   1.572
 6557TIP3    H219678   2.320   2.777   1.714
 6558TIP3   OH219679   1.152   4.145   3.782
 6558TIP3    H119680   1.217   4.213   3.794
 6558TIP3    H219681   1.127   4.151   3.690
 6559TIP3   OH219682   6.285   4.597   4.605
 6559TIP3    H119683   6.217   4.532   4.588
 6559TIP3    H219684   6.353   4.549   4.653
 6560TIP3   OH219685   3.380   5.726   2.015
 6560TIP3    H119686   3.423   5.643   1.994
 6560TIP3    H219687   3.339   5.754   1.933
 6561TIP3   OH219688   1.222   0.700   1.068
 6561TIP3    H119689   1.158   0.674   1.134
 6561TIP3    H219690   1.189   0.782   1.033
 6562TIP3   OH219691   3.837   0.447   1.767
 6562TIP3    H119692   3.751   0.416   1.738
 6562TIP3    H219693   3.884   0.368   1.791
 6563TIP3   OH219694   0.250   2.082   2.621
 6563TIP3    H119695   0.252   1.987   2.607
 6563TIP3    H219696   0.259   2.092   2.715
 6564TIP3   OH219697   1.313   4.128   4.952
 6564TIP3    H119698   1.231   4.155   4.910
 6564TIP3    H219699   1.294   4.039   4.984
 6565TIP3   OH219700   4.760   4.989   4.104
 6565TIP3    H119701   4.815   5.061   4.073
 6565TIP3    H219702   4.673   5.028   4.116
 6566TIP3   OH219703   5.579   2.109   0.030
 6566TIP3    H119704   5.500   2.115   0.084
 6566TIP3    H219705   5.546   2.097  -0.059
 6567TIP3   OH219706   1.334   0.025   4.092
 6567TIP3    H119707   1.428   0.042   4.088
 6567TIP3    H219708   1.301   0.050   4.005
 6568TIP3   OH219709   3.817   0.465   0.612
 6568TIP3    H119710   3.829   0.550   0.570
 6568TIP3    H219711   3.730   0.470   0.652
 6569TIP3   OH219712   3.978   4.484   2.746
 6569TIP3    H119713   4.056   4.457   2.796
 6569TIP3    H219714   3.908   4.484   2.811
 6570TIP3   OH219715   1.468   3.007   0.085
 6570TIP3    H119716   1.501   3.069   0.020
 6570TIP3    H219717   1.490   2.921   0.049
 6571TIP3   OH219718   5.222   0.967   2.620
 6571TIP3    H119719   5.207   0.934   2.532
 6571TIP3    H219720   5.292   0.912   2.655
 6572TIP3   OH219721   4.130   4.037   1.638
 6572TIP3    H119722   4.079   4.110   1.675
 6572TIP3    H219723   4.076   3.960   1.654
 6573TIP3   OH219724   0.770   4.385   0.646
 6573TIP3    H119725   0.808   4.465   0.683
 6573TIP3    H219726   0.698   4.364   0.705
 6574TIP3   OH219727   2.797   3.863   2.113
 6574TIP3    H119728   2.770   3.953   2.134
 6574TIP3    H219729   2.887   3.872   2.081
 6575TIP3   OH219730   4.186   3.836   4.515
 6575TIP3    H119731   4.104   3.815   4.470
 6575TIP3    H219732   4.255   3.803   4.457
 6576TIP3   OH219733   0.771   5.726   4.779
 6576TIP3    H119734   0.699   5.671   4.810
 6576TIP3    H219735   0.732   5.812   4.766
 6577TIP3   OH219736   3.164   4.792   0.170
 6577TIP3    H119737   3.234   4.769   0.109
 6577TIP3    H219738   3.116   4.862   0.127
 6578TIP3   OH219739   3.676   2.036   2.002
 6578TIP3    H119740   3.650   2.082   1.922
 6578TIP3    H219741   3.663   1.944   1.983
 6579TIP3   OH219742   1.893   4.781   0.761
 6579TIP3    H119743   1.933   4.868   0.771
 6579TIP3    H219744   1.808   4.789   0.803
 6580TIP3   OH219745   5.616   4.067   0.715
 6580TIP3    H119746   5.532   4.098   0.680
 6580TIP3    H219747   5.612   3.972   0.704
 6581TIP3   OH219748   4.920   3.231   4.857
 6581TIP3    H119749   4.937   3.296   4.926
 6581TIP3    H219750   4.851   3.269   4.804
 6582TIP3   OH219751   1.209   5.344   0.125
 6582TIP3    H119752   1.114   5.353   0.119
 6582TIP3    H219753   1.236   5.413   0.186
 6583TIP3   OH219754   0.100   3.983   4.495
 6583TIP3    H119755   0.155   3.997   4.418
 6583TIP3    H219756   0.028   3.929   4.463
 6584TIP3   OH219757   5.329   1.254   4.531
 6584TIP3    H119758   5.381   1.234   4.454
 6584TIP3    H219759   5.269   1.324   4.503
 6585TIP3   OH219760   5.388   4.317   1.836
 6585TIP3    H119761   5.383   4.412   1.841
 6585TIP3    H219762   5.337   4.294   1.758
 6586TIP3   OH219763   1.353   3.172   1.096
 6586TIP3    H119764   1.338   3.080   1.120
 6586TIP3    H219765   1.434   3.195   1.142
 6587TIP3   OH219766   4.153   3.004   4.181
 6587TIP3    H119767   4.184   2.920   4.149
 6587TIP3    H219768   4.173   3.066   4.111
 6588TIP3   OH219769   1.577   3.542   5.143
 6588TIP3    H119770   1.549   3.606   5.208
 6588TIP3    H219771   1.633   3.591   5.083
 6589TIP3   OH219772   1.863   4.625   2.069
 6589TIP3    H119773   1.879   4.668   2.153
 6589TIP3    H219774   1.833   4.695   2.011
 6590TIP3   OH219775   3.427   3.063   2.146
 6590TIP3    H119776   3.504   3.064   2.204
 6590TIP3    H219777   3.433   3.145   2.098
 6591TIP3   OH219778   0.496   2.147   1.538
 6591TIP3    H119779   0.563   2.199   1.583
 6591TIP3    H219780   0.455   2.208   1.477
 6592TIP3   OH219781   2.879   2.234   3.304
 6592TIP3    H119782   2.958   2.289   3.298
 6592TIP3    H219783   2.834   2.247   3.221
 6593TIP3   OH219784   1.651   1.650   4.623
 6593TIP3    H119785   1.654   1.702   4.703
 6593TIP3    H219786   1.566   1.671   4.584
 6594TIP3   OH219787   1.977   2.801   2.619
 6594TIP3    H119788   2.015   2.756   2.694
 6594TIP3    H219789   1.886   2.771   2.617
 6595TIP3   OH219790   2.084   0.920   4.279
 6595TIP3    H119791   1.997   0.959   4.291
 6595TIP3    H219792   2.079   0.836   4.325
 6596TIP3   OH219793   0.626   4.947   1.181
 6596TIP3    H119794   0.654   4.860   1.210
 6596TIP3    H219795   0.570   4.980   1.251
 6597TIP3   OH219796   5.464   5.856   0.915
 6597TIP3    H119797   5.403   5.906   0.861
 6597TIP3    H219798   5.459   5.767   0.881
 6598TIP3   OH219799   5.243   3.818   0.137
 6598TIP3    H119800   5.337   3.831   0.124
 6598TIP3    H219801   5.233   3.810   0.232
 6599TIP3   OH219802   4.262   4.472   2.533
 6599TIP3    H119803   4.286   4.382   2.513
 6599TIP3    H219804   4.307   4.492   2.615
 6600TIP3   OH219805   0.136   3.000   1.643
 6600TIP3    H119806   0.203   3.068   1.647
 6600TIP3    H219807   0.063   3.040   1.596
 6601TIP3   OH219808   2.327   5.225   0.161
 6601TIP3    H119809   2.368   5.311   0.172
 6601TIP3    H219810   2.334   5.207   0.068
 6602TIP3   OH219811   0.869   5.888   2.114
 6602TIP3    H119812   0.848   5.802   2.077
 6602TIP3    H219813   0.842   5.880   2.206
 6603TIP3   OH219814   2.299   1.518   0.409
 6603TIP3    H119815   2.276   1.590   0.350
 6603TIP3    H219816   2.330   1.449   0.352
 6604TIP3   OH219817   0.312   5.156   4.121
 6604TIP3    H119818   0.258   5.081   4.147
 6604TIP3    H219819   0.402   5.127   4.138
 6605TIP3   OH219820   0.938   1.810   4.908
 6605TIP3    H119821   0.895   1.742   4.855
 6605TIP3    H219822   1.031   1.798   4.891
 6606TIP3   OH219823   1.122   0.428   0.709
 6606TIP3    H119824   1.100   0.381   0.629
 6606TIP3    H219825   1.144   0.359   0.772
 6607TIP3   OH219826   0.690   5.292   0.408
 6607TIP3    H119827   0.672   5.276   0.501
 6607TIP3    H219828   0.676   5.386   0.397
 6608TIP3   OH219829   2.373   5.570   3.337
 6608TIP3    H119830   2.369   5.482   3.299
 6608TIP3    H219831   2.389   5.628   3.262
 6609TIP3   OH219832   2.343   2.519   3.926
 6609TIP3    H119833   2.403   2.589   3.902
 6609TIP3    H219834   2.305   2.490   3.844
 6610TIP3   OH219835   2.180   3.896   0.049
 6610TIP3    H119836   2.221   3.911   0.134
 6610TIP3    H219837   2.112   3.830   0.067
 6611TIP3   OH219838   2.602   1.069   4.256
 6611TIP3    H119839   2.591   1.143   4.316
 6611TIP3    H219840   2.665   1.012   4.300
 6612TIP3   OH219841   0.073   1.637   5.104
 6612TIP3    H119842   0.009   1.593   5.048
 6612TIP3    H219843   0.062   1.596   5.190
 6613TIP3   OH219844   0.510   1.607   2.541
 6613TIP3    H119845   0.590   1.555   2.540
 6613TIP3    H219846   0.440   1.543   2.531
 6614TIP3   OH219847   0.224   1.337   1.953
 6614TIP3    H119848   0.251   1.263   1.898
 6614TIP3    H219849   0.301   1.394   1.956
 6615TIP3   OH219850   0.148   3.223   4.949
 6615TIP3    H119851   0.217   3.166   4.984
 6615TIP3    H219852   0.116   3.272   5.025
 6616TIP3   OH219853   4.528   2.501   3.363
 6616TIP3    H119854   4.565   2.422   3.323
 6616TIP3    H219855   4.590   2.570   3.342
 6617TIP3   OH219856   5.980   5.425   1.536
 6617TIP3    H119857   6.049   5.406   1.600
 6617TIP3    H219858   6.019   5.406   1.451
 6618TIP3   OH219859   4.234   5.265   3.664
 6618TIP3    H119860   4.261   5.238   3.576
 6618TIP3    H219861   4.140   5.247   3.666
 6619TIP3   OH219862   5.553   1.420   4.648
 6619TIP3    H119863   5.461   1.403   4.630
 6619TIP3    H219864   5.599   1.369   4.580
 6620TIP3   OH219865   2.327   0.816   2.394
 6620TIP3    H119866   2.374   0.841   2.474
 6620TIP3    H219867   2.235   0.830   2.415
 6621TIP3   OH219868   3.261   5.167   2.445
 6621TIP3    H119869   3.221   5.080   2.446
 6621TIP3    H219870   3.268   5.191   2.538
 6622TIP3   OH219871   2.221   5.300   2.471
 6622TIP3    H119872   2.165   5.374   2.447
 6622TIP3    H219873   2.163   5.224   2.465
 6623TIP3   OH219874   5.984   4.142   1.914
 6623TIP3    H119875   5.972   4.081   1.841
 6623TIP3    H219876   6.072   4.123   1.947
 6624TIP3   OH219877   0.291   0.327   4.333
 6624TIP3    H119878   0.335   0.406   4.301
 6624TIP3    H219879   0.254   0.353   4.418
 6625TIP3   OH219880   5.873   0.274   0.020
 6625TIP3    H119881   5.840   0.363   0.015
 6625TIP3    H219882   5.931   0.265  -0.056
 6626TIP3   OH219883   2.944   5.279   0.820
 6626TIP3    H119884   2.969   5.369   0.840
 6626TIP3    H219885   2.946   5.234   0.904
 6627TIP3   OH219886   0.772   1.885   0.615
 6627TIP3    H119887   0.678   1.896   0.601
 6627TIP3    H219888   0.799   1.962   0.664
 6628TIP3   OH219889   5.573   2.710   2.409
 6628TIP3    H119890   5.557   2.635   2.352
 6628TIP3    H219891   5.640   2.680   2.471
 6629TIP3   OH219892   0.733   5.097   3.609
 6629TIP3    H119893   0.647   5.082   3.570
 6629TIP3    H219894   0.719   5.089   3.703
 6630TIP3   OH219895   2.725   4.168   0.884
 6630TIP3    H119896   2.630   4.167   0.872
 6630TIP3    H219897   2.739   4.227   0.958
 6631TIP3   OH219898   6.173   0.025   3.460
 6631TIP3    H119899   6.105   0.002   3.524
 6631TIP3    H219900   6.188  -0.056   3.411
 6632TIP3   OH219901   2.440   4.164   0.850
 6632TIP3    H119902   2.386   4.184   0.773
 6632TIP3    H219903   2.378   4.129   0.914
 6633TIP3   OH219904   1.034   3.748   5.078
 6633TIP3    H119905   1.093   3.750   5.153
 6633TIP3    H219906   1.079   3.799   5.010
 6634TIP3   OH219907   5.864   0.894   1.305
 6634TIP3    H119908   5.834   0.819   1.254
 6634TIP3    H219909   5.892   0.856   1.389
 6635TIP3   OH219910   4.513   5.013   3.652
 6635TIP3    H119911   4.527   5.098   3.693
 6635TIP3    H219912   4.452   4.968   3.710
 6636TIP3   OH219913   3.843   4.371   3.318
 6636TIP3    H119914   3.929   4.409   3.299
 6636TIP3    H219915   3.862   4.280   3.344
 6637TIP3   OH219916   4.432   3.081   1.243
 6637TIP3    H119917   4.493   3.154   1.252
 6637TIP3    H219918   4.415   3.053   1.333
 6638TIP3   OH219919   4.265   0.357   3.914
 6638TIP3    H119920   4.300   0.314   3.992
 6638TIP3    H219921   4.314   0.439   3.908
 6639TIP3   OH219922   0.335   5.609   1.595
 6639TIP3    H119923   0.337   5.692   1.547
 6639TIP3    H219924   0.307   5.633   1.684
 6640TIP3   OH219925   6.250   0.838   2.417
 6640TIP3    H119926   6.184   0.816   2.352
 6640TIP3    H219927   6.241   0.933   2.430
 6641TIP3   OH219928   5.675   1.647   0.598
 6641TIP3    H119929   5.703   1.738   0.597
 6641TIP3    H219930   5.580   1.651   0.589
 6642TIP3   OH219931   0.476   4.973   4.521
 6642TIP3    H119932   0.406   4.961   4.586
 6642TIP3    H219933   0.502   5.065   4.531
 6643TIP3   OH219934   3.417   1.250   1.852
 6643TIP3    H119935   3.485   1.189   1.882
 6643TIP3    H219936   3.338   1.222   1.899
 6644TIP3   OH219937   5.169   3.081   4.271
 6644TIP3    H119938   5.100   3.105   4.333
 6644TIP3    H219939   5.165   2.985   4.267
 6645TIP3   OH219940   2.739   2.043   3.767
 6645TIP3    H119941   2.711   2.022   3.856
 6645TIP3    H219942   2.779   1.962   3.735
   6.35807   5.99444   5.19134   0.00000   0.00000  -2.11936   0.00000  -2.11936  -2.99722
