Title
19927
    1ASP      N    1   1.903   0.232   1.176 -0.5156 -0.0767 -0.9023
    1ASP    HT1    2   1.875   0.145   1.126 -0.2288 -0.5464 -0.2576
    1ASP    HT2    3   2.006   0.226   1.163 -0.3970 -0.0870  0.0215
    1ASP    HT3    4   1.854   0.312   1.130 -2.5640 -0.2712  0.8056
    1ASP     CA    5   1.867   0.219   1.325 -0.0443  0.2658  1.1863
    1ASP     HA    6   1.954   0.178   1.374  0.4848  2.0787  1.8297
    1ASP     CB    7   1.845   0.361   1.386 -0.4004 -1.2253 -0.2783
    1ASP    HB1    8   1.746   0.398   1.351 -0.3466 -1.5598 -0.7979
    1ASP    HB2    9   1.926   0.432   1.361 -2.3301  1.5504  0.7993
    1ASP     CG   10   1.837   0.355   1.540 -0.2236 -0.5407 -0.0204
    1ASP    OD1   11   1.860   0.244   1.599  0.7612 -0.6696  0.1479
    1ASP    OD2   12   1.821   0.459   1.606 -0.6489 -0.0820  0.2441
    1ASP      C   13   1.743   0.128   1.347 -0.2524 -0.7241  0.2024
    1ASP      O   14   1.648   0.137   1.267 -0.3371 -0.2100  0.6346
    2ALA      N   15   1.746   0.026   1.431 -0.7884 -0.0718 -0.3569
    2ALA     HN   16   1.814   0.022   1.503  0.5522  0.6322 -1.5321
    2ALA     CA   17   1.641  -0.071   1.439 -0.3001  0.4208  0.4206
    2ALA     HA   18   1.599  -0.087   1.340  2.6706  1.0122 -1.0458
    2ALA     CB   19   1.696  -0.207   1.496  0.1447 -0.4053  0.2624
    2ALA    HB1   20   1.791  -0.245   1.452  0.7453  1.2460  0.0690
    2ALA    HB2   21   1.622  -0.286   1.473  0.1912 -0.2238 -0.5311
    2ALA    HB3   22   1.718  -0.210   1.605  1.8534 -3.5058 -0.0464
    2ALA      C   23   1.536  -0.022   1.536  0.4827  0.2090  0.3397
    2ALA      O   24   1.425  -0.073   1.543 -0.1691  0.4373  0.1364
    3ASP      N   25   1.566   0.082   1.614  0.3498 -0.2469 -0.3656
    3ASP     HN   26   1.656   0.121   1.598 -0.0757  1.6027  1.4883
    3ASP     CA   27   1.476   0.161   1.693  0.0603 -0.9486 -0.1638
    3ASP     HA   28   1.419   0.093   1.755 -0.4831  1.6240  2.3855
    3ASP     CB   29   1.545   0.261   1.783 -0.2945  0.2096  0.1013
    3ASP    HB1   30   1.478   0.338   1.827  0.7563  0.7564  0.7852
    3ASP    HB2   31   1.626   0.299   1.717  0.7160 -0.1481  1.0971
    3ASP     CG   32   1.597   0.183   1.902 -0.4510 -0.5111  0.8817
    3ASP    OD1   33   1.556   0.067   1.928  0.1371  0.2892  0.8635
    3ASP    OD2   34   1.681   0.244   1.972 -0.6859  0.4403 -0.2072
    3ASP      C   35   1.371   0.235   1.604  0.4020  0.1754 -0.3239
    3ASP      O   36   1.394   0.258   1.487 -0.0736  0.4185  0.2390
    4GLY      N   37   1.255   0.256   1.664 -0.2201  0.0185 -0.1400
    4GLY     HN   38   1.246   0.231   1.760 -0.3108  0.4685 -0.0339
    4GLY     CA   39   1.141   0.329   1.612  0.0750 -0.0829 -0.3112
    4GLY    HA1   40   1.068   0.333   1.692  0.9784 -0.1393  0.5396
    4GLY    HA2   41   1.111   0.273   1.525  0.0099  0.0196 -0.3550
    4GLY      C   42   1.163   0.475   1.576 -0.3967 -0.3936  0.1254
    4GLY      O   43   1.259   0.537   1.624  0.2873 -0.2146 -0.2535
    5PRO      N   44   1.077   0.539   1.504  0.1649  0.2966  0.1237
    5PRO     CD   45   0.984   0.482   1.411  0.0508  0.0221  0.3084
    5PRO    HD1   46   0.904   0.441   1.476 -0.1111  0.4146  0.3622
    5PRO    HD2   47   1.036   0.410   1.345 -1.7283 -0.6495 -0.4271
    5PRO     CA   48   1.085   0.685   1.487  0.3201  0.0602  1.0334
    5PRO     HA   49   1.169   0.726   1.431  0.3638  1.0550  1.7931
    5PRO     CB   50   0.949   0.708   1.419 -0.4926  0.0922  0.1787
    5PRO    HB1   51   0.942   0.803   1.363 -2.0803 -0.6277 -0.9199
    5PRO    HB2   52   0.862   0.702   1.489 -0.2436 -1.5938  0.3881
    5PRO     CG   53   0.935   0.593   1.322  0.2651 -0.2911 -0.0304
    5PRO    HG1   54   0.835   0.561   1.286  1.3273 -0.6072 -2.9231
    5PRO    HG2   55   0.996   0.604   1.230 -0.7771 -2.0813 -0.9786
    5PRO      C   56   1.071   0.771   1.624 -0.0023 -0.2050  0.0869
    5PRO      O   57   1.037   0.720   1.727 -0.1860  0.0398 -0.3593
    6GLY      N   58   1.092   0.902   1.619 -0.0243 -0.1162 -0.9760
    6GLY     HN   59   1.120   0.951   1.537 -0.2211 -0.0416 -0.9983
    6GLY     CA   60   1.048   0.991   1.728  0.4553  0.0404 -0.4997
    6GLY    HA1   61   1.112   1.077   1.738  1.1268 -0.6516  2.0642
    6GLY    HA2   62   1.052   0.936   1.821  0.8679  0.0415 -0.5174
    6GLY      C   63   0.905   1.031   1.713  0.5304 -0.3573  0.0067
    6GLY      O   64   0.827   0.968   1.638 -0.6720 -0.1732 -0.4634
    7ASP      N   65   0.860   1.140   1.779  0.5837  0.1821 -0.3801
    7ASP     HN   66   0.929   1.178   1.840  1.3856 -0.6145 -0.7607
    7ASP     CA   67   0.717   1.181   1.778  0.1494 -0.0368 -0.7152
    7ASP     HA   68   0.660   1.091   1.790  0.7738 -0.2447  1.0026
    7ASP     CB   69   0.689   1.278   1.895 -1.1977  0.0949  0.2657
    7ASP    HB1   70   0.590   1.329   1.893 -1.1718  0.1291 -0.2823
    7ASP    HB2   71   0.773   1.351   1.893  0.2666 -1.3967  2.5814
    7ASP     CG   72   0.700   1.207   2.022 -0.5445  0.6144 -0.0244
    7ASP    OD1   73   0.725   1.276   2.126 -0.0663  0.2570 -0.7273
    7ASP    OD2   74   0.676   1.081   2.025  0.4113 -0.3964 -0.3412
    7ASP      C   75   0.680   1.258   1.646  0.2951  1.1058 -0.0304
    7ASP      O   76   0.763   1.331   1.592  0.5250  0.3885 -0.4290
    8PRO      N   77   0.570   1.242   1.582  0.3766  0.3546 -0.1422
    8PRO     CD   78   0.463   1.143   1.609 -0.6905  0.0297 -0.2251
    8PRO    HD1   79   0.431   1.165   1.713 -0.4584 -0.4817 -0.0444
    8PRO    HD2   80   0.508   1.045   1.633 -0.0741  0.5791  0.9707
    8PRO     CA   81   0.529   1.344   1.481  0.4006  0.5262 -0.0281
    8PRO     HA   82   0.592   1.331   1.394 -0.9092  1.7405 -1.2214
    8PRO     CB   83   0.383   1.301   1.447  0.3313 -0.2769 -0.4214
    8PRO    HB1   84   0.361   1.309   1.338 -1.3784 -0.6793 -0.1482
    8PRO    HB2   85   0.310   1.369   1.497 -1.0153 -3.2437  1.9631
    8PRO     CG   86   0.362   1.154   1.498 -0.5996 -0.4791 -0.0810
    8PRO    HG1   87   0.257   1.123   1.518 -0.7489 -0.2495 -0.4899
    8PRO    HG2   88   0.390   1.093   1.409  0.9962  0.4623 -0.2742
    8PRO      C   89   0.531   1.492   1.523 -0.0503  0.0859 -0.0690
    8PRO      O   90   0.521   1.528   1.640  0.3775  0.0465  0.3675
    9ASP      N   91   0.564   1.579   1.425 -0.4501  0.9274 -0.7716
    9ASP     HN   92   0.579   1.553   1.330 -1.3364 -0.3052 -0.5867
    9ASP     CA   93   0.578   1.722   1.449 -0.0335 -1.2513 -0.6391
    9ASP     HA   94   0.641   1.731   1.537  2.1706  0.2802 -2.2683
    9ASP     CB   95   0.649   1.799   1.332 -0.3282  0.2729 -0.0921
    9ASP    HB1   96   0.664   1.906   1.360 -2.5613  1.3168 -2.4744
    9ASP    HB2   97   0.591   1.809   1.238  0.4934 -1.1763 -0.7725
    9ASP     CG   98   0.783   1.744   1.300  0.5488 -0.2962 -0.0663
    9ASP    OD1   99   0.822   1.774   1.180 -0.0534 -0.2505 -0.5046
    9ASP    OD2  100   0.841   1.663   1.379 -0.0842  0.2655  0.5598
    9ASP      C  101   0.456   1.794   1.495 -0.8259  0.2401 -0.4559
    9ASP      O  102   0.343   1.765   1.448 -0.6320 -0.3656  0.4140
   10ALA      N  103   0.482   1.890   1.586 -0.7507  0.8471  0.9276
   10ALA     HN  104   0.573   1.905   1.624  1.3687  0.8551 -3.5617
   10ALA     CA  105   0.379   1.985   1.618  0.4398  0.4870 -0.4322
   10ALA     HA  106   0.299   1.929   1.664  0.6142 -0.4600 -1.2466
   10ALA     CB  107   0.432   2.070   1.736 -0.1926 -0.2066 -0.0619
   10ALA    HB1  108   0.347   2.137   1.762 -0.9191 -0.3716 -1.8498
   10ALA    HB2  109   0.513   2.141   1.710  1.5102 -1.9780  0.1471
   10ALA    HB3  110   0.454   2.012   1.829  4.2077  1.2284  0.0330
   10ALA      C  111   0.345   2.071   1.500 -0.1801  0.6229 -0.4958
   10ALA      O  112   0.440   2.097   1.424 -0.1342  0.0410  0.1984
   11GLY      N  113   0.218   2.106   1.478 -0.2782 -0.1780 -0.5787
   11GLY     HN  114   0.143   2.063   1.527 -1.1137  1.2826 -0.4975
   11GLY     CA  115   0.176   2.181   1.365 -0.0606 -0.1921 -0.1545
   11GLY    HA1  116   0.250   2.169   1.287  1.2507  1.0145  0.8507
   11GLY    HA2  117   0.173   2.285   1.393  0.0346  0.0821 -1.1388
   11GLY      C  118   0.036   2.126   1.321  0.2048  0.4399 -0.4503
   11GLY    OT1  119  -0.066   2.179   1.379 -0.4964  0.3736 -0.3704
   11GLY    OT2  120   0.032   2.041   1.228  0.0228  0.1720  0.2820
   12SOD    SOD  121   2.179   4.845   0.809 -0.3175 -0.4205  0.0633
   13SOD    SOD  122   4.244   0.390   3.688  0.3153  0.1984 -0.5551
   14SOD    SOD  123   0.959   2.832   2.626  0.3765 -0.4023  0.3647
   15SOD    SOD  124   2.166   1.537   1.074 -0.0228 -0.5185 -0.3002
   16SOD    SOD  125   2.005   2.171   1.212 -0.3277  0.0139 -0.6817
   17SOD    SOD  126   3.417   1.400   4.467 -0.2483  0.1144  0.0677
   18SOD    SOD  127   2.175   3.825   1.431  0.0412  0.2667 -0.1900
   19SOD    SOD  128   1.280   5.499   2.116  0.4411 -0.1367 -0.3835
   20SOD    SOD  129   3.732   4.560   1.993 -0.4234  0.1657 -0.1690
   21SOD    SOD  130   5.838   3.107   1.927  0.0990 -0.0776 -0.2623
   22SOD    SOD  131   1.055   0.738   4.429 -0.5088  0.1987  0.5350
   23SOD    SOD  132   4.293   2.747   5.133 -0.0991 -0.3379  0.0595
   24SOD    SOD  133   2.956   3.406   0.940  0.0173 -0.3379 -0.0666
   25SOD    SOD  134   2.341   5.567   0.156  0.1073 -0.5041 -0.3543
   26SOD    SOD  135   1.249   4.501   4.259 -0.6154 -0.2032 -0.2016
   27SOD    SOD  136   1.537   2.304   3.939 -0.2211 -0.1873 -0.0679
   28SOD    SOD  137   4.254   0.164   4.654 -0.0942 -0.4965 -0.8294
   29SOD    SOD  138   2.672   5.046   4.212  0.2341 -0.4814  0.2709
   30SOD    SOD  139   6.213   4.291   2.981 -0.3319 -0.0516  0.3884
   31SOD    SOD  140   5.452   5.887   0.303  0.3208 -0.0405 -0.3895
   32SOD    SOD  141   5.332   3.072   0.542  0.6367 -0.3310 -0.0472
   33SOD    SOD  142   5.754   1.689   2.393 -0.2334 -0.0034  0.4701
   34CLA    CLA  143   3.392   4.356   2.520  0.2264  0.0647 -0.0807
   35CLA    CLA  144   2.226   5.707   4.369  0.5155 -0.1821  0.4957
   36CLA    CLA  145   3.568   3.099   3.025  0.0054 -0.2402  0.1711
   37CLA    CLA  146   2.185   4.329   0.673 -0.2158  0.1131  0.4593
   38CLA    CLA  147   3.683   1.161   1.733  0.2529 -0.1117  0.1376
   39CLA    CLA  148   4.133   3.933   0.092  0.3381 -0.1408  0.2319
   40CLA    CLA  149   3.589   4.306   4.446  0.1270 -0.2324 -0.0256
   41CLA    CLA  150   5.289   0.410   0.240 -0.2509  0.0663  0.6732
   42CLA    CLA  151   2.213   1.827   4.133 -0.2471 -0.4957  0.1381
   43CLA    CLA  152   0.890   4.749   5.014  0.0439  0.1095  0.1328
   44CLA    CLA  153   6.228   2.308   4.683 -0.1630 -0.3174  0.6695
   45CLA    CLA  154   1.637   2.135   4.931  0.1224 -0.0152 -0.2787
   46CLA    CLA  155   0.531   1.735   2.629 -0.2968  0.1545 -0.2685
   47CLA    CLA  156   2.680   0.545   0.998 -0.1837 -0.2068  0.3361
   48CLA    CLA  157   4.552   4.194   3.745  0.0274 -0.0775  0.0014
   49CLA    CLA  158   5.184   2.195   3.367 -0.2361 -0.2157  0.3197
   50CLA    CLA  159   1.925   4.919   4.005  0.3864  0.1066  0.0662
   51CLA    CLA  160   3.416   1.488   4.024 -0.2581 -0.0392  0.4658
   52TIP3   OH2  161   0.844   4.409   4.811  0.4339 -0.1157 -0.0049
   52TIP3    H1  162   0.844   4.457   4.728  0.9954 -0.1116 -0.0091
   52TIP3    H2  163   0.883   4.469   4.874  2.5273 -1.0516 -0.3277
   53TIP3   OH2  164   2.652   5.966   3.914  0.3671  0.1149  0.2061
   53TIP3    H1  165   2.700   5.970   3.997  1.4452  0.5058 -0.4106
   53TIP3    H2  166   2.560   5.972   3.939  0.6517 -0.1488  1.3948
   54TIP3   OH2  167   2.983   4.260   0.916  0.4019 -0.3117  0.6885
   54TIP3    H1  168   3.028   4.330   0.869  0.3045  1.0314  2.4889
   54TIP3    H2  169   3.043   4.234   0.985 -0.6589 -0.0498  1.7487
   55TIP3   OH2  170   1.987   0.836   4.850 -0.3946 -0.4178 -0.0624
   55TIP3    H1  171   1.982   0.743   4.875  0.1169 -0.7685 -1.1860
   55TIP3    H2  172   1.899   0.858   4.822 -0.1164 -1.1557 -1.6683
   56TIP3   OH2  173   4.370   1.280   3.981  0.1600  0.5556  0.4086
   56TIP3    H1  174   4.466   1.273   3.980  0.1290  0.1129 -0.1334
   56TIP3    H2  175   4.340   1.190   3.969 -0.3261  0.7207  0.3930
   57TIP3   OH2  176   0.430   1.184   0.927 -0.1868 -0.6289  0.6125
   57TIP3    H1  177   0.342   1.188   0.963 -0.2611 -1.6205  0.5560
   57TIP3    H2  178   0.433   1.102   0.879  0.1057  0.3556 -1.1440
   58TIP3   OH2  179   0.302   4.209   0.508 -0.5070  0.3318  0.3047
   58TIP3    H1  180   0.368   4.199   0.439 -2.8672 -0.5406 -1.9925
   58TIP3    H2  181   0.298   4.303   0.524  0.0481  0.5729 -0.8371
   59TIP3   OH2  182   2.932   2.599   3.795  0.0062 -0.0229  0.4054
   59TIP3    H1  183   2.932   2.609   3.700  0.7290  1.0427  0.5063
   59TIP3    H2  184   2.910   2.507   3.809  1.2050 -0.5353 -0.8278
   60TIP3   OH2  185   4.121   0.637   4.945 -0.2445  0.1742 -0.1704
   60TIP3    H1  186   4.089   0.682   4.866 -1.1287 -1.9959 -1.1337
   60TIP3    H2  187   4.192   0.582   4.913  0.6933  0.7174  0.9405
   61TIP3   OH2  188   3.003   3.824   2.667  0.2047 -0.0952  0.5103
   61TIP3    H1  189   2.935   3.834   2.600  0.8861 -1.1809 -0.3739
   61TIP3    H2  190   3.014   3.912   2.702 -0.7305  0.3499 -0.2473
   62TIP3   OH2  191   2.394   5.093   3.793  0.3385  0.0656  0.2450
   62TIP3    H1  192   2.342   5.014   3.807  0.0829  0.0663 -0.6369
   62TIP3    H2  193   2.452   5.070   3.720  0.4817  0.5920  0.1932
   63TIP3   OH2  194   1.702   1.819   2.372  0.1821 -0.7990 -0.0472
   63TIP3    H1  195   1.700   1.901   2.422  1.4154 -1.2435  0.7644
   63TIP3    H2  196   1.719   1.847   2.282  0.2057 -0.1351  0.1560
   64TIP3   OH2  197   1.576   4.913   1.981  0.5121  0.3116  1.0618
   64TIP3    H1  198   1.663   4.949   1.965  0.4768 -0.0005  0.1050
   64TIP3    H2  199   1.588   4.818   1.980 -0.3270  0.0723 -2.6992
   65TIP3   OH2  200   5.758   3.348   2.347 -0.6818 -0.3155 -0.0403
   65TIP3    H1  201   5.755   3.443   2.334  0.3395 -0.5932 -3.1123
   65TIP3    H2  202   5.817   3.335   2.421 -0.8372  1.4098  0.4203
   66TIP3   OH2  203   0.785   2.809   3.809  0.2792 -0.8304  0.3192
   66TIP3    H1  204   0.699   2.843   3.830 -0.9822 -3.2339 -0.5102
   66TIP3    H2  205   0.841   2.837   3.881 -0.8846  1.7293  0.3254
   67TIP3   OH2  206   5.801   2.662   0.423  0.1069  0.0334  0.5791
   67TIP3    H1  207   5.778   2.596   0.358 -1.5144  0.9070  0.1940
   67TIP3    H2  208   5.862   2.618   0.482  1.0968 -0.9866 -1.1294
   68TIP3   OH2  209   3.448   3.662   4.237  0.0206 -0.3350 -0.3508
   68TIP3    H1  210   3.369   3.700   4.200 -0.0162 -0.4456 -0.3860
   68TIP3    H2  211   3.511   3.734   4.237 -0.2324 -0.1067  0.1480
   69TIP3   OH2  212   4.460   1.010   4.528 -0.6043 -0.3243 -0.2577
   69TIP3    H1  213   4.407   0.933   4.546 -2.8151  1.3249  0.7116
   69TIP3    H2  214   4.424   1.078   4.585  1.4225  1.3889 -0.8759
   70TIP3   OH2  215   0.032   2.444   4.262  0.3840 -0.1776  0.2373
   70TIP3    H1  216  -0.010   2.372   4.310  1.3059 -0.5251  0.5395
   70TIP3    H2  217   0.023   2.419   4.170  0.0036 -0.2837  0.2982
   71TIP3   OH2  218   5.351   3.254   0.189  0.1119  0.0118  0.3843
   71TIP3    H1  219   5.354   3.258   0.094 -0.2922 -0.1724  0.3601
   71TIP3    H2  220   5.261   3.281   0.211  0.6273  1.5012  0.7901
   72TIP3   OH2  221   3.030   4.701   2.548 -0.3302  0.2777 -0.0107
   72TIP3    H1  222   3.109   4.736   2.506 -1.5632  1.6421 -1.3095
   72TIP3    H2  223   3.039   4.606   2.537  0.7054  0.4503 -0.9678
   73TIP3   OH2  224   0.269   4.736   3.814  0.1426  0.6371 -0.2046
   73TIP3    H1  225   0.190   4.742   3.760 -0.1836  3.1342  0.4601
   73TIP3    H2  226   0.282   4.824   3.848  1.1234 -0.5167  2.7117
   74TIP3   OH2  227   4.240   3.168   2.272 -1.2580 -0.1071  0.7131
   74TIP3    H1  228   4.284   3.086   2.252  1.8017  1.3034  1.0178
   74TIP3    H2  229   4.192   3.189   2.192  0.4489 -0.7369 -0.5614
   75TIP3   OH2  230   1.258   4.734   3.944 -0.5808  0.2490  0.2156
   75TIP3    H1  231   1.194   4.694   4.004  0.6150 -0.8887  0.7629
   75TIP3    H2  232   1.248   4.685   3.862 -2.4696  2.0370 -0.7285
   76TIP3   OH2  233   3.031   5.933   4.796 -0.5132 -0.1780 -0.2110
   76TIP3    H1  234   3.107   5.928   4.854  0.1243 -1.8773 -1.1256
   76TIP3    H2  235   2.968   5.871   4.834  0.7558 -3.0294 -2.3899
   77TIP3   OH2  236   0.300   0.494   1.893 -0.3634  0.0178 -0.3949
   77TIP3    H1  237   0.240   0.422   1.871 -1.7677  0.7518  0.8967
   77TIP3    H2  238   0.248   0.573   1.885  0.1984  0.6318  1.4493
   78TIP3   OH2  239   4.455   5.440   5.064  0.5382 -0.6200  0.6892
   78TIP3    H1  240   4.469   5.367   5.003  0.3244  0.5329 -0.7902
   78TIP3    H2  241   4.360   5.449   5.070  0.5272 -1.2595  1.9039
   79TIP3   OH2  242   5.981   5.544   2.755 -0.1232 -0.2965 -0.4803
   79TIP3    H1  243   5.896   5.521   2.793 -0.3454 -1.9414 -1.8745
   79TIP3    H2  244   5.959   5.594   2.676  0.2417  0.2867 -0.2134
   80TIP3   OH2  245   6.100   5.664   2.155 -0.2250  0.0218  0.1218
   80TIP3    H1  246   6.148   5.598   2.205  1.7646  1.5808  0.3929
   80TIP3    H2  247   6.052   5.714   2.221 -2.0791 -1.3482 -0.1220
   81TIP3   OH2  248   4.173   4.856   2.678  0.4523  0.5203 -0.2012
   81TIP3    H1  249   4.120   4.796   2.730 -0.9489  1.8354 -0.0611
   81TIP3    H2  250   4.201   4.923   2.740 -0.6272  1.7064 -0.9625
   82TIP3   OH2  251   0.514   2.949   4.790 -0.2402 -0.3054 -0.0610
   82TIP3    H1  252   0.494   2.968   4.699  1.4323  1.7800 -0.0596
   82TIP3    H2  253   0.609   2.937   4.792 -0.4660 -2.5457  1.0870
   83TIP3   OH2  254   3.494   3.492   1.296  0.3794  0.1091  0.4501
   83TIP3    H1  255   3.553   3.543   1.353  0.0259  0.3149  0.6340
   83TIP3    H2  256   3.531   3.404   1.298  0.1374  0.0120  1.3425
   84TIP3   OH2  257   3.750   3.281   0.439 -0.0464 -0.4301 -0.2829
   84TIP3    H1  258   3.837   3.321   0.436  1.2237 -2.8249  1.0226
   84TIP3    H2  259   3.732   3.257   0.348 -1.3151  3.6539 -1.3226
   85TIP3   OH2  260   3.815   2.215   2.891  0.1251  0.1108 -0.3930
   85TIP3    H1  261   3.784   2.180   2.807  0.3004 -0.3826 -0.2570
   85TIP3    H2  262   3.910   2.202   2.889 -0.1226 -3.2754  1.3243
   86TIP3   OH2  263   5.217   4.914   4.698 -0.0082 -0.1393  0.2520
   86TIP3    H1  264   5.265   4.942   4.620 -0.9267 -0.4314 -0.4392
   86TIP3    H2  265   5.132   4.956   4.690 -0.9624 -2.0139 -0.1491
   87TIP3   OH2  266   0.736   2.919   3.461 -0.0653  0.2065 -0.1696
   87TIP3    H1  267   0.799   2.863   3.415 -0.0148  0.3908 -0.3236
   87TIP3    H2  268   0.683   2.858   3.512 -0.5367 -0.0640 -0.9672
   88TIP3   OH2  269   2.651   5.245   4.343  0.3255 -0.5343  0.4202
   88TIP3    H1  270   2.662   5.333   4.307  2.1919 -0.5341  0.8967
   88TIP3    H2  271   2.589   5.257   4.416  2.2550  0.8604  1.9381
   89TIP3   OH2  272   0.576   4.400   4.265  0.1279 -0.2959 -0.3528
   89TIP3    H1  273   0.528   4.426   4.186 -0.9255  0.3894  0.4957
   89TIP3    H2  274   0.614   4.315   4.242 -1.1598 -0.6777 -1.1836
   90TIP3   OH2  275   3.411   1.196   2.589 -0.3903 -0.1336  0.0484
   90TIP3    H1  276   3.423   1.244   2.507 -1.5021  0.3183  0.1341
   90TIP3    H2  277   3.461   1.115   2.577  1.9600  1.1961  0.0920
   91TIP3   OH2  278   5.881   0.813   1.125  0.1344 -0.2010 -0.2803
   91TIP3    H1  279   5.823   0.757   1.073 -0.5924  0.1916  0.0990
   91TIP3    H2  280   5.921   0.871   1.061 -1.3078  0.7664 -0.3371
   92TIP3   OH2  281   2.279   4.713   3.988  0.8642  0.2905  0.1815
   92TIP3    H1  282   2.270   4.782   4.053  1.6745  0.6859 -0.1173
   92TIP3    H2  283   2.306   4.636   4.039 -0.0394  0.1780  0.5130
   93TIP3   OH2  284   4.669   5.869   1.157 -0.3122  0.9240 -0.5285
   93TIP3    H1  285   4.672   5.941   1.220  0.3782  0.5001 -0.0595
   93TIP3    H2  286   4.673   5.790   1.211  0.3492  0.5536 -1.1021
   94TIP3   OH2  287   4.293   0.812   3.435 -0.8321 -0.5810  0.2916
   94TIP3    H1  288   4.388   0.795   3.435 -0.3434  1.6584 -1.9064
   94TIP3    H2  289   4.283   0.892   3.486 -1.4192 -0.3519 -0.1699
   95TIP3   OH2  290   2.074   0.126   2.478 -0.5290 -0.0986 -0.4646
   95TIP3    H1  291   2.133   0.130   2.403 -0.6349 -1.8820 -0.6764
   95TIP3    H2  292   1.986   0.125   2.440 -0.5919 -0.6746 -0.3159
   96TIP3   OH2  293   0.530   4.822   3.571 -0.2793 -0.2929  0.8749
   96TIP3    H1  294   0.534   4.864   3.657 -0.6582  2.5374 -0.3734
   96TIP3    H2  295   0.437   4.824   3.548  0.0234  0.6482 -0.3252
   97TIP3   OH2  296   2.844   3.971   0.134 -0.2650  0.2552 -0.0160
   97TIP3    H1  297   2.858   3.891   0.082  0.3653  0.1289  0.3373
   97TIP3    H2  298   2.789   4.026   0.078  1.6600  0.7633 -1.4869
   98TIP3   OH2  299   2.796   3.292   1.920 -0.4694 -0.3307  0.2113
   98TIP3    H1  300   2.788   3.254   1.832 -0.8457 -1.3646  0.6790
   98TIP3    H2  301   2.888   3.317   1.927  0.0714 -2.2044  0.2993
   99TIP3   OH2  302   3.016   0.105   3.885  0.0960  0.4283 -0.0494
   99TIP3    H1  303   2.959   0.179   3.904  0.2990  0.0395  2.4753
   99TIP3    H2  304   3.044   0.118   3.794 -2.6339  1.5154 -0.8300
  100TIP3   OH2  305   6.343   1.840   5.088  0.0695  0.2322  0.1283
  100TIP3    H1  306   6.293   1.767   5.126  0.3290 -0.4240 -0.7580
  100TIP3    H2  307   6.283   1.880   5.025  0.4070 -0.1144 -0.4217
  101TIP3   OH2  308   0.195   4.910   0.959  0.3734  0.0361  0.0957
  101TIP3    H1  309   0.229   4.956   0.882 -0.9486  0.9584  0.0421
  101TIP3    H2  310   0.119   4.862   0.927 -0.2248  0.4777  0.8416
  102TIP3   OH2  311   0.296   3.847   3.164  0.0552 -0.0599  0.6125
  102TIP3    H1  312   0.346   3.810   3.092  0.5587  1.7367 -0.0215
  102TIP3    H2  313   0.277   3.773   3.221  0.1002 -1.4279 -1.0838
  103TIP3   OH2  314   2.067   2.801   2.108  0.3351  0.0078  0.3538
  103TIP3    H1  315   2.077   2.819   2.014  0.1252  1.2524  0.5540
  103TIP3    H2  316   2.140   2.741   2.128  0.2770 -0.4235 -0.6264
  104TIP3   OH2  317   5.244   2.616   3.253  0.1078  0.1233  0.3920
  104TIP3    H1  318   5.296   2.695   3.244 -1.0346  0.6555 -2.4465
  104TIP3    H2  319   5.194   2.629   3.334  0.5484  1.8976  0.4129
  105TIP3   OH2  320   0.487   0.694   1.946  0.1069 -0.2315 -0.5322
  105TIP3    H1  321   0.554   0.695   2.014 -0.8698  1.4907  0.4617
  105TIP3    H2  322   0.437   0.614   1.962 -1.0279  0.8373  1.7864
  106TIP3   OH2  323   4.922   4.741   1.521 -0.4515 -0.4232  0.0132
  106TIP3    H1  324   4.888   4.829   1.508 -0.6020 -0.5517 -0.5033
  106TIP3    H2  325   4.989   4.731   1.453 -1.3054 -1.1476 -0.7474
  107TIP3   OH2  326   6.025   4.395   0.427  0.0166 -0.6916 -0.3209
  107TIP3    H1  327   6.101   4.440   0.389 -0.4004 -0.4173 -0.8497
  107TIP3    H2  328   6.060   4.312   0.458  0.4547 -0.7617 -0.9667
  108TIP3   OH2  329   5.429   0.051   2.702  0.0065 -0.2589 -0.2728
  108TIP3    H1  330   5.357   0.087   2.754 -0.5179 -2.2635  0.5097
  108TIP3    H2  331   5.417   0.089   2.615 -0.7906  1.0024  0.3594
  109TIP3   OH2  332   5.814   0.864   3.640 -0.3010 -0.4289 -0.4612
  109TIP3    H1  333   5.891   0.820   3.677  0.4788 -0.0371 -1.5408
  109TIP3    H2  334   5.821   0.848   3.545 -0.6391  0.9838 -0.7504
  110TIP3   OH2  335   5.521   5.058   2.617  0.2455  0.2581 -0.2729
  110TIP3    H1  336   5.481   5.077   2.532 -0.4025  1.5066  0.2767
  110TIP3    H2  337   5.471   5.112   2.679  1.1590 -0.0921  0.8001
  111TIP3   OH2  338   4.485   0.757   0.919 -0.2118  0.2150  0.2146
  111TIP3    H1  339   4.530   0.681   0.956  0.9679  0.9634  0.3749
  111TIP3    H2  340   4.441   0.724   0.841 -1.5457 -1.0841  1.4658
  112TIP3   OH2  341   4.125   3.570   4.310  0.1393  0.3737  0.0918
  112TIP3    H1  342   4.067   3.579   4.386 -0.7339  1.3289 -0.6537
  112TIP3    H2  343   4.203   3.621   4.333  0.0607  0.3018  0.5227
  113TIP3   OH2  344   4.999   3.446   4.668  0.0788 -0.4334  0.1434
  113TIP3    H1  345   4.922   3.406   4.629 -1.7281  1.9746  1.0469
  113TIP3    H2  346   4.995   3.422   4.761  0.1413  0.0877  0.2861
  114TIP3   OH2  347   5.783   4.934   5.078  0.7018 -0.4075  0.4171
  114TIP3    H1  348   5.874   4.942   5.051  0.1634 -0.3155 -1.5334
  114TIP3    H2  349   5.767   5.012   5.132  1.3594  0.4047 -0.5364
  115TIP3   OH2  350   3.471   3.206   3.976  0.3197  0.1455  0.0025
  115TIP3    H1  351   3.507   3.295   3.987  0.3455  0.0772  0.4618
  115TIP3    H2  352   3.528   3.166   3.910  1.0862  0.0465  0.7033
  116TIP3   OH2  353   1.127   4.228   1.293  0.0532  0.0423 -0.2914
  116TIP3    H1  354   1.172   4.149   1.263  0.2600 -0.1445  0.4726
  116TIP3    H2  355   1.035   4.213   1.274 -0.5500 -2.1875  3.4210
  117TIP3   OH2  356   1.026   2.612   1.020 -0.1611 -0.0847  0.0878
  117TIP3    H1  357   1.076   2.559   1.082 -0.7920 -0.7522  0.0437
  117TIP3    H2  358   0.963   2.659   1.074  1.4793  1.9820  0.3421
  118TIP3   OH2  359   4.593   0.895   0.560 -0.1600 -0.0377 -0.3146
  118TIP3    H1  360   4.566   0.809   0.591 -0.7824 -0.5385 -2.1263
  118TIP3    H2  361   4.580   0.953   0.635 -0.0855 -1.4434  0.8158
  119TIP3   OH2  362   6.056   5.419   4.861  0.0346  0.0571  0.1529
  119TIP3    H1  363   6.054   5.479   4.936 -0.6414  1.8585 -1.2517
  119TIP3    H2  364   6.062   5.476   4.785 -1.1748 -1.6546 -1.2853
  120TIP3   OH2  365   5.563   2.084   2.776 -0.0478  0.1977 -0.2236
  120TIP3    H1  366   5.481   2.074   2.726 -0.5080 -0.2905  0.6074
  120TIP3    H2  367   5.534   2.104   2.865  0.7776  1.7125 -0.2799
  121TIP3   OH2  368   5.093   5.930   1.192 -0.0654  0.1240  0.1688
  121TIP3    H1  369   5.061   5.963   1.108 -0.8266 -0.5274  0.1977
  121TIP3    H2  370   5.130   5.844   1.172 -1.6312 -0.7102  0.7419
  122TIP3   OH2  371   3.269   0.944   3.094  0.3720  0.1440 -0.9112
  122TIP3    H1  372   3.284   0.922   3.186  0.7751  2.3534 -0.3902
  122TIP3    H2  373   3.338   0.897   3.046 -0.1873 -1.4742 -0.1707
  123TIP3   OH2  374   1.733   0.611   3.174  0.2899  0.1746  0.0119
  123TIP3    H1  375   1.732   0.571   3.262 -0.0243 -1.1018 -0.5506
  123TIP3    H2  376   1.641   0.622   3.152  0.3683  0.3279 -0.2301
  124TIP3   OH2  377   2.346   2.709   2.119  0.2202  0.1909  0.2765
  124TIP3    H1  378   2.333   2.625   2.074  1.0661 -0.7995  1.7853
  124TIP3    H2  379   2.408   2.689   2.189  1.0502  2.2585  0.2042
  125TIP3   OH2  380   5.613   0.588   1.772  0.3654 -0.2111  0.1149
  125TIP3    H1  381   5.667   0.617   1.846 -0.2264 -2.2515  1.4534
  125TIP3    H2  382   5.529   0.631   1.785  0.9646  1.3038 -0.7730
  126TIP3   OH2  383   6.282   0.620   2.308 -0.3353 -0.2446 -0.4942
  126TIP3    H1  384   6.235   0.551   2.353 -0.9421  0.7201  0.4036
  126TIP3    H2  385   6.214   0.668   2.259  0.2970 -1.2437 -2.4590
  127TIP3   OH2  386   6.031   4.150   1.012  0.5658  0.1269  0.2568
  127TIP3    H1  387   6.095   4.183   0.949 -2.4523  1.3554 -2.4165
  127TIP3    H2  388   6.006   4.064   0.979  0.6907 -0.2879  1.2031
  128TIP3   OH2  389   5.881   4.661   4.494 -0.0335 -0.0402  0.5899
  128TIP3    H1  390   5.926   4.744   4.504 -0.1705  0.1207 -0.0625
  128TIP3    H2  391   5.796   4.684   4.455  0.2711 -0.5552 -0.4206
  129TIP3   OH2  392   6.104   3.153   3.025  0.3046 -0.1243  0.4825
  129TIP3    H1  393   6.022   3.177   3.067 -1.5312 -0.7650 -2.4839
  129TIP3    H2  394   6.108   3.058   3.033  1.3353 -0.0181  1.5061
  130TIP3   OH2  395   2.939   1.717   4.165 -0.4976 -0.2430  0.1028
  130TIP3    H1  396   2.934   1.703   4.071 -1.8759 -0.4064  0.1793
  130TIP3    H2  397   3.024   1.681   4.191  0.0559  0.1455 -1.1236
  131TIP3   OH2  398   4.428   3.713   4.642  0.0553  0.4769  0.5230
  131TIP3    H1  399   4.443   3.650   4.713  1.0043 -0.5327 -0.5298
  131TIP3    H2  400   4.351   3.762   4.669 -0.2964 -0.6811  1.7114
  132TIP3   OH2  401   5.053   4.941   3.074  0.4291  0.7154 -0.6871
  132TIP3    H1  402   5.098   4.860   3.049  0.0388 -0.1841  1.2942
  132TIP3    H2  403   5.081   4.957   3.164 -0.1929  2.3094 -0.7447
  133TIP3   OH2  404   3.795   3.809   4.717  0.2462  0.0583 -0.1364
  133TIP3    H1  405   3.850   3.851   4.784  2.2195 -1.9529 -0.3920
  133TIP3    H2  406   3.830   3.840   4.634  0.6860 -0.8339 -0.2932
  134TIP3   OH2  407   2.492   4.382   0.682  0.9581 -0.1576 -0.3712
  134TIP3    H1  408   2.398   4.364   0.686  0.8975  0.3678  0.8893
  134TIP3    H2  409   2.532   4.310   0.730  1.1598 -0.0708 -0.4087
  135TIP3   OH2  410   5.432   0.275   3.452  0.4456  0.2761  0.3420
  135TIP3    H1  411   5.484   0.215   3.398 -0.7841 -1.7622  1.2887
  135TIP3    H2  412   5.355   0.294   3.398 -0.1808 -0.7480  0.8498
  136TIP3   OH2  413   1.039   1.738   0.290 -0.4396 -0.0232 -0.0229
  136TIP3    H1  414   1.004   1.718   0.376  0.2315 -0.3899  0.1745
  136TIP3    H2  415   0.964   1.728   0.231 -0.6257 -1.0421  0.3527
  137TIP3   OH2  416   5.183   4.646   1.694 -0.0111  0.1771  0.1025
  137TIP3    H1  417   5.164   4.723   1.747 -1.4025 -0.3374  0.3688
  137TIP3    H2  418   5.271   4.620   1.721  0.3220  1.4290  0.2894
  138TIP3   OH2  419   5.388   4.577   3.646  0.4730  0.5324 -0.1445
  138TIP3    H1  420   5.387   4.673   3.647  0.4874  0.5660 -1.6675
  138TIP3    H2  421   5.305   4.553   3.688  0.6601  1.1970  0.6306
  139TIP3   OH2  422   0.016   0.815   3.383 -0.2461 -0.4573  0.3693
  139TIP3    H1  423  -0.001   0.813   3.289  1.0624 -0.0250  0.0963
  139TIP3    H2  424   0.014   0.908   3.405 -1.1625 -0.5961  0.9042
  140TIP3   OH2  425   1.118   4.838   4.500 -0.3435 -0.4826 -0.2257
  140TIP3    H1  426   1.124   4.752   4.542 -0.0277 -0.7178 -0.7399
  140TIP3    H2  427   1.024   4.856   4.494 -0.3904 -0.2581  0.9390
  141TIP3   OH2  428   5.550   5.800   1.281 -0.0857 -0.4642 -0.2871
  141TIP3    H1  429   5.544   5.709   1.312  1.0113 -0.3796  0.2427
  141TIP3    H2  430   5.574   5.850   1.359 -0.8027  0.3034 -0.5569
  142TIP3   OH2  431   1.178   4.269   3.715  0.2652 -0.5416 -0.1684
  142TIP3    H1  432   1.180   4.234   3.804 -0.0736  0.8696  0.4166
  142TIP3    H2  433   1.261   4.317   3.706  0.0780 -0.2634 -0.4373
  143TIP3   OH2  434   5.914   3.507   3.029  0.8118 -0.7596 -0.5402
  143TIP3    H1  435   5.835   3.511   2.975  1.3600 -1.4130 -1.4291
  143TIP3    H2  436   5.982   3.475   2.969  1.3239 -2.0769  0.6884
  144TIP3   OH2  437   2.865   4.436   5.164 -0.3620  0.1383  0.4174
  144TIP3    H1  438   2.794   4.472   5.110  0.5509  1.1267 -0.1644
  144TIP3    H2  439   2.851   4.473   5.251 -1.1736 -0.5350  0.5819
  145TIP3   OH2  440   5.886   1.013   2.287 -0.6726 -0.2082 -0.6422
  145TIP3    H1  441   5.846   1.014   2.375  0.2844 -0.2648 -0.1982
  145TIP3    H2  442   5.824   0.963   2.234  0.2405 -3.0438  0.7568
  146TIP3   OH2  443   3.311   1.692   1.852 -0.3166 -0.5388  0.2816
  146TIP3    H1  444   3.237   1.743   1.817 -0.2888  0.2964  1.3626
  146TIP3    H2  445   3.373   1.687   1.780 -0.0882  1.4725  0.2724
  147TIP3   OH2  446   3.378   2.795   4.798 -0.0279 -0.3201  0.1381
  147TIP3    H1  447   3.404   2.831   4.713  0.3068  0.1259  0.4309
  147TIP3    H2  448   3.361   2.702   4.780 -0.8466 -0.0360 -0.6048
  148TIP3   OH2  449   4.501   2.559   4.874  0.4440  0.2101  0.1132
  148TIP3    H1  450   4.424   2.585   4.924  0.3430  0.1298  0.0016
  148TIP3    H2  451   4.568   2.623   4.897  0.8185 -0.6091  1.4006
  149TIP3   OH2  452   1.131   4.219   3.420 -0.4509 -0.6369 -0.2435
  149TIP3    H1  453   1.128   4.242   3.513  1.5378  0.6536 -0.4502
  149TIP3    H2  454   1.224   4.216   3.399 -0.8553 -1.1403 -2.1611
  150TIP3   OH2  455   1.542   0.260   2.189 -0.2738  0.0590 -0.0924
  150TIP3    H1  456   1.577   0.343   2.222 -0.2528 -0.4463  1.2292
  150TIP3    H2  457   1.602   0.236   2.118  2.2728 -0.8572  2.1804
  151TIP3   OH2  458   6.216   4.457   4.840  0.3170  0.0801 -0.0810
  151TIP3    H1  459   6.281   4.520   4.870  1.0004  0.3524 -2.0126
  151TIP3    H2  460   6.192   4.487   4.752 -0.0496 -1.8065 -0.6698
  152TIP3   OH2  461   1.405   3.143   0.605 -0.1370  0.2966  0.4550
  152TIP3    H1  462   1.403   3.068   0.546  0.8318  0.5760  0.0429
  152TIP3    H2  463   1.350   3.117   0.679  3.4192 -2.6150  2.4298
  153TIP3   OH2  464   5.327   2.008   1.596 -0.1153  0.0469  0.1412
  153TIP3    H1  465   5.338   2.103   1.607 -0.3585  0.0681  0.2173
  153TIP3    H2  466   5.349   1.992   1.504  0.4762  0.0933  0.2717
  154TIP3   OH2  467   6.189   0.213   0.216  0.1513  0.1401 -0.7524
  154TIP3    H1  468   6.133   0.136   0.207 -0.2411  0.4969 -1.4694
  154TIP3    H2  469   6.269   0.180   0.258 -0.2418 -0.5426 -0.5335
  155TIP3   OH2  470   5.456   1.927   4.448  0.1731  0.3427  0.1714
  155TIP3    H1  471   5.441   1.855   4.386  0.3652  1.2243 -0.9458
  155TIP3    H2  472   5.401   1.906   4.523 -0.8524 -0.2595 -0.7128
  156TIP3   OH2  473   5.251   4.956   2.788 -0.2299  0.2617 -0.0544
  156TIP3    H1  474   5.316   4.930   2.723 -0.7139  1.0396 -0.8697
  156TIP3    H2  475   5.185   4.887   2.785  1.2991 -1.4099  1.9453
  157TIP3   OH2  476   5.241   0.138   1.592  0.1751  0.0301  0.8836
  157TIP3    H1  477   5.336   0.124   1.600  0.5829  2.4537  1.0051
  157TIP3    H2  478   5.223   0.213   1.649 -1.4256  0.9986 -0.7874
  158TIP3   OH2  479   4.452   5.510   0.397  0.0507 -0.1700 -0.2893
  158TIP3    H1  480   4.376   5.467   0.358  0.5757 -1.8291  0.4004
  158TIP3    H2  481   4.436   5.604   0.385 -2.7028 -0.3754  0.8940
  159TIP3   OH2  482   0.430   5.916   1.182 -0.1070  0.4400  1.1068
  159TIP3    H1  483   0.492   5.887   1.248 -1.2306  0.3922  2.1719
  159TIP3    H2  484   0.461   6.003   1.156  1.7696 -0.5315 -0.1904
  160TIP3   OH2  485   2.321   1.313   2.685  0.7243  0.2230  0.3587
  160TIP3    H1  486   2.228   1.289   2.683  0.4074  1.4380 -1.2260
  160TIP3    H2  487   2.357   1.260   2.756 -1.0747 -0.6264  0.7121
  161TIP3   OH2  488   6.233   1.158   4.590 -0.2156 -0.4123  0.3380
  161TIP3    H1  489   6.273   1.241   4.616 -0.0072  0.2531 -1.9185
  161TIP3    H2  490   6.288   1.125   4.519 -1.4412 -1.4712 -0.1692
  162TIP3   OH2  491   2.982   4.463   0.670 -0.4245 -0.4053 -0.0470
  162TIP3    H1  492   2.889   4.488   0.674  0.1014  1.5824  1.3442
  162TIP3    H2  493   2.981   4.376   0.629 -3.0393 -1.2308  1.4618
  163TIP3   OH2  494   4.935   1.757   0.188  0.0175 -0.2332 -0.3339
  163TIP3    H1  495   5.014   1.801   0.216  0.7437 -1.9517  0.4791
  163TIP3    H2  496   4.961   1.709   0.109 -0.2056 -0.7372 -0.1119
  164TIP3   OH2  497   4.645   4.352   0.132 -0.4449 -0.1738 -0.6678
  164TIP3    H1  498   4.715   4.304   0.088  0.8860  0.8191  0.2625
  164TIP3    H2  499   4.624   4.299   0.209 -0.2968 -0.1965 -0.6426
  165TIP3   OH2  500   4.349   1.477   0.270 -0.1238  0.0150 -0.0872
  165TIP3    H1  501   4.427   1.443   0.226 -0.2402  0.0819 -0.3404
  165TIP3    H2  502   4.276   1.432   0.229 -0.1176 -1.3945  1.3597
  166TIP3   OH2  503   6.108   5.240   3.077 -0.2255 -0.4255  0.1485
  166TIP3    H1  504   6.082   5.249   2.986 -0.2438 -0.1132  0.1826
  166TIP3    H2  505   6.078   5.153   3.103 -3.2114  0.6909  0.8316
  167TIP3   OH2  506   2.928   2.335   3.839  0.1318 -0.1235 -0.1457
  167TIP3    H1  507   3.010   2.321   3.885  1.0906  1.7405 -1.1303
  167TIP3    H2  508   2.908   2.251   3.799  0.2614 -1.2553  2.0402
  168TIP3   OH2  509   5.049   3.114   4.608 -0.0617  0.3692  0.1243
  168TIP3    H1  510   5.002   3.032   4.589  1.9570 -0.3122 -2.3521
  168TIP3    H2  511   5.032   3.170   4.533  2.6048  0.2773 -0.6373
  169TIP3   OH2  512   5.631   2.837   2.817 -0.4124  0.5049  0.0465
  169TIP3    H1  513   5.631   2.741   2.819 -0.9017  0.4717 -1.0151
  169TIP3    H2  514   5.602   2.862   2.905  1.6234 -0.2629  1.0062
  170TIP3   OH2  515   4.586   4.990   0.097  0.2061 -0.4470 -0.1577
  170TIP3    H1  516   4.594   4.898   0.123  0.5902 -0.0074  1.3251
  170TIP3    H2  517   4.559   5.035   0.176 -1.0172  0.5834 -1.1273
  171TIP3   OH2  518   5.632   4.679   0.640  0.3355 -0.1427 -0.6056
  171TIP3    H1  519   5.701   4.745   0.654 -1.4450  1.8312 -0.6576
  171TIP3    H2  520   5.568   4.723   0.585 -0.8014 -2.0678 -0.8993
  172TIP3   OH2  521   1.302   1.378   4.692  0.0538 -0.0609 -0.0278
  172TIP3    H1  522   1.369   1.439   4.722  2.1154 -2.5892  0.9400
  172TIP3    H2  523   1.223   1.403   4.740  0.7329  1.9456  0.1188
  173TIP3   OH2  524   4.394   2.330   1.599 -0.3521 -0.1596  0.6475
  173TIP3    H1  525   4.421   2.379   1.521 -2.4124 -1.7131 -1.1658
  173TIP3    H2  526   4.403   2.393   1.671  3.0555  0.9128 -0.5033
  174TIP3   OH2  527   2.166   2.842   2.584  0.1599 -0.1064 -0.5334
  174TIP3    H1  528   2.177   2.821   2.677  1.9733  0.3803 -0.6064
  174TIP3    H2  529   2.194   2.764   2.538  2.0106  0.6162 -0.6988
  175TIP3   OH2  530   0.958   1.826   1.554  0.2918 -0.3289  0.4334
  175TIP3    H1  531   1.025   1.775   1.600  1.0181  0.5267  0.3456
  175TIP3    H2  532   0.930   1.770   1.482  1.2767 -0.5144  0.1770
  176TIP3   OH2  533   2.433   3.939   3.025  0.0754 -0.2901  0.0177
  176TIP3    H1  534   2.458   3.847   3.012  0.4138 -0.3975  1.2741
  176TIP3    H2  535   2.498   3.973   3.087 -1.1821  0.2345  1.1101
  177TIP3   OH2  536   3.881   4.580   4.213 -0.3065 -0.2123 -0.2520
  177TIP3    H1  537   3.941   4.505   4.208 -1.7433 -1.3755 -0.6573
  177TIP3    H2  538   3.844   4.586   4.125 -0.9082  0.3971  0.0373
  178TIP3   OH2  539   4.824   1.309   0.668 -0.5232  0.3846 -0.5017
  178TIP3    H1  540   4.790   1.245   0.606  1.2205 -0.2736 -0.8358
  178TIP3    H2  541   4.803   1.273   0.754 -0.0714 -0.3647 -0.6944
  179TIP3   OH2  542   2.782   2.607   5.153  0.8589  0.0939 -0.1221
  179TIP3    H1  543   2.701   2.637   5.112  0.9282 -1.2246 -1.3010
  179TIP3    H2  544   2.758   2.589   5.244  0.3422  1.6842  0.0717
  180TIP3   OH2  545   2.739   4.116   0.794 -0.0289 -0.1845 -0.6504
  180TIP3    H1  546   2.731   4.158   0.708  2.0126  0.0034 -0.8025
  180TIP3    H2  547   2.821   4.150   0.830  1.0425 -2.9545 -0.1930
  181TIP3   OH2  548   4.839   2.667   2.244  0.0022  0.5136 -0.3039
  181TIP3    H1  549   4.916   2.657   2.299 -0.4131  0.2342  0.2359
  181TIP3    H2  550   4.846   2.597   2.179  0.1339  0.4013 -0.1694
  182TIP3   OH2  551   5.323   2.728   1.194 -0.3393 -0.6320  0.2235
  182TIP3    H1  552   5.314   2.803   1.253 -1.2724  0.8547 -1.6721
  182TIP3    H2  553   5.417   2.722   1.177 -0.2114 -0.1223  0.7156
  183TIP3   OH2  554   0.112   1.404   3.723  0.5873  0.4455 -0.4804
  183TIP3    H1  555   0.025   1.434   3.750  0.5649 -0.0705  0.0339
  183TIP3    H2  556   0.165   1.409   3.801  0.3750 -1.5919 -0.1435
  184TIP3   OH2  557   3.488   1.545   1.061 -0.0296  0.0136  0.1011
  184TIP3    H1  558   3.517   1.635   1.052 -0.0031 -0.1395 -1.6189
  184TIP3    H2  559   3.558   1.502   1.111  0.9331  0.5059 -0.7808
  185TIP3   OH2  560   1.799   1.140   2.847 -0.0906  0.1239  0.6556
  185TIP3    H1  561   1.801   1.137   2.943 -1.1545  1.2620  0.7327
  185TIP3    H2  562   1.754   1.221   2.826 -0.8946 -0.6575 -0.8080
  186TIP3   OH2  563   2.567   2.912   1.532 -0.1208 -0.2528 -0.5228
  186TIP3    H1  564   2.620   2.882   1.458 -0.9074 -2.0610 -0.3979
  186TIP3    H2  565   2.566   2.838   1.592  0.2984  1.1063  1.2259
  187TIP3   OH2  566   3.763   2.097   2.621  0.0569  0.2516 -0.3994
  187TIP3    H1  567   3.771   2.009   2.658 -0.1879  0.7393  0.8406
  187TIP3    H2  568   3.846   2.111   2.576  0.1630 -0.5364 -0.4754
  188TIP3   OH2  569   0.723   1.430   0.404  0.3164  0.0214  0.6388
  188TIP3    H1  570   0.643   1.400   0.361  0.0561  1.7352 -0.1536
  188TIP3    H2  571   0.697   1.448   0.494 -0.2495  0.7463  0.3375
  189TIP3   OH2  572   2.346   1.056   0.982  0.1810 -0.2797 -0.1420
  189TIP3    H1  573   2.320   0.964   0.983 -1.1276  0.0573 -0.4695
  189TIP3    H2  574   2.311   1.092   1.063 -2.2531  0.6228 -1.4787
  190TIP3   OH2  575   5.355   2.411   4.774  0.3090  0.6302  0.2541
  190TIP3    H1  576   5.345   2.438   4.683 -2.0178 -0.8745 -0.0304
  190TIP3    H2  577   5.345   2.316   4.772  2.7345  0.2621  1.8217
  191TIP3   OH2  578   0.063   2.920   0.689  0.1541  0.2255 -0.0007
  191TIP3    H1  579   0.096   2.903   0.601  0.2663  1.8856 -0.3134
  191TIP3    H2  580  -0.032   2.909   0.681  0.1359  0.6383 -0.4120
  192TIP3   OH2  581   3.574   2.010   1.688 -0.2437  0.1909 -0.3526
  192TIP3    H1  582   3.483   1.979   1.690  0.1667 -1.3796 -2.4500
  192TIP3    H2  583   3.620   1.951   1.748 -0.4837  0.5747  0.2151
  193TIP3   OH2  584   2.761   0.662   0.029 -0.2533 -0.4444  0.7557
  193TIP3    H1  585   2.833   0.726   0.026  0.4709 -1.2807 -0.1513
  193TIP3    H2  586   2.683   0.716   0.044  0.2000  0.7948 -0.9545
  194TIP3   OH2  587   4.862   2.195   1.951 -0.3937 -0.1775  0.2159
  194TIP3    H1  588   4.869   2.122   2.012 -0.9293  0.9497  1.6908
  194TIP3    H2  589   4.808   2.162   1.879 -0.5354 -1.2529  0.7960
  195TIP3   OH2  590   3.101   5.680   2.877 -0.6867 -0.5285  0.0534
  195TIP3    H1  591   3.173   5.706   2.820 -1.6705 -1.1489 -1.5667
  195TIP3    H2  592   3.117   5.587   2.895 -0.9189 -0.5915 -0.0625
  196TIP3   OH2  593   6.105   2.543   3.233 -0.2937 -0.5600 -0.1425
  196TIP3    H1  594   6.132   2.606   3.166  0.0335 -1.6704 -1.0782
  196TIP3    H2  595   6.017   2.515   3.206 -1.2658  0.8941  1.3260
  197TIP3   OH2  596   2.299   3.615   0.184 -0.0033  0.0846 -0.1513
  197TIP3    H1  597   2.234   3.643   0.248  1.2567 -0.3440  1.3732
  197TIP3    H2  598   2.249   3.599   0.104 -1.4024  2.2553  0.1956
  198TIP3   OH2  599   1.736   1.123  -0.017  0.3015 -0.9340  0.4345
  198TIP3    H1  600   1.701   1.140   0.070  3.3431  0.1892  1.5655
  198TIP3    H2  601   1.831   1.118  -0.005  0.7453 -2.3599 -2.5855
  199TIP3   OH2  602   4.907   5.372   4.747 -0.4206  0.5777  0.3442
  199TIP3    H1  603   4.953   5.329   4.819 -1.5152 -0.2700  0.5723
  199TIP3    H2  604   4.814   5.353   4.764 -0.7455  1.0120 -0.8783
  200TIP3   OH2  605   6.272   0.726   0.188  0.4406 -0.3755  0.0930
  200TIP3    H1  606   6.285   0.643   0.143  0.5636 -0.1078 -0.3682
  200TIP3    H2  607   6.184   0.755   0.163 -0.1008 -0.9555  1.2248
  201TIP3   OH2  608   4.707   5.220   0.915  0.4577  0.3230 -0.0964
  201TIP3    H1  609   4.691   5.274   0.838 -0.0290 -0.6701 -0.7278
  201TIP3    H2  610   4.774   5.158   0.887  0.1911 -0.1227  0.2296
  202TIP3   OH2  611   3.061   1.595   4.893 -0.5705 -0.8240 -0.0782
  202TIP3    H1  612   3.013   1.667   4.850  0.5574 -0.7128 -1.2158
  202TIP3    H2  613   3.062   1.619   4.986  0.3938  1.0410 -0.5033
  203TIP3   OH2  614   5.402   5.858   1.047  0.2596  0.4836 -0.1233
  203TIP3    H1  615   5.375   5.940   1.090  0.5962  0.7831 -0.4842
  203TIP3    H2  616   5.473   5.825   1.102 -1.5744 -0.9604  1.5731
  204TIP3   OH2  617   4.362   4.893   5.039 -0.3223 -0.0861 -0.3639
  204TIP3    H1  618   4.339   4.859   5.126  0.4356  1.0781  0.3290
  204TIP3    H2  619   4.457   4.883   5.034 -0.2008  1.0033 -0.5249
  205TIP3   OH2  620   2.383   0.259   2.190  0.0990 -0.6519 -0.2805
  205TIP3    H1  621   2.384   0.308   2.108 -0.5131  1.1369  0.7169
  205TIP3    H2  622   2.297   0.216   2.191  0.7425 -2.0337 -1.2825
  206TIP3   OH2  623   5.595   5.194   1.964  0.3857  0.4872 -0.2677
  206TIP3    H1  624   5.514   5.206   1.914 -0.0386  0.9670  0.5095
  206TIP3    H2  625   5.623   5.282   1.986 -0.1340  0.2897  1.4008
  207TIP3   OH2  626   0.005   1.255   5.161  0.3009  0.3220 -0.1324
  207TIP3    H1  627   0.091   1.285   5.193 -0.1091 -0.5812  1.9663
  207TIP3    H2  628  -0.000   1.290   5.072  3.3263 -0.5186 -0.7750
  208TIP3   OH2  629   4.884   1.461   3.280  0.1047  0.0663  0.2495
  208TIP3    H1  630   4.832   1.383   3.262  0.5697 -0.8885  2.6045
  208TIP3    H2  631   4.945   1.467   3.206 -0.5667 -1.2428 -0.4496
  209TIP3   OH2  632   2.582   3.167   4.685 -0.0336  0.3470  0.1407
  209TIP3    H1  633   2.487   3.168   4.697 -0.1654 -0.2048 -0.7619
  209TIP3    H2  634   2.604   3.074   4.674  0.6034  0.4784  0.2358
  210TIP3   OH2  635   5.425   0.886   4.696  0.2958 -0.5502 -0.0442
  210TIP3    H1  636   5.378   0.953   4.746  1.2686 -0.6741  1.0812
  210TIP3    H2  637   5.366   0.811   4.697  0.0237 -0.3415  0.3598
  211TIP3   OH2  638   2.179   2.526   1.495  0.3056  0.0589  0.2425
  211TIP3    H1  639   2.215   2.523   1.584 -1.4959 -0.9620  1.0020
  211TIP3    H2  640   2.225   2.457   1.448  0.1976 -0.4360  0.8454
  212TIP3   OH2  641   5.647   4.792   2.645 -0.0782  0.3060  0.0197
  212TIP3    H1  642   5.602   4.733   2.584 -2.4051  0.8780  1.0735
  212TIP3    H2  643   5.608   4.878   2.629 -1.3902  0.3442  2.7593
  213TIP3   OH2  644   4.061   2.719   5.158 -0.2070  0.5664  0.5327
  213TIP3    H1  645   4.043   2.625   5.153 -1.2940  0.7225  1.0702
  213TIP3    H2  646   3.984   2.760   5.120  0.9145  1.2374 -1.1108
  214TIP3   OH2  647   4.375   4.294   0.926  0.6636 -0.4300 -0.3395
  214TIP3    H1  648   4.416   4.333   1.003  0.6964 -0.9122 -0.1093
  214TIP3    H2  649   4.311   4.232   0.961  0.4135 -0.3803 -0.6985
  215TIP3   OH2  650   1.504   3.740   0.821 -0.0839 -0.0348  0.4912
  215TIP3    H1  651   1.508   3.786   0.738 -0.3983  0.0644  0.5272
  215TIP3    H2  652   1.589   3.697   0.829 -0.1625 -0.3006 -0.0290
  216TIP3   OH2  653   3.102   1.506   4.083  0.1706  0.1395  0.2362
  216TIP3    H1  654   3.196   1.522   4.073  0.2015  0.1552  0.5496
  216TIP3    H2  655   3.074   1.474   3.997  0.5133 -0.1136  0.2171
  217TIP3   OH2  656   1.522   3.207   3.527  0.0416  0.1244 -0.3264
  217TIP3    H1  657   1.487   3.118   3.517 -2.4647  0.9168  0.5761
  217TIP3    H2  658   1.497   3.252   3.446  0.1234  0.3777 -0.2112
  218TIP3   OH2  659   0.731   3.868   0.961 -0.8251  0.4492  0.5911
  218TIP3    H1  660   0.665   3.900   1.022 -0.6684  0.2794  0.8511
  218TIP3    H2  661   0.763   3.947   0.918 -1.1711  0.5352  0.4895
  219TIP3   OH2  662   3.895   3.068   4.265 -0.0283  0.4136 -0.6381
  219TIP3    H1  663   3.913   2.987   4.313  1.5107 -0.0411 -1.8998
  219TIP3    H2  664   3.897   3.042   4.173 -0.1824  1.7629 -1.0450
  220TIP3   OH2  665   0.645   5.331   0.256  0.0015 -0.2283  0.0177
  220TIP3    H1  666   0.636   5.408   0.312  0.0102 -1.0072  1.1263
  220TIP3    H2  667   0.709   5.276   0.300  1.1822 -0.1925 -1.5655
  221TIP3   OH2  668   2.508   0.661   2.008  0.4964 -0.2978 -0.1049
  221TIP3    H1  669   2.510   0.749   1.970  1.1575 -0.0438  0.4982
  221TIP3    H2  670   2.547   0.605   1.941 -0.6375 -0.2774 -0.8132
  222TIP3   OH2  671   1.264   0.398   4.266  0.1592  0.1972  0.1938
  222TIP3    H1  672   1.329   0.410   4.196  0.0505  3.4625  0.5015
  222TIP3    H2  673   1.273   0.306   4.291  3.1629 -0.0255 -1.2225
  223TIP3   OH2  674   0.830   0.726   4.442  0.3015 -0.0350 -0.0962
  223TIP3    H1  675   0.753   0.766   4.480  0.3096 -1.5381  1.6530
  223TIP3    H2  676   0.796   0.666   4.375 -0.0054 -0.1198  0.1351
  224TIP3   OH2  677   4.223   4.231   4.497 -1.4414  0.3020 -0.5937
  224TIP3    H1  678   4.244   4.232   4.403 -0.1288  1.7918 -0.3305
  224TIP3    H2  679   4.185   4.318   4.513 -1.4430  0.1404  0.2931
  225TIP3   OH2  680   0.216   1.208   4.447 -0.2102 -0.7674  0.1233
  225TIP3    H1  681   0.279   1.234   4.514 -0.4528  1.3413 -0.3889
  225TIP3    H2  682   0.269   1.197   4.367 -0.3433  0.1763 -0.1115
  226TIP3   OH2  683   4.562   0.582   3.129 -0.8079 -0.0157  0.1061
  226TIP3    H1  684   4.514   0.500   3.133 -2.8841  1.1195 -0.4702
  226TIP3    H2  685   4.498   0.647   3.100  1.1424  1.5402 -0.9695
  227TIP3   OH2  686   0.908   2.886   1.854 -0.9923 -0.0183  0.0687
  227TIP3    H1  687   0.828   2.837   1.876 -1.0137 -0.1908 -0.3636
  227TIP3    H2  688   0.880   2.978   1.854 -1.0805 -0.0436  0.3651
  228TIP3   OH2  689   1.618   5.764   3.312 -0.1400 -0.3386 -0.0415
  228TIP3    H1  690   1.621   5.683   3.363 -2.0600  0.3255  1.2535
  228TIP3    H2  691   1.703   5.769   3.270  0.3025 -2.6345  0.4429
  229TIP3   OH2  692   6.070   5.236   4.551  0.5322 -0.0391 -0.1457
  229TIP3    H1  693   6.163   5.254   4.544  0.6212 -0.7256 -0.7838
  229TIP3    H2  694   6.027   5.317   4.522  0.9240 -0.1386 -1.0195
  230TIP3   OH2  695   2.347   2.985   2.081  0.0378  0.0864  0.2226
  230TIP3    H1  696   2.385   3.005   1.996 -1.9566  0.2344 -0.7075
  230TIP3    H2  697   2.352   2.890   2.089 -0.4365  0.0006 -0.4269
  231TIP3   OH2  698   1.894   2.927   0.023 -0.3657  0.3100  0.2254
  231TIP3    H1  699   1.818   2.968   0.066 -0.6485  0.1767 -0.1392
  231TIP3    H2  700   1.863   2.908  -0.065  0.3317  0.9460 -0.1627
  232TIP3   OH2  701   1.114   1.380   2.105 -0.1717  0.5841  0.6300
  232TIP3    H1  702   1.138   1.352   2.017 -1.2967  1.1931  0.1133
  232TIP3    H2  703   1.062   1.308   2.139  2.6981 -1.0317  1.9945
  233TIP3   OH2  704   0.848   4.277   1.978 -0.1650  0.3819  0.3114
  233TIP3    H1  705   0.889   4.229   2.050  0.1215  0.8187  0.4417
  233TIP3    H2  706   0.754   4.269   1.994 -0.2421 -1.9577 -0.8316
  234TIP3   OH2  707   3.313   5.929   0.762  0.1937 -0.1067  1.0905
  234TIP3    H1  708   3.303   6.006   0.817 -0.0842  0.5730  0.1067
  234TIP3    H2  709   3.305   5.961   0.672 -0.2930 -1.3313  0.6673
  235TIP3   OH2  710   3.223   2.888   3.793  0.2140  0.0445 -0.9323
  235TIP3    H1  711   3.178   2.806   3.771 -0.4941 -0.2594  1.3197
  235TIP3    H2  712   3.285   2.862   3.862 -0.8471  1.5417  0.6676
  236TIP3   OH2  713   4.302   5.584   0.853 -0.2452  0.5989 -1.1243
  236TIP3    H1  714   4.330   5.648   0.918 -0.5626 -0.6187  0.2814
  236TIP3    H2  715   4.375   5.579   0.791  0.3798  1.2948 -0.4669
  237TIP3   OH2  716   4.310   0.389   3.891 -0.2757 -0.1258 -0.1044
  237TIP3    H1  717   4.379   0.331   3.924 -0.0471 -0.1590 -0.6400
  237TIP3    H2  718   4.298   0.453   3.961  0.7136  0.2321 -0.2538
  238TIP3   OH2  719   3.533   3.868   3.590  0.0703 -0.2602  0.3271
  238TIP3    H1  720   3.594   3.938   3.568 -0.1375 -0.1352  0.1438
  238TIP3    H2  721   3.588   3.799   3.627 -0.0447  1.2884  3.7736
  239TIP3   OH2  722   4.815   2.211   1.590 -0.0398  0.5533  0.0533
  239TIP3    H1  723   4.863   2.134   1.621  0.2819  0.8166  0.2186
  239TIP3    H2  724   4.741   2.175   1.542  0.9982  0.1213 -1.3023
  240TIP3   OH2  725   1.760   2.440   2.745 -0.1630  0.2219 -0.1315
  240TIP3    H1  726   1.812   2.519   2.728 -0.4259  0.1881 -1.1096
  240TIP3    H2  727   1.694   2.469   2.809 -0.5593  0.9225 -0.8428
  241TIP3   OH2  728   4.360   4.159   1.756 -0.2940 -0.3019 -0.3537
  241TIP3    H1  729   4.439   4.138   1.806  0.0790 -1.0923 -1.2366
  241TIP3    H2  730   4.366   4.253   1.740  0.1669 -0.2498  0.0825
  242TIP3   OH2  731   0.298   1.908   2.329 -0.0112  0.2466 -0.1775
  242TIP3    H1  732   0.378   1.857   2.342 -1.3684 -2.4057 -1.4417
  242TIP3    H2  733   0.253   1.903   2.414  0.3113  0.2114 -0.0045
  243TIP3   OH2  734   4.319   0.587   0.461 -0.2529 -0.0689  0.1697
  243TIP3    H1  735   4.414   0.586   0.449 -0.3667 -1.1374 -0.8019
  243TIP3    H2  736   4.306   0.562   0.552  0.3944  0.3694  0.3920
  244TIP3   OH2  737   5.594   3.178   1.446  0.0987  0.1449 -0.1729
  244TIP3    H1  738   5.585   3.089   1.480 -0.6315  0.2779 -0.0024
  244TIP3    H2  739   5.572   3.170   1.353  1.2554 -0.0685 -0.4325
  245TIP3   OH2  740   3.667   1.656   0.809 -0.4255  0.0676  0.3474
  245TIP3    H1  741   3.743   1.597   0.814 -0.3313  0.2857  2.7697
  245TIP3    H2  742   3.691   1.719   0.741 -0.0127 -1.9227 -1.4594
  246TIP3   OH2  743   2.248   3.290   3.079  0.2722  0.0933  0.1233
  246TIP3    H1  744   2.179   3.226   3.063 -1.2094  1.6072  0.1716
  246TIP3    H2  745   2.260   3.289   3.174  1.0908 -0.9259  0.0186
  247TIP3   OH2  746   4.325   3.581   1.153 -0.8695 -0.4040 -0.6962
  247TIP3    H1  747   4.241   3.610   1.117 -0.8154 -0.5540 -0.9488
  247TIP3    H2  748   4.382   3.576   1.077 -0.8967 -1.2394 -0.6612
  248TIP3   OH2  749   2.238   1.162   2.394  0.4489 -0.1149 -0.7093
  248TIP3    H1  750   2.271   1.106   2.464  1.3238  0.0905 -0.9499
  248TIP3    H2  751   2.143   1.149   2.396  0.5322 -0.6709  0.0296
  249TIP3   OH2  752   3.673   1.922   2.264  0.4835  0.0005 -0.3129
  249TIP3    H1  753   3.651   1.965   2.347 -1.3556  0.6734 -1.0984
  249TIP3    H2  754   3.694   1.832   2.289 -0.7921 -0.0156  0.8214
  250TIP3   OH2  755   3.393   2.647   2.006 -0.4178  0.5306  0.7726
  250TIP3    H1  756   3.420   2.739   2.006 -0.7169  0.6227  1.3444
  250TIP3    H2  757   3.466   2.601   1.966  0.7772  0.7377  2.5750
  251TIP3   OH2  758   5.140   0.962   1.614 -0.2697  0.2161 -0.4142
  251TIP3    H1  759   5.148   1.056   1.595 -0.2921  0.4754  0.7531
  251TIP3    H2  760   5.230   0.931   1.620 -0.2423  0.3900  0.1763
  252TIP3   OH2  761   1.105   4.969   1.149  0.3639  0.7735 -0.3365
  252TIP3    H1  762   1.035   4.904   1.144  0.5687  0.5777 -0.6372
  252TIP3    H2  763   1.152   4.947   1.229  3.1429 -2.2226 -2.5155
  253TIP3   OH2  764   4.442   0.091   3.577 -0.5003 -0.1224  0.5868
  253TIP3    H1  765   4.423   0.007   3.618 -0.2532 -0.1601  0.6249
  253TIP3    H2  766   4.525   0.118   3.614  1.2874 -1.5837 -2.0439
  254TIP3   OH2  767   5.488   1.099   1.762  0.1513 -0.2101  0.3866
  254TIP3    H1  768   5.421   1.048   1.717 -1.9570  0.1253  2.9293
  254TIP3    H2  769   5.472   1.084   1.855  2.4832  1.3405  1.1307
  255TIP3   OH2  770   3.002   3.081   5.036  0.6501 -0.1995  0.1316
  255TIP3    H1  771   3.061   3.026   4.985  0.2763 -0.6511  0.1803
  255TIP3    H2  772   3.049   3.096   5.118  1.0245  0.0844 -0.1332
  256TIP3   OH2  773   4.867   0.408   5.192 -0.4976  0.2178 -0.4312
  256TIP3    H1  774   4.956   0.374   5.183 -0.1166  0.8287  0.7222
  256TIP3    H2  775   4.866   0.488   5.140  0.5657  1.7835  1.7816
  257TIP3   OH2  776   0.465   0.518   2.191 -0.0016 -0.9327 -0.2664
  257TIP3    H1  777   0.552   0.555   2.180 -0.7126  0.9889  0.2746
  257TIP3    H2  778   0.416   0.584   2.240 -2.1836 -1.3047 -1.7812
  258TIP3   OH2  779   4.166   0.633   2.287  0.2760 -0.3053 -0.3790
  258TIP3    H1  780   4.236   0.581   2.248  1.0631 -0.3580  1.0378
  258TIP3    H2  781   4.175   0.719   2.246 -0.0458 -0.8281 -1.5888
  259TIP3   OH2  782   0.324   5.716   4.179 -0.2267  0.5261  0.0990
  259TIP3    H1  783   0.344   5.686   4.268 -0.3733  1.2822  0.3937
  259TIP3    H2  784   0.228   5.713   4.174 -0.4253  2.9619  0.8969
  260TIP3   OH2  785   0.225   2.892   2.263  0.7627 -0.3018 -0.2094
  260TIP3    H1  786   0.197   2.832   2.331  0.3873 -0.2829 -0.3427
  260TIP3    H2  787   0.144   2.938   2.236  0.7951 -0.7244 -1.0682
  261TIP3   OH2  788   0.965   5.295   5.123  0.1645  0.0818  0.4341
  261TIP3    H1  789   1.014   5.332   5.049  1.3058 -0.4926  0.8764
  261TIP3    H2  790   0.977   5.200   5.115  1.0184  0.0480  1.8084
  262TIP3   OH2  791   6.049   0.823   0.080  0.0812  0.1509 -0.8855
  262TIP3    H1  792   5.997   0.826  -0.001  0.2333  0.4238 -0.9770
  262TIP3    H2  793   6.020   0.744   0.124 -0.2443  0.1735 -1.0495
  263TIP3   OH2  794   5.041   0.187   3.661  0.5631 -0.2278  0.3800
  263TIP3    H1  795   4.984   0.240   3.717 -0.7091 -0.0198 -1.0534
  263TIP3    H2  796   5.118   0.170   3.716  0.8152  2.6450  1.1008
  264TIP3   OH2  797   5.493   2.944   2.589 -0.3444  0.5853 -0.5571
  264TIP3    H1  798   5.550   2.902   2.653 -1.1082  1.3370  0.6611
  264TIP3    H2  799   5.489   3.036   2.617 -2.4124  0.4826 -0.3983
  265TIP3   OH2  800   0.628   3.649   5.046 -0.1733 -0.5854  0.0573
  265TIP3    H1  801   0.680   3.596   5.106  0.6125 -0.6242 -0.6471
  265TIP3    H2  802   0.690   3.680   4.980 -0.1444  2.9508  1.5386
  266TIP3   OH2  803   0.321   1.586   1.231  0.5656 -0.0783  0.3409
  266TIP3    H1  804   0.230   1.610   1.210  0.9037  0.7490 -0.2317
  266TIP3    H2  805   0.340   1.630   1.313  1.2822  1.9610 -0.8565
  267TIP3   OH2  806   3.611   1.780   2.616  0.3704  0.1726 -0.3406
  267TIP3    H1  807   3.698   1.813   2.638  1.0383 -1.6258 -0.1336
  267TIP3    H2  808   3.551   1.846   2.651  1.5621  0.0620  2.1062
  268TIP3   OH2  809   2.275   2.087   3.964  0.4497  0.3336  0.9049
  268TIP3    H1  810   2.232   2.017   4.013 -1.1848  0.1593 -0.6758
  268TIP3    H2  811   2.361   2.052   3.940  0.5414 -0.2504  2.0342
  269TIP3   OH2  812   5.468   5.439   2.453 -0.4750  0.6707  0.3519
  269TIP3    H1  813   5.374   5.421   2.454 -0.7400  1.7945 -1.1775
  269TIP3    H2  814   5.492   5.435   2.360  1.1397 -0.2694  0.7713
  270TIP3   OH2  815   1.623   2.426   3.521  0.7143 -0.6964  0.0809
  270TIP3    H1  816   1.554   2.360   3.530 -1.4131  1.0579 -1.9310
  270TIP3    H2  817   1.611   2.460   3.432  1.9748  2.0601  0.8607
  271TIP3   OH2  818   4.475   2.970   4.719 -0.1959 -0.0362 -0.0669
  271TIP3    H1  819   4.384   2.976   4.746 -0.1381 -0.0736  0.1426
  271TIP3    H2  820   4.482   3.027   4.642 -0.4733 -0.3064 -0.2947
  272TIP3   OH2  821   2.002   5.935   3.880 -0.1980  0.3883 -0.1450
  272TIP3    H1  822   1.979   6.003   3.942  0.4272  0.1981  0.2997
  272TIP3    H2  823   2.056   5.873   3.930 -0.0480  0.0109 -0.7589
  273TIP3   OH2  824   2.901   5.926   2.916  0.5332  0.2173  0.3641
  273TIP3    H1  825   2.943   5.846   2.886 -0.4474 -0.2339  0.1463
  273TIP3    H2  826   2.950   5.997   2.874 -1.3061 -0.3830 -3.1547
  274TIP3   OH2  827   0.516   0.336   5.092 -0.6067  0.1999 -0.1461
  274TIP3    H1  828   0.607   0.307   5.095 -1.1745 -1.7057  2.5005
  274TIP3    H2  829   0.493   0.338   4.999  1.9555  0.3043 -0.8462
  275TIP3   OH2  830   5.803   0.239   4.101  0.7029 -0.1037  0.4942
  275TIP3    H1  831   5.877   0.293   4.077 -0.5350  0.9793 -1.0852
  275TIP3    H2  832   5.818   0.217   4.193  3.2833 -0.5071  0.0450
  276TIP3   OH2  833   1.657   0.425   2.914 -1.0096  0.3763  0.0307
  276TIP3    H1  834   1.742   0.420   2.958 -0.4242 -0.1853 -1.1428
  276TIP3    H2  835   1.624   0.512   2.938 -0.7302  0.0970  1.5815
  277TIP3   OH2  836   2.014   0.915   1.696 -0.1090 -0.0030 -0.1181
  277TIP3    H1  837   2.089   0.864   1.727  1.6374  0.5269 -3.0924
  277TIP3    H2  838   1.937   0.865   1.724  1.4300 -2.1574  0.4983
  278TIP3   OH2  839   0.246   1.863   4.223 -0.2319  0.0382  0.1811
  278TIP3    H1  840   0.318   1.850   4.285  0.0041  1.4210  0.2286
  278TIP3    H2  841   0.201   1.941   4.254 -1.8974 -0.9091  0.2598
  279TIP3   OH2  842   5.212   3.526   2.383  0.4732 -0.3982  0.1871
  279TIP3    H1  843   5.298   3.554   2.352  0.4933  0.3438  0.8696
  279TIP3    H2  844   5.162   3.509   2.303  0.7011  0.9004 -0.2557
  280TIP3   OH2  845   0.275   0.493   1.027  0.5667 -0.0940  0.3847
  280TIP3    H1  846   0.296   0.510   0.935 -1.1227 -0.0246 -0.0198
  280TIP3    H2  847   0.217   0.417   1.024 -0.4848  0.6483  1.2682
  281TIP3   OH2  848   3.759   5.187   2.660  0.1983 -0.0792  0.1675
  281TIP3    H1  849   3.772   5.093   2.653 -0.7289 -0.1586 -0.7896
  281TIP3    H2  850   3.674   5.203   2.619  0.1815  1.1356  0.6142
  282TIP3   OH2  851   2.137   5.223   4.335  0.3532  0.4329  0.5046
  282TIP3    H1  852   2.204   5.234   4.268 -2.0374  1.3165 -1.9149
  282TIP3    H2  853   2.094   5.140   4.313 -1.2398  1.3209  0.1207
  283TIP3   OH2  854   4.442   2.906   0.145  0.5203  0.5226 -0.0638
  283TIP3    H1  855   4.382   2.937   0.077 -0.7234  2.6365  1.8607
  283TIP3    H2  856   4.470   2.820   0.114 -1.1335  0.7497 -2.5092
  284TIP3   OH2  857   2.372   5.939   0.888  0.3603  0.0218 -0.1084
  284TIP3    H1  858   2.420   5.876   0.943 -1.5696 -2.0729 -0.6769
  284TIP3    H2  859   2.313   5.983   0.948  0.8986  0.4821  0.0948
  285TIP3   OH2  860   0.443   2.909   3.223  0.5569  0.0836 -0.1132
  285TIP3    H1  861   0.380   2.939   3.157  0.5049 -0.5745 -0.3685
  285TIP3    H2  862   0.391   2.898   3.302  0.2566 -0.8263 -0.4190
  286TIP3   OH2  863   0.375   1.202   4.232  0.1364  0.4128 -0.2029
  286TIP3    H1  864   0.469   1.212   4.246 -0.0217  0.0273  1.2835
  286TIP3    H2  865   0.358   1.248   4.150  1.6443  0.3300 -0.5909
  287TIP3   OH2  866   0.505   5.565   0.046 -0.0183  0.4164  0.3594
  287TIP3    H1  867   0.593   5.535   0.071 -0.0732  0.9673  1.2536
  287TIP3    H2  868   0.446   5.498   0.080 -0.1587  1.5568  2.5590
  288TIP3   OH2  869   2.956   1.800   0.882 -0.7322  0.0474  0.0530
  288TIP3    H1  870   2.997   1.729   0.933 -2.6191 -0.1958  1.3410
  288TIP3    H2  871   2.912   1.755   0.810 -3.4359 -0.4317  1.8478
  289TIP3   OH2  872   5.564   1.193   1.424 -0.3069 -0.7400  0.0371
  289TIP3    H1  873   5.629   1.132   1.390 -1.0570 -0.9110 -1.1512
  289TIP3    H2  874   5.603   1.279   1.411  0.8975 -0.9381  2.0286
  290TIP3   OH2  875   0.314   3.545   1.048  0.1672  0.2840  0.0085
  290TIP3    H1  876   0.320   3.516   1.140  1.1218 -2.2336 -0.7608
  290TIP3    H2  877   0.392   3.599   1.036  1.3912 -1.3800  0.0979
  291TIP3   OH2  878   2.290   0.089   2.633  0.9674  0.0219  0.4164
  291TIP3    H1  879   2.226   0.127   2.572  0.2334  0.2033  1.2734
  291TIP3    H2  880   2.236   0.041   2.697  1.7793 -1.0150  0.3443
  292TIP3   OH2  881   6.365   1.678   2.573  0.0784  0.1525  0.0023
  292TIP3    H1  882   6.344   1.683   2.480  0.6624  0.1900 -0.1320
  292TIP3    H2  883   6.288   1.715   2.617  0.3090  1.2919 -0.5225
  293TIP3   OH2  884   1.533   0.521   2.293 -0.3966 -0.0301 -0.0969
  293TIP3    H1  885   1.488   0.522   2.209  1.3149 -2.1210 -1.1380
  293TIP3    H2  886   1.475   0.473   2.351 -0.0951 -1.6402 -1.0806
  294TIP3   OH2  887   3.254   4.685   3.335 -0.0914 -0.1892 -0.2664
  294TIP3    H1  888   3.311   4.652   3.404  0.5072 -1.9719 -1.5643
  294TIP3    H2  889   3.310   4.743   3.284 -0.7126  1.6804  1.0578
  295TIP3   OH2  890   3.680   3.897   0.749  0.2420 -0.1564 -0.3600
  295TIP3    H1  891   3.721   3.924   0.667  0.1836  2.4426  0.3851
  295TIP3    H2  892   3.602   3.952   0.755  0.1840 -0.3921  1.3844
  296TIP3   OH2  893   5.844   0.919   0.343 -0.5585 -0.5755 -0.6492
  296TIP3    H1  894   5.893   0.848   0.383 -1.1531 -0.3177  0.5983
  296TIP3    H2  895   5.814   0.884   0.259  1.8679 -0.6733 -1.5486
  297TIP3   OH2  896   5.705   2.396   3.798  0.0502  0.2252  0.1533
  297TIP3    H1  897   5.747   2.461   3.742 -1.6440  1.8453  0.6811
  297TIP3    H2  898   5.769   2.378   3.867  0.7868  0.8214 -0.3598
  298TIP3   OH2  899   1.456   4.281   3.392 -0.1230 -0.1877 -0.2039
  298TIP3    H1  900   1.469   4.310   3.482 -3.9525 -2.6687  1.3583
  298TIP3    H2  901   1.448   4.362   3.342  1.3738  1.2543  1.7093
  299TIP3   OH2  902   2.577   3.642   1.562  0.1432  0.3954 -0.2291
  299TIP3    H1  903   2.566   3.736   1.552  0.1056  0.4080 -0.0693
  299TIP3    H2  904   2.580   3.628   1.656 -2.3171 -0.0566 -0.1598
  300TIP3   OH2  905   4.301   1.106   0.658  0.5430  0.3093 -0.4654
  300TIP3    H1  906   4.395   1.096   0.674  0.5872  0.7238 -0.4438
  300TIP3    H2  907   4.264   1.020   0.677  1.0653 -0.1799 -1.5826
  301TIP3   OH2  908   1.420   5.235   0.857 -0.3401 -0.2662  0.3791
  301TIP3    H1  909   1.371   5.170   0.908 -1.6795  1.2704  1.1426
  301TIP3    H2  910   1.442   5.304   0.920 -0.1184  0.6557 -0.6673
  302TIP3   OH2  911   0.367   0.140   2.586  0.3177 -0.2678 -0.1306
  302TIP3    H1  912   0.294   0.191   2.553  0.7595  0.8123  0.5029
  302TIP3    H2  913   0.385   0.176   2.673  0.1630 -2.0181  0.6825
  303TIP3   OH2  914   4.506   5.517   0.662  0.6171 -0.2740 -0.4616
  303TIP3    H1  915   4.468   5.519   0.575  1.0634 -0.9342 -0.6794
  303TIP3    H2  916   4.568   5.590   0.663 -1.7042  1.8443  0.4285
  304TIP3   OH2  917   1.190   4.150   4.670 -0.4191 -0.2372 -0.2006
  304TIP3    H1  918   1.123   4.146   4.738  0.2468  1.7666  0.6234
  304TIP3    H2  919   1.253   4.082   4.695 -1.7746 -1.7529 -0.6783
  305TIP3   OH2  920   4.570   3.569   2.564 -0.1010 -0.3234 -0.2311
  305TIP3    H1  921   4.524   3.525   2.492 -1.1132  0.8841 -0.3575
  305TIP3    H2  922   4.564   3.509   2.637  0.8217 -1.5231 -1.0992
  306TIP3   OH2  923   3.169   5.794   1.284  0.3809  0.3062 -0.3532
  306TIP3    H1  924   3.166   5.699   1.299  1.0666  0.3280 -0.0366
  306TIP3    H2  925   3.166   5.832   1.372 -1.3428  0.6470 -0.5176
  307TIP3   OH2  926   5.318   1.001   3.600  0.3929 -0.4574 -0.0787
  307TIP3    H1  927   5.350   1.057   3.529  1.4665  1.3471  1.7040
  307TIP3    H2  928   5.309   1.061   3.675 -0.4639 -2.3109  1.3833
  308TIP3   OH2  929   3.660   0.781   4.670 -0.2689  0.7328  0.1330
  308TIP3    H1  930   3.610   0.846   4.719 -2.1713  0.1733 -0.9611
  308TIP3    H2  931   3.620   0.780   4.584 -1.7863 -3.3085  0.6620
  309TIP3   OH2  932   4.637   5.407   4.486  0.3274 -0.1894 -0.0273
  309TIP3    H1  933   4.728   5.389   4.463 -0.2063 -0.8207 -1.8064
  309TIP3    H2  934   4.643   5.479   4.550  2.0302  0.3558 -0.7291
  310TIP3   OH2  935   2.263   2.054   2.961  0.1550  0.4896 -0.2218
  310TIP3    H1  936   2.322   2.103   3.019  1.2376 -0.4610 -0.4786
  310TIP3    H2  937   2.320   2.025   2.890 -1.1081  1.4864 -1.7066
  311TIP3   OH2  938   6.122   5.162   0.561  0.5475 -0.5318 -0.0411
  311TIP3    H1  939   6.175   5.094   0.601  1.7285  1.2709  1.6596
  311TIP3    H2  940   6.098   5.127   0.475  2.6840 -2.2915  0.0017
  312TIP3   OH2  941   2.696   4.563   0.636 -0.0294  0.4276 -0.1702
  312TIP3    H1  942   2.626   4.498   0.639 -0.7338  1.1093 -1.1892
  312TIP3    H2  943   2.677   4.616   0.558  1.8386  0.3879 -0.7082
  313TIP3   OH2  944   3.768   5.841   0.951  0.4023 -0.2140 -0.1153
  313TIP3    H1  945   3.742   5.923   0.993 -0.1304 -0.4233 -0.0277
  313TIP3    H2  946   3.861   5.852   0.932  0.4887  0.1405  0.5078
  314TIP3   OH2  947   4.434   0.323   0.741 -0.1067  0.1273  0.3458
  314TIP3    H1  948   4.525   0.336   0.770  0.0791 -0.8995  0.2761
  314TIP3    H2  949   4.437   0.340   0.647 -0.4433  2.1869  0.6672
  315TIP3   OH2  950   0.109   2.057   0.573 -0.1531  0.3959  0.2690
  315TIP3    H1  951   0.072   2.021   0.654  2.2575 -1.5635  0.6140
  315TIP3    H2  952   0.199   2.079   0.596 -0.4349  3.2964 -0.9911
  316TIP3   OH2  953   1.469   5.502   2.559 -0.0726 -0.1495 -0.2658
  316TIP3    H1  954   1.424   5.581   2.529  0.1395  0.2902  0.5523
  316TIP3    H2  955   1.552   5.533   2.594  1.4463 -1.0343 -2.7575
  317TIP3   OH2  956   2.168   3.906   5.138 -0.3699 -0.2980 -0.1465
  317TIP3    H1  957   2.102   3.941   5.198  0.6753  1.4827  0.0331
  317TIP3    H2  958   2.246   3.895   5.193  0.0522 -0.4347 -0.7711
  318TIP3   OH2  959   2.168   4.166   0.939  0.0398  0.4170  0.5591
  318TIP3    H1  960   2.182   4.244   0.992  1.9098  0.3577  0.2250
  318TIP3    H2  961   2.170   4.197   0.849 -1.6496  0.3072  0.4645
  319TIP3   OH2  962   5.935   2.688   4.632 -0.2016 -0.2797  0.0140
  319TIP3    H1  963   5.852   2.680   4.584  0.1197 -0.3926 -0.5358
  319TIP3    H2  964   6.002   2.682   4.564  0.2543 -0.0530  0.4419
  320TIP3   OH2  965   1.257  -0.021   3.722 -0.0140  0.3438 -0.5152
  320TIP3    H1  966   1.276   0.012   3.634  1.3020  0.9469 -0.0388
  320TIP3    H2  967   1.285   0.049   3.781  0.2600 -0.5203  0.4214
  321TIP3   OH2  968   1.478   4.798   4.088  0.1577 -0.2572 -0.1148
  321TIP3    H1  969   1.443   4.852   4.160  0.6028 -0.2784  0.1203
  321TIP3    H2  970   1.405   4.789   4.027  0.3318  1.3461 -0.5906
  322TIP3   OH2  971   5.969   4.271   4.652  0.1788 -0.2444  0.2655
  322TIP3    H1  972   5.949   4.302   4.564 -1.0027 -2.3572 -0.2926
  322TIP3    H2  973   6.029   4.198   4.639 -0.7792 -1.2251  1.0954
  323TIP3   OH2  974   5.196   0.616   0.665  0.5259  0.0712 -0.0343
  323TIP3    H1  975   5.137   0.645   0.735 -2.0477  0.2341 -2.1271
  323TIP3    H2  976   5.187   0.681   0.596  0.3827 -1.7661 -1.8555
  324TIP3   OH2  977   5.349   0.153   4.942  0.2186  0.0997  0.1371
  324TIP3    H1  978   5.385   0.065   4.947  1.3312  0.5564  0.5163
  324TIP3    H2  979   5.411   0.202   4.888  0.3218  0.9728  1.0123
  325TIP3   OH2  980   1.031   0.320   4.635 -0.6355 -0.7041 -0.3046
  325TIP3    H1  981   0.990   0.233   4.628  2.3866 -2.2243 -0.5156
  325TIP3    H2  982   1.092   0.312   4.708  2.2092  0.0403 -2.4265
  326TIP3   OH2  983   0.147   4.064   2.545 -0.1510  0.0113  0.2839
  326TIP3    H1  984   0.068   4.116   2.530  0.1199 -0.0170 -1.4420
  326TIP3    H2  985   0.115   3.975   2.558 -0.3702 -0.3621 -2.3386
  327TIP3   OH2  986   1.306   3.492   0.652 -0.3619 -0.0168  0.1565
  327TIP3    H1  987   1.359   3.548   0.595 -0.6524 -0.2260 -0.3262
  327TIP3    H2  988   1.249   3.444   0.592 -0.3589 -0.5749  0.5907
  328TIP3   OH2  989   5.042   0.242   0.673 -0.2728 -0.1273  0.1231
  328TIP3    H1  990   5.014   0.264   0.762 -1.1156  3.2566 -0.8168
  328TIP3    H2  991   5.136   0.229   0.680  0.1906  2.9822  1.1740
  329TIP3   OH2  992   3.855   2.719   0.681  0.5639 -0.0641 -0.4962
  329TIP3    H1  993   3.883   2.658   0.613 -0.0256 -2.0513  0.9289
  329TIP3    H2  994   3.761   2.732   0.664  0.3546 -0.7775  0.0488
  330TIP3   OH2  995   0.249   4.254   4.444 -0.1022 -0.3057 -0.6478
  330TIP3    H1  996   0.241   4.163   4.471 -1.6395 -0.4090 -1.3049
  330TIP3    H2  997   0.186   4.301   4.499 -2.3006 -0.3187 -2.9560
  331TIP3   OH2  998   2.258   5.283   4.573 -0.2298  0.1158 -0.5605
  331TIP3    H1  999   2.186   5.340   4.598 -1.3125 -1.5132  0.2534
  331TIP3    H2 1000   2.231   5.245   4.489 -0.7391 -1.0999  0.1236
  332TIP3   OH2 1001   0.943   1.189   2.223 -0.1638  0.1849 -0.4604
  332TIP3    H1 1002   0.916   1.127   2.291 -0.9425  1.7769  0.7452
  332TIP3    H2 1003   0.863   1.208   2.174  0.0834  0.2038 -0.8648
  333TIP3   OH2 1004   1.422   0.628   3.580  0.4495  0.1443  0.0058
  333TIP3    H1 1005   1.400   0.682   3.505  0.4469 -0.0614 -0.1413
  333TIP3    H2 1006   1.436   0.540   3.544  0.1579 -0.0167  0.2844
  334TIP3   OH2 1007   3.062   3.459   2.936 -0.5456 -0.6102  0.8162
  334TIP3    H1 1008   3.087   3.417   3.018 -1.0991  1.3133  2.0244
  334TIP3    H2 1009   3.146   3.484   2.896 -0.2707 -1.6294  0.7390
  335TIP3   OH2 1010   5.628   1.729   0.331 -0.2003 -0.3153  0.2650
  335TIP3    H1 1011   5.610   1.816   0.367  1.4744 -0.4262  1.5076
  335TIP3    H2 1012   5.589   1.731   0.243 -1.1029  1.3070  0.6502
  336TIP3   OH2 1013   4.125   3.480   1.721 -0.0662  0.0833 -0.5165
  336TIP3    H1 1014   4.054   3.464   1.659 -0.0904  0.3828 -0.5684
  336TIP3    H2 1015   4.112   3.570   1.749 -0.8843 -0.4737  0.9898
  337TIP3   OH2 1016   0.043   3.317   3.120  0.0986  0.1043 -0.0820
  337TIP3    H1 1017   0.075   3.406   3.107  0.4401  0.1166  0.7466
  337TIP3    H2 1018   0.106   3.262   3.075  0.0447  0.2653 -0.3557
  338TIP3   OH2 1019   0.003   1.088   4.320  0.1388  0.1027 -0.1266
  338TIP3    H1 1020  -0.012   1.165   4.264 -0.3043 -0.3001 -0.5781
  338TIP3    H2 1021   0.080   1.110   4.371  0.5234  0.5072 -0.8637
  339TIP3   OH2 1022   1.958   0.881   3.070 -0.7100  0.0161  0.1764
  339TIP3    H1 1023   2.048   0.888   3.037 -0.7947 -1.3309 -0.4230
  339TIP3    H2 1024   1.967   0.847   3.159 -0.5983  0.9021  0.5144
  340TIP3   OH2 1025   2.548   1.760   3.973 -0.3125  0.0941  0.4232
  340TIP3    H1 1026   2.469   1.710   3.996  0.5886 -1.4245  0.3366
  340TIP3    H2 1027   2.514   1.838   3.930 -1.7748 -0.9388 -0.4319
  341TIP3   OH2 1028   0.489   4.452   0.172 -0.1760  0.0936  0.1808
  341TIP3    H1 1029   0.442   4.533   0.188  2.4820  1.6195  0.9325
  341TIP3    H2 1030   0.504   4.450   0.078  0.4689  0.9651  0.2502
  342TIP3   OH2 1031   2.196   1.843   4.964  0.1186 -0.4877 -0.2015
  342TIP3    H1 1032   2.271   1.902   4.963  1.0985 -1.5594  1.8961
  342TIP3    H2 1033   2.161   1.850   5.053 -1.7614 -0.6642 -0.8721
  343TIP3   OH2 1034   5.459   5.234   0.174  0.9003 -0.3094  0.0139
  343TIP3    H1 1035   5.439   5.220   0.081 -0.3906  1.3898 -0.0105
  343TIP3    H2 1036   5.549   5.266   0.175  0.6174  0.5538 -0.7716
  344TIP3   OH2 1037   2.689   2.970   3.875  0.0220  0.0914 -0.1200
  344TIP3    H1 1038   2.623   2.989   3.941  2.5379  3.1914  1.8291
  344TIP3    H2 1039   2.690   3.049   3.820  1.7468 -0.0351 -0.3263
  345TIP3   OH2 1040   4.989   3.193   2.798 -0.1641 -0.2220 -0.1343
  345TIP3    H1 1041   5.048   3.249   2.747 -1.0399  0.2279 -0.6854
  345TIP3    H2 1042   4.922   3.253   2.831 -0.5138 -0.7796  0.1788
  346TIP3   OH2 1043   0.426   1.435   0.755 -0.8284  0.5773 -0.4577
  346TIP3    H1 1044   0.443   1.500   0.823 -1.7283  0.1549  0.1902
  346TIP3    H2 1045   0.410   1.354   0.803 -1.4000  0.2567 -1.1804
  347TIP3   OH2 1046   2.840   0.946   2.794  0.3928  0.4594 -0.0095
  347TIP3    H1 1047   2.887   0.970   2.715  1.1360  0.2937  0.3762
  347TIP3    H2 1048   2.904   0.955   2.864  0.1113 -0.6363  0.4116
  348TIP3   OH2 1049   2.782   1.718   4.580  0.1612 -0.0965  0.4596
  348TIP3    H1 1050   2.820   1.768   4.507 -0.0300 -0.7564 -0.1000
  348TIP3    H2 1051   2.690   1.707   4.556 -0.1790  0.6667  1.3548
  349TIP3   OH2 1052   5.751   1.856   0.775  0.0967 -0.0936 -0.3895
  349TIP3    H1 1053   5.775   1.926   0.714  0.2021  0.8414  0.7019
  349TIP3    H2 1054   5.819   1.790   0.763  1.6927  1.2932  0.6585
  350TIP3   OH2 1055   3.857   1.335   2.853  0.1922 -0.2153  0.4264
  350TIP3    H1 1056   3.804   1.289   2.918 -0.0875 -0.1250  0.2628
  350TIP3    H2 1057   3.907   1.399   2.903 -1.6569  1.4014  0.3216
  351TIP3   OH2 1058   2.225   2.786   4.213  0.2825 -0.4927  0.0149
  351TIP3    H1 1059   2.293   2.764   4.149  2.0660 -1.3959  2.0666
  351TIP3    H2 1060   2.269   2.844   4.275 -1.1293 -0.2757  0.8539
  352TIP3   OH2 1061   0.731   2.440   4.931  0.1175 -0.0996  0.0948
  352TIP3    H1 1062   0.773   2.521   4.903  1.4062 -1.0043 -0.7816
  352TIP3    H2 1063   0.795   2.399   4.989 -0.0054 -1.0078 -0.3873
  353TIP3   OH2 1064   4.846   2.825   4.195  0.3097  0.1412  0.1388
  353TIP3    H1 1065   4.803   2.910   4.205 -0.7863 -0.6183  2.6544
  353TIP3    H2 1066   4.843   2.786   4.282 -2.0622 -3.7835 -1.4176
  354TIP3   OH2 1067   5.173   0.847   3.054  0.0216 -0.1048 -0.1376
  354TIP3    H1 1068   5.195   0.886   2.969 -0.5510  0.1431 -0.1771
  354TIP3    H2 1069   5.117   0.772   3.032 -0.2035  0.0149  0.0251
  355TIP3   OH2 1070   4.554   1.598   4.492 -0.7531 -0.5981  0.0192
  355TIP3    H1 1071   4.575   1.527   4.553  0.9413  0.1897  0.4414
  355TIP3    H2 1072   4.596   1.675   4.531 -2.3240  0.5966 -0.5509
  356TIP3   OH2 1073   4.656   0.773   4.744  0.1617  0.4979  0.2955
  356TIP3    H1 1074   4.605   0.827   4.805 -0.1421 -0.7006  1.1566
  356TIP3    H2 1075   4.629   0.683   4.764  2.3090 -0.1533  0.4912
  357TIP3   OH2 1076   2.099   0.887   0.927  0.3158 -0.3412 -0.1228
  357TIP3    H1 1077   2.079   0.897   0.834  0.4457  0.8460 -0.0385
  357TIP3    H2 1078   2.076   0.971   0.966  1.2544 -0.4637  0.7413
  358TIP3   OH2 1079   5.866   5.223   1.710 -0.4337  0.8597 -0.2342
  358TIP3    H1 1080   5.950   5.200   1.748 -1.2299 -1.4038  0.2836
  358TIP3    H2 1081   5.854   5.315   1.734  1.2769  0.8592  0.8102
  359TIP3   OH2 1082   1.779   5.036   2.830  0.3446  0.8094 -0.0000
  359TIP3    H1 1083   1.841   4.985   2.778  0.0079  0.0816  0.3030
  359TIP3    H2 1084   1.720   4.971   2.867 -1.3097  1.5687 -1.1899
  360TIP3   OH2 1085   2.155   4.551   4.384  0.6806 -0.1491  0.1756
  360TIP3    H1 1086   2.099   4.519   4.313  0.4785  2.3660 -0.9143
  360TIP3    H2 1087   2.106   4.531   4.463 -0.6545 -0.1694 -0.6113
  361TIP3   OH2 1088   4.005   2.392   3.229 -0.1354 -0.0549  0.3594
  361TIP3    H1 1089   4.079   2.368   3.174 -0.6440 -1.3507  0.2112
  361TIP3    H2 1090   3.976   2.310   3.268 -1.0313  0.5444  0.9959
  362TIP3   OH2 1091   5.999   2.314   4.892 -0.8249 -0.3533  0.8679
  362TIP3    H1 1092   5.944   2.392   4.886 -1.7180 -1.0372 -0.5449
  362TIP3    H2 1093   6.070   2.330   4.829 -3.0240 -2.1223 -2.3149
  363TIP3   OH2 1094   3.552   0.075   1.616  0.2305 -0.1395  0.0411
  363TIP3    H1 1095   3.577   0.167   1.610  0.1966 -0.1999 -1.2629
  363TIP3    H2 1096   3.567   0.040   1.529  3.2356 -2.1751  1.1990
  364TIP3   OH2 1097   2.160   5.821   1.101  0.3443  0.5271 -0.1785
  364TIP3    H1 1098   2.253   5.810   1.081  0.1924 -1.1349 -0.1405
  364TIP3    H2 1099   2.115   5.775   1.031 -0.3924  0.1816  0.5052
  365TIP3   OH2 1100   4.326   1.934   1.052 -0.4707  0.4701 -0.6133
  365TIP3    H1 1101   4.378   1.878   1.109  0.0778 -0.8681 -2.3269
  365TIP3    H2 1102   4.383   2.008   1.032 -0.1718  0.2807 -0.4655
  366TIP3   OH2 1103   3.530   5.465   3.475 -0.0098 -0.6061 -0.1051
  366TIP3    H1 1104   3.509   5.377   3.444 -0.5111 -1.0667  1.4229
  366TIP3    H2 1105   3.449   5.514   3.463 -0.2195 -0.7980  0.4667
  367TIP3   OH2 1106   3.373   4.091   4.442  0.0274  0.1831 -0.1132
  367TIP3    H1 1107   3.450   4.147   4.435 -0.4747  1.0142  0.6986
  367TIP3    H2 1108   3.391   4.034   4.517  0.1623 -0.1577 -0.3973
  368TIP3   OH2 1109   1.782   0.744   2.589 -0.4195 -0.1199 -0.5319
  368TIP3    H1 1110   1.818   0.789   2.665 -1.5952 -0.4561  0.2527
  368TIP3    H2 1111   1.773   0.653   2.617 -3.0045  0.1587 -0.2202
  369TIP3   OH2 1112   4.473   2.419   0.356  0.1348 -0.1737 -0.2609
  369TIP3    H1 1113   4.397   2.396   0.303  0.6958  1.1649 -1.7200
  369TIP3    H2 1114   4.540   2.356   0.329 -0.4076 -1.3947  1.0710
  370TIP3   OH2 1115   1.760   4.084   0.012  0.5132 -0.0589  0.8859
  370TIP3    H1 1116   1.849   4.048   0.014  0.4708 -0.3037 -0.5397
  370TIP3    H2 1117   1.773   4.178   0.000  0.5859  0.0354  1.6730
  371TIP3   OH2 1118   1.378   4.962   4.282  0.2715  0.3453  0.4950
  371TIP3    H1 1119   1.366   5.016   4.360  0.4487  1.5952 -0.3168
  371TIP3    H2 1120   1.414   5.021   4.217 -0.9719 -0.3707 -0.9201
  372TIP3   OH2 1121   0.789   2.361   1.728  0.9175 -0.4903 -0.2224
  372TIP3    H1 1122   0.857   2.309   1.771 -0.7795 -1.1388  1.9034
  372TIP3    H2 1123   0.774   2.317   1.644  1.2042 -2.0200  0.4930
  373TIP3   OH2 1124   2.735   4.721   3.851  0.5215  0.4243  0.0232
  373TIP3    H1 1125   2.828   4.723   3.826  0.5411  0.0884  0.0674
  373TIP3    H2 1126   2.689   4.710   3.768  0.5750 -0.4360  0.0944
  374TIP3   OH2 1127   1.043   2.721   0.347 -0.0018 -0.0872 -0.3057
  374TIP3    H1 1128   0.964   2.671   0.328  1.0772 -2.2973  0.6206
  374TIP3    H2 1129   1.068   2.695   0.436  2.2319 -0.1664 -0.8810
  375TIP3   OH2 1130   5.145   4.691   3.074  0.0239  0.2365  0.2073
  375TIP3    H1 1131   5.201   4.646   3.137 -0.3485  1.2445  1.2936
  375TIP3    H2 1132   5.087   4.623   3.040  1.0611 -0.5674 -0.0044
  376TIP3   OH2 1133   6.036   0.466   3.655  0.1866  0.1089  0.2710
  376TIP3    H1 1134   5.955   0.428   3.689  0.6804 -0.4735  0.8237
  376TIP3    H2 1135   6.104   0.406   3.684  0.7985  0.5027 -0.3419
  377TIP3   OH2 1136   4.984   3.235   1.416 -0.6271 -0.1256 -0.0884
  377TIP3    H1 1137   4.947   3.231   1.327  1.4108  1.5644 -1.1271
  377TIP3    H2 1138   4.914   3.274   1.469 -1.0695  1.1774 -1.5381
  378TIP3   OH2 1139   2.362   3.174   2.348 -0.2022  0.4364  0.1795
  378TIP3    H1 1140   2.327   3.094   2.309 -0.1350  0.2338  0.5369
  378TIP3    H2 1141   2.387   3.149   2.437 -1.6561  1.2376  0.8475
  379TIP3   OH2 1142   1.006   5.676   3.114  0.3198 -0.4344 -0.0976
  379TIP3    H1 1143   1.050   5.701   3.196  0.3820  1.2207 -0.6035
  379TIP3    H2 1144   1.059   5.716   3.045 -2.1407  2.0327 -0.7232
  380TIP3   OH2 1145   2.394   3.220   1.454  0.3586 -0.6603 -0.2375
  380TIP3    H1 1146   2.306   3.234   1.490  1.0555  1.0721  0.8724
  380TIP3    H2 1147   2.389   3.133   1.414 -1.6168 -0.9521  0.5215
  381TIP3   OH2 1148   4.335   1.423   1.523  0.1576 -0.4012  0.0922
  381TIP3    H1 1149   4.340   1.518   1.508 -1.4186 -0.2610  0.3160
  381TIP3    H2 1150   4.299   1.388   1.441  1.3653 -0.9195 -0.2458
  382TIP3   OH2 1151   2.079   0.326   4.538  0.0795  0.4901  0.2684
  382TIP3    H1 1152   2.009   0.330   4.473 -1.1312 -1.5151  1.3508
  382TIP3    H2 1153   2.097   0.418   4.559 -2.6864  1.1016  0.4017
  383TIP3   OH2 1154   6.226   2.086   2.019  0.3841  0.4169  0.2102
  383TIP3    H1 1155   6.210   2.156   2.082 -0.0061  0.1138  0.4595
  383TIP3    H2 1156   6.171   2.109   1.943  0.2110  0.3542  0.3150
  384TIP3   OH2 1157   4.240   2.953   5.091  0.1541  0.6328 -0.1168
  384TIP3    H1 1158   4.160   3.002   5.111  0.0323  1.1777 -1.7955
  384TIP3    H2 1159   4.305   3.021   5.072  0.3373  0.1715 -1.1928
  385TIP3   OH2 1160   0.519   5.495   1.172 -0.4810  0.4059  0.1995
  385TIP3    H1 1161   0.574   5.471   1.246  0.8765  1.7734 -0.3064
  385TIP3    H2 1162   0.430   5.485   1.204  0.0612 -0.6939  1.4463
  386TIP3   OH2 1163   2.235   3.831   1.200  0.0716 -0.0998 -0.3349
  386TIP3    H1 1164   2.294   3.875   1.139  0.5197 -1.2126 -0.7313
  386TIP3    H2 1165   2.161   3.805   1.146  0.6793 -1.4975 -0.5353
  387TIP3   OH2 1166   1.301   4.663   2.223  0.1651 -0.3157 -0.2476
  387TIP3    H1 1167   1.282   4.715   2.145  0.7740  2.8209  1.5263
  387TIP3    H2 1168   1.364   4.716   2.272 -0.5447 -1.9185  2.6019
  388TIP3   OH2 1169   5.230   0.995   0.886  0.2378  0.3994  0.0932
  388TIP3    H1 1170   5.186   1.005   0.971  3.1824 -1.1700  1.9500
  388TIP3    H2 1171   5.165   0.951   0.831 -0.7388 -1.4437  2.5556
  389TIP3   OH2 1172   5.097   3.921   3.624 -0.3875  0.1120  0.3445
  389TIP3    H1 1173   5.133   4.003   3.592 -0.3958 -0.7518 -2.0480
  389TIP3    H2 1174   5.029   3.947   3.686  2.0522  1.8143  2.5359
  390TIP3   OH2 1175   0.763   1.996   0.232 -0.2266 -0.0429  0.3226
  390TIP3    H1 1176   0.675   1.979   0.197 -1.1958 -0.8759  2.9256
  390TIP3    H2 1177   0.822   1.950   0.172 -2.0024 -3.8338  1.1847
  391TIP3   OH2 1178   3.160   3.197   2.051  0.0202 -0.1970  0.4244
  391TIP3    H1 1179   3.131   3.191   2.142 -1.9250  1.4682 -0.0183
  391TIP3    H2 1180   3.196   3.285   2.042  0.0923 -0.2983 -0.4643
  392TIP3   OH2 1181   5.925   3.149   1.319 -0.3915  0.1201  0.4818
  392TIP3    H1 1182   6.002   3.129   1.266 -0.5105 -0.9514  0.6787
  392TIP3    H2 1183   5.857   3.092   1.283 -1.3645  1.6896 -0.2834
  393TIP3   OH2 1184   0.582   4.156   3.475 -0.3568 -1.0295 -0.2280
  393TIP3    H1 1185   0.492   4.176   3.502 -0.4737 -2.2212  0.3084
  393TIP3    H2 1186   0.590   4.198   3.389 -1.1467 -0.2111  0.0752
  394TIP3   OH2 1187   2.795   3.079   0.182  0.3578  0.2262  0.3335
  394TIP3    H1 1188   2.715   3.124   0.209 -1.0754 -1.4978 -0.7562
  394TIP3    H2 1189   2.817   3.119   0.097  0.0470  0.0212  0.1529
  395TIP3   OH2 1190   4.708   2.180   4.104 -0.4817 -0.1466  0.3965
  395TIP3    H1 1191   4.775   2.231   4.059 -0.7033  0.7163  1.0090
  395TIP3    H2 1192   4.745   2.092   4.111 -0.0652 -0.0590 -0.6336
  396TIP3   OH2 1193   4.981   1.093   1.961 -0.4095 -0.5486 -0.3573
  396TIP3    H1 1194   4.941   1.141   2.033 -0.0757 -0.1027 -0.4684
  396TIP3    H2 1195   5.044   1.154   1.922 -0.8684 -0.6387 -1.2829
  397TIP3   OH2 1196   5.194   5.936   2.546  0.1985 -0.0703 -0.1547
  397TIP3    H1 1197   5.160   5.848   2.562  0.8392 -0.3571 -0.3278
  397TIP3    H2 1198   5.116   5.991   2.541 -0.2147 -0.6356 -0.0995
  398TIP3   OH2 1199   5.291   1.037   4.202  0.5255 -0.1883  0.4223
  398TIP3    H1 1200   5.198   1.018   4.203  0.9416 -2.4982  2.0732
  398TIP3    H2 1201   5.297   1.129   4.175 -2.1644 -0.0843 -0.0315
  399TIP3   OH2 1202   0.413   5.293   0.659  0.5894  0.1039 -0.0252
  399TIP3    H1 1203   0.345   5.292   0.592 -1.1497 -0.0069  1.6407
  399TIP3    H2 1204   0.468   5.217   0.639 -0.1983 -0.2211 -1.0119
  400TIP3   OH2 1205   2.876   4.028   4.936  0.0397 -0.2548  0.3475
  400TIP3    H1 1206   2.878   3.936   4.911  4.1728 -0.2547  0.0245
  400TIP3    H2 1207   2.868   4.076   4.854 -0.5915 -0.3006  0.3792
  401TIP3   OH2 1208   4.918   3.385   1.855  0.0554 -0.0064  1.0328
  401TIP3    H1 1209   4.905   3.296   1.821  0.2539 -0.1100  1.2293
  401TIP3    H2 1210   5.008   3.386   1.886  0.2267  0.4333  0.5272
  402TIP3   OH2 1211   5.896   3.807   4.186  0.1168 -0.4892  0.3794
  402TIP3    H1 1212   5.969   3.869   4.179  0.5893 -1.1405 -0.7409
  402TIP3    H2 1213   5.864   3.817   4.276 -0.0587  1.6389  0.1291
  403TIP3   OH2 1214   1.133   2.042   2.424 -0.5649  0.1979 -0.3002
  403TIP3    H1 1215   1.133   1.949   2.448 -0.3770  0.2558 -0.0740
  403TIP3    H2 1216   1.104   2.087   2.504  0.6505  0.4444  0.0222
  404TIP3   OH2 1217   4.979   4.968   3.942 -0.2482  0.2013  0.0794
  404TIP3    H1 1218   4.932   5.045   3.974  0.3377 -0.1828  1.9677
  404TIP3    H2 1219   5.068   4.999   3.926  0.6013 -0.4617  2.9540
  405TIP3   OH2 1220   3.797   3.838   5.097  0.1774  0.2016  0.0160
  405TIP3    H1 1221   3.816   3.931   5.085  2.4666 -0.2306 -0.1141
  405TIP3    H2 1222   3.824   3.797   5.015  0.1139 -0.6983  0.4376
  406TIP3   OH2 1223   0.593   2.458   4.007  0.1071  0.2462 -0.2842
  406TIP3    H1 1224   0.566   2.376   4.047 -1.4946  1.1080  0.4865
  406TIP3    H2 1225   0.584   2.443   3.913 -0.6490 -0.3207 -0.1266
  407TIP3   OH2 1226   4.391   5.154   4.982 -0.1406 -0.8836  0.1142
  407TIP3    H1 1227   4.351   5.175   4.898 -2.0396 -0.3472  1.0849
  407TIP3    H2 1228   4.364   5.063   4.999  0.3140 -1.0220  0.0956
  408TIP3   OH2 1229   0.386   3.592   4.897 -0.7385 -0.3086 -0.4799
  408TIP3    H1 1230   0.401   3.584   4.803 -3.5616  1.1038 -1.1653
  408TIP3    H2 1231   0.472   3.612   4.933  0.4452 -0.9652 -2.7284
  409TIP3   OH2 1232   2.494   3.070   4.045 -0.5792  0.0547  0.1201
  409TIP3    H1 1233   2.407   3.056   4.083 -0.7262  0.4986 -0.0515
  409TIP3    H2 1234   2.541   3.119   4.112  0.3329 -2.1750  1.2492
  410TIP3   OH2 1235   3.053   4.635   1.177 -0.0733  0.0041 -0.0844
  410TIP3    H1 1236   2.958   4.648   1.167 -0.3737 -1.7759  0.0174
  410TIP3    H2 1237   3.080   4.594   1.095  0.4948 -0.0278  0.1155
  411TIP3   OH2 1238   0.696   2.539   2.275  0.3129  0.3518  0.4281
  411TIP3    H1 1239   0.679   2.538   2.181  1.0785 -0.8350  0.2821
  411TIP3    H2 1240   0.788   2.564   2.284 -0.0776  1.6698  0.9377
  412TIP3   OH2 1241   1.240   1.575   3.020  0.1001 -0.1163  0.3926
  412TIP3    H1 1242   1.308   1.537   3.076  1.0357  2.3363  1.0588
  412TIP3    H2 1243   1.269   1.665   3.005 -2.4173  0.6651 -0.3034
  413TIP3   OH2 1244   3.457   0.881   1.610  0.3021  0.0798 -0.5105
  413TIP3    H1 1245   3.524   0.844   1.667  1.2561 -0.9201 -2.1858
  413TIP3    H2 1246   3.504   0.944   1.555 -0.2020 -0.2863 -1.3912
  414TIP3   OH2 1247   5.309   4.051   0.123 -0.0555  0.6879 -0.3287
  414TIP3    H1 1248   5.347   4.131   0.087  1.5016  0.0916 -0.0701
  414TIP3    H2 1249   5.335   3.982   0.063  2.8425 -0.3693  1.9185
  415TIP3   OH2 1250   5.506   4.105   2.227 -0.7559 -0.7157 -0.7655
  415TIP3    H1 1251   5.505   4.179   2.166 -0.9914  1.4083  1.6341
  415TIP3    H2 1252   5.414   4.088   2.247 -0.6331  0.2202  0.7381
  416TIP3   OH2 1253   1.034   1.065   4.908 -0.0701 -0.3369 -0.0979
  416TIP3    H1 1254   1.032   1.160   4.908  0.1955 -0.1215  4.3306
  416TIP3    H2 1255   0.944   1.038   4.888 -1.0731  1.0903  2.1206
  417TIP3   OH2 1256   0.085   0.168   0.336  0.2171  0.3935 -0.9595
  417TIP3    H1 1257   0.149   0.233   0.365  1.0750 -0.9515  0.2904
  417TIP3    H2 1258   0.101   0.092   0.392  0.4765 -1.5858 -3.5671
  418TIP3   OH2 1259   2.153   1.640   4.494  0.1221 -0.5912 -0.3382
  418TIP3    H1 1260   2.223   1.697   4.462  0.6001 -0.5674  0.6902
  418TIP3    H2 1261   2.185   1.609   4.579 -2.1573  1.4325  1.4067
  419TIP3   OH2 1262   5.533   4.757   1.511  0.2550  0.0181 -0.2598
  419TIP3    H1 1263   5.533   4.809   1.591  1.4157  1.3506 -1.0853
  419TIP3    H2 1264   5.463   4.692   1.524 -0.0809  0.6958  1.4914
  420TIP3   OH2 1265   4.607   2.514   2.217 -0.2825  0.3165  0.1848
  420TIP3    H1 1266   4.665   2.574   2.264  0.5998  1.2552 -1.9711
  420TIP3    H2 1267   4.634   2.426   2.245  2.0214  0.7464 -0.5188
  421TIP3   OH2 1268   3.471   1.592   2.445 -0.3376  0.0827  0.1947
  421TIP3    H1 1269   3.409   1.655   2.408  2.0390  2.6258  0.1983
  421TIP3    H2 1270   3.514   1.641   2.515  0.6073 -2.1048  1.2111
  422TIP3   OH2 1271   1.244   3.684   0.874 -0.0059  0.0438  0.1184
  422TIP3    H1 1272   1.337   3.706   0.877  0.1004 -0.5006  1.9345
  422TIP3    H2 1273   1.240   3.601   0.828  0.6716 -0.9469  1.7408
  423TIP3   OH2 1274   4.425   1.712   2.257 -0.1529  0.6031  0.3320
  423TIP3    H1 1275   4.475   1.793   2.252  0.9742 -0.1453 -2.1241
  423TIP3    H2 1276   4.491   1.644   2.270 -1.1806  0.0793  3.7807
  424TIP3   OH2 1277   5.323   5.489   0.506 -0.0628 -0.2115 -0.1809
  424TIP3    H1 1278   5.325   5.404   0.550  1.5423 -0.3985 -0.5690
  424TIP3    H2 1279   5.386   5.481   0.435  1.7083  1.9682  1.0329
  425TIP3   OH2 1280   1.746   4.662   4.065  0.0286  0.1534  0.1526
  425TIP3    H1 1281   1.660   4.690   4.034 -0.2396 -1.1342 -0.3172
  425TIP3    H2 1282   1.798   4.742   4.065 -1.5224  1.2495  1.7550
  426TIP3   OH2 1283   2.902   2.068   2.771 -0.0397 -0.1551  0.0047
  426TIP3    H1 1284   2.857   2.150   2.792 -0.8591 -0.3673 -0.8649
  426TIP3    H2 1285   2.847   2.000   2.809  1.0934 -0.2925  1.4937
  427TIP3   OH2 1286   2.104   2.962   0.652  0.4795  0.2165 -0.0868
  427TIP3    H1 1287   2.143   2.940   0.567  1.0780 -0.2233  0.2885
  427TIP3    H2 1288   2.149   2.903   0.714 -1.1915 -0.7225  0.2826
  428TIP3   OH2 1289   1.727   5.110   3.224  0.2502  0.4331  0.2776
  428TIP3    H1 1290   1.639   5.128   3.190  0.0682 -0.0318  0.4948
  428TIP3    H2 1291   1.785   5.129   3.151 -0.1811 -1.0851 -0.5148
  429TIP3   OH2 1292   1.512   1.531   1.175  0.4287  0.4387  0.2169
  429TIP3    H1 1293   1.468   1.581   1.106 -1.3777 -0.0749  0.9453
  429TIP3    H2 1294   1.484   1.573   1.256  0.7016 -0.3521  0.7289
  430TIP3   OH2 1295   3.869   0.319   2.020 -0.0760  0.5774 -0.0537
  430TIP3    H1 1296   3.921   0.328   1.940 -1.0246  4.5835 -0.4350
  430TIP3    H2 1297   3.801   0.256   1.999  0.2091  0.9122 -2.1256
  431TIP3   OH2 1298   2.443   4.979   5.044  0.3342  0.3974 -0.6037
  431TIP3    H1 1299   2.431   4.892   5.005  1.2624 -0.3427  0.6961
  431TIP3    H2 1300   2.364   4.994   5.095  0.0262  0.4760 -1.0925
  432TIP3   OH2 1301   3.899   4.247   0.805 -0.5585 -0.0750 -0.7842
  432TIP3    H1 1302   3.879   4.259   0.898  0.2880  1.0433 -0.7300
  432TIP3    H2 1303   3.818   4.274   0.760 -0.6699  0.2456 -0.4035
  433TIP3   OH2 1304   5.154   2.589   2.591  0.3397  0.2161  0.4011
  433TIP3    H1 1305   5.091   2.610   2.660  0.2428  0.0470  0.3623
  433TIP3    H2 1306   5.153   2.667   2.535  0.0265  0.1381  0.2963
  434TIP3   OH2 1307   2.087   4.998   5.065  0.3214  0.4161 -0.0881
  434TIP3    H1 1308   2.069   4.949   4.985  2.4741 -0.1391 -0.2949
  434TIP3    H2 1309   2.102   4.932   5.132 -2.7948  0.8648  1.2072
  435TIP3   OH2 1310   1.052   0.355   0.858  0.0311 -0.1174  0.3297
  435TIP3    H1 1311   1.005   0.432   0.888 -3.0879 -1.0763 -1.7053
  435TIP3    H2 1312   1.101   0.326   0.936 -1.8281  1.6408  2.2894
  436TIP3   OH2 1313   4.676   5.502   2.348 -0.1361 -0.5823  0.7780
  436TIP3    H1 1314   4.591   5.544   2.362  0.7832  1.4217  0.7204
  436TIP3    H2 1315   4.714   5.550   2.275  1.4826 -0.7204  1.4977
  437TIP3   OH2 1316   2.246   0.827   4.768 -0.1512  0.3376  0.0302
  437TIP3    H1 1317   2.152   0.842   4.765 -0.1298  0.3409 -1.3969
  437TIP3    H2 1318   2.267   0.822   4.861 -1.2967  2.0506  0.4269
  438TIP3   OH2 1319   3.345   4.019   2.698 -0.5710 -0.1765  0.3107
  438TIP3    H1 1320   3.326   4.103   2.740  1.2181  0.4702 -0.0759
  438TIP3    H2 1321   3.314   3.954   2.760  0.3293  0.7675  1.8254
  439TIP3   OH2 1322   0.345   1.188   2.718 -0.2949  0.0613  0.2400
  439TIP3    H1 1323   0.385   1.109   2.681  0.1621 -0.7940  2.4341
  439TIP3    H2 1324   0.411   1.256   2.705 -0.2031 -0.1720 -0.6013
  440TIP3   OH2 1325   2.854   2.192   1.597  0.4010  0.2299  0.2859
  440TIP3    H1 1326   2.865   2.204   1.691  1.5153  0.9572  0.0768
  440TIP3    H2 1327   2.922   2.246   1.557  0.0348 -0.1709 -0.9399
  441TIP3   OH2 1328   0.257   1.163   1.890  0.5010  0.0091 -0.4090
  441TIP3    H1 1329   0.194   1.144   1.821  0.9470 -0.0024 -0.8118
  441TIP3    H2 1330   0.319   1.090   1.888  1.8814  1.1543 -1.5712
  442TIP3   OH2 1331   4.349   1.916   3.137 -0.1272  0.0536 -0.4019
  442TIP3    H1 1332   4.352   1.916   3.041 -0.9534 -0.4003 -0.4336
  442TIP3    H2 1333   4.430   1.959   3.163  0.2071 -0.0061 -1.3035
  443TIP3   OH2 1334   2.541   3.326   1.266  0.0117 -0.6818  0.3199
  443TIP3    H1 1335   2.501   3.412   1.253  0.6205 -0.6373 -1.5333
  443TIP3    H2 1336   2.487   3.285   1.333 -1.0978  0.6290  0.2891
  444TIP3   OH2 1337   0.032   5.956   4.233  0.0051 -0.4016  0.0964
  444TIP3    H1 1338   0.020   5.861   4.228  0.1209 -0.4623  0.7905
  444TIP3    H2 1339   0.103   5.975   4.172 -1.2951 -0.4955 -1.5157
  445TIP3   OH2 1340   5.931   0.576   0.151  0.5290  0.4589 -0.3535
  445TIP3    H1 1341   6.006   0.532   0.112  1.9421  0.8473  1.7823
  445TIP3    H2 1342   5.861   0.511   0.149  1.2325 -0.2940 -1.3301
  446TIP3   OH2 1343   4.838   4.068   3.366  0.3450 -0.5360  0.7488
  446TIP3    H1 1344   4.896   3.993   3.353  2.0593  0.9344 -0.5936
  446TIP3    H2 1345   4.771   4.057   3.298  0.7839 -0.6839  0.3301
  447TIP3   OH2 1346   3.966   3.360   2.801  0.4179 -0.0549  0.3922
  447TIP3    H1 1347   3.951   3.372   2.894 -1.4784  0.8782  0.0252
  447TIP3    H2 1348   4.014   3.438   2.773  1.5479 -0.6327  0.6766
  448TIP3   OH2 1349   2.686   4.780   1.401 -0.0676  0.1017  0.0968
  448TIP3    H1 1350   2.741   4.702   1.411 -0.4218 -0.5821 -2.6779
  448TIP3    H2 1351   2.736   4.838   1.345 -0.8825  0.8113  0.0878
  449TIP3   OH2 1352   0.032   2.616   3.610  0.3911  0.4280 -0.6207
  449TIP3    H1 1353   0.010   2.533   3.569 -0.2643  0.0625  0.4397
  449TIP3    H2 1354   0.118   2.602   3.649 -0.0693 -0.0320  0.2585
  450TIP3   OH2 1355   5.540   2.562   2.271 -0.0302  0.0158  0.4403
  450TIP3    H1 1356   5.540   2.571   2.367 -1.3172 -0.0262  0.4592
  450TIP3    H2 1357   5.626   2.524   2.251  0.0965 -0.3719  1.6217
  451TIP3   OH2 1358   5.419   3.169   2.078 -0.2472 -0.4004 -0.7141
  451TIP3    H1 1359   5.475   3.205   2.147 -0.5138  0.3713 -0.8877
  451TIP3    H2 1360   5.331   3.199   2.100 -0.2672  0.3057 -1.6527
  452TIP3   OH2 1361   0.744   4.891   1.210  0.2568 -0.0322  0.6089
  452TIP3    H1 1362   0.689   4.872   1.134  0.2706 -0.5743  0.7325
  452TIP3    H2 1363   0.822   4.837   1.197 -0.0909 -0.7519  1.4052
  453TIP3   OH2 1364   3.215   4.930   0.650 -0.6601  0.0648  0.4588
  453TIP3    H1 1365   3.158   4.863   0.687 -0.3740  0.0933  0.9594
  453TIP3    H2 1366   3.184   5.012   0.689 -1.9033  0.4308 -1.1939
  454TIP3   OH2 1367   1.836   1.975   0.800 -0.3898 -0.0724  0.1003
  454TIP3    H1 1368   1.816   1.904   0.740  0.6809 -0.6316  0.3737
  454TIP3    H2 1369   1.766   1.972   0.865 -0.9560 -0.1576 -0.5042
  455TIP3   OH2 1370   3.427   1.550   0.786 -0.1943 -0.2287 -0.5408
  455TIP3    H1 1371   3.421   1.509   0.872 -0.6596  1.3015  0.1873
  455TIP3    H2 1372   3.506   1.604   0.790 -0.1231 -0.2731 -1.1381
  456TIP3   OH2 1373   5.113   3.593   2.844 -0.0147 -0.0373 -0.2168
  456TIP3    H1 1374   5.020   3.607   2.827 -0.5421 -1.0044  1.6017
  456TIP3    H2 1375   5.145   3.677   2.876 -0.4005  0.1300 -0.2704
  457TIP3   OH2 1376   6.127   0.192   1.492  0.1544  1.0412 -0.8462
  457TIP3    H1 1377   6.196   0.127   1.505 -0.0080  0.7892 -1.2308
  457TIP3    H2 1378   6.127   0.243   1.573 -1.3104 -0.8992  0.4592
  458TIP3   OH2 1379   2.865   5.999   4.473 -0.6130  0.3829 -0.0339
  458TIP3    H1 1380   2.786   5.981   4.524 -0.3322  0.6935  0.5133
  458TIP3    H2 1381   2.925   5.927   4.496 -0.6975  0.2031 -0.3710
  459TIP3   OH2 1382   0.028   2.489   2.372 -0.8523  0.0161 -0.1058
  459TIP3    H1 1383   0.003   2.565   2.424 -3.0490 -0.6780 -0.0487
  459TIP3    H2 1384   0.002   2.511   2.282 -3.2587 -1.3088  0.1925
  460TIP3   OH2 1385   0.433   4.931   1.109  0.0727 -0.2277  0.0271
  460TIP3    H1 1386   0.355   4.920   1.055  1.8724 -0.5173 -2.7270
  460TIP3    H2 1387   0.410   5.000   1.171 -1.8781  0.7789 -1.6782
  461TIP3   OH2 1388   3.491   0.662   1.930  0.0251 -0.7207  0.5631
  461TIP3    H1 1389   3.552   0.610   1.982  0.1257 -0.2542  0.9154
  461TIP3    H2 1390   3.547   0.724   1.882 -0.0764 -1.0543  0.0008
  462TIP3   OH2 1391   1.859   2.657   5.152  0.0877 -0.4079 -0.3225
  462TIP3    H1 1392   1.884   2.565   5.139 -0.5862 -0.4329 -1.5369
  462TIP3    H2 1393   1.942   2.703   5.164  0.3910 -1.3912  2.0734
  463TIP3   OH2 1394   2.265   3.810   2.264  0.4531 -0.8226 -0.0373
  463TIP3    H1 1395   2.248   3.728   2.217 -1.9594 -0.4948  0.1292
  463TIP3    H2 1396   2.252   3.879   2.199  1.9495 -0.5074 -0.0421
  464TIP3   OH2 1397   3.550   3.497   2.730  0.0174  0.2769  0.1975
  464TIP3    H1 1398   3.620   3.497   2.665 -0.3057  0.1015 -0.1494
  464TIP3    H2 1399   3.499   3.418   2.711  0.3878 -0.2160  1.1557
  465TIP3   OH2 1400   2.615   0.095   2.566  0.1866  0.2579 -0.1975
  465TIP3    H1 1401   2.659   0.096   2.651  0.3267  0.2508 -0.2705
  465TIP3    H2 1402   2.526   0.065   2.585 -0.0543  1.1057  0.0813
  466TIP3   OH2 1403   0.914   2.814   4.071  0.3521  0.3934 -0.1033
  466TIP3    H1 1404   0.869   2.891   4.104  1.4060  1.1505 -0.3888
  466TIP3    H2 1405   0.857   2.741   4.094 -0.1629  1.1467  1.1091
  467TIP3   OH2 1406   1.557   3.802   2.487 -0.2702  0.2258  0.1401
  467TIP3    H1 1407   1.565   3.748   2.409 -1.0270  1.0292 -0.5147
  467TIP3    H2 1408   1.550   3.739   2.559 -0.9821 -0.5451 -0.5865
  468TIP3   OH2 1409   2.377   4.554   3.626  0.0555  0.1907  0.2755
  468TIP3    H1 1410   2.307   4.582   3.684 -0.8693  0.6248 -1.0081
  468TIP3    H2 1411   2.364   4.460   3.616 -1.8811  0.5936 -1.8257
  469TIP3   OH2 1412   5.206   5.336   2.366 -0.2990 -0.1013  0.1032
  469TIP3    H1 1413   5.147   5.283   2.420  1.1509 -0.0500  1.8691
  469TIP3    H2 1414   5.149   5.398   2.321 -1.7250 -1.0737  0.4843
  470TIP3   OH2 1415   4.341   1.966   2.574 -0.1365  0.0821 -0.1523
  470TIP3    H1 1416   4.275   2.034   2.585 -1.2668 -0.6556 -2.0147
  470TIP3    H2 1417   4.397   1.998   2.502  0.7032  0.0631  0.4768
  471TIP3   OH2 1418   5.137   0.843   3.471  0.3245  0.9704 -0.3831
  471TIP3    H1 1419   5.127   0.750   3.493  3.0200  0.5836 -0.4796
  471TIP3    H2 1420   5.166   0.883   3.553  2.7902  0.9710 -1.1745
  472TIP3   OH2 1421   2.222   1.609   0.492  0.4003 -0.1192 -0.2415
  472TIP3    H1 1422   2.311   1.579   0.475  0.2057 -0.5433 -0.4970
  472TIP3    H2 1423   2.190   1.551   0.561  0.3836  0.1503 -0.0197
  473TIP3   OH2 1424   5.974   4.572   2.037  0.1487  0.4447 -0.0245
  473TIP3    H1 1425   5.994   4.526   1.955 -0.6350  1.1104 -0.6092
  473TIP3    H2 1426   5.985   4.506   2.105  1.1472 -0.0332 -0.6316
  474TIP3   OH2 1427   4.700   5.826   3.339  0.0089  0.1462 -0.6229
  474TIP3    H1 1428   4.717   5.798   3.429 -0.1306  1.0696 -0.2985
  474TIP3    H2 1429   4.605   5.835   3.334  0.0491  0.5309 -0.7254
  475TIP3   OH2 1430   5.348   2.978   0.247  0.3917  0.6950  0.2466
  475TIP3    H1 1431   5.421   2.918   0.261  1.2143  1.8733  1.2646
  475TIP3    H2 1432   5.389   3.057   0.210 -0.3943  1.2775  0.5918
  476TIP3   OH2 1433   0.170   1.499   3.968 -0.0053 -0.7970 -0.1002
  476TIP3    H1 1434   0.251   1.547   3.985 -0.1729 -0.8686  0.9785
  476TIP3    H2 1435   0.102   1.566   3.964 -0.3010 -0.9456  1.8152
  477TIP3   OH2 1436   5.301   0.238   3.867  0.4069  0.1647 -0.4339
  477TIP3    H1 1437   5.294   0.307   3.933 -0.9272 -1.2860  1.0166
  477TIP3    H2 1438   5.358   0.173   3.907 -0.0459 -0.5263 -0.8983
  478TIP3   OH2 1439   5.474   5.367   2.185  0.0698  0.3186  0.0215
  478TIP3    H1 1440   5.379   5.377   2.186  0.1655  1.3811 -0.6161
  478TIP3    H2 1441   5.504   5.426   2.116  1.0878 -1.0271 -0.7344
  479TIP3   OH2 1442   3.580   2.551   2.719 -0.3512  0.0514  0.3494
  479TIP3    H1 1443   3.595   2.536   2.812  1.7194 -0.7369 -0.0685
  479TIP3    H2 1444   3.571   2.463   2.681 -0.6305  0.3423 -0.2848
  480TIP3   OH2 1445   1.159   4.800   0.387 -0.2661  0.1654 -0.3393
  480TIP3    H1 1446   1.213   4.723   0.367  1.0750  0.4880  1.8063
  480TIP3    H2 1447   1.186   4.866   0.323  0.7394 -0.1973 -0.3024
  481TIP3   OH2 1448   4.329   2.577   2.167  0.0370  0.3763  0.5048
  481TIP3    H1 1449   4.300   2.668   2.175  0.5177  0.6559 -0.7662
  481TIP3    H2 1450   4.424   2.581   2.173 -0.0004 -0.2728  2.2413
  482TIP3   OH2 1451   5.542   2.034   1.080  0.4472 -0.9309  0.1111
  482TIP3    H1 1452   5.579   1.945   1.081  0.4332 -1.0072 -1.8459
  482TIP3    H2 1453   5.461   2.025   1.030  1.8489  0.5997 -2.7347
  483TIP3   OH2 1454   6.186   1.876   4.865 -0.0248 -0.2566 -0.6937
  483TIP3    H1 1455   6.237   1.941   4.817  1.1437 -1.9523 -1.8852
  483TIP3    H2 1456   6.095   1.893   4.839  0.1681  1.3134 -0.4077
  484TIP3   OH2 1457   3.038   0.278   2.134 -0.7211  0.5628 -0.0225
  484TIP3    H1 1458   3.079   0.193   2.115  2.2753  1.7905  0.4864
  484TIP3    H2 1459   3.016   0.274   2.227 -0.7251  0.3292 -0.0313
  485TIP3   OH2 1460   3.910   0.873   1.885 -0.2747  0.3032  0.0053
  485TIP3    H1 1461   3.971   0.935   1.845  0.9866 -0.4273  0.7049
  485TIP3    H2 1462   3.959   0.791   1.888 -1.3701 -0.3495  0.4363
  486TIP3   OH2 1463   5.972   0.433   2.972 -0.8949 -0.1634 -0.3983
  486TIP3    H1 1464   6.055   0.424   3.019 -1.8747 -0.2866  1.4199
  486TIP3    H2 1465   5.997   0.442   2.880  1.1938  0.9888  0.2017
  487TIP3   OH2 1466   4.379   0.906   2.362 -0.5864  0.7444  0.1668
  487TIP3    H1 1467   4.307   0.914   2.300 -0.9029  1.8576  0.6631
  487TIP3    H2 1468   4.398   0.996   2.389  1.0984  0.4936 -0.0777
  488TIP3   OH2 1469   4.985   5.826   3.806  0.1012 -0.2603  0.3213
  488TIP3    H1 1470   4.984   5.785   3.893  0.7253 -0.6826  0.1367
  488TIP3    H2 1471   5.025   5.911   3.821  1.6843 -0.9450  0.2098
  489TIP3   OH2 1472   3.197   3.133   3.433  0.0452  0.0873  0.3241
  489TIP3    H1 1473   3.108   3.146   3.402  1.0780  2.5256 -2.0587
  489TIP3    H2 1474   3.217   3.042   3.413 -0.7881  0.4322 -2.4590
  490TIP3   OH2 1475   4.998   2.572   1.030  0.6913 -0.2745 -0.4635
  490TIP3    H1 1476   4.964   2.652   0.988  0.9366 -0.8064 -1.7155
  490TIP3    H2 1477   5.078   2.600   1.073 -0.5466  0.7074  1.3627
  491TIP3   OH2 1478   2.459   4.980   4.247  0.0352  0.3050 -1.0629
  491TIP3    H1 1479   2.395   4.910   4.257 -0.6509  1.0028 -0.4003
  491TIP3    H2 1480   2.406   5.059   4.237  0.7700  0.9951  0.2160
  492TIP3   OH2 1481   0.218   5.593   0.598  0.3125  0.3951 -0.3550
  492TIP3    H1 1482   0.251   5.590   0.688 -0.9475 -1.3681  0.0775
  492TIP3    H2 1483   0.281   5.650   0.553  1.0614  1.2090  1.5781
  493TIP3   OH2 1484   0.896   2.396   3.942 -0.0718  0.0962 -0.0030
  493TIP3    H1 1485   0.819   2.342   3.927 -1.0579  0.8864  1.9565
  493TIP3    H2 1486   0.902   2.405   4.037  3.4579 -1.3511  0.0572
  494TIP3   OH2 1487   2.449   5.013   1.355 -0.2428 -0.1704  0.1063
  494TIP3    H1 1488   2.540   5.002   1.381  0.7162  2.9846 -1.4018
  494TIP3    H2 1489   2.416   5.081   1.414 -1.5319 -0.9952  0.3724
  495TIP3   OH2 1490   2.251   2.347   2.115  0.4299  0.2093 -0.0444
  495TIP3    H1 1491   2.161   2.375   2.098  0.5860 -0.7267 -3.0755
  495TIP3    H2 1492   2.242   2.260   2.155 -0.0508 -0.2301 -1.0706
  496TIP3   OH2 1493   1.454   5.296   3.652 -0.2771  0.2323 -0.0352
  496TIP3    H1 1494   1.394   5.229   3.684  0.2770  0.3883  1.4119
  496TIP3    H2 1495   1.541   5.257   3.658 -0.0884  0.5329 -0.6827
  497TIP3   OH2 1496   4.448   2.944   2.688 -0.1684 -0.1527 -0.0852
  497TIP3    H1 1497   4.515   2.886   2.652  0.2034  1.1921 -1.7296
  497TIP3    H2 1498   4.458   2.937   2.783  0.9757 -1.4717 -0.2691
  498TIP3   OH2 1499   0.079   4.843   0.143  0.2527  0.2486 -0.3894
  498TIP3    H1 1500   0.113   4.890   0.067  0.2856  1.3417  0.2802
  498TIP3    H2 1501   0.063   4.911   0.209 -2.2127 -0.3266 -0.2915
  499TIP3   OH2 1502   3.201   0.970   4.365  0.6293 -0.8659 -0.8483
  499TIP3    H1 1503   3.153   0.898   4.407  0.4597 -0.3502 -0.1425
  499TIP3    H2 1504   3.190   1.044   4.425  0.5229 -0.1559 -1.7306
  500TIP3   OH2 1505   2.133   0.526   0.519 -0.1301 -0.0263 -0.0698
  500TIP3    H1 1506   2.154   0.556   0.431 -2.8936  0.0669 -0.7816
  500TIP3    H2 1507   2.218   0.512   0.560  1.3051 -1.9761 -3.3353
  501TIP3   OH2 1508   5.681   0.073   5.057  0.8261  0.5036 -0.2361
  501TIP3    H1 1509   5.717   0.037   4.977 -0.5188  0.0556 -0.6690
  501TIP3    H2 1510   5.601   0.118   5.029  0.2439  0.1910  0.8683
  502TIP3   OH2 1511   4.415   3.396   2.384  0.5567 -0.5733 -0.5410
  502TIP3    H1 1512   4.500   3.357   2.362  0.4276 -1.1704 -0.0033
  502TIP3    H2 1513   4.356   3.322   2.395  0.5329 -0.3242  1.4370
  503TIP3   OH2 1514   5.974   1.593   3.623 -1.0436 -0.0491 -0.2228
  503TIP3    H1 1515   5.900   1.635   3.578 -0.6163 -0.6134 -1.5161
  503TIP3    H2 1516   6.052   1.628   3.579 -0.3712  1.9405  2.3115
  504TIP3   OH2 1517   1.907   5.886   3.629 -0.0029 -0.2054 -0.3251
  504TIP3    H1 1518   1.928   5.882   3.722 -0.2331 -1.1257 -0.3037
  504TIP3    H2 1519   1.906   5.795   3.600  2.2271  0.1197 -1.7143
  505TIP3   OH2 1520   3.505   5.217   3.321  0.3285 -0.6643  0.6319
  505TIP3    H1 1521   3.502   5.145   3.258 -2.0284 -0.2915  0.2113
  505TIP3    H2 1522   3.487   5.175   3.406  1.0609 -0.8381  0.7054
  506TIP3   OH2 1523   0.086   4.977   4.956  0.5200  0.3601 -0.2480
  506TIP3    H1 1524  -0.003   4.972   4.921  0.5819 -1.8978 -0.1929
  506TIP3    H2 1525   0.074   4.994   5.049  0.1222 -0.6415 -0.1150
  507TIP3   OH2 1526   5.947   1.974   2.928  0.6148 -0.2046  0.1084
  507TIP3    H1 1527   6.018   1.988   2.991  1.0377 -0.5036 -0.2924
  507TIP3    H2 1528   5.869   2.008   2.972  0.9261 -0.2778  0.7355
  508TIP3   OH2 1529   0.391   4.704   5.061 -0.1160  0.0095 -0.1008
  508TIP3    H1 1530   0.373   4.790   5.022 -0.4948 -0.6622 -1.4884
  508TIP3    H2 1531   0.463   4.669   5.008  1.5975  0.3482  1.8558
  509TIP3   OH2 1532   2.765   0.800   0.419 -0.3351  0.8118 -0.0127
  509TIP3    H1 1533   2.844   0.852   0.401  0.4320 -0.0241  0.8692
  509TIP3    H2 1534   2.778   0.719   0.371 -1.5483  1.3901 -1.4057
  510TIP3   OH2 1535   0.685   5.921   3.319 -0.1532 -0.5650 -0.0361
  510TIP3    H1 1536   0.597   5.933   3.356 -0.8466 -1.3175 -1.3337
  510TIP3    H2 1537   0.678   5.839   3.270  0.9208  0.0340 -1.2220
  511TIP3   OH2 1538   5.006   4.132   0.319 -0.1369 -0.0724 -0.2660
  511TIP3    H1 1539   5.093   4.139   0.359 -0.8961  1.4987  1.2422
  511TIP3    H2 1540   5.021   4.151   0.226  1.0663  0.7977  0.0774
  512TIP3   OH2 1541   3.792   2.530   4.359 -0.3597  0.8977  0.6835
  512TIP3    H1 1542   3.876   2.487   4.343 -0.7084 -0.4457  2.1888
  512TIP3    H2 1543   3.732   2.491   4.295 -0.0245  1.2768  0.1334
  513TIP3   OH2 1544   4.683   4.448   1.708  0.4497  0.1334 -0.0419
  513TIP3    H1 1545   4.660   4.386   1.639  1.4692 -0.6942  0.3319
  513TIP3    H2 1546   4.777   4.437   1.720  0.0992 -0.7882  2.4386
  514TIP3   OH2 1547   4.529   4.896   1.485 -0.1558  0.0253  0.1881
  514TIP3    H1 1548   4.514   4.815   1.533 -1.1554 -0.6489 -1.1820
  514TIP3    H2 1549   4.482   4.884   1.402 -0.7413  2.1835  0.1317
  515TIP3   OH2 1550   2.242   1.274   0.425 -0.1887 -0.8924 -0.1083
  515TIP3    H1 1551   2.168   1.261   0.485  0.5755  0.4115  1.2121
  515TIP3    H2 1552   2.319   1.257   0.479  0.5091 -2.5418 -1.5430
  516TIP3   OH2 1553   5.576   1.047   3.187 -0.5345 -0.2029  0.1442
  516TIP3    H1 1554   5.545   1.074   3.273 -0.4224 -0.6799  0.3378
  516TIP3    H2 1555   5.537   0.961   3.173  1.7739 -1.4667  1.0116
  517TIP3   OH2 1556   1.645   3.038   3.949  0.6417 -0.2632 -0.1670
  517TIP3    H1 1557   1.705   3.000   4.012  1.9170  1.6929 -0.1320
  517TIP3    H2 1558   1.616   3.120   3.989  0.9860  0.7062 -1.8197
  518TIP3   OH2 1559   4.711   2.726   4.986  0.2792  0.0748 -0.1828
  518TIP3    H1 1560   4.754   2.804   5.022  0.4846  0.0259 -0.3143
  518TIP3    H2 1561   4.724   2.658   5.052 -2.2368  0.8189  1.1786
  519TIP3   OH2 1562   4.325   4.605   2.637 -0.2530  0.2701 -0.1762
  519TIP3    H1 1563   4.414   4.629   2.612 -0.3464  0.1872 -0.6095
  519TIP3    H2 1564   4.290   4.684   2.679 -0.1383  0.4731 -0.4550
  520TIP3   OH2 1565   0.610   0.577   0.629 -0.2984  0.1429 -0.0600
  520TIP3    H1 1566   0.536   0.528   0.594 -0.3699 -0.0258  0.3234
  520TIP3    H2 1567   0.686   0.520   0.613  0.1307  1.2310 -2.4785
  521TIP3   OH2 1568   2.222   1.148   3.805 -0.4369  0.1490  0.1500
  521TIP3    H1 1569   2.158   1.137   3.875 -1.2020  2.1788 -0.1655
  521TIP3    H2 1570   2.182   1.106   3.729 -0.0792 -1.1112  0.6326
  522TIP3   OH2 1571   5.814   4.138   4.951 -0.5159 -0.5583 -0.3540
  522TIP3    H1 1572   5.753   4.209   4.969 -1.0414 -0.9833 -0.4400
  522TIP3    H2 1573   5.788   4.104   4.866 -1.3423 -1.9355  0.4090
  523TIP3   OH2 1574   0.028   3.740   4.336  0.4904  0.2740  0.1960
  523TIP3    H1 1575   0.115   3.751   4.375  0.1813 -0.0179  0.9950
  523TIP3    H2 1576  -0.006   3.829   4.327  0.4102  0.3323  0.9858
  524TIP3   OH2 1577   1.807   0.321   4.078  0.2951  0.4425 -0.1003
  524TIP3    H1 1578   1.769   0.257   4.018 -0.5358  0.0303  0.8257
  524TIP3    H2 1579   1.736   0.342   4.138  0.3695  2.7274 -0.7385
  525TIP3   OH2 1580   4.010   4.770   0.480 -0.9667  0.1031  0.1259
  525TIP3    H1 1581   4.004   4.698   0.418  0.5924  0.7106 -0.7836
  525TIP3    H2 1582   3.922   4.807   0.482 -2.1227 -2.4522  1.4867
  526TIP3   OH2 1583   1.601   5.755   4.503 -0.3263  0.0486  0.7813
  526TIP3    H1 1584   1.578   5.788   4.590 -0.5161 -1.0278  1.1592
  526TIP3    H2 1585   1.557   5.670   4.498  0.7500 -0.4874  0.1520
  527TIP3   OH2 1586   2.239   2.329   0.351  0.3967  0.5677 -0.4177
  527TIP3    H1 1587   2.305   2.261   0.334  0.6111  0.1508  1.8522
  527TIP3    H2 1588   2.290   2.404   0.382 -0.0479  0.9300 -0.5589
  528TIP3   OH2 1589   2.786   0.581   1.493  0.0288  0.0301 -0.2618
  528TIP3    H1 1590   2.866   0.560   1.445 -0.4318 -0.7034 -0.7504
  528TIP3    H2 1591   2.780   0.676   1.492  0.0900  0.0392 -1.5996
  529TIP3   OH2 1592   5.403   2.085   3.113  0.7584  0.5463  0.1942
  529TIP3    H1 1593   5.400   2.079   3.208 -1.0288 -0.1489  0.1424
  529TIP3    H2 1594   5.362   2.170   3.094 -2.1949 -0.7751  0.0149
  530TIP3   OH2 1595   5.133   0.599   3.568  0.0808  0.3637 -0.3888
  530TIP3    H1 1596   5.123   0.566   3.658  0.6175  0.5134 -0.2671
  530TIP3    H2 1597   5.159   0.522   3.517 -0.7926  0.1589 -0.5334
  531TIP3   OH2 1598   1.920   3.655   2.606  0.3667 -0.7707 -0.8398
  531TIP3    H1 1599   1.972   3.684   2.680  0.4003  0.0824 -1.1937
  531TIP3    H2 1600   1.985   3.625   2.542  0.4071 -0.1103 -1.1109
  532TIP3   OH2 1601   1.064   0.095   2.039  0.6966  0.0177  0.1132
  532TIP3    H1 1602   1.156   0.103   2.016  0.4958  0.5262 -0.5408
  532TIP3    H2 1603   1.062   0.103   2.135  1.3424 -0.1812  0.1462
  533TIP3   OH2 1604   4.689   2.497   4.064  0.7833 -0.4799  0.3139
  533TIP3    H1 1605   4.619   2.490   4.000  0.9351  0.8348 -0.0134
  533TIP3    H2 1606   4.646   2.482   4.148  0.2969 -0.6581  0.0340
  534TIP3   OH2 1607   5.652   5.390   0.748  0.2516 -0.3848  0.0994
  534TIP3    H1 1608   5.601   5.468   0.770 -2.7968 -1.5036 -2.2769
  534TIP3    H2 1609   5.616   5.321   0.803 -0.0627 -0.9686 -0.8177
  535TIP3   OH2 1610   4.341   1.006   3.896 -1.0080  0.3542 -0.1983
  535TIP3    H1 1611   4.379   0.920   3.913 -1.7055 -0.8039 -3.8261
  535TIP3    H2 1612   4.254   1.002   3.935 -1.2825 -0.8371 -0.9093
  536TIP3   OH2 1613   1.674   0.084   4.022  0.1909 -0.0134 -0.0290
  536TIP3    H1 1614   1.678   0.032   3.941 -1.6189  1.1565 -0.9347
  536TIP3    H2 1615   1.648   0.020   4.089 -1.7746 -0.4097 -1.0787
  537TIP3   OH2 1616   4.895   4.422   3.347 -0.5255 -0.0914 -0.4291
  537TIP3    H1 1617   4.953   4.383   3.281  0.5740  0.1128  0.3947
  537TIP3    H2 1618   4.844   4.348   3.381  0.7681 -0.6592  0.3464
  538TIP3   OH2 1619   1.576   4.544   2.395  0.0384  0.1196  0.2961
  538TIP3    H1 1620   1.561   4.536   2.490 -0.5675 -0.3168  0.1744
  538TIP3    H2 1621   1.556   4.457   2.361  2.1047 -0.2844 -0.0166
  539TIP3   OH2 1622   5.489   4.608   2.189  0.5617  0.2284  0.2577
  539TIP3    H1 1623   5.479   4.540   2.256 -1.9381 -0.1446 -0.3866
  539TIP3    H2 1624   5.536   4.679   2.233 -0.0803 -0.4333  2.0914
  540TIP3   OH2 1625   0.289   5.349   0.110 -0.0682 -0.0859 -0.4138
  540TIP3    H1 1626   0.254   5.414   0.170 -1.1810 -0.3555 -0.7532
  540TIP3    H2 1627   0.212   5.303   0.076  0.2484  1.5944 -3.8421
  541TIP3   OH2 1628   1.587   2.223   3.242  0.0004 -0.1489 -0.9530
  541TIP3    H1 1629   1.560   2.195   3.330  2.8159 -1.4355 -0.3668
  541TIP3    H2 1630   1.577   2.318   3.243 -3.1294 -0.3710 -0.4780
  542TIP3   OH2 1631   1.240   3.703   2.676  0.1696 -0.4726  0.1296
  542TIP3    H1 1632   1.320   3.655   2.697 -0.1842 -0.8866  0.5530
  542TIP3    H2 1633   1.265   3.795   2.679  1.1721 -0.6201 -1.9316
  543TIP3   OH2 1634   2.347   5.213   1.758 -0.3298 -0.3067 -0.1590
  543TIP3    H1 1635   2.429   5.261   1.745  0.5900 -1.6207  0.6112
  543TIP3    H2 1636   2.309   5.252   1.836 -1.1001  1.1393 -1.2011
  544TIP3   OH2 1637   2.182   0.763   1.201  0.0850  0.5975  0.3227
  544TIP3    H1 1638   2.221   0.771   1.114  0.7887 -1.7115  0.3541
  544TIP3    H2 1639   2.236   0.819   1.257  1.8110 -0.5277 -0.1296
  545TIP3   OH2 1640   5.576   3.220   1.169  0.0439  0.5800  0.1319
  545TIP3    H1 1641   5.585   3.287   1.101  1.1252 -0.0914 -0.4114
  545TIP3    H2 1642   5.647   3.159   1.152 -0.3996 -0.2488  1.1519
  546TIP3   OH2 1643   5.330   5.730   3.996 -0.1600 -0.1553  0.8218
  546TIP3    H1 1644   5.392   5.797   4.025  1.9780 -1.5613 -0.2642
  546TIP3    H2 1645   5.318   5.748   3.903  0.8901 -1.5750  0.3860
  547TIP3   OH2 1646   0.849   5.223   1.544  0.2086  0.0255 -0.1781
  547TIP3    H1 1647   0.915   5.243   1.479  0.1681 -0.2902 -0.3186
  547TIP3    H2 1648   0.892   5.162   1.605  1.1597  2.4224  1.6941
  548TIP3   OH2 1649   4.710   3.318   0.505  0.7159  0.0766 -0.1393
  548TIP3    H1 1650   4.684   3.227   0.520  0.3674  0.1986  0.0152
  548TIP3    H2 1651   4.641   3.369   0.547  0.4595  0.4219 -0.9808
  549TIP3   OH2 1652   6.126   2.905   0.581 -0.7543 -0.0741  0.0903
  549TIP3    H1 1653   6.104   2.855   0.503 -1.1494  0.6741 -0.2857
  549TIP3    H2 1654   6.048   2.900   0.636 -1.4773  1.5885 -0.7259
  550TIP3   OH2 1655   0.440   2.617   3.034 -0.0641  0.0772  0.1530
  550TIP3    H1 1656   0.494   2.689   3.001  2.6315 -0.8076  2.1800
  550TIP3    H2 1657   0.462   2.543   2.977 -0.1291  0.0366  0.1805
  551TIP3   OH2 1658   3.070   4.428   2.489  0.6690 -0.4362 -0.4628
  551TIP3    H1 1659   3.159   4.395   2.484  1.0440 -0.0566  2.0303
  551TIP3    H2 1660   3.019   4.353   2.521  0.7479  0.1477  1.1555
  552TIP3   OH2 1661   4.862   3.782   1.223  0.0868  0.2753  0.2003
  552TIP3    H1 1662   4.881   3.732   1.302 -0.0005 -0.4233 -0.2093
  552TIP3    H2 1663   4.947   3.796   1.182  0.0107 -0.3958 -0.1886
  553TIP3   OH2 1664   1.666   5.146   0.290  0.3497 -0.0141  0.7144
  553TIP3    H1 1665   1.759   5.164   0.294 -0.2706  3.5607  2.6939
  553TIP3    H2 1666   1.624   5.228   0.315 -3.3124 -1.9440  1.6404
  554TIP3   OH2 1667   4.235   1.137   0.407 -0.1500 -0.0404  0.3777
  554TIP3    H1 1668   4.248   1.142   0.501 -0.9440  0.2582  0.4807
  554TIP3    H2 1669   4.321   1.159   0.369  0.3308 -0.7599  1.0281
  555TIP3   OH2 1670   5.383   4.220   1.067  0.3869  0.6998 -0.3030
  555TIP3    H1 1671   5.474   4.230   1.039  0.4716  1.4285  0.2062
  555TIP3    H2 1672   5.390   4.192   1.159  0.1008 -0.2518 -0.5584
  556TIP3   OH2 1673   0.243   0.076   4.236  0.1101 -0.7219 -0.2558
  556TIP3    H1 1674   0.190   0.154   4.247  0.6950 -0.2440 -0.7569
  556TIP3    H2 1675   0.197   0.024   4.170 -0.6618 -1.1503  0.6107
  557TIP3   OH2 1676   5.076   0.149   2.720  0.3288 -0.0416  0.0884
  557TIP3    H1 1677   5.008   0.216   2.724 -1.4096 -1.7630  1.5950
  557TIP3    H2 1678   5.048   0.090   2.650 -0.1089 -1.0579  1.0726
  558TIP3   OH2 1679   6.084   1.315   4.304  0.0316  0.2964 -0.6771
  558TIP3    H1 1680   6.013   1.371   4.272  0.2907  0.9898 -0.0542
  558TIP3    H2 1681   6.163   1.369   4.296  0.3372 -0.0996 -0.3911
  559TIP3   OH2 1682   2.014   3.722   2.142 -0.4991  0.5957  0.3197
  559TIP3    H1 1683   1.966   3.713   2.060  0.3394  2.6774 -0.4749
  559TIP3    H2 1684   2.061   3.640   2.152 -1.4198 -0.0828 -0.7381
  560TIP3   OH2 1685   0.459   1.717   3.252 -0.3197 -1.0949 -0.0203
  560TIP3    H1 1686   0.420   1.797   3.285  0.8819 -0.5893  0.2156
  560TIP3    H2 1687   0.440   1.718   3.158  1.8798  0.8299 -0.5473
  561TIP3   OH2 1688   4.202   1.140   1.018  0.5478 -0.0444 -0.8402
  561TIP3    H1 1689   4.111   1.162   1.036  0.3116 -0.7049 -1.2204
  561TIP3    H2 1690   4.225   1.194   0.942  0.5190  0.2209 -0.6630
  562TIP3   OH2 1691   0.471   3.784   1.061 -0.4661 -0.2427  0.3753
  562TIP3    H1 1692   0.414   3.824   0.996  1.3166  0.6167 -0.7084
  562TIP3    H2 1693   0.492   3.855   1.122 -1.3001 -0.7936  1.3379
  563TIP3   OH2 1694   4.470   5.800   1.975  0.1763 -0.5692 -0.2744
  563TIP3    H1 1695   4.469   5.893   1.954  0.2590 -0.5720 -0.2920
  563TIP3    H2 1696   4.508   5.796   2.063 -2.2082 -0.3606  0.8314
  564TIP3   OH2 1697   2.441   2.993   0.968 -0.2735 -0.0559  0.0042
  564TIP3    H1 1698   2.503   2.943   0.915 -0.1055 -2.1742  2.0179
  564TIP3    H2 1699   2.356   2.982   0.924 -0.5857 -3.7166  1.1954
  565TIP3   OH2 1700   0.254   3.532   2.418  0.0865  0.2694 -0.2342
  565TIP3    H1 1701   0.318   3.468   2.385  0.7695  0.9848 -0.3175
  565TIP3    H2 1702   0.304   3.587   2.477 -0.9647 -0.5634  1.5224
  566TIP3   OH2 1703   1.402   3.757   3.350  0.1726 -0.2646 -0.2962
  566TIP3    H1 1704   1.307   3.763   3.362 -0.0688 -2.9925 -0.0166
  566TIP3    H2 1705   1.412   3.725   3.260  0.9073  0.7825 -0.6027
  567TIP3   OH2 1706   1.539   5.919   2.762  0.3753  0.6784 -0.0108
  567TIP3    H1 1707   1.486   5.909   2.683  0.3299 -0.6761  0.1602
  567TIP3    H2 1708   1.503   5.995   2.806 -1.0340  0.1526 -0.2032
  568TIP3   OH2 1709   2.728   0.843   3.231  0.0208  0.0753  0.7717
  568TIP3    H1 1710   2.823   0.837   3.221 -0.1402 -4.5758 -0.3433
  568TIP3    H2 1711   2.712   0.818   3.322 -0.1562  2.2616  1.3820
  569TIP3   OH2 1712   5.458   1.952   4.885  0.0138 -0.2138  0.1956
  569TIP3    H1 1713   5.545   1.963   4.925 -0.7831  1.4937  1.5855
  569TIP3    H2 1714   5.455   2.020   4.818  0.1031 -0.9472 -0.5734
  570TIP3   OH2 1715   6.177   2.267   3.417 -0.0448 -0.3501  0.8869
  570TIP3    H1 1716   6.146   2.231   3.334  2.1324 -1.4291  0.4562
  570TIP3    H2 1717   6.105   2.253   3.478 -2.4310  2.0268 -1.1192
  571TIP3   OH2 1718   5.626   5.767   4.232  0.3370  0.2168  0.0711
  571TIP3    H1 1719   5.565   5.823   4.185  0.3993  0.5938  0.4428
  571TIP3    H2 1720   5.611   5.680   4.195 -0.4017  0.3094  0.1417
  572TIP3   OH2 1721   5.185   2.139   2.050 -0.5600 -0.0144 -1.0595
  572TIP3    H1 1722   5.134   2.087   1.988 -1.0242  2.2029 -2.6299
  572TIP3    H2 1723   5.257   2.173   1.999  3.3351 -3.7406  1.2626
  573TIP3   OH2 1724   3.790   3.135   2.251 -0.3399 -0.5280 -0.3132
  573TIP3    H1 1725   3.750   3.048   2.260 -2.5665  0.5953  1.6477
  573TIP3    H2 1726   3.799   3.166   2.341  1.1380  0.9911 -0.9471
  574TIP3   OH2 1727   1.397   0.761   1.726  0.5537  0.1079 -0.0293
  574TIP3    H1 1728   1.328   0.695   1.720  0.7774 -0.3911  2.0961
  574TIP3    H2 1729   1.471   0.722   1.680 -0.1774  0.1177 -1.2471
  575TIP3   OH2 1730   0.521   0.973   2.704 -0.4867 -0.3870 -0.3946
  575TIP3    H1 1731   0.607   0.935   2.727 -1.5401 -1.0183  3.1259
  575TIP3    H2 1732   0.463   0.897   2.696 -1.5618  0.1562  1.6272
  576TIP3   OH2 1733   2.591   3.580   4.221  0.0384 -0.2502  0.1135
  576TIP3    H1 1734   2.607   3.571   4.315  1.9682  1.5901  0.0554
  576TIP3    H2 1735   2.569   3.673   4.210 -0.7802 -0.5772 -1.1980
  577TIP3   OH2 1736   5.931   2.271   3.609  0.0962  0.5030  0.3237
  577TIP3    H1 1737   5.901   2.359   3.586  0.2913  0.6887  0.7766
  577TIP3    H2 1738   5.965   2.279   3.697 -1.1284 -0.3222  0.9067
  578TIP3   OH2 1739   6.079   5.035   0.299 -0.2331 -0.1834 -0.2279
  578TIP3    H1 1740   6.085   5.000   0.210  3.0265  0.6889 -0.4943
  578TIP3    H2 1741   6.085   4.958   0.356 -0.7163 -0.6184 -0.7586
  579TIP3   OH2 1742   2.626   2.929   3.439  0.1748 -0.2391  0.1752
  579TIP3    H1 1743   2.549   2.914   3.494 -0.3906  0.9790 -0.2629
  579TIP3    H2 1744   2.617   2.865   3.368 -1.2068  0.8097 -0.6436
  580TIP3   OH2 1745   3.068   0.460   0.367 -0.7933 -0.0448 -0.1034
  580TIP3    H1 1746   3.131   0.531   0.375  1.1212 -1.4746 -1.6058
  580TIP3    H2 1747   2.984   0.504   0.351  0.0404  1.8748  0.5926
  581TIP3   OH2 1748   4.635   1.502   3.954 -0.5725 -0.6964 -0.4616
  581TIP3    H1 1749   4.583   1.532   3.879  0.0961  0.2456 -0.5691
  581TIP3    H2 1750   4.582   1.523   4.030 -0.3613  0.2677 -0.5712
  582TIP3   OH2 1751   4.621   1.756   2.889 -0.4689 -0.4996 -0.0553
  582TIP3    H1 1752   4.596   1.712   2.808 -0.6975 -1.1601  0.3632
  582TIP3    H2 1753   4.542   1.803   2.916 -0.4381 -0.3988 -0.1433
  583TIP3   OH2 1754   3.087   2.651   3.399 -0.0248 -0.4330  0.0697
  583TIP3    H1 1755   3.017   2.668   3.463  0.2165  0.6919  0.0685
  583TIP3    H2 1756   3.042   2.654   3.314  0.1266  1.1348  0.0124
  584TIP3   OH2 1757   4.118   5.644   2.647 -0.1714 -0.4519  0.0307
  584TIP3    H1 1758   4.097   5.599   2.565 -0.3795 -0.8131  0.2841
  584TIP3    H2 1759   4.078   5.591   2.715  0.1645 -0.2553  0.3858
  585TIP3   OH2 1760   0.983   0.807   4.193 -0.0515  0.2938  0.0316
  585TIP3    H1 1761   0.909   0.759   4.157 -0.2426  0.6400 -0.0462
  585TIP3    H2 1762   1.035   0.832   4.116 -0.5103  1.1162 -0.0179
  586TIP3   OH2 1763   2.637   3.137   1.092  0.1298 -0.4747 -0.1641
  586TIP3    H1 1764   2.603   3.189   1.165  0.1604 -1.2656  0.4254
  586TIP3    H2 1765   2.560   3.093   1.057  0.1404 -0.2128 -0.5236
  587TIP3   OH2 1766   1.051   3.119   0.444  0.8082 -0.2602  0.1073
  587TIP3    H1 1767   1.077   3.064   0.370  0.7259 -0.1139 -0.0322
  587TIP3    H2 1768   1.073   3.068   0.522  0.9807 -0.3758 -0.0186
  588TIP3   OH2 1769   4.414   5.016   2.555  0.3647 -0.5704 -0.0795
  588TIP3    H1 1770   4.397   5.101   2.595  2.0219  0.3705 -1.2587
  588TIP3    H2 1771   4.480   4.975   2.612  1.7936  0.2422 -1.0893
  589TIP3   OH2 1772   0.794   5.808   3.916 -0.2800 -0.8254  0.6575
  589TIP3    H1 1773   0.845   5.889   3.918 -1.2099 -0.1493 -0.9995
  589TIP3    H2 1774   0.719   5.826   3.973 -0.1030 -0.8077  0.8886
  590TIP3   OH2 1775   1.599   3.177   3.046 -0.0823 -0.2951  0.8259
  590TIP3    H1 1776   1.630   3.268   3.050  2.9057 -0.9131 -2.9126
  590TIP3    H2 1777   1.664   3.127   3.094 -0.6294 -0.7055  1.1536
  591TIP3   OH2 1778   1.057   3.556   2.852 -0.1920 -0.0122 -0.3775
  591TIP3    H1 1779   1.032   3.639   2.813  0.7703  1.0596  1.1729
  591TIP3    H2 1780   1.109   3.580   2.929 -1.1281 -2.0012  0.9722
  592TIP3   OH2 1781   4.079   2.163   2.820 -0.0151 -0.4363 -0.4929
  592TIP3    H1 1782   4.132   2.201   2.750  0.4593  0.9080  0.5599
  592TIP3    H2 1783   4.043   2.083   2.782 -0.5343  0.7208 -2.5909
  593TIP3   OH2 1784   4.851   0.009   0.692  0.4494  0.5870  0.3701
  593TIP3    H1 1785   4.933  -0.036   0.711  0.2844  0.3424  0.5155
  593TIP3    H2 1786   4.877   0.091   0.650  0.7445  0.2740 -0.0564
  594TIP3   OH2 1787   1.862   4.796   3.138 -0.3768 -0.4649 -0.3730
  594TIP3    H1 1788   1.790   4.734   3.121  0.3107 -1.0392 -1.3122
  594TIP3    H2 1789   1.839   4.837   3.221 -0.8026 -2.0953  0.3725
  595TIP3   OH2 1790   5.703   4.369   1.618  0.6553  0.1035 -0.2007
  595TIP3    H1 1791   5.646   4.386   1.543 -0.5358  0.2679  0.7044
  595TIP3    H2 1792   5.785   4.339   1.580  1.3079  3.4191 -1.7511
  596TIP3   OH2 1793   0.857   5.173   0.336 -0.0404 -0.5580 -0.4516
  596TIP3    H1 1794   0.938   5.214   0.305  0.2120 -0.8442 -0.1862
  596TIP3    H2 1795   0.886   5.093   0.380 -0.4743 -0.6942 -0.4049
  597TIP3   OH2 1796   0.105   4.671   2.766  0.4920 -0.1089 -0.6558
  597TIP3    H1 1797   0.184   4.691   2.717  0.8752 -0.2184 -0.0843
  597TIP3    H2 1798   0.133   4.668   2.857 -0.4544  1.4413 -0.2731
  598TIP3   OH2 1799   1.000   5.986   2.432 -0.0279 -0.0561  0.2196
  598TIP3    H1 1800   1.018   5.957   2.522  0.5010  1.7098  0.7121
  598TIP3    H2 1801   0.921   5.938   2.408  0.4118 -1.3599  1.2257
  599TIP3   OH2 1802   0.105   3.475   0.365  0.5423 -0.0934 -0.0790
  599TIP3    H1 1803   0.185   3.519   0.333  0.0428  0.5173 -0.5190
  599TIP3    H2 1804   0.107   3.488   0.459 -0.8899  3.2080 -0.3738
  600TIP3   OH2 1805   3.201   4.222   1.587 -0.2910 -0.0177  0.8306
  600TIP3    H1 1806   3.141   4.269   1.644  0.2854  0.2557  1.2156
  600TIP3    H2 1807   3.148   4.200   1.510 -1.6870 -2.2360  2.3231
  601TIP3   OH2 1808   0.912   1.598   0.920 -1.1274 -0.1073  0.2320
  601TIP3    H1 1809   0.963   1.518   0.908 -2.7354 -1.0146 -1.0165
  601TIP3    H2 1810   0.971   1.658   0.967  0.3146 -1.8001  0.6841
  602TIP3   OH2 1811   5.851   0.221   2.730 -0.0513  0.4036  0.3920
  602TIP3    H1 1812   5.925   0.170   2.697 -0.4197 -0.8007  1.3726
  602TIP3    H2 1813   5.854   0.302   2.679 -0.0405 -0.9467 -1.9257
  603TIP3   OH2 1814   3.344   3.329   0.351 -0.0619  0.0001  0.2687
  603TIP3    H1 1815   3.385   3.285   0.277 -0.5328 -1.8479  1.0511
  603TIP3    H2 1816   3.298   3.403   0.313 -1.4480 -1.6718 -1.5100
  604TIP3   OH2 1817   6.238   2.427   1.925  0.1475 -0.0704  0.2324
  604TIP3    H1 1818   6.329   2.398   1.922  0.1044 -0.7070  2.5813
  604TIP3    H2 1819   6.195   2.377   1.856  1.0972 -1.8974  0.8697
  605TIP3   OH2 1820   5.778   2.443   0.990  0.8233 -0.2778  0.0798
  605TIP3    H1 1821   5.873   2.438   0.999  0.9851  1.2619 -0.5424
  605TIP3    H2 1822   5.747   2.466   1.078  0.8697 -2.0226  0.6051
  606TIP3   OH2 1823   3.490   0.488   5.110  0.1994  0.4746  0.1726
  606TIP3    H1 1824   3.461   0.561   5.164  0.1822  0.9019 -0.4106
  606TIP3    H2 1825   3.487   0.521   5.021 -2.6502 -1.1389 -0.4293
  607TIP3   OH2 1826   1.953   3.678   4.113  0.5069  0.2203 -0.0775
  607TIP3    H1 1827   1.864   3.707   4.134  0.3816  0.3571 -0.7682
  607TIP3    H2 1828   1.998   3.676   4.197 -0.3314 -0.4700  0.3698
  608TIP3   OH2 1829   4.604   2.014   3.160  0.2515 -0.3139  0.3383
  608TIP3    H1 1830   4.658   1.935   3.169 -0.9769 -0.9986  2.2453
  608TIP3    H2 1831   4.640   2.075   3.224 -0.1278 -0.1247  0.3729
  609TIP3   OH2 1832   2.720   1.294   2.802 -0.0204 -0.8311 -0.8471
  609TIP3    H1 1833   2.785   1.297   2.872 -0.1545  0.8563 -0.7627
  609TIP3    H2 1834   2.677   1.209   2.813 -0.3216 -0.4441  1.3904
  610TIP3   OH2 1835   1.194   0.583   1.007 -0.4997 -0.7773  0.0313
  610TIP3    H1 1836   1.149   0.651   1.057  2.1887 -0.0842  1.6959
  610TIP3    H2 1837   1.170   0.501   1.051 -0.1967 -0.4324  0.8561
  611TIP3   OH2 1838   4.658   2.111   0.487  0.1269  0.2647 -0.0116
  611TIP3    H1 1839   4.751   2.124   0.507 -0.0188 -0.7459  1.4809
  611TIP3    H2 1840   4.646   2.016   0.490 -0.7051  0.2898 -1.5302
  612TIP3   OH2 1841   6.066   2.453   0.017  0.0273 -0.1750  0.1768
  612TIP3    H1 1842   6.089   2.533   0.064  0.4546 -0.5773  0.6654
  612TIP3    H2 1843   6.038   2.393   0.086 -0.2375 -0.4647 -0.1823
  613TIP3   OH2 1844   4.424   0.344   3.195 -0.2102  0.0923  0.7561
  613TIP3    H1 1845   4.379   0.262   3.175  1.4508 -0.7026  0.0486
  613TIP3    H2 1846   4.472   0.326   3.275  0.5299  0.2037  0.3474
  614TIP3   OH2 1847   4.631   0.498   3.922 -0.2147  0.0117  0.0985
  614TIP3    H1 1848   4.572   0.439   3.969 -0.5365  1.5807  1.7812
  614TIP3    H2 1849   4.681   0.542   3.990  0.3267  1.3521 -1.1000
  615TIP3   OH2 1850   5.958   1.107   4.634 -0.0305  0.2877 -0.7485
  615TIP3    H1 1851   6.017   1.117   4.709 -0.3429  0.8881 -0.5762
  615TIP3    H2 1852   6.015   1.112   4.558  0.0901  1.4078 -0.6039
  616TIP3   OH2 1853   4.883   1.944   1.699 -0.4242  0.5859  0.0372
  616TIP3    H1 1854   4.920   1.930   1.786 -0.0733 -1.0598 -0.3402
  616TIP3    H2 1855   4.811   1.882   1.693 -0.4446  0.6762 -0.8354
  617TIP3   OH2 1856   0.893   1.090   2.999  0.0688 -0.1745  0.3132
  617TIP3    H1 1857   0.927   1.043   3.075 -1.2705 -0.3026  0.8666
  617TIP3    H2 1858   0.865   1.174   3.034 -0.9060 -0.3783  0.0543
  618TIP3   OH2 1859   3.756   5.895   2.312 -0.5827 -0.7594  0.4842
  618TIP3    H1 1860   3.797   5.874   2.228  0.3935 -2.0862  1.2516
  618TIP3    H2 1861   3.783   5.985   2.330  0.9292 -1.1540  0.3254
  619TIP3   OH2 1862   5.300   1.403   2.936 -0.4431 -0.0222 -0.0950
  619TIP3    H1 1863   5.255   1.318   2.936 -1.8744  0.6970 -1.1482
  619TIP3    H2 1864   5.260   1.452   3.007 -1.2587  0.5677 -0.9394
  620TIP3   OH2 1865   6.124   4.908   3.562  0.0907 -0.0536  0.2774
  620TIP3    H1 1866   6.066   4.886   3.489  1.2278 -0.0059 -0.6630
  620TIP3    H2 1867   6.175   4.829   3.576 -0.9537 -0.5034  1.8846
  621TIP3   OH2 1868   4.689   4.697   3.803 -0.3478  0.1025 -0.0640
  621TIP3    H1 1869   4.643   4.701   3.887  0.9133  0.1235  0.6396
  621TIP3    H2 1870   4.639   4.634   3.752 -1.0450 -0.0221  0.7466
  622TIP3   OH2 1871   4.047   3.264   4.649  0.2503  0.0846 -0.1127
  622TIP3    H1 1872   4.014   3.278   4.560 -2.5474 -0.2300  0.7692
  622TIP3    H2 1873   4.040   3.170   4.663  2.3493 -0.1214 -0.0841
  623TIP3   OH2 1874   3.998   5.137   1.609  0.1863 -0.3706  0.4212
  623TIP3    H1 1875   4.062   5.078   1.570  0.8528 -0.0027  0.9272
  623TIP3    H2 1876   3.999   5.214   1.552 -0.1413 -0.5401  0.1797
  624TIP3   OH2 1877   4.024   1.675   2.583 -0.3742  0.4403  0.0724
  624TIP3    H1 1878   4.078   1.678   2.504  0.5337  1.4452  0.6910
  624TIP3    H2 1879   3.973   1.595   2.575  2.9056 -1.8856  0.5242
  625TIP3   OH2 1880   4.562   3.061   2.175  0.5756 -0.4156  0.0546
  625TIP3    H1 1881   4.507   3.080   2.099  1.1098  0.1988 -0.1836
  625TIP3    H2 1882   4.620   2.991   2.146  2.3419  1.3460 -0.8955
  626TIP3   OH2 1883   0.898   0.886   2.316  0.1134  0.3794  0.4275
  626TIP3    H1 1884   0.943   0.807   2.347  2.8191  1.5234 -0.2462
  626TIP3    H2 1885   0.901   0.879   2.220  1.1453  1.6289  0.3422
  627TIP3   OH2 1886   2.105   2.494   3.153 -0.2227 -0.3597 -0.3895
  627TIP3    H1 1887   2.171   2.504   3.084 -0.4419 -1.0084 -0.7088
  627TIP3    H2 1888   2.150   2.449   3.224 -0.7305 -2.4366 -1.3000
  628TIP3   OH2 1889   5.806   5.929   2.148  0.6564  0.1245 -0.6768
  628TIP3    H1 1890   5.756   5.860   2.103 -0.5336  2.2424 -2.8280
  628TIP3    H2 1891   5.829   5.991   2.079  0.6172  2.4968  1.3012
  629TIP3   OH2 1892   2.200   4.849   1.625  0.4599  0.5043  0.4427
  629TIP3    H1 1893   2.108   4.824   1.637  0.8100 -0.3125  1.5807
  629TIP3    H2 1894   2.236   4.782   1.568  0.8474 -0.3829  1.6924
  630TIP3   OH2 1895   2.557   5.852   1.347 -0.0286  0.0777 -0.0840
  630TIP3    H1 1896   2.630   5.914   1.350 -0.0030  0.0343  0.2047
  630TIP3    H2 1897   2.540   5.831   1.439  0.8407 -1.3778 -0.2165
  631TIP3   OH2 1898   5.140   1.668   1.366 -0.5722  0.0162 -0.0451
  631TIP3    H1 1899   5.136   1.734   1.436  0.5499  1.6541 -1.4247
  631TIP3    H2 1900   5.203   1.604   1.397 -0.6631  0.3072  0.7700
  632TIP3   OH2 1901   4.371   3.547   4.846  0.1569  0.0917  0.2184
  632TIP3    H1 1902   4.282   3.580   4.842 -0.1038 -0.5108 -4.3347
  632TIP3    H2 1903   4.363   3.452   4.833  1.4443  0.0552 -0.5361
  633TIP3   OH2 1904   0.956   3.426   3.945 -0.1005  0.3489 -0.1250
  633TIP3    H1 1905   0.882   3.450   4.001  0.9441  1.8071  0.6986
  633TIP3    H2 1906   0.937   3.336   3.918 -1.2003 -0.0147  1.6510
  634TIP3   OH2 1907   4.137   1.091   2.503 -0.0943  0.5146 -0.2184
  634TIP3    H1 1908   4.210   1.153   2.505 -0.3732  0.8373  0.4254
  634TIP3    H2 1909   4.072   1.130   2.445 -0.0697  0.5970 -0.1899
  635TIP3   OH2 1910   5.324   1.104   1.977  0.6792 -0.3617  0.5145
  635TIP3    H1 1911   5.263   1.101   2.051  0.8923  1.8144  0.8433
  635TIP3    H2 1912   5.278   1.152   1.909  1.1262 -0.8653 -0.1648
  636TIP3   OH2 1913   3.133   1.713   4.374  0.3096  0.0737  0.8051
  636TIP3    H1 1914   3.039   1.722   4.394  0.1350  0.8428 -0.3069
  636TIP3    H2 1915   3.154   1.625   4.403 -0.5504  0.1939  1.8838
  637TIP3   OH2 1916   1.195   5.273   0.659  0.0592  0.0343 -0.0863
  637TIP3    H1 1917   1.256   5.200   0.651 -0.1586 -0.0594 -0.9406
  637TIP3    H2 1918   1.211   5.309   0.747  1.4010  0.0741 -0.3420
  638TIP3   OH2 1919   3.940   1.447   4.864  0.4821  0.2450 -0.0083
  638TIP3    H1 1920   3.910   1.448   4.954  1.3679 -2.0251  0.3594
  638TIP3    H2 1921   4.013   1.509   4.863 -1.3558  2.5473  0.0668
  639TIP3   OH2 1922   2.569   3.522   0.889 -0.3865  0.1643 -0.4894
  639TIP3    H1 1923   2.598   3.484   0.806 -0.7787 -2.1830  0.3707
  639TIP3    H2 1924   2.509   3.457   0.926 -1.5297  1.8858  0.8918
  640TIP3   OH2 1925   2.278   1.196   1.844  0.1759 -0.1671  0.0373
  640TIP3    H1 1926   2.236   1.281   1.856 -0.6083 -0.5456  0.0375
  640TIP3    H2 1927   2.253   1.146   1.922  0.1709 -0.5888 -0.2341
  641TIP3   OH2 1928   3.228   3.794   4.086  0.1831  0.3708 -0.2090
  641TIP3    H1 1929   3.225   3.817   3.993  1.1377 -1.0390 -0.6125
  641TIP3    H2 1930   3.264   3.872   4.129  1.4002  0.4196 -1.2624
  642TIP3   OH2 1931   3.340   4.654   2.717  0.4437  0.4367 -0.3308
  642TIP3    H1 1932   3.334   4.600   2.638  0.0844  0.7595 -0.5276
  642TIP3    H2 1933   3.406   4.610   2.771 -0.4716 -0.6878 -0.0858
  643TIP3   OH2 1934   1.378   5.218   1.241  0.1193  0.0386  0.4554
  643TIP3    H1 1935   1.297   5.240   1.196  0.0990 -0.9834 -0.0487
  643TIP3    H2 1936   1.424   5.301   1.251 -0.4843  0.4682 -0.2422
  644TIP3   OH2 1937   2.475   0.241   1.361 -0.4057  0.4147  0.2346
  644TIP3    H1 1938   2.540   0.308   1.385  0.3077 -0.6055  1.2552
  644TIP3    H2 1939   2.492   0.225   1.268 -0.3632  1.3958  0.0559
  645TIP3   OH2 1940   0.342   3.157   0.366  0.1611  0.2062  0.7040
  645TIP3    H1 1941   0.391   3.084   0.405 -0.3725 -0.4209  0.2107
  645TIP3    H2 1942   0.409   3.212   0.325  0.5991  0.1722  1.3576
  646TIP3   OH2 1943   3.939   0.521   1.231 -0.2477  0.0029 -0.1250
  646TIP3    H1 1944   3.984   0.493   1.151  0.2536 -1.3555  0.5941
  646TIP3    H2 1945   3.862   0.464   1.236 -0.5814  0.4690  0.0636
  647TIP3   OH2 1946   1.548   0.973   1.489 -0.2817 -0.4310 -0.3106
  647TIP3    H1 1947   1.513   0.981   1.578 -0.7409 -0.9608 -0.4385
  647TIP3    H2 1948   1.492   0.907   1.448 -0.7312  0.5524 -1.3148
  648TIP3   OH2 1949   5.697   3.248   4.813 -0.2740 -0.1410 -0.2346
  648TIP3    H1 1950   5.602   3.251   4.808 -0.1877  0.8414 -2.2024
  648TIP3    H2 1951   5.726   3.332   4.778  1.3313 -0.3202  0.5552
  649TIP3   OH2 1952   5.086   1.863   3.775 -0.6418 -0.9528 -0.2331
  649TIP3    H1 1953   5.080   1.948   3.733  0.1691 -0.5244  0.4755
  649TIP3    H2 1954   5.181   1.847   3.783 -0.7808 -1.3794  0.7015
  650TIP3   OH2 1955   3.236   2.589   3.682  0.3974 -0.0625  0.6184
  650TIP3    H1 1956   3.187   2.525   3.733  0.4335  0.2332  1.0349
  650TIP3    H2 1957   3.234   2.556   3.592 -1.9113  0.7060  0.3102
  651TIP3   OH2 1958   5.851   3.599   0.288 -0.3365 -0.4358 -0.0000
  651TIP3    H1 1959   5.938   3.637   0.276 -1.5585  2.1757 -1.6306
  651TIP3    H2 1960   5.853   3.517   0.239  0.6106  0.6540 -1.8711
  652TIP3   OH2 1961   3.988   0.649   1.996 -0.0707  0.0528 -0.3308
  652TIP3    H1 1962   3.944   0.674   2.077 -0.9896  1.5059 -1.2228
  652TIP3    H2 1963   3.965   0.558   1.983 -2.8846  0.7482 -0.7459
  653TIP3   OH2 1964   1.394   0.067   3.122 -0.2156 -0.7482 -0.0154
  653TIP3    H1 1965   1.412   0.160   3.109  0.3479 -0.8131  0.2431
  653TIP3    H2 1966   1.476   0.024   3.097 -0.7206 -1.2394 -0.8779
  654TIP3   OH2 1967   4.733   3.458   4.565  0.7931 -0.1168 -0.0221
  654TIP3    H1 1968   4.712   3.548   4.539 -0.1081  0.2068  1.6980
  654TIP3    H2 1969   4.674   3.439   4.637  0.9631 -2.1226 -0.3515
  655TIP3   OH2 1970   1.396   0.352   0.523  0.2495  0.2709  0.0538
  655TIP3    H1 1971   1.431   0.439   0.504  0.9515  0.5850  2.4492
  655TIP3    H2 1972   1.316   0.370   0.572  0.6170 -0.4059  0.9227
  656TIP3   OH2 1973  -0.008   4.205   2.803  0.1247 -0.0055 -0.5249
  656TIP3    H1 1974   0.076   4.250   2.793  0.1508  0.0057 -0.2618
  656TIP3    H2 1975  -0.043   4.200   2.714  0.2613  0.2630 -0.5950
  657TIP3   OH2 1976   5.968   1.529   1.527 -0.5637  0.5624 -0.1622
  657TIP3    H1 1977   5.941   1.550   1.438 -1.5185  0.1207  0.0068
  657TIP3    H2 1978   6.042   1.469   1.517 -2.2083 -1.4765 -0.7168
  658TIP3   OH2 1979   1.993   4.496   1.370  0.3607  0.3695  0.4874
  658TIP3    H1 1980   2.038   4.516   1.288  1.0370  0.3577  0.8504
  658TIP3    H2 1981   1.919   4.556   1.371  1.5787  1.9385  0.8973
  659TIP3   OH2 1982   0.661   5.523   2.768  0.3696 -0.5666  0.2169
  659TIP3    H1 1983   0.577   5.563   2.791 -0.0663 -0.5570 -1.3139
  659TIP3    H2 1984   0.657   5.510   2.674  2.0764 -0.6114  0.1149
  660TIP3   OH2 1985   5.496   4.330   2.068  0.0001 -0.4690 -0.6417
  660TIP3    H1 1986   5.568   4.358   2.012  0.7982 -0.7983  0.1977
  660TIP3    H2 1987   5.484   4.401   2.130  0.4554 -0.9580  0.0158
  661TIP3   OH2 1988   0.864   4.246   0.658 -0.4240 -0.5869 -0.5796
  661TIP3    H1 1989   0.952   4.208   0.657 -0.0088  0.3214 -0.1675
  661TIP3    H2 1990   0.843   4.260   0.566 -0.3318 -1.2219 -0.7040
  662TIP3   OH2 1991   0.005   2.936   0.937 -0.0219  0.2483 -0.3422
  662TIP3    H1 1992   0.046   2.857   0.974 -0.9685  0.4887  1.3465
  662TIP3    H2 1993   0.045   2.946   0.851  0.2867 -1.9619 -0.5249
  663TIP3   OH2 1994   1.463   0.253   0.256  0.7435 -0.1629  0.2376
  663TIP3    H1 1995   1.471   0.339   0.213  1.4510  0.5703  1.7646
  663TIP3    H2 1996   1.423   0.272   0.341  1.2825 -1.2921  0.7643
  664TIP3   OH2 1997   6.256   1.039   3.508  0.1261  0.1995 -0.0113
  664TIP3    H1 1998   6.279   1.049   3.600 -2.8121 -0.2528  0.8836
  664TIP3    H2 1999   6.270   1.126   3.470  0.6741  0.5823  1.0228
  665TIP3   OH2 2000   0.021   1.600   0.230 -0.1683 -0.2574 -0.1658
  665TIP3    H1 2001  -0.021   1.665   0.286  1.2655  0.7129 -0.1498
  665TIP3    H2 2002   0.031   1.523   0.286 -3.1542 -1.0999 -0.5893
  666TIP3   OH2 2003   0.381   3.652   1.921 -0.1336  0.2694 -0.7535
  666TIP3    H1 2004   0.351   3.611   1.840  0.3690 -0.7066 -0.4637
  666TIP3    H2 2005   0.420   3.735   1.893 -0.1158  0.0203 -1.4978
  667TIP3   OH2 2006   1.304   4.803   2.921  0.2827 -0.5148 -0.4398
  667TIP3    H1 2007   1.279   4.733   2.860  2.1022 -1.1644 -0.5099
  667TIP3    H2 2008   1.251   4.787   2.999  1.5708 -2.8471  0.0659
  668TIP3   OH2 2009   2.682   4.067   3.153  0.1968  0.3191  0.0543
  668TIP3    H1 2010   2.690   4.140   3.215  0.3602  0.5459 -0.2312
  668TIP3    H2 2011   2.761   4.073   3.099 -0.6142  0.9881 -1.1018
  669TIP3   OH2 2012   3.230   5.988   2.167 -0.0762 -0.6684  0.3980
  669TIP3    H1 2013   3.243   5.898   2.196  1.6550 -0.4323  0.4898
  669TIP3    H2 2014   3.318   6.025   2.163 -0.7055  0.8899 -0.0904
  670TIP3   OH2 2015   2.999   4.291   0.403  0.0522 -0.2240  0.4477
  670TIP3    H1 2016   3.052   4.231   0.351  0.5873 -0.9900  1.8428
  670TIP3    H2 2017   3.037   4.377   0.385 -1.5209 -0.0296 -2.5650
  671TIP3   OH2 2018   2.186   0.836   3.893  0.1242 -0.0333  0.3791
  671TIP3    H1 2019   2.180   0.750   3.935 -1.0844  0.2880  0.9295
  671TIP3    H2 2020   2.127   0.892   3.944  1.9957  1.5352  0.9694
  672TIP3   OH2 2021   2.432   2.107   0.371  0.5591 -0.0112  0.3103
  672TIP3    H1 2022   2.490   2.076   0.441  1.2340 -0.8238 -0.5733
  672TIP3    H2 2023   2.489   2.114   0.295 -0.6193 -1.5090 -0.7660
  673TIP3   OH2 2024   4.289   0.927   4.238 -0.1244  0.2689 -0.3804
  673TIP3    H1 2025   4.338   1.006   4.259 -0.1057  0.1493  0.0354
  673TIP3    H2 2026   4.217   0.958   4.183 -0.8798  0.7934  0.8353
  674TIP3   OH2 2027   2.481   1.770   2.962 -0.3399  0.1619 -0.2205
  674TIP3    H1 2028   2.560   1.786   3.012  0.3706 -0.1007 -1.2371
  674TIP3    H2 2029   2.486   1.678   2.937 -0.4095  0.4121 -1.2085
  675TIP3   OH2 2030   0.323   5.904   2.276  0.2874 -0.7852 -0.0098
  675TIP3    H1 2031   0.364   5.895   2.363 -1.7024 -0.5476  0.9960
  675TIP3    H2 2032   0.371   5.977   2.236  1.1689 -0.8171  0.9160
  676TIP3   OH2 2033   5.907   0.686   3.160  0.0521  0.1756 -0.4007
  676TIP3    H1 2034   5.904   0.591   3.153 -1.3593  0.0164  1.6495
  676TIP3    H2 2035   5.914   0.704   3.254  2.5275  2.1093 -0.8447
  677TIP3   OH2 2036   4.308   4.024   2.099  0.0300  0.0785 -0.1472
  677TIP3    H1 2037   4.275   4.028   2.010  0.1344 -0.1053 -0.1952
  677TIP3    H2 2038   4.230   4.028   2.154 -0.0322  0.2229 -0.2462
  678TIP3   OH2 2039   5.579   0.925   3.941  0.2376  0.1445  0.1984
  678TIP3    H1 2040   5.546   0.835   3.940 -0.8476  0.5292 -1.0628
  678TIP3    H2 2041   5.655   0.923   3.884  0.4090 -0.0399  0.4318
  679TIP3   OH2 2042   2.867   3.229   4.040  0.1510  0.1841  0.1586
  679TIP3    H1 2043   2.961   3.210   4.046  0.2607  0.5078 -0.4759
  679TIP3    H2 2044   2.853   3.251   3.948 -0.4307  0.7555  0.3789
  680TIP3   OH2 2045   2.361   1.534   0.930 -0.1987  0.2201 -0.1880
  680TIP3    H1 2046   2.403   1.598   0.873  0.1426 -0.3074 -0.5353
  680TIP3    H2 2047   2.358   1.454   0.878  0.7833 -0.4778  0.7929
  681TIP3   OH2 2048   3.648   5.660   4.566  0.1268 -0.0541  0.1952
  681TIP3    H1 2049   3.701   5.626   4.637  0.7998  0.5699 -0.0035
  681TIP3    H2 2050   3.606   5.582   4.528  1.9708 -0.7563 -0.5196
  682TIP3   OH2 2051   1.769   3.203   3.627  0.4538  0.1462 -0.2924
  682TIP3    H1 2052   1.806   3.291   3.625  1.4439 -0.2184  0.9713
  682TIP3    H2 2053   1.676   3.216   3.605  0.1547  1.7651  1.5674
  683TIP3   OH2 2054   1.768   0.537   4.353  0.0712 -0.3354 -0.1668
  683TIP3    H1 2055   1.846   0.546   4.299  0.2368  0.4867  0.1960
  683TIP3    H2 2056   1.800   0.507   4.438 -0.1821 -1.5596 -0.4897
  684TIP3   OH2 2057   1.919   3.757   4.830 -0.3889 -0.0498  0.3517
  684TIP3    H1 2058   1.958   3.713   4.905 -1.6417  0.1874  1.1836
  684TIP3    H2 2059   1.879   3.836   4.866 -0.6766  0.2748 -0.6296
  685TIP3   OH2 2060   5.782   3.403   1.375  0.4085  0.5123 -0.3260
  685TIP3    H1 2061   5.865   3.371   1.341  0.4320 -0.4185  0.5433
  685TIP3    H2 2062   5.729   3.324   1.387  0.2883  0.8105  1.4121
  686TIP3   OH2 2063   3.213   1.554   1.056  0.0816  0.0060 -0.2381
  686TIP3    H1 2064   3.307   1.548   1.073 -0.2076 -1.3333  1.0624
  686TIP3    H2 2065   3.174   1.570   1.142 -1.0258 -1.6371 -0.3935
  687TIP3   OH2 2066   4.594   5.776   2.239 -0.0071 -0.5195 -0.0089
  687TIP3    H1 2067   4.672   5.742   2.284  0.4246  0.5085  0.0548
  687TIP3    H2 2068   4.522   5.761   2.300  0.1590 -1.3351  0.0015
  688TIP3   OH2 2069   5.556   0.252   0.039  0.0046  0.1726  0.2073
  688TIP3    H1 2070   5.611   0.328   0.016  0.2425  0.3667  1.3684
  688TIP3    H2 2071   5.477   0.291   0.077  0.4744 -0.1530  1.5691
  689TIP3   OH2 2072   4.143   1.600   2.052  0.1714  0.1361  0.5448
  689TIP3    H1 2073   4.142   1.507   2.029  0.1908 -0.3882  2.4609
  689TIP3    H2 2074   4.213   1.638   1.999  0.4150 -1.0219  0.0242
  690TIP3   OH2 2075   3.456   0.850   0.428  0.6912  0.1366  0.1242
  690TIP3    H1 2076   3.505   0.845   0.345  0.9016 -0.3993  0.2752
  690TIP3    H2 2077   3.494   0.926   0.473  0.2906  0.6897 -0.4421
  691TIP3   OH2 2078   5.657   4.307   2.636 -0.3047  0.3001 -0.1036
  691TIP3    H1 2079   5.628   4.221   2.668 -1.9811  0.2463 -1.6306
  691TIP3    H2 2080   5.640   4.367   2.709 -0.1847 -0.4553  0.5638
  692TIP3   OH2 2081   5.379   1.649   3.968  0.4025 -0.0379  0.0412
  692TIP3    H1 2082   5.443   1.603   4.022 -0.2468 -2.1554 -0.8765
  692TIP3    H2 2083   5.314   1.582   3.946 -0.4486  1.2676 -1.6298
  693TIP3   OH2 2084   5.625   4.787   0.350 -0.1364  0.3092 -0.7003
  693TIP3    H1 2085   5.606   4.819   0.262  1.3637 -0.1084 -1.1883
  693TIP3    H2 2086   5.716   4.758   0.347  0.1787  0.9330  1.1725
  694TIP3   OH2 2087   0.128   1.249   4.878  0.0596 -0.1178  0.2182
  694TIP3    H1 2088   0.203   1.303   4.900  0.3647  0.1925 -1.4346
  694TIP3    H2 2089   0.166   1.171   4.836 -0.5198  0.7157 -2.0240
  695TIP3   OH2 2090   5.012   4.286   2.464  0.1624  0.3147 -0.0836
  695TIP3    H1 2091   5.041   4.303   2.375 -1.4740  0.1808 -0.6849
  695TIP3    H2 2092   5.024   4.192   2.476  1.4196  0.5065  0.2508
  696TIP3   OH2 2093   3.425   1.745   1.606  0.1808 -0.1443 -0.0377
  696TIP3    H1 2094   3.477   1.759   1.527  0.2884  0.5589  0.1457
  696TIP3    H2 2095   3.336   1.728   1.574  0.1712  0.3900 -0.3129
  697TIP3   OH2 2096   4.767   2.553   3.508 -0.2382 -0.6196  0.5812
  697TIP3    H1 2097   4.782   2.567   3.601 -0.2607 -0.9162  0.6318
  697TIP3    H2 2098   4.851   2.519   3.475  0.3453  1.1522  0.1303
  698TIP3   OH2 2099   1.902   4.905   1.563 -0.7090  0.0454 -0.4167
  698TIP3    H1 2100   1.862   4.991   1.572 -1.6678 -0.4112 -0.2585
  698TIP3    H2 2101   1.846   4.846   1.614  1.0286 -0.3557  1.1693
  699TIP3   OH2 2102   5.862   2.535   1.499 -0.0524  0.1855  0.5248
  699TIP3    H1 2103   5.773   2.533   1.462 -0.8426  1.1009  2.2772
  699TIP3    H2 2104   5.892   2.444   1.492 -0.9154 -0.0508 -0.5260
  700TIP3   OH2 2105   3.511   1.410   4.933 -0.5376  0.1411  0.6540
  700TIP3    H1 2106   3.556   1.348   4.877 -0.1893 -0.5863  1.7076
  700TIP3    H2 2107   3.495   1.362   5.015 -3.6026  0.1961  0.2218
  701TIP3   OH2 2108   0.865   3.029   2.644  0.2122 -0.3124  0.3489
  701TIP3    H1 2109   0.772   3.051   2.646 -0.2438 -1.9998 -0.4486
  701TIP3    H2 2110   0.910   3.113   2.632 -1.1706  0.5614  1.0927
  702TIP3   OH2 2111   2.143   2.996   2.273  0.1702  0.0726  0.0906
  702TIP3    H1 2112   2.122   2.924   2.332  1.1251  1.0656  1.7007
  702TIP3    H2 2113   2.146   2.955   2.186 -0.5365 -1.5649  0.7916
  703TIP3   OH2 2114   3.037   3.137   1.577  0.4581 -0.0594 -0.3932
  703TIP3    H1 2115   2.975   3.130   1.504 -0.8112  0.9861  0.5302
  703TIP3    H2 2116   3.070   3.048   1.589  1.3668 -0.1108 -2.7613
  704TIP3   OH2 2117   0.713   4.129   4.168  0.9457 -0.1801  0.0828
  704TIP3    H1 2118   0.770   4.067   4.122  3.1655  0.1539  2.1566
  704TIP3    H2 2119   0.647   4.074   4.210  1.6395 -0.9202  0.2215
  705TIP3   OH2 2120   5.154   1.685   2.022 -0.7014 -0.1294  0.1266
  705TIP3    H1 2121   5.113   1.639   2.094  0.4035 -0.3661  0.6221
  705TIP3    H2 2122   5.224   1.627   1.993 -0.7255  0.2482 -0.7186
  706TIP3   OH2 2123   5.615   4.284   0.929 -0.0565 -0.1609  0.0106
  706TIP3    H1 2124   5.580   4.225   0.862  0.7461  0.4583 -0.9717
  706TIP3    H2 2125   5.706   4.300   0.903 -0.0393  0.9382  0.6597
  707TIP3   OH2 2126   2.852   2.803   4.939 -0.3513  0.3712  0.1172
  707TIP3    H1 2127   2.775   2.749   4.924 -1.5746  1.0425  3.2039
  707TIP3    H2 2128   2.861   2.806   5.034  2.5260  1.6853 -0.0939
  708TIP3   OH2 2129   3.980   5.572   1.791  0.0306  0.2238  0.1834
  708TIP3    H1 2130   3.997   5.541   1.879  1.6582 -0.1744 -0.2358
  708TIP3    H2 2131   3.905   5.521   1.761  1.0467 -1.5029  0.4359
  709TIP3   OH2 2132   5.831   3.984   3.820  0.1823  0.5938 -0.1686
  709TIP3    H1 2133   5.816   4.012   3.911 -0.8961 -0.0433 -0.1297
  709TIP3    H2 2134   5.750   4.006   3.775  0.3973  0.1404 -0.7879
  710TIP3   OH2 2135   4.466   5.658   4.422 -0.3025 -0.3819 -0.6857
  710TIP3    H1 2136   4.380   5.635   4.457 -0.2372 -0.6854 -0.7148
  710TIP3    H2 2137   4.527   5.605   4.473 -0.2318 -1.1016 -1.4915
  711TIP3   OH2 2138   4.512   5.136   1.598 -0.0261 -0.2849 -0.0299
  711TIP3    H1 2139   4.523   5.137   1.693  0.8948  1.8887 -0.0800
  711TIP3    H2 2140   4.494   5.045   1.576  0.4821 -0.9649  2.1414
  712TIP3   OH2 2141   1.621   5.839   0.243  0.1012 -0.0064 -0.2134
  712TIP3    H1 2142   1.575   5.905   0.295 -0.1331 -1.7076  1.8561
  712TIP3    H2 2143   1.699   5.885   0.212 -1.3141  1.9772 -1.0856
  713TIP3   OH2 2144   0.790   0.824   0.600  0.0109  0.1149  0.3121
  713TIP3    H1 2145   0.724   0.889   0.576  0.2610 -0.2204 -1.4346
  713TIP3    H2 2146   0.739   0.750   0.633 -0.4615  0.0615 -0.5210
  714TIP3   OH2 2147   3.826   2.582   3.348 -0.5598 -0.1635 -0.1101
  714TIP3    H1 2148   3.747   2.530   3.334  0.2883 -1.3836 -0.5312
  714TIP3    H2 2149   3.896   2.529   3.312  0.3205  1.4236 -0.8506
  715TIP3   OH2 2150   0.080   5.190   0.032 -0.3177  0.0224 -0.0589
  715TIP3    H1 2151   0.025   5.161   0.104  1.1298 -1.2590  0.6127
  715TIP3    H2 2152   0.122   5.110   0.001  0.2887  0.7839 -1.2805
  716TIP3   OH2 2153   1.103   4.385   1.011  0.0910 -0.7038 -0.1167
  716TIP3    H1 2154   1.179   4.343   0.970  1.3259 -0.6492  1.9749
  716TIP3    H2 2155   1.118   4.479   0.999 -1.4626 -0.6832 -2.6886
  717TIP3   OH2 2156   5.756   1.788   1.691  0.3202 -0.3714 -0.1166
  717TIP3    H1 2157   5.780   1.713   1.745 -0.7124  0.0796  0.9936
  717TIP3    H2 2158   5.671   1.816   1.724  0.9674  1.6863 -0.0631
  718TIP3   OH2 2159   6.258   0.265   0.778 -0.4428 -0.1803  0.2428
  718TIP3    H1 2160   6.233   0.311   0.698 -0.1706  1.3585  0.9938
  718TIP3    H2 2161   6.296   0.182   0.747  1.1152  1.0238 -1.3455
  719TIP3   OH2 2162   1.260   2.803   4.570 -0.2297  0.5171  0.0197
  719TIP3    H1 2163   1.338   2.846   4.534 -0.5914  0.1369 -1.2625
  719TIP3    H2 2164   1.286   2.711   4.580 -0.1043  0.6354  0.8376
  720TIP3   OH2 2165   2.402   4.872   0.397 -0.2042  1.0984 -0.8292
  720TIP3    H1 2166   2.496   4.891   0.393  0.3660 -0.7854  1.4861
  720TIP3    H2 2167   2.391   4.795   0.341 -0.0863  0.5150 -0.0688
  721TIP3   OH2 2168   1.333   5.061   3.127  0.5071 -0.2415  0.2126
  721TIP3    H1 2169   1.288   5.008   3.192  0.6588  0.4984  0.9433
  721TIP3    H2 2170   1.279   5.140   3.118 -0.0548 -0.7659 -1.3259
  722TIP3   OH2 2171   4.450   3.069   3.260 -0.1694 -0.2363 -0.0411
  722TIP3    H1 2172   4.499   3.041   3.337  0.9180 -0.9704 -0.9608
  722TIP3    H2 2173   4.365   3.026   3.268  0.3770 -1.3115  0.1322
  723TIP3   OH2 2174   4.302   0.893   2.636  0.1316 -0.1607  0.0198
  723TIP3    H1 2175   4.339   0.852   2.557 -0.2704 -0.7962  0.1498
  723TIP3    H2 2176   4.228   0.944   2.604 -0.6581 -1.2267  0.0803
  724TIP3   OH2 2177   5.413   0.393   4.326 -0.0788  0.3827  0.2807
  724TIP3    H1 2178   5.395   0.421   4.416  0.2793  0.6103  0.2814
  724TIP3    H2 2179   5.503   0.420   4.310 -0.5882  1.5966 -0.6382
  725TIP3   OH2 2180   4.443   5.701   2.468  0.0946  0.0229 -0.1781
  725TIP3    H1 2181   4.512   5.753   2.508  0.4327 -0.1681 -0.5075
  725TIP3    H2 2182   4.410   5.646   2.539 -0.2552  0.6664  0.1699
  726TIP3   OH2 2183   3.663   4.211   1.720 -0.6448 -0.9220 -0.4357
  726TIP3    H1 2184   3.601   4.281   1.700 -0.3817 -0.2997  0.8417
  726TIP3    H2 2185   3.614   4.130   1.704 -1.3257 -0.4410 -0.8056
  727TIP3   OH2 2186   5.123   2.202   4.058 -0.2819  0.1037 -0.3248
  727TIP3    H1 2187   5.065   2.135   4.022 -0.4363 -0.0963  0.2779
  727TIP3    H2 2188   5.069   2.281   4.063  0.2644  0.6466 -2.2501
  728TIP3   OH2 2189   1.996   4.316   4.781 -0.3613 -0.0821  0.0588
  728TIP3    H1 2190   1.915   4.269   4.802 -2.1196  1.9460 -1.7403
  728TIP3    H2 2191   2.050   4.307   4.860 -1.5488 -2.9883  0.6677
  729TIP3   OH2 2192   0.409   4.578   4.452 -0.8149  0.3573 -0.5188
  729TIP3    H1 2193   0.418   4.536   4.366  0.1471  0.5562 -0.5300
  729TIP3    H2 2194   0.371   4.663   4.433 -0.6450  0.3850 -0.7499
  730TIP3   OH2 2195   1.426   3.100   2.673  0.5472  0.0286 -0.0575
  730TIP3    H1 2196   1.452   3.153   2.598  1.2435  0.8373  0.7369
  730TIP3    H2 2197   1.418   3.011   2.638  0.0647  0.5152 -1.2519
  731TIP3   OH2 2198   5.105   1.217   0.623 -0.4375 -0.0573 -0.8834
  731TIP3    H1 2199   5.083   1.130   0.656 -1.2897 -0.1301 -1.6005
  731TIP3    H2 2200   5.025   1.269   0.638  0.5442  1.0524  0.9409
  732TIP3   OH2 2201   0.655   1.397   3.795 -0.4791 -0.3012 -0.0582
  732TIP3    H1 2202   0.710   1.324   3.764  0.1701  0.2839 -0.2975
  732TIP3    H2 2203   0.681   1.471   3.740 -2.0838 -0.2101 -0.7305
  733TIP3   OH2 2204   0.079   3.637   1.486 -0.2809 -0.6855 -0.4144
  733TIP3    H1 2205   0.097   3.719   1.441 -0.8057 -0.9343 -1.0972
  733TIP3    H2 2206   0.021   3.589   1.427 -0.4078 -1.3253  0.2084
  734TIP3   OH2 2207   5.289   3.016   1.732 -0.9299  0.0040 -0.1527
  734TIP3    H1 2208   5.376   2.991   1.702 -1.5111 -1.2478 -0.8619
  734TIP3    H2 2209   5.284   2.984   1.822 -0.9084 -0.5758 -0.3534
  735TIP3   OH2 2210   4.121  -0.030   2.785 -0.0823  0.0385  0.3159
  735TIP3    H1 2211   4.117   0.057   2.825 -1.4310  0.7107 -1.1819
  735TIP3    H2 2212   4.147  -0.013   2.694 -2.3858 -0.8595 -0.5776
  736TIP3   OH2 2213   3.847   4.822   4.978 -0.2618 -0.6328 -0.0467
  736TIP3    H1 2214   3.816   4.900   5.024 -1.2730 -0.7444 -0.5014
  736TIP3    H2 2215   3.822   4.749   5.034 -1.8958 -0.8001 -0.9193
  737TIP3   OH2 2216   4.246   4.195   4.203  0.2669  0.0470  0.3545
  737TIP3    H1 2217   4.286   4.275   4.169  0.3642 -0.9253 -1.9888
  737TIP3    H2 2218   4.303   4.124   4.173 -1.2141 -1.0992  0.1080
  738TIP3   OH2 2219   1.029   0.713   3.305 -0.0771 -0.4259 -0.3969
  738TIP3    H1 2220   1.009   0.687   3.395 -2.5697 -0.2088 -0.8198
  738TIP3    H2 2221   1.052   0.631   3.261 -1.9717 -1.0551 -0.2804
  739TIP3   OH2 2222   3.115   5.464   0.807  0.8682  0.5534 -0.6148
  739TIP3    H1 2223   3.138   5.505   0.723 -0.3106  1.1785 -0.6590
  739TIP3    H2 2224   3.096   5.538   0.864 -0.1825  0.0996 -0.3546
  740TIP3   OH2 2225   4.454   5.278   0.041 -0.6075  0.2077  0.7453
  740TIP3    H1 2226   4.395   5.264   0.115 -0.3225 -0.6392  0.8281
  740TIP3    H2 2227   4.403   5.250  -0.035 -0.1017 -1.2250  0.8912
  741TIP3   OH2 2228   3.477   4.417   0.321  0.0292  0.0028  0.4300
  741TIP3    H1 2229   3.488   4.323   0.307  0.5335  0.2970 -1.3509
  741TIP3    H2 2230   3.541   4.439   0.389 -0.9444 -1.1167  1.7792
  742TIP3   OH2 2231   3.077   2.288   0.353  0.2771  0.4320  0.4191
  742TIP3    H1 2232   3.113   2.368   0.315 -1.7554  1.1269 -0.1463
  742TIP3    H2 2233   3.064   2.308   0.445 -1.1549  1.1279  0.0832
  743TIP3   OH2 2234   5.158   0.561   3.847  0.6605  0.5166  0.0386
  743TIP3    H1 2235   5.161   0.528   3.937 -0.9084 -0.1743 -0.1284
  743TIP3    H2 2236   5.180   0.654   3.855  1.1411  0.3305  1.0531
  744TIP3   OH2 2237   0.950   3.989   4.781  0.0858 -0.2323  0.5362
  744TIP3    H1 2238   0.939   3.921   4.715  2.7583  0.6480 -0.9894
  744TIP3    H2 2239   0.881   4.053   4.762 -0.2447 -0.8312 -0.2954
  745TIP3   OH2 2240   4.825   3.969   4.324 -0.0986 -0.8425 -0.2330
  745TIP3    H1 2241   4.830   4.058   4.290 -0.1167 -1.0196 -0.6961
  745TIP3    H2 2242   4.842   3.978   4.418  0.7288 -0.4529 -0.4181
  746TIP3   OH2 2243   4.169   3.343   0.987 -0.1409  0.5469 -0.5163
  746TIP3    H1 2244   4.104   3.385   0.931 -0.8096 -0.0497 -0.2033
  746TIP3    H2 2245   4.120   3.314   1.064  0.6075  0.6129 -0.0008
  747TIP3   OH2 2246   3.465   2.866   1.017 -0.1937 -0.7147  0.0366
  747TIP3    H1 2247   3.518   2.928   1.066 -0.6380 -0.8732  0.7328
  747TIP3    H2 2248   3.526   2.797   0.991  0.6896  0.8041 -2.2287
  748TIP3   OH2 2249   4.404   4.903   4.492  0.4141  0.3264 -0.0576
  748TIP3    H1 2250   4.310   4.911   4.508  0.4721  0.6007  0.1551
  748TIP3    H2 2251   4.441   4.983   4.529  0.7564  0.1267  0.0337
  749TIP3   OH2 2252   2.954   5.790   5.015  0.0682 -0.5232 -0.1800
  749TIP3    H1 2253   3.008   5.846   5.072 -0.9545 -0.1325  0.4338
  749TIP3    H2 2254   3.015   5.722   4.984  1.3198  0.8666 -0.8882
  750TIP3   OH2 2255   3.266   3.165   2.976 -0.1958 -0.5648 -0.3300
  750TIP3    H1 2256   3.356   3.134   2.978 -0.9120 -2.9703 -0.9367
  750TIP3    H2 2257   3.232   3.134   2.891 -1.6097  0.2128 -0.0898
  751TIP3   OH2 2258   4.101   3.515   4.774 -0.2091  0.1890  0.2810
  751TIP3    H1 2259   4.025   3.510   4.831 -0.6319  1.2437 -0.1683
  751TIP3    H2 2260   4.091   3.441   4.714 -0.6606  0.0816  0.4893
  752TIP3   OH2 2261   0.947   4.766   3.309 -0.1703  0.1686  0.5268
  752TIP3    H1 2262   0.903   4.771   3.394 -1.1437  2.1135 -0.0245
  752TIP3    H2 2263   0.879   4.735   3.249  0.5492 -1.3316  0.4295
  753TIP3   OH2 2264   4.901   1.151   2.236  0.9182 -0.4545 -0.0200
  753TIP3    H1 2265   4.937   1.152   2.325 -0.1136 -0.9059  0.4083
  753TIP3    H2 2266   4.842   1.077   2.234 -0.2712  0.4708 -0.6119
  754TIP3   OH2 2267   5.388   2.524   2.732 -0.4841  0.5637  0.4643
  754TIP3    H1 2268   5.299   2.521   2.695 -0.5750 -0.4708  0.7352
  754TIP3    H2 2269   5.375   2.510   2.826  0.0132 -0.3707  0.4086
  755TIP3   OH2 2270   5.132   3.165   4.888 -0.1366  0.1551 -0.0477
  755TIP3    H1 2271   5.119   3.140   4.797  0.7566  0.5154 -0.2828
  755TIP3    H2 2272   5.103   3.089   4.939  1.0644 -0.7570 -0.6875
  756TIP3   OH2 2273   4.768   3.030   3.103 -0.2139 -0.3230  0.2001
  756TIP3    H1 2274   4.696   2.970   3.083 -1.4877  1.2552 -0.2472
  756TIP3    H2 2275   4.724   3.113   3.124  1.4201  0.2283  1.7193
  757TIP3   OH2 2276   0.910   1.802   4.551 -0.1428  0.0479 -0.4683
  757TIP3    H1 2277   0.941   1.738   4.487  0.2445 -0.2764  0.0377
  757TIP3    H2 2278   0.978   1.869   4.554  0.1349 -0.2525  0.0524
  758TIP3   OH2 2279   4.588   1.548   1.889 -0.2247 -0.7509 -0.1434
  758TIP3    H1 2280   4.520   1.481   1.884 -1.0936  0.1675 -1.0442
  758TIP3    H2 2281   4.623   1.554   1.800  0.6054 -0.7615  0.1692
  759TIP3   OH2 2282   1.080   5.149   4.571  0.3880 -0.4337  0.0004
  759TIP3    H1 2283   1.046   5.149   4.661  3.0576 -0.0233  1.1076
  759TIP3    H2 2284   1.090   5.056   4.550 -0.5448 -0.5400 -0.0087
  760TIP3   OH2 2285   0.562   3.248   0.804  0.3682  0.4037 -0.0030
  760TIP3    H1 2286   0.617   3.178   0.769  1.3660  1.3839 -0.4733
  760TIP3    H2 2287   0.514   3.208   0.876  0.5335 -0.8849 -0.5995
  761TIP3   OH2 2288   3.891   2.014   3.168 -0.0765 -0.0573 -0.3007
  761TIP3    H1 2289   3.983   2.038   3.177  0.2161 -0.8986 -0.8728
  761TIP3    H2 2290   3.869   1.971   3.251 -0.1290  0.6461  0.0613
  762TIP3   OH2 2291   0.306   0.898   1.218 -0.3517  0.1299 -0.4956
  762TIP3    H1 2292   0.331   0.909   1.126 -1.3518 -2.3698 -1.1569
  762TIP3    H2 2293   0.219   0.937   1.225 -2.2922 -3.4330 -1.8941
  763TIP3   OH2 2294   0.433   2.718   1.264  0.1744 -0.4340 -0.2844
  763TIP3    H1 2295   0.413   2.627   1.287 -1.4053 -0.0525 -0.0205
  763TIP3    H2 2296   0.516   2.737   1.309  0.3738 -1.6394 -0.1156
  764TIP3   OH2 2297   4.234   5.148   2.352  0.3862 -0.1599 -0.5021
  764TIP3    H1 2298   4.293   5.100   2.410  0.0996  1.0348  0.8440
  764TIP3    H2 2299   4.183   5.204   2.411  0.5970  1.6710 -1.9671
  765TIP3   OH2 2300   2.273   3.551   4.324 -0.2461  0.4630 -0.5587
  765TIP3    H1 2301   2.318   3.471   4.351  0.0356  0.8356  0.0958
  765TIP3    H2 2302   2.313   3.575   4.241  0.8536  0.8414  0.0601
  766TIP3   OH2 2303   1.523   5.226   2.516 -0.2043 -0.0202  0.4596
  766TIP3    H1 2304   1.482   5.305   2.551  0.2502  0.2471  0.3887
  766TIP3    H2 2305   1.613   5.228   2.548 -0.4688 -1.0464  1.3215
  767TIP3   OH2 2306   1.247   4.048   2.579 -0.1570  0.4196  0.1085
  767TIP3    H1 2307   1.290   4.134   2.576 -0.3659  0.5162 -2.7028
  767TIP3    H2 2308   1.258   4.012   2.491 -1.3788 -1.8040  0.7786
  768TIP3   OH2 2309   6.156   3.774   2.471  0.0412 -0.1923 -0.0666
  768TIP3    H1 2310   6.240   3.804   2.436  2.0950 -3.8938  1.1633
  768TIP3    H2 2311   6.101   3.760   2.393  0.3668  2.5031 -0.8836
  769TIP3   OH2 2312   5.735   0.281   3.505 -0.1682 -0.0979 -0.4316
  769TIP3    H1 2313   5.729   0.364   3.458 -0.9933  0.1880  0.1693
  769TIP3    H2 2314   5.718   0.304   3.597  1.5707 -0.6204  0.0562
  770TIP3   OH2 2315   3.758   2.159   4.221 -0.4083 -0.4263 -0.2365
  770TIP3    H1 2316   3.727   2.081   4.268 -1.4456 -0.6779 -1.2883
  770TIP3    H2 2317   3.719   2.152   4.134  1.3686  0.0717 -1.1405
  771TIP3   OH2 2318   3.706   4.547   0.493  0.0500 -0.3918 -0.1209
  771TIP3    H1 2319   3.738   4.637   0.495  0.2664 -0.3879 -1.8783
  771TIP3    H2 2320   3.783   4.494   0.512  0.7776 -0.3035 -2.4945
  772TIP3   OH2 2321   5.859   4.312   1.187 -0.3028  0.4398 -0.2363
  772TIP3    H1 2322   5.919   4.252   1.144  0.7153  1.4378 -0.2502
  772TIP3    H2 2323   5.863   4.289   1.279  0.3283  0.6722 -0.1984
  773TIP3   OH2 2324   4.748   3.853   2.293  0.2397  0.0031 -0.0551
  773TIP3    H1 2325   4.671   3.847   2.236 -0.5305 -0.2764  0.9871
  773TIP3    H2 2326   4.784   3.940   2.276  0.2650 -0.2208 -1.2449
  774TIP3   OH2 2327   0.285   3.814   3.746 -0.3151  0.4882 -0.7348
  774TIP3    H1 2328   0.240   3.806   3.829 -0.4369  3.4826 -0.3996
  774TIP3    H2 2329   0.359   3.872   3.764  0.1894  0.4664 -2.5279
  775TIP3   OH2 2330   6.116   4.853   1.320  0.3512  0.1287 -0.4712
  775TIP3    H1 2331   6.043   4.872   1.380  0.6913  0.9834 -0.3026
  775TIP3    H2 2332   6.077   4.798   1.252  0.0259 -1.1334  0.6807
  776TIP3   OH2 2333   2.995   5.392   2.514 -0.3474 -0.0785 -0.4551
  776TIP3    H1 2334   3.026   5.338   2.585  0.0280  1.7274  0.8324
  776TIP3    H2 2335   3.074   5.431   2.476 -0.6745  0.7159 -0.3563
  777TIP3   OH2 2336   2.642   3.892   4.352  0.2043 -0.4772  0.3370
  777TIP3    H1 2337   2.679   3.937   4.276 -1.0265 -0.7032 -0.4264
  777TIP3    H2 2338   2.579   3.954   4.389 -1.5950 -1.5253 -0.7944
  778TIP3   OH2 2339   6.187   5.454   3.810 -0.3145  0.2819  0.4822
  778TIP3    H1 2340   6.260   5.445   3.748 -0.9063 -0.6404 -0.0906
  778TIP3    H2 2341   6.201   5.384   3.874 -0.3937  0.4575  0.6923
  779TIP3   OH2 2342   1.895   5.333   0.038  0.4323  0.1770 -0.3543
  779TIP3    H1 2343   1.806   5.360   0.018  1.1186  1.8477 -1.4235
  779TIP3    H2 2344   1.922   5.280  -0.037  0.2895 -0.4537  0.0387
  780TIP3   OH2 2345   4.195   1.281   1.321  0.8668 -0.7375 -0.2324
  780TIP3    H1 2346   4.176   1.248   1.233  0.4747 -1.1032 -0.0147
  780TIP3    H2 2347   4.190   1.203   1.377  2.4928 -0.7726 -0.0783
  781TIP3   OH2 2348   1.726   1.623   4.043  0.4342 -0.2249  0.4689
  781TIP3    H1 2349   1.794   1.587   4.100  1.7645  0.3168 -0.6972
  781TIP3    H2 2350   1.772   1.642   3.961 -1.3630 -0.7690 -0.7055
  782TIP3   OH2 2351   1.867   3.827   0.336  0.7566 -0.1340  0.3873
  782TIP3    H1 2352   1.789   3.880   0.319  1.1489 -0.0553 -1.3192
  782TIP3    H2 2353   1.911   3.872   0.408 -0.7092 -0.1381  1.3298
  783TIP3   OH2 2354   2.611   0.448   4.892  0.6975  0.1445 -0.2507
  783TIP3    H1 2355   2.528   0.425   4.850  0.5515 -0.4541  0.3471
  783TIP3    H2 2356   2.587   0.514   4.958  0.2247 -1.9307  1.7803
  784TIP3   OH2 2357   2.634   2.695   3.892  0.5011 -0.1828 -0.1265
  784TIP3    H1 2358   2.676   2.662   3.813 -1.0674 -0.8292 -0.7257
  784TIP3    H2 2359   2.658   2.788   3.895  2.4197 -0.6392 -0.1075
  785TIP3   OH2 2360   5.216   1.555   0.249 -0.5348 -0.3366  0.4585
  785TIP3    H1 2361   5.148   1.495   0.219 -0.3593  0.3630 -1.4320
  785TIP3    H2 2362   5.298   1.515   0.220 -0.3537  0.3188  0.0524
  786TIP3   OH2 2363   1.848   2.870   0.642 -0.4489 -0.6785 -0.3255
  786TIP3    H1 2364   1.941   2.869   0.663 -0.8726 -0.5116  1.8349
  786TIP3    H2 2365   1.843   2.902   0.552  1.5262  0.0471 -0.2071
  787TIP3   OH2 2366   5.961   5.870   3.806  0.1910  0.0671  0.1239
  787TIP3    H1 2367   6.055   5.852   3.809  0.1164 -1.1399 -2.4549
  787TIP3    H2 2368   5.921   5.784   3.820 -0.4493  0.1732 -0.9765
  788TIP3   OH2 2369   5.853   5.450   0.947 -0.5133 -0.2244 -0.1780
  788TIP3    H1 2370   5.805   5.445   0.864 -1.3749  0.5448  0.2469
  788TIP3    H2 2371   5.835   5.367   0.990 -0.7025 -0.3178 -0.4366
  789TIP3   OH2 2372   5.502   1.387   1.694 -0.2552  0.0923 -0.0342
  789TIP3    H1 2373   5.575   1.410   1.638 -1.3720  2.5387 -0.6007
  789TIP3    H2 2374   5.510   1.292   1.706  2.1732  0.0875 -1.1816
  790TIP3   OH2 2375   2.086   5.964   5.159  0.4842 -0.2731  0.2461
  790TIP3    H1 2376   2.078   5.917   5.242  1.6099 -1.5124 -0.3270
  790TIP3    H2 2377   2.108   5.897   5.094  0.8791  0.8497 -0.8294
  791TIP3   OH2 2378   4.784   4.975   1.453 -0.1005 -0.0112 -0.0038
  791TIP3    H1 2379   4.691   4.965   1.470 -0.5785 -0.0020 -2.2852
  791TIP3    H2 2380   4.803   5.067   1.472 -0.1034 -0.4116  2.1754
  792TIP3   OH2 2381   1.414   3.278   3.777  0.3161 -0.7336 -0.8325
  792TIP3    H1 2382   1.470   3.253   3.703  1.9988 -2.5691  0.9054
  792TIP3    H2 2383   1.382   3.195   3.812 -1.8858  0.1846 -0.4980
  793TIP3   OH2 2384   1.156   0.360   0.216 -0.2940  0.4516 -0.5513
  793TIP3    H1 2385   1.230   0.418   0.232 -1.1932  1.0987  1.6316
  793TIP3    H2 2386   1.091   0.415   0.173 -0.7562  0.8463  0.6013
  794TIP3   OH2 2387   0.723   3.662   0.430 -0.1570 -0.3563 -0.0578
  794TIP3    H1 2388   0.783   3.730   0.458 -0.2650 -0.0874 -0.4665
  794TIP3    H2 2389   0.735   3.591   0.493 -0.5144  0.2903  0.7566
  795TIP3   OH2 2390   3.077   5.064   4.617 -0.5578  0.1475  0.2130
  795TIP3    H1 2391   3.024   5.018   4.682  1.8096 -2.8793  0.2347
  795TIP3    H2 2392   3.021   5.068   4.539 -1.6931 -0.6675  0.9483
  796TIP3   OH2 2393   5.545   2.385   3.012  0.1874 -0.1586  0.1097
  796TIP3    H1 2394   5.589   2.302   2.992  2.1014  1.1473 -1.4536
  796TIP3    H2 2395   5.578   2.408   3.099 -0.1075 -0.8353  0.4167
  797TIP3   OH2 2396   4.672   0.153   0.820 -0.0237 -0.7433  1.0202
  797TIP3    H1 2397   4.595   0.105   0.853 -0.6675  0.5619  1.4783
  797TIP3    H2 2398   4.718   0.089   0.765 -1.3947 -1.5700  0.7858
  798TIP3   OH2 2399   2.383   1.585   3.713 -0.1800 -0.0582  0.2262
  798TIP3    H1 2400   2.302   1.549   3.751 -1.1293 -1.3772 -2.7120
  798TIP3    H2 2401   2.375   1.679   3.723 -0.9521 -0.2886  2.0577
  799TIP3   OH2 2402   4.298   1.755   4.690 -0.4258  0.0533 -0.2198
  799TIP3    H1 2403   4.314   1.664   4.663 -1.8578 -0.0835 -0.7024
  799TIP3    H2 2404   4.218   1.780   4.644 -0.6464  1.2125  0.7371
  800TIP3   OH2 2405   2.777   2.282   2.939 -0.7172  0.0986  0.4038
  800TIP3    H1 2406   2.703   2.253   2.885 -1.7253  1.1345  1.1767
  800TIP3    H2 2407   2.783   2.216   3.008  0.0836 -0.8106 -0.4951
  801TIP3   OH2 2408   4.147   1.057   1.503 -0.3285 -0.0180  0.1235
  801TIP3    H1 2409   4.185   1.018   1.424 -1.4220  0.7048 -0.7995
  801TIP3    H2 2410   4.077   0.998   1.529 -0.4441  0.1114  0.1107
  802TIP3   OH2 2411   5.484   0.332   2.033 -0.5526 -0.4856  0.4537
  802TIP3    H1 2412   5.535   0.395   1.981 -1.2375 -0.6737 -0.4778
  802TIP3    H2 2413   5.545   0.261   2.052 -0.1839 -0.2333  0.2298
  803TIP3   OH2 2414   2.317   4.644   3.376  0.5107 -0.0263 -0.6058
  803TIP3    H1 2415   2.369   4.585   3.320  1.4379  0.1442  0.0524
  803TIP3    H2 2416   2.333   4.613   3.465  0.6066  0.9016 -0.2861
  804TIP3   OH2 2417   0.154   0.564   4.300 -0.4403 -0.2603 -0.0078
  804TIP3    H1 2418   0.072   0.611   4.312  0.4389  1.8245 -1.5709
  804TIP3    H2 2419   0.218   0.614   4.351  0.6282  0.6590 -2.1438
  805TIP3   OH2 2420   4.052   1.402   0.424  0.0226 -0.2329 -0.1464
  805TIP3    H1 2421   4.132   1.386   0.374  0.3532  0.2750  0.2098
  805TIP3    H2 2422   3.982   1.365   0.370  0.6591 -2.2837  0.3491
  806TIP3   OH2 2423   1.352   4.946   4.652  0.1056  0.3401  0.3968
  806TIP3    H1 2424   1.284   4.934   4.585  0.3742 -1.4582  0.3880
  806TIP3    H2 2425   1.390   5.031   4.632  0.5795 -0.3684 -2.1355
  807TIP3   OH2 2426   5.485   4.417   4.630  0.3071  0.0859  0.3353
  807TIP3    H1 2427   5.427   4.483   4.669  0.5055 -0.7937  2.2480
  807TIP3    H2 2428   5.573   4.454   4.642  0.2820  0.4866 -0.6752
  808TIP3   OH2 2429   2.021   3.462   0.289  0.3060  0.0439 -0.3297
  808TIP3    H1 2430   1.957   3.413   0.341 -0.6686  0.6335 -0.9370
  808TIP3    H2 2431   2.049   3.534   0.345  0.4540 -0.2241 -0.0568
  809TIP3   OH2 2432   2.457   4.619   4.715 -0.6978  0.5756  0.2979
  809TIP3    H1 2433   2.424   4.697   4.759 -1.3036  0.5254 -0.0470
  809TIP3    H2 2434   2.551   4.618   4.733 -1.0990 -0.0847  2.5970
  810TIP3   OH2 2435   3.050   0.506   3.886  0.2364  0.0047  0.1953
  810TIP3    H1 2436   3.022   0.538   3.972  0.2438  0.4428  0.0360
  810TIP3    H2 2437   2.980   0.447   3.859  1.0529 -1.5243  1.2718
  811TIP3   OH2 2438   6.072   4.070   1.503  0.1870 -0.5607  0.5950
  811TIP3    H1 2439   6.123   4.112   1.435 -0.9009  0.3108  0.3015
  811TIP3    H2 2440   6.118   4.092   1.584  2.1442 -2.5506  0.1204
  812TIP3   OH2 2441   2.352   0.385   1.547 -0.1677  0.2537 -0.3051
  812TIP3    H1 2442   2.397   0.354   1.468  0.5845  0.0673  0.1891
  812TIP3    H2 2443   2.293   0.453   1.516 -1.1034 -0.9365 -1.2805
  813TIP3   OH2 2444   4.505   3.444   0.640  0.6654  0.8668  0.2832
  813TIP3    H1 2445   4.433   3.438   0.577  0.5043 -0.2647  0.5580
  813TIP3    H2 2446   4.485   3.378   0.706  2.6223 -0.4363 -0.3455
  814TIP3   OH2 2447   4.136   2.168   1.237  0.0591  0.5753  0.4186
  814TIP3    H1 2448   4.155   2.089   1.187  0.6009  0.7592  0.3291
  814TIP3    H2 2449   4.055   2.148   1.285  0.4852 -0.2212  0.8168
  815TIP3   OH2 2450   1.972   2.069   3.966 -0.2136  0.0204 -1.0192
  815TIP3    H1 2451   1.956   1.978   3.939  1.0927 -0.2207 -1.0730
  815TIP3    H2 2452   2.060   2.088   3.932  0.3548  0.6235  0.7217
  816TIP3   OH2 2453   2.373   4.026   0.117  0.0026 -0.2918  0.1055
  816TIP3    H1 2454   2.305   4.092   0.129  1.4057  1.1232  0.5454
  816TIP3    H2 2455   2.412   4.015   0.204  1.3438  0.0831 -0.4142
  817TIP3   OH2 2456   3.633   0.439   3.920 -0.0392  0.3245  0.3761
  817TIP3    H1 2457   3.620   0.361   3.866  2.0519  0.3058 -0.1794
  817TIP3    H2 2458   3.567   0.501   3.889  0.7704  0.1386 -1.9164
  818TIP3   OH2 2459   2.650   2.503   3.489 -0.1129 -0.2533  0.6094
  818TIP3    H1 2460   2.634   2.476   3.398 -0.1712 -0.4270  0.6712
  818TIP3    H2 2461   2.732   2.552   3.485  1.1480 -2.2346  0.8415
  819TIP3   OH2 2462   4.764   5.695   3.626  0.6770  0.4532 -0.1600
  819TIP3    H1 2463   4.691   5.691   3.688  0.3606 -0.9891 -0.5862
  819TIP3    H2 2464   4.837   5.728   3.677 -0.0594  1.1344  0.4876
  820TIP3   OH2 2465   1.792   0.698   5.063  0.4005  0.6960 -0.0986
  820TIP3    H1 2466   1.754   0.773   5.110  0.0282 -0.7334  2.0275
  820TIP3    H2 2467   1.886   0.704   5.081  0.4509  0.9591 -0.4314
  821TIP3   OH2 2468   4.073   1.902   0.977  0.0414  0.0368  0.3102
  821TIP3    H1 2469   4.090   1.951   0.897 -0.1187 -1.4126 -0.6413
  821TIP3    H2 2470   4.155   1.907   1.026  0.1408  0.9294  0.0730
  822TIP3   OH2 2471   6.255   1.712   1.866  0.5378  0.3401 -0.7269
  822TIP3    H1 2472   6.334   1.756   1.897 -0.0557  0.3703  0.8261
  822TIP3    H2 2473   6.267   1.621   1.891  0.2950  0.2536 -0.9266
  823TIP3   OH2 2474   3.163   3.702   1.240  0.6681  0.0942 -1.0911
  823TIP3    H1 2475   3.073   3.671   1.253  1.5226 -2.1675 -0.0754
  823TIP3    H2 2476   3.199   3.643   1.174  2.1204 -0.6435  0.2945
  824TIP3   OH2 2477   1.494   2.901   4.455  0.4618 -0.2451  0.3562
  824TIP3    H1 2478   1.476   2.986   4.415  1.0180 -0.5281 -0.5204
  824TIP3    H2 2479   1.555   2.920   4.526 -0.5918  0.2712  1.1381
  825TIP3   OH2 2480   5.737   0.312   2.981  0.3288 -0.1632  0.0494
  825TIP3    H1 2481   5.828   0.335   2.998 -0.0499  1.6314 -0.0804
  825TIP3    H2 2482   5.739   0.263   2.899  1.0092  1.7914 -1.1658
  826TIP3   OH2 2483   3.701   4.412   3.731 -0.0176  0.3154 -0.1565
  826TIP3    H1 2484   3.662   4.489   3.773 -1.6456 -1.6533  2.2446
  826TIP3    H2 2485   3.706   4.347   3.801 -1.2764 -2.6519 -2.6124
  827TIP3   OH2 2486   3.541   3.414   0.565 -0.4424  0.1182  0.1701
  827TIP3    H1 2487   3.619   3.374   0.526 -1.7585 -0.1626 -2.3669
  827TIP3    H2 2488   3.477   3.416   0.494 -1.7233  3.2953  1.2439
  828TIP3   OH2 2489   0.261   4.796   3.455  0.1687  0.0036  0.3204
  828TIP3    H1 2490   0.200   4.836   3.393 -0.0444 -0.5559  0.1647
  828TIP3    H2 2491   0.294   4.718   3.410 -1.1250 -1.2503  1.4491
  829TIP3   OH2 2492   4.084   2.114   1.855  0.1427  0.2193 -0.0103
  829TIP3    H1 2493   4.040   2.119   1.939  0.0898 -2.0767  0.1569
  829TIP3    H2 2494   4.061   2.196   1.811 -0.1557  1.2789  2.0147
  830TIP3   OH2 2495   0.817   4.813   4.190 -0.1484 -0.0453 -0.0064
  830TIP3    H1 2496   0.901   4.845   4.223 -1.0373  1.4960  0.8841
  830TIP3    H2 2497   0.836   4.781   4.102  2.1191 -3.3759  1.4741
  831TIP3   OH2 2498   2.634   4.027   1.141  0.4443  0.4657 -0.1466
  831TIP3    H1 2499   2.574   3.994   1.074 -1.4268  0.1899  1.5869
  831TIP3    H2 2500   2.684   3.951   1.169 -0.0157  0.2256  0.0191
  832TIP3   OH2 2501   3.324   5.876   4.873  0.1677 -0.1454  0.0919
  832TIP3    H1 2502   3.352   5.837   4.790  3.5363  1.2986  0.3892
  832TIP3    H2 2503   3.349   5.812   4.940 -0.9620 -0.5566  0.1372
  833TIP3   OH2 2504   4.270   2.750   3.590  0.2919  0.0395  0.2066
  833TIP3    H1 2505   4.214   2.827   3.586  1.2104  0.6942 -0.7569
  833TIP3    H2 2506   4.357   2.783   3.567  0.8518 -1.1416  0.5824
  834TIP3   OH2 2507   1.615   1.368   0.423 -0.0552 -0.1405  0.2257
  834TIP3    H1 2508   1.636   1.276   0.409  1.2375 -0.1068  1.6660
  834TIP3    H2 2509   1.553   1.368   0.497 -0.5620  0.1161 -0.1914
  835TIP3   OH2 2510   0.066   3.050   2.996  0.1885  0.2149 -0.1912
  835TIP3    H1 2511  -0.019   3.052   3.039 -0.1104 -1.3068 -0.6359
  835TIP3    H2 2512   0.061   2.974   2.938  1.3899  0.8634 -1.1981
  836TIP3   OH2 2513   3.570   3.870   0.308 -0.6387 -0.0777 -0.0118
  836TIP3    H1 2514   3.546   3.962   0.297  0.9115  0.3485 -0.0312
  836TIP3    H2 2515   3.607   3.865   0.396 -3.3313 -1.3211  1.1826
  837TIP3   OH2 2516   1.804   2.657   3.490  0.2606  0.4643  0.4211
  837TIP3    H1 2517   1.824   2.677   3.399 -0.9920  0.2764  0.0920
  837TIP3    H2 2518   1.714   2.624   3.489  0.2824  0.3004  1.7023
  838TIP3   OH2 2519   3.240   0.743   0.132 -0.2150  0.0076  0.7179
  838TIP3    H1 2520   3.149   0.741   0.102  0.3981 -2.3827 -1.3949
  838TIP3    H2 2521   3.259   0.836   0.145 -2.0766  0.8500 -1.7754
  839TIP3   OH2 2522   4.762   5.208   2.802 -0.4262  0.5814  0.3510
  839TIP3    H1 2523   4.819   5.165   2.865 -0.0226  0.0932 -0.3302
  839TIP3    H2 2524   4.687   5.239   2.853 -0.3754 -0.2962  0.9674
  840TIP3   OH2 2525   5.780   0.862   3.376  0.2633 -0.5067  0.1048
  840TIP3    H1 2526   5.701   0.831   3.331 -0.2086  1.1144 -0.2715
  840TIP3    H2 2527   5.814   0.931   3.319  1.4208 -0.5306  0.7396
  841TIP3   OH2 2528   3.734   5.887   0.353 -0.3717  0.3256 -0.4491
  841TIP3    H1 2529   3.665   5.840   0.306  0.4272  0.3745 -1.7093
  841TIP3    H2 2530   3.719   5.866   0.445  0.7891 -3.5806 -1.0049
  842TIP3   OH2 2531   2.358   2.922   3.525 -0.2665 -0.2428 -0.2823
  842TIP3    H1 2532   2.330   2.913   3.616 -0.2547  1.5151 -0.0673
  842TIP3    H2 2533   2.308   2.855   3.478 -0.6899 -0.8019  0.9252
  843TIP3   OH2 2534   6.187   1.043   0.397 -0.1518  0.0666 -0.3949
  843TIP3    H1 2535   6.282   1.045   0.391 -0.1500 -1.0522 -1.1875
  843TIP3    H2 2536   6.169   0.992   0.476 -0.0595 -1.1912 -1.1535
  844TIP3   OH2 2537   3.498   5.306   1.269 -0.0258  0.1137 -0.2550
  844TIP3    H1 2538   3.424   5.353   1.231 -0.2496  1.1636  1.3895
  844TIP3    H2 2539   3.458   5.248   1.334  0.4693 -0.5893 -0.5586
  845TIP3   OH2 2540   5.071   3.030   0.237 -0.1681  0.1377  0.0076
  845TIP3    H1 2541   5.077   3.125   0.231  0.5520  0.2771  2.2801
  845TIP3    H2 2542   5.133   3.005   0.305 -0.9214 -1.8953  0.0477
  846TIP3   OH2 2543   2.497   0.698   4.038  0.2181  0.0829 -0.0990
  846TIP3    H1 2544   2.513   0.744   4.120 -2.0053  1.0233 -0.1457
  846TIP3    H2 2545   2.461   0.764   3.980 -1.9713 -1.3975 -0.5326
  847TIP3   OH2 2546   5.658   5.179   2.276 -0.3548 -0.3503  0.4388
  847TIP3    H1 2547   5.628   5.100   2.232  2.2278 -0.7999 -0.6392
  847TIP3    H2 2548   5.592   5.245   2.254  0.1462 -0.8798 -3.0874
  848TIP3   OH2 2549   6.204   5.503   2.336  0.0030  0.1499  0.0893
  848TIP3    H1 2550   6.284   5.485   2.386 -0.3290 -1.8892 -0.0274
  848TIP3    H2 2551   6.135   5.458   2.384 -0.8827  0.8812 -0.4649
  849TIP3   OH2 2552   4.119   4.899   3.888  0.3331 -0.4236  0.0775
  849TIP3    H1 2553   4.169   4.868   3.813  1.3244 -0.5978  0.7859
  849TIP3    H2 2554   4.182   4.950   3.939 -0.5324  0.3594  0.3856
  850TIP3   OH2 2555   1.720   0.831   4.808  0.1764  0.0461 -0.0487
  850TIP3    H1 2556   1.678   0.778   4.740 -1.0375  0.0552  0.6636
  850TIP3    H2 2557   1.649   0.884   4.844  0.8654  0.2830  1.0027
  851TIP3   OH2 2558   4.869   4.464   3.597 -0.0903 -0.7529  0.4615
  851TIP3    H1 2559   4.774   4.466   3.603 -0.1951 -0.7100 -0.9693
  851TIP3    H2 2560   4.888   4.466   3.504  1.3193 -0.8885  0.7163
  852TIP3   OH2 2561   0.949   1.930   0.045 -0.1169  0.3292 -0.2474
  852TIP3    H1 2562   0.984   1.862  -0.013 -2.3906 -1.0374 -0.1390
  852TIP3    H2 2563   0.973   2.012   0.002  2.2690 -0.5105 -0.6504
  853TIP3   OH2 2564   6.062   5.277   2.479  0.7978  0.5504 -0.0951
  853TIP3    H1 2565   6.069   5.226   2.399  2.5970  1.5084 -0.5972
  853TIP3    H2 2566   5.974   5.313   2.477  0.4362 -0.3455 -1.0732
  854TIP3   OH2 2567   5.513   1.872   1.826 -0.4225  0.3682  0.2222
  854TIP3    H1 2568   5.420   1.855   1.813 -0.6080  1.6848 -0.3133
  854TIP3    H2 2569   5.524   1.875   1.921 -1.0850  0.9635  0.2884
  855TIP3   OH2 2570   2.591   5.592   3.996  0.1884  0.2822 -0.0051
  855TIP3    H1 2571   2.671   5.544   3.974  0.2032  0.1701  0.2940
  855TIP3    H2 2572   2.529   5.566   3.928  0.3158  0.1422 -0.0694
  856TIP3   OH2 2573   2.080   5.709   4.641  0.1968 -0.4374  0.1536
  856TIP3    H1 2574   2.066   5.619   4.672 -0.4298 -0.2818  0.3455
  856TIP3    H2 2575   2.120   5.699   4.555  1.8686 -0.8876  0.9401
  857TIP3   OH2 2576   2.770   5.771   3.759 -0.4654  0.0466  0.1531
  857TIP3    H1 2577   2.717   5.824   3.819 -0.5532  1.3361 -1.0139
  857TIP3    H2 2578   2.740   5.681   3.774 -0.4903  0.3248  2.0045
  858TIP3   OH2 2579   3.551   4.407   2.775 -0.6120  0.3789  0.3239
  858TIP3    H1 2580   3.615   4.476   2.755  2.3776 -2.0685  0.7048
  858TIP3    H2 2581   3.530   4.369   2.690  0.6457 -0.5582  0.4028
  859TIP3   OH2 2582   0.004   1.715   2.849  0.4953 -0.0241 -0.3501
  859TIP3    H1 2583  -0.017   1.631   2.808 -0.8763 -0.0050  0.2610
  859TIP3    H2 2584   0.100   1.716   2.853  0.6264 -0.7339 -2.0531
  860TIP3   OH2 2585   2.127   5.909   2.066  0.3848  0.3984 -0.2891
  860TIP3    H1 2586   2.159   5.848   2.133  1.6689  1.1668 -0.1751
  860TIP3    H2 2587   2.153   5.995   2.098  1.5897  0.7390 -2.0598
  861TIP3   OH2 2588   5.716   2.260   0.531 -0.0063 -0.2025 -0.0103
  861TIP3    H1 2589   5.636   2.250   0.582 -0.5796  0.2815 -0.7818
  861TIP3    H2 2590   5.762   2.177   0.541 -1.1792 -0.9356 -0.5157
  862TIP3   OH2 2591   5.692   3.446   0.447  0.0107  0.4928 -0.5678
  862TIP3    H1 2592   5.740   3.525   0.421 -0.1176  0.6846 -0.2407
  862TIP3    H2 2593   5.740   3.413   0.523  1.6164 -1.2486 -2.2413
  863TIP3   OH2 2594   2.087   2.106   2.617  0.2549  0.4742  0.9101
  863TIP3    H1 2595   2.023   2.080   2.550 -0.4575  0.8558  1.4230
  863TIP3    H2 2596   2.034   2.146   2.686  1.1456  1.7775  0.8800
  864TIP3   OH2 2597   3.939   2.594   3.010 -0.1943 -0.1291 -0.6085
  864TIP3    H1 2598   4.005   2.525   3.014 -0.0518  0.0539  0.5986
  864TIP3    H2 2599   3.964   2.655   3.080 -1.8358 -0.2383  0.1247
  865TIP3   OH2 2600   5.399   5.690   1.958  0.1070  0.2068 -0.1352
  865TIP3    H1 2601   5.342   5.707   2.033  0.7896 -0.7176  0.6089
  865TIP3    H2 2602   5.353   5.728   1.884 -2.0296 -1.4418  0.2537
  866TIP3   OH2 2603   5.183   3.740   0.275 -0.6556  0.5104 -0.2418
  866TIP3    H1 2604   5.146   3.756   0.362 -1.5989 -1.9500 -0.1104
  866TIP3    H2 2605   5.107   3.731   0.217 -0.1660 -0.7367 -0.7297
  867TIP3   OH2 2606   2.215   1.122   1.226 -0.1852 -0.0979  0.6088
  867TIP3    H1 2607   2.122   1.136   1.204 -0.3712  0.4898  1.6925
  867TIP3    H2 2608   2.213   1.062   1.301  0.3106 -0.0341  0.6734
  868TIP3   OH2 2609   5.341   2.385   4.509 -0.0381  0.3136 -0.2106
  868TIP3    H1 2610   5.388   2.323   4.453  0.8500  1.0128 -0.2670
  868TIP3    H2 2611   5.400   2.460   4.515 -0.2282  0.3483  1.4697
  869TIP3   OH2 2612   2.220   0.354   3.585 -0.0001 -0.3109  0.6741
  869TIP3    H1 2613   2.126   0.369   3.582  0.2495  1.5483  0.6420
  869TIP3    H2 2614   2.255   0.405   3.512  0.8936 -2.5239 -0.5356
  870TIP3   OH2 2615   2.221   2.122   1.590 -0.5997 -0.5909  0.7471
  870TIP3    H1 2616   2.240   2.132   1.683  0.0222 -1.1825  0.6981
  870TIP3    H2 2617   2.308   2.111   1.549 -0.7878  0.5251 -0.0196
  871TIP3   OH2 2618   2.202   4.501   2.814  0.2756 -0.5642  0.2496
  871TIP3    H1 2619   2.180   4.413   2.786 -0.8927  0.2765 -1.6289
  871TIP3    H2 2620   2.123   4.534   2.855 -1.2581  1.3781 -3.7765
  872TIP3   OH2 2621   5.263   3.601   3.399  0.0942  0.4403  0.4563
  872TIP3    H1 2622   5.188   3.620   3.342  0.0081  0.4201  0.5628
  872TIP3    H2 2623   5.234   3.527   3.453 -0.2630  1.2275  1.3701
  873TIP3   OH2 2624   5.793   4.924   3.907  0.3385 -0.0246 -0.2750
  873TIP3    H1 2625   5.748   4.897   3.827 -0.1687 -1.6112  0.4824
  873TIP3    H2 2626   5.859   4.857   3.921  0.3932  0.2063  0.6456
  874TIP3   OH2 2627   1.337   0.861   4.113 -0.0440 -0.1362 -0.0396
  874TIP3    H1 2628   1.378   0.871   4.026 -1.0980 -2.3186 -0.8461
  874TIP3    H2 2629   1.354   0.945   4.156  1.7807  0.4963 -1.8006
  875TIP3   OH2 2630   1.364   1.697   1.914 -0.0865 -0.0389  0.6027
  875TIP3    H1 2631   1.347   1.619   1.862  3.5690 -0.2766 -0.5141
  875TIP3    H2 2632   1.340   1.672   2.003  1.3989 -2.6867  0.3608
  876TIP3   OH2 2633   4.113   5.534   4.976  0.2769 -0.5647  0.2400
  876TIP3    H1 2634   4.067   5.616   4.997  0.9533 -0.7407  2.6623
  876TIP3    H2 2635   4.062   5.466   5.020  1.5676 -1.0277  1.0677
  877TIP3   OH2 2636   2.009   5.434   4.690 -0.2389 -0.0230 -0.0193
  877TIP3    H1 2637   1.927   5.462   4.732  0.8066  0.8937  1.5088
  877TIP3    H2 2638   2.043   5.365   4.746  1.3085  1.3904  0.8782
  878TIP3   OH2 2639   5.077   2.827   3.748  0.2277 -0.3234  0.0389
  878TIP3    H1 2640   5.104   2.887   3.818 -0.8476  0.2385 -0.0181
  878TIP3    H2 2641   4.982   2.820   3.757  0.0201 -0.0208 -1.5188
  879TIP3   OH2 2642   0.843   5.376   2.310 -0.1278  0.0731  0.2005
  879TIP3    H1 2643   0.770   5.376   2.372 -0.6182 -0.9415 -0.3537
  879TIP3    H2 2644   0.802   5.370   2.224  0.5795  0.3597 -0.1675
  880TIP3   OH2 2645   0.966   0.564   3.556 -0.0229 -0.2597  0.2935
  880TIP3    H1 2646   0.945   0.474   3.581  1.7370 -0.9477 -0.4722
  880TIP3    H2 2647   1.035   0.591   3.617  0.5348 -0.0136 -0.4221
  881TIP3   OH2 2648   5.680   3.176   3.861  0.5411 -0.5124 -0.0233
  881TIP3    H1 2649   5.738   3.213   3.928 -1.1784  0.0159  1.2440
  881TIP3    H2 2650   5.593   3.210   3.883 -0.2203 -1.0137 -2.0502
  882TIP3   OH2 2651   6.218   4.627   0.602  0.2624  0.0982 -0.0059
  882TIP3    H1 2652   6.213   4.543   0.648 -1.7340  0.1160 -0.0898
  882TIP3    H2 2653   6.284   4.677   0.651  1.5658 -1.5264 -0.0226
  883TIP3   OH2 2654   4.375   2.506   4.085 -0.2971  0.6813 -0.1182
  883TIP3    H1 2655   4.406   2.415   4.089 -0.5096  0.4396 -2.7084
  883TIP3    H2 2656   4.309   2.511   4.154  1.1104 -0.5194  1.4365
  884TIP3   OH2 2657   4.975   4.025   0.980 -0.1659  0.8300 -0.0199
  884TIP3    H1 2658   5.055   4.057   0.938  0.3862  0.4685  0.7329
  884TIP3    H2 2659   4.968   4.077   1.060 -2.0206  2.5751 -1.2097
  885TIP3   OH2 2660   0.121   0.305   4.273  0.2296  0.2749 -0.1862
  885TIP3    H1 2661   0.029   0.322   4.250  0.3309  0.8442 -0.1877
  885TIP3    H2 2662   0.159   0.392   4.282  0.8271  0.0375 -0.4063
  886TIP3   OH2 2663   2.481   0.616   3.243 -0.8561 -0.1926  0.0897
  886TIP3    H1 2664   2.431   0.585   3.167  0.3361 -1.1881 -0.3322
  886TIP3    H2 2665   2.520   0.699   3.214 -0.7022 -0.3859 -0.2671
  887TIP3   OH2 2666   1.118   0.830   1.121  0.0997  0.1050  0.2685
  887TIP3    H1 2667   1.053   0.834   1.050  0.2594  0.3940  0.1374
  887TIP3    H2 2668   1.127   0.921   1.150  0.3449  0.0449  0.3796
  888TIP3   OH2 2669   0.292   5.954   4.827 -0.3502 -0.4451  0.0709
  888TIP3    H1 2670   0.251   5.880   4.873  0.2246  0.4580  2.1317
  888TIP3    H2 2671   0.372   5.917   4.790 -1.4350 -1.4873 -1.3439
  889TIP3   OH2 2672   0.229   4.241   2.332  0.2212  0.4661 -0.0004
  889TIP3    H1 2673   0.183   4.316   2.372  0.1069 -0.0615  0.8759
  889TIP3    H2 2674   0.224   4.172   2.397  0.7149 -0.1784 -0.6278
  890TIP3   OH2 2675   5.894   2.011   1.970  0.2234 -0.2855 -0.0993
  890TIP3    H1 2676   5.941   1.944   1.920  0.7212  0.3773 -0.5345
  890TIP3    H2 2677   5.961   2.077   1.990 -0.1557 -0.1396  0.7354
  891TIP3   OH2 2678   2.805   5.440   0.260 -0.3747 -0.4114 -0.5065
  891TIP3    H1 2679   2.843   5.485   0.185 -0.2989 -0.0904 -0.2757
  891TIP3    H2 2680   2.845   5.353   0.259 -1.8611 -1.1494 -2.0352
  892TIP3   OH2 2681   0.086   4.956   2.932 -0.0255  0.7829  0.0440
  892TIP3    H1 2682   0.016   4.988   2.876 -0.4994 -0.4489 -0.0849
  892TIP3    H2 2683   0.142   5.033   2.946 -2.3147  2.2973  1.5962
  893TIP3   OH2 2684   2.277   4.125   2.231  0.4027  0.1019 -0.6185
  893TIP3    H1 2685   2.213   4.164   2.171  1.1052  1.4638 -0.5073
  893TIP3    H2 2686   2.251   4.156   2.317 -1.2084 -2.6406  0.0151
  894TIP3   OH2 2687   5.924   2.446   1.785  0.4545  0.3577 -0.2764
  894TIP3    H1 2688   5.909   2.497   1.864  1.1720 -0.1934  0.2357
  894TIP3    H2 2689   5.838   2.440   1.743 -0.0492  0.1905  0.7495
  895TIP3   OH2 2690   1.827   0.322   0.389 -0.4725  0.1321 -0.1771
  895TIP3    H1 2691   1.797   0.293   0.475  0.0263  0.5184  0.1334
  895TIP3    H2 2692   1.905   0.375   0.408 -0.9635  1.1008 -0.7784
  896TIP3   OH2 2693   3.179   5.233   4.351 -0.4458 -0.9024  0.4517
  896TIP3    H1 2694   3.162   5.283   4.430 -0.3664  0.6959 -0.4996
  896TIP3    H2 2695   3.165   5.142   4.377  1.9229 -0.6892  2.9181
  897TIP3   OH2 2696   5.135   0.272   5.054  0.0133 -0.0071  0.0325
  897TIP3    H1 2697   5.116   0.211   5.126 -0.0613 -1.1919 -0.9744
  897TIP3    H2 2698   5.211   0.235   5.010 -0.1783  0.4941 -0.7416
  898TIP3   OH2 2699   0.273   0.160   1.779 -0.2391  0.1210 -0.2416
  898TIP3    H1 2700   0.230   0.168   1.864  0.8843 -0.0999  0.3628
  898TIP3    H2 2701   0.357   0.118   1.798  0.9582  1.9813 -1.1667
  899TIP3   OH2 2702   5.971   3.669   0.585  0.2978  0.5220 -0.8110
  899TIP3    H1 2703   6.057   3.702   0.559  1.7812 -1.0260  1.7574
  899TIP3    H2 2704   5.979   3.574   0.582 -0.7312  0.3188  1.1365
  900TIP3   OH2 2705   3.631   4.047   4.775 -0.1663 -0.6692  0.2157
  900TIP3    H1 2706   3.711   3.995   4.776 -1.0912 -2.1620 -0.3826
  900TIP3    H2 2707   3.655   4.127   4.728  1.2830 -0.5151  1.1468
  901TIP3   OH2 2708   0.869   0.445   0.514 -0.1203 -0.4112  0.3748
  901TIP3    H1 2709   0.875   0.456   0.419  0.7527 -0.3052  0.4356
  901TIP3    H2 2710   0.923   0.516   0.550  0.5167 -1.1491  0.9132
  902TIP3   OH2 2711   4.218   1.661   2.846 -0.6977  0.0806  0.3074
  902TIP3    H1 2712   4.128   1.628   2.844  0.0166 -2.0118 -0.1589
  902TIP3    H2 2713   4.259   1.613   2.919  0.4625 -0.2479 -0.5309
  903TIP3   OH2 2714   1.758   5.450   0.691 -0.1672 -0.2788  0.1809
  903TIP3    H1 2715   1.698   5.385   0.654 -0.4887  0.4114 -0.5503
  903TIP3    H2 2716   1.751   5.525   0.631  2.2022 -0.5587 -0.5268
  904TIP3   OH2 2717   0.144   1.736   4.600 -0.2524 -0.0564  0.1771
  904TIP3    H1 2718   0.185   1.696   4.524  0.8047  0.5373  0.4022
  904TIP3    H2 2719   0.087   1.804   4.564  1.0067  0.9008 -0.0798
  905TIP3   OH2 2720   1.385   0.799   2.601  0.0490  0.6321  0.2081
  905TIP3    H1 2721   1.368   0.704   2.594 -0.5282  0.7898 -0.8863
  905TIP3    H2 2722   1.423   0.822   2.517  1.3125  1.1765  0.9157
  906TIP3   OH2 2723   1.564   5.782   0.688  0.5663 -0.6691  0.4326
  906TIP3    H1 2724   1.568   5.865   0.640  0.7187  0.3592  2.1236
  906TIP3    H2 2725   1.592   5.716   0.625  0.2578  0.5371 -1.0191
  907TIP3   OH2 2726   2.944   5.472   4.998  0.1980  0.1505  0.0255
  907TIP3    H1 2727   3.000   5.529   4.945  0.5931  0.0014  0.2785
  907TIP3    H2 2728   3.004   5.429   5.058 -0.2517  0.3649  0.6400
  908TIP3   OH2 2729   2.899   1.877   2.547  0.6221  0.3914  0.1308
  908TIP3    H1 2730   2.902   1.953   2.604  0.6278  1.2840 -1.0322
  908TIP3    H2 2731   2.840   1.816   2.591 -0.7806  1.7703  0.2435
  909TIP3   OH2 2732   1.718   1.480   3.283  0.1004 -0.2468  0.7630
  909TIP3    H1 2733   1.655   1.514   3.219 -1.3427 -2.3504  0.9480
  909TIP3    H2 2734   1.773   1.420   3.232 -0.8340 -1.6721  1.3817
  910TIP3   OH2 2735   2.299   3.086   4.673 -0.1420  0.2495  0.5650
  910TIP3    H1 2736   2.234   3.041   4.728 -0.5348  0.8760  0.6211
  910TIP3    H2 2737   2.247   3.145   4.618  0.3774  0.7478  0.5981
  911TIP3   OH2 2738   5.191   2.860   4.119  0.2186  0.1556 -0.6983
  911TIP3    H1 2739   5.158   2.921   4.053  1.2721 -1.7140 -3.0901
  911TIP3    H2 2740   5.286   2.858   4.104  0.4464 -0.5425  0.7152
  912TIP3   OH2 2741   4.314   4.920   1.217  0.2765  0.6550  0.0243
  912TIP3    H1 2742   4.299   4.943   1.125  0.3148  1.4507  0.2082
  912TIP3    H2 2743   4.403   4.884   1.218  0.8159  1.9250 -0.0440
  913TIP3   OH2 2744   0.658   3.176   4.967 -0.1901 -0.6767 -0.3850
  913TIP3    H1 2745   0.615   3.109   4.914 -0.0279 -0.1087 -1.2579
  913TIP3    H2 2746   0.630   3.158   5.057 -0.3993 -1.7155 -0.6443
  914TIP3   OH2 2747   3.475   4.776   4.910 -0.2843  0.6560 -0.2958
  914TIP3    H1 2748   3.455   4.688   4.941 -1.1790  1.2731  0.9886
  914TIP3    H2 2749   3.521   4.763   4.827 -0.2102 -1.0111 -0.0234
  915TIP3   OH2 2750   5.337   4.602   5.129 -0.2997  0.3754  0.3610
  915TIP3    H1 2751   5.307   4.626   5.042  3.5279  0.3393 -1.1555
  915TIP3    H2 2752   5.371   4.684   5.166 -0.2558  0.0394  1.0878
  916TIP3   OH2 2753   3.554   3.720   4.879  0.0237 -0.7387 -0.0903
  916TIP3    H1 2754   3.607   3.775   4.822  1.1611 -0.8447  0.8394
  916TIP3    H2 2755   3.475   3.701   4.827 -0.1188  1.2253 -0.6607
  917TIP3   OH2 2756   2.598   5.118   2.433  0.1932 -0.8814  0.2517
  917TIP3    H1 2757   2.625   5.035   2.471 -1.7010 -1.1137  1.2178
  917TIP3    H2 2758   2.594   5.102   2.339 -1.3901 -2.3102  0.5156
  918TIP3   OH2 2759   1.937   5.648   4.953  0.5475  0.8238 -0.1312
  918TIP3    H1 2760   1.916   5.633   5.045 -1.0176  0.1202 -0.5693
  918TIP3    H2 2761   2.030   5.671   4.953  1.1583 -1.3588  1.4002
  919TIP3   OH2 2762   6.279   4.215   0.892 -0.5219  0.1428  0.4716
  919TIP3    H1 2763   6.276   4.132   0.844 -1.0373  0.3585  0.1179
  919TIP3    H2 2764   6.354   4.207   0.950  0.4601  0.0816 -0.7630
  920TIP3   OH2 2765   5.791   0.403   2.285  0.1473  0.3433  0.1348
  920TIP3    H1 2766   5.806   0.318   2.243  0.5744  1.6101 -2.4928
  920TIP3    H2 2767   5.858   0.460   2.246 -0.9353  2.1760  0.8702
  921TIP3   OH2 2768   0.901   4.496   0.749 -0.3785 -0.2354 -0.3843
  921TIP3    H1 2769   0.983   4.515   0.795 -0.6750  1.8198 -0.6013
  921TIP3    H2 2770   0.906   4.403   0.728  1.8660 -0.1806 -0.3377
  922TIP3   OH2 2771   5.145   1.156   0.325  0.0766  0.6059  0.1583
  922TIP3    H1 2772   5.209   1.086   0.316  0.3566  1.0543 -1.8521
  922TIP3    H2 2773   5.166   1.197   0.408 -0.4875 -2.0262  1.7199
  923TIP3   OH2 2774   1.992   0.539   1.801  0.3189  0.2008  0.0111
  923TIP3    H1 2775   1.985   0.461   1.856 -0.2241 -0.1054 -0.4750
  923TIP3    H2 2776   1.915   0.535   1.743 -0.0870  1.4400  0.4169
  924TIP3   OH2 2777   1.300   2.910   3.224 -0.7473  0.1064  0.1061
  924TIP3    H1 2778   1.301   3.000   3.257 -1.2626  0.4347 -0.7663
  924TIP3    H2 2779   1.283   2.856   3.302 -0.9149  0.7993  0.5529
  925TIP3   OH2 2780   0.235   4.360   2.772  0.1943  0.2518 -0.4345
  925TIP3    H1 2781   0.236   4.425   2.842 -0.8726 -0.4817  0.2887
  925TIP3    H2 2782   0.325   4.327   2.769  0.0655 -0.3484  1.2361
  926TIP3   OH2 2783   4.329   3.305   4.728 -0.3673 -0.5412  0.2256
  926TIP3    H1 2784   4.305   3.327   4.638 -2.3614  0.5631  0.9683
  926TIP3    H2 2785   4.268   3.236   4.753  0.1814 -0.8471  0.7511
  927TIP3   OH2 2786   4.369   2.616   1.283 -0.3648 -0.0084 -0.1854
  927TIP3    H1 2787   4.303   2.558   1.244 -2.0321  2.4682 -1.3427
  927TIP3    H2 2788   4.432   2.557   1.323 -2.3359 -2.5815 -0.5775
  928TIP3   OH2 2789   2.595   2.709   1.705 -0.7772 -0.3519 -0.1278
  928TIP3    H1 2790   2.613   2.621   1.672 -1.1002 -1.5525  2.5993
  928TIP3    H2 2791   2.677   2.736   1.747 -0.2250  1.3266 -2.0830
  929TIP3   OH2 2792   0.080   2.915   4.301  0.3062 -0.2672 -0.4696
  929TIP3    H1 2793   0.132   2.951   4.229 -1.5267  2.2928 -0.6725
  929TIP3    H2 2794   0.021   2.852   4.259  0.0422  0.3558 -1.0515
  930TIP3   OH2 2795   2.160   4.417   1.067  0.0569 -0.4547 -0.4908
  930TIP3    H1 2796   2.234   4.446   1.014  0.8637 -1.4548  0.0524
  930TIP3    H2 2797   2.091   4.481   1.049  1.8893  2.1349  1.0303
  931TIP3   OH2 2798   5.788   4.288   3.010  0.0358  0.1684 -0.0244
  931TIP3    H1 2799   5.765   4.236   3.087  0.6999 -2.6834 -1.6112
  931TIP3    H2 2800   5.704   4.311   2.971 -0.2726  0.3385  0.7202
  932TIP3   OH2 2801  -0.006   2.562   0.069 -0.0956  0.3374  0.1681
  932TIP3    H1 2802   0.059   2.544   0.137  0.0500 -1.5190 -0.4110
  932TIP3    H2 2803  -0.012   2.481   0.019 -0.2947  1.5855 -1.9864
  933TIP3   OH2 2804   3.312   4.773   1.440  0.9364  0.1661  0.0328
  933TIP3    H1 2805   3.320   4.865   1.414 -0.3186 -0.3476 -2.4500
  933TIP3    H2 2806   3.390   4.756   1.493  2.1523  2.1830 -1.0087
  934TIP3   OH2 2807   0.106   0.443   3.965  0.0445  0.6087 -0.0508
  934TIP3    H1 2808   0.077   0.414   3.878  1.7953  0.5605 -0.6763
  934TIP3    H2 2809   0.134   0.362   4.008  0.5829  0.8051 -0.0247
  935TIP3   OH2 2810   1.526   0.194   4.434 -0.2585 -0.2784  0.2622
  935TIP3    H1 2811   1.600   0.138   4.453  1.1654  1.3794 -0.1390
  935TIP3    H2 2812   1.515   0.249   4.512 -0.3943  0.1885 -0.0771
  936TIP3   OH2 2813   2.025   3.111   3.648  0.2065 -0.1250  0.0125
  936TIP3    H1 2814   1.935   3.138   3.633  0.8680  3.0735  0.7849
  936TIP3    H2 2815   2.077   3.175   3.599  2.0563 -1.8236 -0.3369
  937TIP3   OH2 2816   3.409   5.219   1.508  0.0009  0.2730 -0.4240
  937TIP3    H1 2817   3.496   5.179   1.514 -0.3350 -0.4600 -0.2826
  937TIP3    H2 2818   3.351   5.146   1.484 -0.6342  0.6725 -0.1239
  938TIP3   OH2 2819   2.594   5.232   5.105  0.0760 -0.0690 -0.1431
  938TIP3    H1 2820   2.528   5.280   5.156  0.3782  0.7817 -0.5488
  938TIP3    H2 2821   2.547   5.156   5.071 -0.4828  0.0878  0.2666
  939TIP3   OH2 2822   4.103   0.989   4.016 -0.2405  0.3301  0.1260
  939TIP3    H1 2823   4.031   1.049   4.000  0.1733  1.2753  1.5616
  939TIP3    H2 2824   4.064   0.902   4.012 -1.5042  0.8255  1.0294
  940TIP3   OH2 2825   5.621   0.352   1.075  0.0947 -0.0793 -0.5054
  940TIP3    H1 2826   5.622   0.336   0.981 -1.4947  1.0182 -0.7478
  940TIP3    H2 2827   5.548   0.300   1.108  0.6929 -0.5197  0.1366
  941TIP3   OH2 2828   2.806   3.637   3.096  0.0309 -0.2253 -0.1525
  941TIP3    H1 2829   2.819   3.626   3.001  0.7287  0.1239 -0.1047
  941TIP3    H2 2830   2.887   3.605   3.135 -0.1495 -0.1152  0.3176
  942TIP3   OH2 2831   1.546   4.785   1.263 -0.0431 -0.5355  0.2223
  942TIP3    H1 2832   1.479   4.766   1.197 -0.0869 -0.3437  0.2120
  942TIP3    H2 2833   1.588   4.866   1.233  0.2059 -0.6630  0.2189
  943TIP3   OH2 2834   6.166   5.971   4.811 -0.3872 -0.1117  0.2155
  943TIP3    H1 2835   6.225   5.899   4.789 -0.7167 -0.1375 -0.6238
  943TIP3    H2 2836   6.195   6.000   4.898 -0.1112 -1.1089  0.4737
  944TIP3   OH2 2837   0.895   0.727   5.189 -0.2221 -0.2245  0.2709
  944TIP3    H1 2838   0.926   0.670   5.119 -0.7622  0.8475 -0.8835
  944TIP3    H2 2839   0.965   0.792   5.199 -1.0271  0.8426 -0.7450
  945TIP3   OH2 2840   2.308   0.521   3.013  0.3926 -0.1799 -0.0037
  945TIP3    H1 2841   2.302   0.609   2.977 -0.8392  0.4068  1.5096
  945TIP3    H2 2842   2.309   0.464   2.936  3.5026  1.1622 -1.1145
  946TIP3   OH2 2843   2.105   3.488   2.242  0.3479 -0.1486  0.7448
  946TIP3    H1 2844   2.013   3.471   2.265 -0.0768 -0.3609 -0.9392
  946TIP3    H2 2845   2.154   3.458   2.318 -0.9262 -0.9784  1.2905
  947TIP3   OH2 2846   5.401   1.589   1.475  0.3173 -0.2141  0.1838
  947TIP3    H1 2847   5.383   1.672   1.517  1.3409 -0.2753  0.7892
  947TIP3    H2 2848   5.476   1.554   1.523  2.2618  0.2131 -2.3306
  948TIP3   OH2 2849   2.468   0.829   1.691  0.1866  0.5200 -0.0596
  948TIP3    H1 2850   2.438   0.851   1.779 -0.2554 -0.5569  0.0843
  948TIP3    H2 2851   2.403   0.766   1.659  0.0701  1.2627 -1.3567
  949TIP3   OH2 2852   3.172   0.595   4.742 -1.0816  0.0219 -0.3410
  949TIP3    H1 2853   3.190   0.527   4.807 -1.6882  0.2476  0.0746
  949TIP3    H2 2854   3.090   0.567   4.701 -1.5082  0.6715  0.0614
  950TIP3   OH2 2855   2.995   1.600   1.265 -0.2669 -0.0981 -0.2560
  950TIP3    H1 2856   2.921   1.608   1.204  0.4251 -1.0121 -1.2449
  950TIP3    H2 2857   2.993   1.509   1.294  1.7765 -0.8182 -2.0843
  951TIP3   OH2 2858   5.547   0.542   1.246  0.2238 -0.5011 -0.1414
  951TIP3    H1 2859   5.586   0.475   1.189 -1.1650  0.3018 -2.1531
  951TIP3    H2 2860   5.477   0.496   1.292  0.7400 -0.9363  0.2220
  952TIP3   OH2 2861   3.457   4.824   4.406  0.6577  0.4567  0.0218
  952TIP3    H1 2862   3.525   4.811   4.340 -1.0670 -0.2795 -1.7050
  952TIP3    H2 2863   3.375   4.826   4.356 -0.5925  1.5358  1.9909
  953TIP3   OH2 2864   2.055   3.964   0.607 -0.0993  0.1726 -0.1388
  953TIP3    H1 2865   2.143   4.000   0.621  0.5063 -0.7681 -1.3485
  953TIP3    H2 2866   2.002   4.039   0.580  0.6301  0.5502 -0.5603
  954TIP3   OH2 2867   0.618   4.953   2.297 -0.1328 -0.5036  0.0478
  954TIP3    H1 2868   0.690   4.915   2.247 -1.1512 -2.6818  0.0963
  954TIP3    H2 2869   0.597   4.887   2.363 -0.9631  0.8944  1.2506
  955TIP3   OH2 2870   4.792   0.122   2.078 -0.2994  0.0417  0.3592
  955TIP3    H1 2871   4.727   0.134   2.147 -3.0291  0.0425 -1.9837
  955TIP3    H2 2872   4.830   0.036   2.095  0.5444  0.8364  2.8561
  956TIP3   OH2 2873   1.966   0.079   3.588  0.7111  0.2456  0.4042
  956TIP3    H1 2874   1.896   0.061   3.525  1.7252  0.9475 -0.9734
  956TIP3    H2 2875   1.944   0.164   3.625  0.2802 -0.0289  0.8015
  957TIP3   OH2 2876   1.431   5.835   2.475 -0.7730 -0.3649 -0.4584
  957TIP3    H1 2877   1.343   5.804   2.498 -0.4421 -1.1154 -0.1734
  957TIP3    H2 2878   1.419   5.928   2.454 -1.4620 -0.2016  0.5922
  958TIP3   OH2 2879   2.921   2.688   1.491 -0.1158 -0.4446 -0.1529
  958TIP3    H1 2880   2.890   2.619   1.550  0.2646  0.4000  1.0811
  958TIP3    H2 2881   2.844   2.713   1.441 -0.4277 -1.2520 -0.1024
  959TIP3   OH2 2882   4.633   0.933   2.987  0.0806 -0.2802 -0.2931
  959TIP3    H1 2883   4.562   0.879   2.952 -0.2707 -0.9135  1.3530
  959TIP3    H2 2884   4.590   0.989   3.052  1.1694 -1.0934  1.1593
  960TIP3   OH2 2885   1.093   4.355   4.360 -0.3135 -0.0285 -0.4897
  960TIP3    H1 2886   1.042   4.401   4.427  1.1627  0.6138  0.2433
  960TIP3    H2 2887   1.030   4.337   4.290 -1.5507  0.6503  0.4042
  961TIP3   OH2 2888   6.226   5.338   1.260 -0.7565  0.5401  0.1856
  961TIP3    H1 2889   6.250   5.297   1.177 -1.8880  0.3334 -0.0577
  961TIP3    H2 2890   6.307   5.341   1.310  0.2061  1.6536 -1.3338
  962TIP3   OH2 2891   2.905   5.185   0.281 -0.1093  0.2410 -0.9191
  962TIP3    H1 2892   2.842   5.151   0.218 -3.0681  1.1018  1.3341
  962TIP3    H2 2893   2.960   5.110   0.302 -2.2035 -1.4018 -0.9446
  963TIP3   OH2 2894   0.171   4.238   1.050 -0.0293 -0.4955  0.0995
  963TIP3    H1 2895   0.191   4.182   1.125 -1.2152 -1.7917 -0.5218
  963TIP3    H2 2896   0.253   4.245   1.002  0.4780 -0.5070  0.9431
  964TIP3   OH2 2897   4.132   3.607   3.048 -0.2740 -0.0313 -0.9213
  964TIP3    H1 2898   4.159   3.575   2.962  3.1552 -0.6942  0.2786
  964TIP3    H2 2899   4.071   3.541   3.080  0.8664 -1.4635 -1.5890
  965TIP3   OH2 2900   2.190   5.915   1.521 -0.4930 -0.1000  0.3926
  965TIP3    H1 2901   2.162   5.909   1.612  0.1260 -0.2557  0.5746
  965TIP3    H2 2902   2.182   5.826   1.487  2.7631 -0.9040  1.3480
  966TIP3   OH2 2903   1.412   3.650   4.440 -0.2145  0.5867 -0.1956
  966TIP3    H1 2904   1.440   3.603   4.519  1.2040 -0.9223 -1.5199
  966TIP3    H2 2905   1.333   3.604   4.411 -0.4366  0.8115  0.0485
  967TIP3   OH2 2906   1.638   4.979   4.707  0.1421 -0.0240 -0.4331
  967TIP3    H1 2907   1.613   4.964   4.616 -1.2775 -0.3361 -0.0162
  967TIP3    H2 2908   1.658   4.892   4.742 -0.0080  0.0153 -0.2481
  968TIP3   OH2 2909   4.185   4.088   4.922  0.3148  0.1680  0.0163
  968TIP3    H1 2910   4.164   4.082   5.015 -0.2033 -1.0566 -0.1580
  968TIP3    H2 2911   4.167   4.180   4.900  0.3822  0.4604  1.0984
  969TIP3   OH2 2912   2.123   0.297   3.090  0.0408 -0.3807 -0.2465
  969TIP3    H1 2913   2.055   0.354   3.055 -1.0937 -1.7946 -0.4427
  969TIP3    H2 2914   2.205   0.338   3.064 -0.7383  0.9674 -0.6564
  970TIP3   OH2 2915   5.862   1.594   5.062 -0.2125 -0.4094 -0.2116
  970TIP3    H1 2916   5.905   1.509   5.053 -0.2074 -0.4542  0.1938
  970TIP3    H2 2917   5.770   1.573   5.077 -0.2835 -0.3294 -0.5229
  971TIP3   OH2 2918   3.728   5.187   4.317  0.1685  0.0702 -0.2345
  971TIP3    H1 2919   3.650   5.137   4.293  1.3123 -0.7192 -2.5277
  971TIP3    H2 2920   3.709   5.276   4.290 -0.0425 -0.0633 -0.5331
  972TIP3   OH2 2921   5.062   2.321   4.498  0.4484  0.0895 -0.1069
  972TIP3    H1 2922   5.154   2.339   4.517  0.8967 -0.9358 -1.1731
  972TIP3    H2 2923   5.043   2.374   4.420  1.6886 -3.3866 -3.0816
  973TIP3   OH2 2924   1.642   4.084   3.389 -0.0626  0.3850  0.2842
  973TIP3    H1 2925   1.695   4.116   3.316  1.2356  0.4307  1.2168
  973TIP3    H2 2926   1.562   4.136   3.385  0.0671  0.5236 -0.9776
  974TIP3   OH2 2927   3.825   1.673   2.257 -0.3058 -0.3625 -0.0364
  974TIP3    H1 2928   3.905   1.645   2.302  0.2786  0.4265 -0.5569
  974TIP3    H2 2929   3.852   1.689   2.167 -0.6845  1.4123  0.1239
  975TIP3   OH2 2930   1.832   3.490   3.626  0.5554 -0.1247  0.4385
  975TIP3    H1 2931   1.881   3.568   3.602  1.2175 -0.9403 -1.0009
  975TIP3    H2 2932   1.821   3.496   3.721 -0.9427  2.5689  0.1877
  976TIP3   OH2 2933   0.245   1.880   2.592 -0.4689  0.4463  0.4211
  976TIP3    H1 2934   0.324   1.828   2.607 -0.8766 -0.5274 -0.6908
  976TIP3    H2 2935   0.175   1.816   2.578 -1.1400  1.2796 -0.1966
  977TIP3   OH2 2936   2.633   2.832   2.812 -0.1236 -0.2847  0.1215
  977TIP3    H1 2937   2.555   2.886   2.802  0.0407  0.0820  0.7794
  977TIP3    H2 2938   2.601   2.742   2.806 -0.4320 -0.1249 -0.7190
  978TIP3   OH2 2939   6.009   4.265   2.872 -0.7167  0.0971 -0.3105
  978TIP3    H1 2940   5.936   4.261   2.933  1.4455  1.6707  2.6522
  978TIP3    H2 2941   5.987   4.337   2.812 -1.1976  1.2468  1.1964
  979TIP3   OH2 2942   0.558   1.879   2.919 -0.3993  0.3747 -0.5501
  979TIP3    H1 2943   0.611   1.829   2.980  0.5703  0.5693 -1.2093
  979TIP3    H2 2944   0.561   1.828   2.838 -0.5008  0.8260 -0.8393
  980TIP3   OH2 2945   0.660   2.849   4.400  0.4953  0.3965 -0.1330
  980TIP3    H1 2946   0.608   2.773   4.424  1.1608  0.0073  0.1086
  980TIP3    H2 2947   0.596   2.916   4.377 -0.1758  0.5809  2.0949
  981TIP3   OH2 2948   4.604   5.677   1.390  0.1294  0.0300  0.9005
  981TIP3    H1 2949   4.621   5.614   1.460  0.7176  0.1050  0.8277
  981TIP3    H2 2950   4.544   5.632   1.331  1.4861 -0.9485  0.2003
  982TIP3   OH2 2951   2.718   5.538   4.471 -0.2460 -0.5316 -0.1492
  982TIP3    H1 2952   2.655   5.484   4.519 -0.7379 -0.2906 -0.5162
  982TIP3    H2 2953   2.680   5.546   4.384  0.8012 -1.2508 -0.6986
  983TIP3   OH2 2954   3.151   3.629   3.314 -0.1017 -0.2842  0.3260
  983TIP3    H1 2955   3.212   3.559   3.292  1.2102  1.2241 -1.1155
  983TIP3    H2 2956   3.119   3.606   3.402  1.6481 -1.7313  0.6528
  984TIP3   OH2 2957   3.066   4.016   2.315 -0.4064 -0.0018 -0.3920
  984TIP3    H1 2958   3.143   4.066   2.342 -0.1704 -1.0661  1.0695
  984TIP3    H2 2959   3.083   3.927   2.347 -2.3614 -0.1971  0.2521
  985TIP3   OH2 2960   1.057   2.253   1.518  0.1138  0.7229 -0.0092
  985TIP3    H1 2961   1.027   2.344   1.510  1.0565  1.1918  1.3720
  985TIP3    H2 2962   1.130   2.258   1.579  1.0406 -0.7914 -0.9267
  986TIP3   OH2 2963   4.535   3.886   1.627 -0.2901 -0.2904 -0.1030
  986TIP3    H1 2964   4.469   3.854   1.566  0.3791 -1.6700 -0.1473
  986TIP3    H2 2965   4.594   3.940   1.574  0.2267 -1.3933 -0.6866
  987TIP3   OH2 2966   6.203   4.564   4.497 -0.7358 -0.6309  0.2964
  987TIP3    H1 2967   6.147   4.642   4.507 -0.2529 -0.1825 -0.4166
  987TIP3    H2 2968   6.292   4.598   4.508 -0.5020 -1.0207 -0.3916
  988TIP3   OH2 2969   4.946   0.673   2.127 -0.5721 -0.3808 -0.4620
  988TIP3    H1 2970   4.882   0.745   2.128 -0.1618 -0.0147  0.9871
  988TIP3    H2 2971   4.904   0.602   2.175  0.0650 -0.1497  0.4692
  989TIP3   OH2 2972   1.090   3.504   3.228 -0.1450  0.3497 -0.0754
  989TIP3    H1 2973   1.083   3.596   3.253  0.5939  0.3078  0.3202
  989TIP3    H2 2974   1.170   3.500   3.175  0.4930 -0.2484  0.8805
  990TIP3   OH2 2975   2.831   2.945   2.269 -0.7472  0.0871  0.3782
  990TIP3    H1 2976   2.736   2.948   2.260 -0.8058  1.1333  1.2220
  990TIP3    H2 2977   2.863   3.010   2.206 -0.5055 -1.0620 -0.7305
  991TIP3   OH2 2978   0.578   2.338   2.600  0.0696  0.2600 -0.3220
  991TIP3    H1 2979   0.500   2.329   2.545 -0.0923  0.1242 -0.0727
  991TIP3    H2 2980   0.610   2.248   2.610 -0.3735  0.1790  0.4812
  992TIP3   OH2 2981   2.077   0.902   2.778  0.2226 -0.1429 -0.4189
  992TIP3    H1 2982   2.026   0.981   2.757 -0.0230 -0.4862 -1.1396
  992TIP3    H2 2983   2.147   0.933   2.836 -0.1030  0.5365 -0.3814
  993TIP3   OH2 2984   2.352   4.098   3.793 -0.0060 -0.5864 -0.6451
  993TIP3    H1 2985   2.264   4.061   3.803  0.4956 -1.7573 -0.3595
  993TIP3    H2 2986   2.338   4.186   3.760 -1.3947 -0.0213  1.2885
  994TIP3   OH2 2987   5.703   0.404   5.104  0.1814 -0.0430 -0.3988
  994TIP3    H1 2988   5.725   0.384   5.195  0.7931  1.6497 -0.1315
  994TIP3    H2 2989   5.775   0.368   5.053 -0.1157 -0.9123 -0.2253
  995TIP3   OH2 2990   4.899   0.029   4.147  1.0784  0.5305  0.2312
  995TIP3    H1 2991   4.986   0.005   4.178  2.0891  0.9655 -2.0057
  995TIP3    H2 2992   4.907   0.121   4.120  0.5833  0.0014 -1.9472
  996TIP3   OH2 2993   6.052   5.456   0.391  0.0183 -0.2345 -0.1171
  996TIP3    H1 2994   6.046   5.551   0.405  0.8095 -0.3023  0.7881
  996TIP3    H2 2995   5.967   5.422   0.420  0.4634 -0.0044  1.5683
  997TIP3   OH2 2996   3.400   2.127   2.435  0.4221 -0.0497  0.1570
  997TIP3    H1 2997   3.368   2.156   2.350  0.0002  1.0890  0.6796
  997TIP3    H2 2998   3.325   2.084   2.476  0.0660  1.0003  0.6515
  998TIP3   OH2 2999   0.150   0.076   2.035 -0.4816  0.1921 -1.1536
  998TIP3    H1 3000   0.200   0.094   2.114 -0.9393 -0.3846 -0.7280
  998TIP3    H2 3001   0.094   0.154   2.024 -2.3398 -0.7889  0.5928
  999TIP3   OH2 3002   1.174   5.743   2.921  0.0701  0.0449 -0.4488
  999TIP3    H1 3003   1.246   5.807   2.920  1.0262 -0.9578  0.6827
  999TIP3    H2 3004   1.146   5.737   2.830  1.1551  0.7501 -0.8536
 1000TIP3   OH2 3005   6.113   0.015   1.154  0.6143 -0.4435  0.3688
 1000TIP3    H1 3006   6.169   0.073   1.206 -1.1375  2.5725 -0.7859
 1000TIP3    H2 3007   6.025   0.051   1.166 -0.5634 -2.7522 -0.7239
 1001TIP3   OH2 3008   2.250   3.873   4.102  0.5224  0.6475  0.2832
 1001TIP3    H1 3009   2.223   3.867   4.194 -0.1951 -0.3116  0.0301
 1001TIP3    H2 3010   2.180   3.924   4.061 -0.6355 -1.2686 -0.2434
 1002TIP3   OH2 3011   4.242   3.838   4.793 -0.0138  0.3989 -0.6027
 1002TIP3    H1 3012   4.221   3.917   4.842  1.7183  0.5436 -0.0304
 1002TIP3    H2 3013   4.181   3.839   4.719  0.2922  2.5518 -0.8979
 1003TIP3   OH2 3014   2.848   2.656   2.113  0.0193  0.3266  0.5630
 1003TIP3    H1 3015   2.896   2.715   2.172  2.4859  0.0909 -1.0749
 1003TIP3    H2 3016   2.862   2.693   2.026 -2.3739 -0.1167 -0.0671
 1004TIP3   OH2 3017   0.918   1.287   4.604  0.7750 -0.2539 -0.1586
 1004TIP3    H1 3018   0.868   1.206   4.610 -0.0189  0.2835  0.5397
 1004TIP3    H2 3019   0.950   1.303   4.693  0.0771  0.7250 -0.0663
 1005TIP3   OH2 3020   0.691   4.759   1.781  0.0028  0.1977 -0.1828
 1005TIP3    H1 3021   0.611   4.713   1.806 -0.6995  0.8314 -1.1782
 1005TIP3    H2 3022   0.661   4.847   1.759  0.9208  0.3098 -1.0097
 1006TIP3   OH2 3023   0.848   0.476   3.200 -0.6417  0.3302 -0.2085
 1006TIP3    H1 3024   0.909   0.427   3.255 -0.2638  0.8533 -0.1561
 1006TIP3    H2 3025   0.765   0.430   3.210 -0.1434 -0.7128 -0.7041
 1007TIP3   OH2 3026   0.906   3.374   0.698  0.1392  0.3527 -0.1505
 1007TIP3    H1 3027   0.888   3.281   0.711  0.2881  0.3145 -0.2111
 1007TIP3    H2 3028   1.000   3.382   0.714  0.1186  0.4992 -0.1080
 1008TIP3   OH2 3029   3.128   4.544   1.436 -0.3779 -0.1328  0.1988
 1008TIP3    H1 3030   3.082   4.579   1.359 -0.9194 -1.2440 -0.0026
 1008TIP3    H2 3031   3.193   4.611   1.457 -1.2088  0.8705 -0.3215
 1009TIP3   OH2 3032   4.492   3.818   4.926 -0.4967  0.6254 -0.3859
 1009TIP3    H1 3033   4.423   3.798   4.863 -0.9035 -0.2774  0.3301
 1009TIP3    H2 3034   4.565   3.762   4.900  0.6146  2.7006 -2.1219
 1010TIP3   OH2 3035   3.588   3.589   2.198 -0.2821  0.2541  0.3427
 1010TIP3    H1 3036   3.602   3.682   2.179  2.0315 -0.3943 -1.6360
 1010TIP3    H2 3037   3.616   3.544   2.118 -0.0203 -2.2225  1.7362
 1011TIP3   OH2 3038   5.046   2.393   0.155 -0.1512  0.5864  0.5239
 1011TIP3    H1 3039   5.068   2.349   0.073 -0.7748  0.0568  0.6350
 1011TIP3    H2 3040   5.073   2.484   0.141 -0.1171  0.4703 -0.2149
 1012TIP3   OH2 3041   2.150   2.320   3.948 -0.8082  0.1932 -0.0585
 1012TIP3    H1 3042   2.130   2.350   4.037  0.0721 -0.8831  0.5227
 1012TIP3    H2 3043   2.201   2.240   3.960  0.6063  0.8158 -1.5145
 1013TIP3   OH2 3044   1.972   2.042   2.190 -0.8220  0.2716 -0.3000
 1013TIP3    H1 3045   1.898   1.994   2.151 -1.6691  0.7219  0.6962
 1013TIP3    H2 3046   1.938   2.073   2.274 -0.2974  2.5374 -0.8584
 1014TIP3   OH2 3047   1.582   2.104   0.697 -0.0617 -0.1196  0.1734
 1014TIP3    H1 3048   1.522   2.060   0.637  0.0993  0.3600 -0.3414
 1014TIP3    H2 3049   1.614   2.179   0.648 -0.3045  0.5518  1.0262
 1015TIP3   OH2 3050   3.704   4.371   2.128 -0.0996  0.2397  0.2935
 1015TIP3    H1 3051   3.718   4.345   2.219  0.2823  1.1845  0.5122
 1015TIP3    H2 3052   3.611   4.355   2.113  0.2541 -2.0093  0.1512
 1016TIP3   OH2 3053   2.631   3.039   3.021 -0.0378  0.1900 -0.1333
 1016TIP3    H1 3054   2.666   3.105   2.962 -0.2747  0.2182 -0.2416
 1016TIP3    H2 3055   2.675   2.958   2.995 -0.9574 -0.0197 -1.0742
 1017TIP3   OH2 3056   1.918   3.776   3.657 -0.7333 -0.0209  0.0490
 1017TIP3    H1 3057   1.899   3.831   3.582  0.2516  0.1578 -0.0761
 1017TIP3    H2 3058   1.839   3.782   3.712 -0.4334  1.9531  0.3109
 1018TIP3   OH2 3059   1.607   2.942   2.812  0.1509  0.2210 -0.0299
 1018TIP3    H1 3060   1.532   2.998   2.791  0.2332  0.2122 -0.3437
 1018TIP3    H2 3061   1.678   3.003   2.831 -0.2950  0.2679  1.6661
 1019TIP3   OH2 3062   1.656   2.600   4.458  0.0182  0.1280  0.2095
 1019TIP3    H1 3063   1.679   2.563   4.373 -1.0683  1.8782 -0.8995
 1019TIP3    H2 3064   1.722   2.668   4.473  0.8795 -0.9044  1.3471
 1020TIP3   OH2 3065   0.682   4.423   2.267  0.3860  0.3235 -0.2566
 1020TIP3    H1 3066   0.612   4.486   2.287 -0.9388 -0.9556 -0.6626
 1020TIP3    H2 3067   0.704   4.441   2.176  1.4891  1.5319  0.2151
 1021TIP3   OH2 3068   6.303   2.169   1.008 -0.3430  0.3733 -0.1191
 1021TIP3    H1 3069   6.211   2.186   1.025 -0.9338 -0.4043 -2.2592
 1021TIP3    H2 3070   6.338   2.143   1.093 -2.4285 -0.6958  0.4829
 1022TIP3   OH2 3071   3.377   2.008   4.149  0.3042  0.1172  0.0160
 1022TIP3    H1 3072   3.293   2.048   4.125 -0.1520 -1.1250 -0.5614
 1022TIP3    H2 3073   3.362   1.972   4.237 -0.2291 -1.2758 -0.6170
 1023TIP3   OH2 3074   0.369   0.587   2.883  0.2355  0.0176  0.3819
 1023TIP3    H1 3075   0.456   0.549   2.884  0.4740  0.3228 -1.9739
 1023TIP3    H2 3076   0.377   0.664   2.826 -1.5930 -0.0371 -0.0170
 1024TIP3   OH2 3077   2.929   5.975   0.373  0.1584 -0.4137 -0.6154
 1024TIP3    H1 3078   2.900   5.887   0.349  0.8421 -0.1007 -2.7316
 1024TIP3    H2 3079   3.012   5.961   0.419 -1.6478 -1.0857  2.7631
 1025TIP3   OH2 3080   5.413   2.942   4.949  0.6076 -0.1777 -0.6713
 1025TIP3    H1 3081   5.388   3.034   4.934  0.7758  0.0706  0.4584
 1025TIP3    H2 3082   5.417   2.904   4.862 -1.6674  0.3037 -1.0477
 1026TIP3   OH2 3083   2.979   5.681   4.045  0.2142  0.2712 -0.0584
 1026TIP3    H1 3084   2.954   5.765   4.008 -0.0393 -0.6840 -2.2319
 1026TIP3    H2 3085   3.045   5.702   4.111 -1.6834  2.3414  1.3252
 1027TIP3   OH2 3086   1.491   3.672   4.962 -0.3435  0.2194  0.9298
 1027TIP3    H1 3087   1.574   3.628   4.943 -0.2012  1.1828 -0.9948
 1027TIP3    H2 3088   1.511   3.765   4.953 -1.9293  0.4366 -1.3903
 1028TIP3   OH2 3089   1.470   0.351   5.173 -0.2575 -0.0328 -0.1383
 1028TIP3    H1 3090   1.435   0.297   5.103 -0.5151 -1.4333  1.0334
 1028TIP3    H2 3091   1.425   0.321   5.252  0.1722  1.3652  0.6726
 1029TIP3   OH2 3092   5.767   0.039   4.708 -0.3129 -0.1747 -0.1797
 1029TIP3    H1 3093   5.860   0.045   4.730 -0.2162 -0.2862 -0.5481
 1029TIP3    H2 3094   5.737  -0.041   4.751  0.1918 -1.1412 -1.5178
 1030TIP3   OH2 3095   2.244   5.688   0.325  0.1584  0.4757 -0.0849
 1030TIP3    H1 3096   2.244   5.687   0.421  1.8997  1.4629 -0.0330
 1030TIP3    H2 3097   2.232   5.780   0.302 -1.4802  0.0967 -0.8724
 1031TIP3   OH2 3098   3.131   2.803   0.374 -0.1878 -0.0549  0.2026
 1031TIP3    H1 3099   3.054   2.859   0.379  0.0418  0.2555  0.2910
 1031TIP3    H2 3100   3.158   2.791   0.466 -0.4524 -0.6171  0.2145
 1032TIP3   OH2 3101   1.391   0.176   3.999 -0.1918  0.1453  0.2535
 1032TIP3    H1 3102   1.481   0.150   4.018  0.0936 -0.2885 -1.5278
 1032TIP3    H2 3103   1.398   0.265   3.965 -0.1861 -0.4470 -1.4389
 1033TIP3   OH2 3104   2.876   3.622   2.825  0.0128  0.0181 -0.1812
 1033TIP3    H1 3105   2.943   3.559   2.853 -1.2973 -1.0428  0.7411
 1033TIP3    H2 3106   2.923   3.686   2.773  1.8036 -0.4880  0.7302
 1034TIP3   OH2 3107   5.733   2.943   2.348 -0.3752 -0.5795 -0.2070
 1034TIP3    H1 3108   5.669   3.007   2.316  0.3488 -0.7378 -2.1077
 1034TIP3    H2 3109   5.731   2.953   2.443 -2.1196  0.4647 -0.3019
 1035TIP3   OH2 3110   5.107   0.877   4.585 -0.3812 -0.2410 -0.1307
 1035TIP3    H1 3111   5.157   0.959   4.586  0.1100 -0.5392  0.0397
 1035TIP3    H2 3112   5.112   0.847   4.494  0.3695 -0.6380  0.0316
 1036TIP3   OH2 3113   2.527   2.727   5.020 -0.0268  0.4273  0.0709
 1036TIP3    H1 3114   2.463   2.672   5.066 -0.1772  0.1452 -0.4654
 1036TIP3    H2 3115   2.487   2.743   4.934  1.5133 -1.4680 -1.0627
 1037TIP3   OH2 3116   5.245   3.601   4.688  0.6685 -0.1516  0.3479
 1037TIP3    H1 3117   5.257   3.639   4.601  0.6271 -1.1810 -0.1248
 1037TIP3    H2 3118   5.223   3.510   4.671  0.3269 -0.2842  1.4383
 1038TIP3   OH2 3119   2.226   0.692   1.676  0.0282 -0.2592 -0.2399
 1038TIP3    H1 3120   2.169   0.690   1.599  0.5095 -0.2171 -0.6008
 1038TIP3    H2 3121   2.178   0.643   1.742 -0.5478  0.0096 -0.4579
 1039TIP3   OH2 3122   4.709   0.634   2.278  0.4023 -0.2900  0.0275
 1039TIP3    H1 3123   4.716   0.615   2.371 -0.1917  1.5489  0.4828
 1039TIP3    H2 3124   4.619   0.610   2.255 -0.0803  1.0756  0.4080
 1040TIP3   OH2 3125   0.431   1.371   4.592 -0.2245 -0.0425 -0.8066
 1040TIP3    H1 3126   0.510   1.416   4.560 -0.4796  0.6248 -0.5063
 1040TIP3    H2 3127   0.389   1.434   4.651 -0.4878 -0.7427 -0.2214
 1041TIP3   OH2 3128   1.086   3.469   4.451 -0.3297 -0.8534 -0.1984
 1041TIP3    H1 3129   1.136   3.405   4.501 -0.4990  0.0199  1.1467
 1041TIP3    H2 3130   1.006   3.423   4.426 -1.1226 -0.8278  1.9974
 1042TIP3   OH2 3131   6.348   0.303   2.062  0.0277 -0.5170  0.8280
 1042TIP3    H1 3132   6.400   0.378   2.091  1.0051 -2.0375  3.3226
 1042TIP3    H2 3133   6.260   0.337   2.053  0.3379  0.8440  2.4602
 1043TIP3   OH2 3134   4.366   3.987   3.304  0.0957 -0.1051  0.0348
 1043TIP3    H1 3135   4.349   4.037   3.224 -1.6102  0.4986  0.7120
 1043TIP3    H2 3136   4.309   3.910   3.297  1.3947 -1.0889 -0.1923
 1044TIP3   OH2 3137   0.402   0.064   3.003 -0.5649 -0.3707 -0.4144
 1044TIP3    H1 3138   0.342   0.136   2.982  0.0670  0.5402  0.7604
 1044TIP3    H2 3139   0.357   0.016   3.073 -0.9533 -1.1021 -1.1477
 1045TIP3   OH2 3140   4.841   3.720   0.699 -0.1075 -0.2756 -0.0682
 1045TIP3    H1 3141   4.753   3.749   0.726 -0.5922 -0.1473 -1.7091
 1045TIP3    H2 3142   4.880   3.687   0.780 -0.8608  1.6029  1.1552
 1046TIP3   OH2 3143   2.516   3.374   3.899  0.2217  0.1155  0.0386
 1046TIP3    H1 3144   2.453   3.384   3.971  0.9153 -1.2046  0.8788
 1046TIP3    H2 3145   2.577   3.307   3.930  0.4786 -0.5845 -1.8460
 1047TIP3   OH2 3146   0.092   5.227   4.231 -0.4436  0.4676  0.0073
 1047TIP3    H1 3147   0.020   5.198   4.175 -0.5537  0.9906 -0.1252
 1047TIP3    H2 3148   0.167   5.174   4.202 -0.5639  0.5388 -0.4483
 1048TIP3   OH2 3149   2.734   5.105   3.143 -0.2150 -0.1968  0.5525
 1048TIP3    H1 3150   2.650   5.146   3.126 -0.2420 -0.2861  0.4695
 1048TIP3    H2 3151   2.763   5.142   3.227  0.1617  0.6298  0.0722
 1049TIP3   OH2 3152   0.833   2.419   4.504  0.3274  0.2759 -0.7126
 1049TIP3    H1 3153   0.840   2.509   4.537  1.3252  0.7849 -2.2487
 1049TIP3    H2 3154   0.739   2.402   4.504  0.1731  1.0031  0.3869
 1050TIP3   OH2 3155   5.786   4.387   0.271 -0.4651 -0.4720 -0.4749
 1050TIP3    H1 3156   5.724   4.369   0.341  0.9411 -1.0230  0.6807
 1050TIP3    H2 3157   5.871   4.361   0.306  0.3507 -0.3961 -2.2462
 1051TIP3   OH2 3158   5.580   0.156   4.530  0.0361  0.0163  0.1849
 1051TIP3    H1 3159   5.570   0.246   4.559 -0.4281  0.4502 -1.2282
 1051TIP3    H2 3160   5.635   0.115   4.596  0.4151  1.3874  0.7442
 1052TIP3   OH2 3161   2.076   0.589   0.911 -0.4306  0.4031 -0.2415
 1052TIP3    H1 3162   2.050   0.680   0.921 -2.2127  0.1144 -1.7981
 1052TIP3    H2 3163   2.140   0.590   0.840 -1.5360  0.3091 -1.2687
 1053TIP3   OH2 3164   4.356   2.802   4.433  0.3426 -0.1649 -0.1325
 1053TIP3    H1 3165   4.409   2.881   4.431 -0.6860  0.5484  0.0654
 1053TIP3    H2 3166   4.420   2.730   4.429  1.2601  0.6629 -0.7616
 1054TIP3   OH2 3167   1.874   3.009   4.096  0.7323 -0.5605 -0.5816
 1054TIP3    H1 3168   1.896   3.096   4.131  1.0666 -0.8893  0.0558
 1054TIP3    H2 3169   1.948   2.986   4.040 -0.3533  0.4878 -2.5617
 1055TIP3   OH2 3170   2.642   1.826   0.322 -0.7322 -0.2468 -0.4254
 1055TIP3    H1 3171   2.674   1.815   0.412  0.2838 -1.7272 -0.9395
 1055TIP3    H2 3172   2.680   1.909   0.294 -0.5399 -0.0770  0.2934
 1056TIP3   OH2 3173   0.518   4.748   2.465 -0.0279 -0.0071  0.2291
 1056TIP3    H1 3174   0.461   4.774   2.537 -1.9575 -1.6569 -0.5983
 1056TIP3    H2 3175   0.510   4.652   2.461  0.9099 -0.0535 -1.4530
 1057TIP3   OH2 3176   4.361   4.320   1.360  0.4897  0.3823 -0.0886
 1057TIP3    H1 3177   4.359   4.228   1.385 -1.1825  0.5787  0.6686
 1057TIP3    H2 3178   4.287   4.359   1.408  0.0970  1.7541 -1.7274
 1058TIP3   OH2 3179   4.796   0.211   1.791 -0.0255 -0.4462  0.2391
 1058TIP3    H1 3180   4.779   0.172   1.876  1.3958 -2.6380 -0.4035
 1058TIP3    H2 3181   4.731   0.172   1.733  0.4701 -0.7600 -0.1164
 1059TIP3   OH2 3182   0.133   2.295   1.754 -0.2170 -0.0883  0.0971
 1059TIP3    H1 3183   0.221   2.332   1.759 -0.2907  0.2399 -0.8002
 1059TIP3    H2 3184   0.141   2.209   1.795  0.7093 -0.3780 -0.6510
 1060TIP3   OH2 3185   6.333   4.605   1.014 -0.0374 -0.1188  0.5089
 1060TIP3    H1 3186   6.285   4.555   1.079 -0.2806 -0.9392 -0.2909
 1060TIP3    H2 3187   6.367   4.540   0.953  1.8815  0.4443  0.8936
 1061TIP3   OH2 3188   5.257   1.366   4.541  0.1323  0.0825 -0.2101
 1061TIP3    H1 3189   5.326   1.412   4.494 -0.2734 -0.6996 -1.6503
 1061TIP3    H2 3190   5.278   1.378   4.633  0.4851  2.4213 -0.5349
 1062TIP3   OH2 3191   5.730   0.965   1.373 -0.1022  0.0471  0.3402
 1062TIP3    H1 3192   5.765   0.930   1.291  0.7590  0.8261  0.3612
 1062TIP3    H2 3193   5.637   0.941   1.371 -0.1055  0.0845 -0.8869
 1063TIP3   OH2 3194   0.179   3.054   3.820  0.1365  0.3272 -0.7428
 1063TIP3    H1 3195   0.133   2.988   3.767  0.7817 -0.2750 -0.5682
 1063TIP3    H2 3196   0.229   3.104   3.756 -0.2834  0.6008 -0.8653
 1064TIP3   OH2 3197   5.594   4.320   4.945  0.0976  0.6504  0.7074
 1064TIP3    H1 3198   5.561   4.340   4.858 -0.1811  0.8381  0.8530
 1064TIP3    H2 3199   5.611   4.406   4.984 -0.2910  0.5824  1.0308
 1065TIP3   OH2 3200   0.521   5.178   1.219 -0.0860  0.3128 -0.4442
 1065TIP3    H1 3201   0.467   5.209   1.147 -0.6914  0.9211  0.2518
 1065TIP3    H2 3202   0.611   5.188   1.188 -0.3408 -0.3932 -1.4843
 1066TIP3   OH2 3203   3.721   1.290   4.756 -0.5839 -0.1896  0.0916
 1066TIP3    H1 3204   3.763   1.209   4.729  1.0790  1.0598 -1.2596
 1066TIP3    H2 3205   3.785   1.333   4.814 -0.8853  0.7541 -0.2537
 1067TIP3   OH2 3206   1.975   1.121   2.367 -0.0129  0.0556 -0.2879
 1067TIP3    H1 3207   1.967   1.155   2.278 -0.1821 -0.6208 -0.5369
 1067TIP3    H2 3208   1.911   1.050   2.371 -0.7607  0.7376  0.6962
 1068TIP3   OH2 3209   4.514   2.328   2.782 -0.3734  0.4003 -0.1630
 1068TIP3    H1 3210   4.587   2.331   2.720 -0.0207 -0.8826  0.1806
 1068TIP3    H2 3211   4.554   2.311   2.867 -0.9520  1.1295  0.2691
 1069TIP3   OH2 3212   2.096   5.159   3.885  0.2250  0.4002 -0.3430
 1069TIP3    H1 3213   2.094   5.069   3.917  5.5093  0.2900  0.4155
 1069TIP3    H2 3214   2.087   5.150   3.790 -0.1779 -0.8239 -0.2081
 1070TIP3   OH2 3215   1.606   4.110   4.192 -0.4845  0.0820  0.7552
 1070TIP3    H1 3216   1.701   4.103   4.179 -0.6168  0.2121 -0.3456
 1070TIP3    H2 3217   1.584   4.034   4.246  0.0261 -0.7797 -0.2317
 1071TIP3   OH2 3218   2.866   2.119   3.492 -0.2862  0.7020  0.2926
 1071TIP3    H1 3219   2.799   2.154   3.551  1.3961  0.4860  2.4658
 1071TIP3    H2 3220   2.836   2.031   3.471 -0.2705  0.2527  2.0204
 1072TIP3   OH2 3221   1.821   2.009   0.319 -0.1234 -0.7010 -0.6863
 1072TIP3    H1 3222   1.754   2.076   0.307 -1.1017 -1.5562 -0.2380
 1072TIP3    H2 3223   1.772   1.932   0.347  1.1157 -1.2018  0.1893
 1073TIP3   OH2 3224   2.440   2.379   0.904  0.0760  0.4679  0.2112
 1073TIP3    H1 3225   2.434   2.475   0.905  1.2323  0.5696  1.3403
 1073TIP3    H2 3226   2.445   2.356   0.812  1.3500  1.6470 -0.0547
 1074TIP3   OH2 3227   4.043   4.066   2.489  0.4064 -0.1340 -0.3786
 1074TIP3    H1 3228   4.131   4.034   2.470  1.5404  2.2371  0.4739
 1074TIP3    H2 3229   4.037   4.066   2.584  1.0721  3.3791 -0.2218
 1075TIP3   OH2 3230   4.696   1.107   2.769  0.0444  1.4000  0.4721
 1075TIP3    H1 3231   4.606   1.113   2.801  0.0756 -0.7788  1.1190
 1075TIP3    H2 3232   4.724   1.019   2.792  0.9608  0.5016 -3.3310
 1076TIP3   OH2 3233   5.707   1.948   4.298  1.1332  0.5495  0.5538
 1076TIP3    H1 3234   5.648   1.946   4.373  1.0471  1.3845  0.5086
 1076TIP3    H2 3235   5.795   1.941   4.336  1.0226 -0.8051  0.6150
 1077TIP3   OH2 3236   5.458   3.983   2.910  0.0255  0.3717  0.0751
 1077TIP3    H1 3237   5.459   3.895   2.948 -1.7186 -0.2411 -1.1950
 1077TIP3    H2 3238   5.489   4.040   2.980 -0.4320 -1.0481  1.4828
 1078TIP3   OH2 3239   5.078   3.528   2.158 -0.3507 -0.4719  0.2785
 1078TIP3    H1 3240   4.990   3.566   2.162  0.5809  2.2132 -1.4947
 1078TIP3    H2 3241   5.104   3.537   2.067  1.7871 -1.1118  0.7591
 1079TIP3   OH2 3242   2.728   2.307   0.438 -0.5429  0.1381  0.5361
 1079TIP3    H1 3243   2.799   2.360   0.403 -0.0583 -0.9741 -0.2191
 1079TIP3    H2 3244   2.744   2.219   0.404 -3.1359  0.1366 -1.0111
 1080TIP3   OH2 3245   4.587   4.758   0.269 -0.2967  0.7530 -0.4324
 1080TIP3    H1 3246   4.541   4.673   0.270  1.7571 -0.4194 -0.5394
 1080TIP3    H2 3247   4.572   4.794   0.356 -1.4618  0.4527 -0.4863
 1081TIP3   OH2 3248   4.732   4.554   1.346 -0.2853  0.0968  0.6137
 1081TIP3    H1 3249   4.744   4.587   1.435  1.7905 -1.2901  0.9202
 1081TIP3    H2 3250   4.773   4.620   1.290 -0.3450  0.2868  0.7934
 1082TIP3   OH2 3251   1.828   3.425   4.599 -0.6355 -0.0723  0.1467
 1082TIP3    H1 3252   1.803   3.517   4.597 -1.1994 -0.1654  1.5614
 1082TIP3    H2 3253   1.915   3.424   4.637 -0.0199 -0.0465 -1.1878
 1083TIP3   OH2 3254   1.740   5.262   2.665 -0.5671  0.3345  0.0310
 1083TIP3    H1 3255   1.750   5.173   2.699 -2.2980  0.2417  0.3914
 1083TIP3    H2 3256   1.822   5.278   2.618 -0.5216 -1.7507 -0.7360
 1084TIP3   OH2 3257   4.568   2.863   2.974 -0.5359 -0.0262 -0.1198
 1084TIP3    H1 3258   4.515   2.792   3.010  0.9961 -0.8517  0.5634
 1084TIP3    H2 3259   4.646   2.820   2.939 -0.8046  1.0370 -2.1698
 1085TIP3   OH2 3260   0.058   1.853   0.079 -0.1038 -0.6298  0.3669
 1085TIP3    H1 3261   0.075   1.909   0.155  1.1345 -0.8717  0.2947
 1085TIP3    H2 3262   0.080   1.765   0.110  1.3736 -0.6101 -0.5355
 1086TIP3   OH2 3263   4.050   2.390   4.561  0.7426 -0.0604 -0.2564
 1086TIP3    H1 3264   4.080   2.308   4.522  0.4025 -0.4338  0.2548
 1086TIP3    H2 3265   3.960   2.373   4.587  1.2458 -0.1450  1.5548
 1087TIP3   OH2 3266   3.622   1.544   2.842  0.5836  0.1912  0.0067
 1087TIP3    H1 3267   3.653   1.628   2.809 -0.2323 -0.4721 -2.7355
 1087TIP3    H2 3268   3.654   1.480   2.779 -1.5664 -1.1332  0.1457
 1088TIP3   OH2 3269   0.949   3.182   4.787 -0.4133  0.1993  0.0608
 1088TIP3    H1 3270   0.978   3.120   4.854 -1.7665 -1.7148 -1.0280
 1088TIP3    H2 3271   0.947   3.266   4.832  1.4149 -0.5095  1.6297
 1089TIP3   OH2 3272   0.563   2.318   3.777 -0.4114  0.3152  0.9763
 1089TIP3    H1 3273   0.527   2.230   3.771 -2.3376  1.0168  1.4480
 1089TIP3    H2 3274   0.578   2.343   3.686  0.1500 -0.4795  0.8389
 1090TIP3   OH2 3275   3.127   3.946   5.185  0.6708  0.1277  0.1686
 1090TIP3    H1 3276   3.216   3.980   5.184  0.3158  1.1962 -1.7033
 1090TIP3    H2 3277   3.108   3.926   5.093 -1.2697  0.7307  0.3808
 1091TIP3   OH2 3278   1.346   1.311   1.358  0.2021  0.4566  0.1507
 1091TIP3    H1 3279   1.329   1.303   1.452 -1.1067  0.8329 -0.0346
 1091TIP3    H2 3280   1.432   1.271   1.346  0.9739  1.5258  1.6965
 1092TIP3   OH2 3281   3.287   3.846   2.906 -0.0241  0.0379  0.1325
 1092TIP3    H1 3282   3.244   3.818   2.987  0.9182 -0.6951  0.4079
 1092TIP3    H2 3283   3.249   3.790   2.838  1.5441 -1.7421  0.6161
 1093TIP3   OH2 3284   5.113   1.421   0.860 -0.7216  0.8780 -0.0858
 1093TIP3    H1 3285   5.051   1.468   0.805 -2.3161 -3.3249 -2.2785
 1093TIP3    H2 3286   5.192   1.414   0.806 -1.8067 -2.0300 -1.4621
 1094TIP3   OH2 3287   1.809   0.167   4.622 -0.3722  0.4463  0.4342
 1094TIP3    H1 3288   1.770   0.088   4.585 -1.4790  0.9096  0.5483
 1094TIP3    H2 3289   1.881   0.135   4.676  0.5175 -0.3230 -1.1337
 1095TIP3   OH2 3290   5.985   5.940   3.431 -0.0928 -0.4168 -0.3300
 1095TIP3    H1 3291   5.941   5.856   3.448 -1.7346  0.5113  0.2301
 1095TIP3    H2 3292   5.997   5.941   3.336 -0.7666 -0.9726 -0.4385
 1096TIP3   OH2 3293   0.892   5.057   0.046 -0.4500  0.1441  0.2070
 1096TIP3    H1 3294   0.857   5.011  -0.031  0.3588 -1.6070  0.8272
 1096TIP3    H2 3295   0.876   5.149   0.028  0.0935 -0.1720 -2.2594
 1097TIP3   OH2 3296   0.420   4.308   0.939 -0.1021  0.3851  0.3039
 1097TIP3    H1 3297   0.468   4.391   0.937  0.6394 -0.0394  0.1905
 1097TIP3    H2 3298   0.472   4.248   0.886 -0.4773 -0.2400  0.6226
 1098TIP3   OH2 3299   3.325   1.418   0.161  0.0040 -0.0638 -0.4054
 1098TIP3    H1 3300   3.373   1.479   0.216  0.1332 -0.3561 -0.1892
 1098TIP3    H2 3301   3.286   1.472   0.093  0.9918  0.1211 -0.8319
 1099TIP3   OH2 3302   0.290   4.776   4.713  0.0678 -0.0557 -0.4982
 1099TIP3    H1 3303   0.327   4.864   4.723  1.7766 -0.7137 -0.7538
 1099TIP3    H2 3304   0.365   4.717   4.720 -0.9332 -1.4658 -1.1125
 1100TIP3   OH2 3305   1.859   4.984   0.019  0.3460  0.9953 -0.2596
 1100TIP3    H1 3306   1.894   4.907  -0.026 -0.5162  0.4286  0.0110
 1100TIP3    H2 3307   1.882   4.970   0.111  0.0728  0.9864 -0.1911
 1101TIP3   OH2 3308   5.036   1.066   3.385  0.3360  0.5122 -0.4496
 1101TIP3    H1 3309   4.975   1.103   3.448 -1.1775 -0.6176 -1.1913
 1101TIP3    H2 3310   5.056   0.978   3.419 -0.4150 -0.0692 -1.4350
 1102TIP3   OH2 3311   0.832   2.712   1.198 -0.0236  0.5764 -0.0550
 1102TIP3    H1 3312   0.814   2.681   1.286  1.0194  0.0712 -0.0089
 1102TIP3    H2 3313   0.770   2.783   1.185 -1.1604 -0.2631  0.5499
 1103TIP3   OH2 3314   4.516   1.144   1.228  0.0438 -0.2349 -0.4039
 1103TIP3    H1 3315   4.467   1.074   1.185 -0.9429  1.4760 -2.2345
 1103TIP3    H2 3316   4.479   1.149   1.316 -1.2231 -0.7292 -0.8897
 1104TIP3   OH2 3317   3.750   3.724   3.657 -0.3683  0.5283  0.3885
 1104TIP3    H1 3318   3.833   3.772   3.662 -0.7222  1.5246 -1.9557
 1104TIP3    H2 3319   3.772   3.644   3.608 -0.2419 -0.7110  2.3597
 1105TIP3   OH2 3320   3.913   3.712   0.827 -0.3847  0.4413  0.1294
 1105TIP3    H1 3321   3.974   3.751   0.765 -0.5490 -0.5535 -0.6948
 1105TIP3    H2 3322   3.827   3.728   0.790 -0.4120 -1.5294 -0.7733
 1106TIP3   OH2 3323   4.298   3.891   4.113  0.0213 -0.4123 -0.6132
 1106TIP3    H1 3324   4.312   3.821   4.050 -0.1711 -0.2637 -0.8253
 1106TIP3    H2 3325   4.328   3.855   4.197  1.2619 -0.2477 -0.9677
 1107TIP3   OH2 3326   2.363   2.957   1.359  0.4569  0.5848  0.0689
 1107TIP3    H1 3327   2.441   2.938   1.411  0.2913 -1.2774 -0.2838
 1107TIP3    H2 3328   2.375   2.908   1.278 -0.9846  0.3978 -0.0700
 1108TIP3   OH2 3329   5.421   3.580   4.001 -0.7108  0.1530  0.1982
 1108TIP3    H1 3330   5.488   3.615   4.060  1.2896 -1.0024 -1.2308
 1108TIP3    H2 3331   5.442   3.620   3.916 -2.3470  0.3395 -0.1543
 1109TIP3   OH2 3332   4.801   4.934   3.489  0.2736 -0.1549  0.4168
 1109TIP3    H1 3333   4.872   4.951   3.427  0.8564 -1.8085  0.5844
 1109TIP3    H2 3334   4.786   4.840   3.483 -0.7455 -0.0967  1.6441
 1110TIP3   OH2 3335   0.225   3.463   2.139  0.1751 -0.3391 -0.0895
 1110TIP3    H1 3336   0.232   3.465   2.235  0.6710  1.5957 -0.1268
 1110TIP3    H2 3337   0.174   3.384   2.121 -2.4676  0.7236  1.9391
 1111TIP3   OH2 3338   1.669   1.361   2.711  0.2002  0.4075  0.2944
 1111TIP3    H1 3339   1.596   1.366   2.649 -0.1256  1.0024  0.7093
 1111TIP3    H2 3340   1.724   1.435   2.688  3.9816 -3.1362 -3.9631
 1112TIP3   OH2 3341   5.476   2.215   4.328 -1.1131  0.1680  0.6563
 1112TIP3    H1 3342   5.425   2.140   4.301  0.4800 -0.7259 -0.0307
 1112TIP3    H2 3343   5.558   2.178   4.361 -0.1059  1.6010 -0.1144
 1113TIP3   OH2 3344   5.576   3.353   0.934  0.3677 -0.4700  0.3897
 1113TIP3    H1 3345   5.517   3.397   0.873 -0.8234 -1.9489  0.4093
 1113TIP3    H2 3346   5.659   3.346   0.887 -0.5635 -1.7076 -1.1771
 1114TIP3   OH2 3347   4.901   2.956   0.759 -0.0682 -0.2476  0.1275
 1114TIP3    H1 3348   4.826   2.990   0.712  0.7118  0.1264 -0.8903
 1114TIP3    H2 3349   4.926   3.026   0.819  0.2055  0.1186 -0.4067
 1115TIP3   OH2 3350   2.733   2.747   4.183  0.4459  1.0147  0.3362
 1115TIP3    H1 3351   2.763   2.776   4.097  2.1598 -0.2623  0.4563
 1115TIP3    H2 3352   2.803   2.772   4.243  0.5557 -0.5380  0.9038
 1116TIP3   OH2 3353   2.480   2.102   4.707  0.0873  1.1800 -0.1744
 1116TIP3    H1 3354   2.393   2.139   4.689  1.1100  2.8507 -2.0202
 1116TIP3    H2 3355   2.467   2.007   4.702 -1.8282  1.3509  0.7097
 1117TIP3   OH2 3356   2.168   4.869   2.258 -0.2467 -0.2516 -0.3873
 1117TIP3    H1 3357   2.247   4.843   2.306 -1.7220 -0.2433  2.2588
 1117TIP3    H2 3358   2.157   4.801   2.191  0.4606 -1.9040  1.0918
 1118TIP3   OH2 3359   2.836   1.110   0.204  0.2610 -0.1119  0.1781
 1118TIP3    H1 3360   2.923   1.143   0.226 -0.7814  1.8677  1.6807
 1118TIP3    H2 3361   2.825   1.129   0.111  1.8066 -1.4388 -0.3243
 1119TIP3   OH2 3362   1.506   0.640   4.954  0.3292 -0.4372 -0.2422
 1119TIP3    H1 3363   1.579   0.624   4.894  0.5528  2.3242 -0.8520
 1119TIP3    H2 3364   1.537   0.610   5.039  1.5316 -0.8608 -0.8112
 1120TIP3   OH2 3365   1.612   5.374   5.044 -0.3403 -0.3970 -0.3652
 1120TIP3    H1 3366   1.675   5.416   5.102 -0.3879  0.3852 -0.8588
 1120TIP3    H2 3367   1.527   5.400   5.079 -0.3699  0.5948 -1.1217
 1121TIP3   OH2 3368   0.675   2.189   4.626  0.1390 -0.4488  0.0798
 1121TIP3    H1 3369   0.653   2.142   4.706  0.3288 -1.6785 -0.5510
 1121TIP3    H2 3370   0.759   2.232   4.645 -0.4026  0.2595  0.9094
 1122TIP3   OH2 3371   2.473   2.665   0.914  0.0610 -0.3938 -0.5047
 1122TIP3    H1 3372   2.564   2.653   0.939 -0.3254 -2.3586  0.1107
 1122TIP3    H2 3373   2.469   2.637   0.823  0.5228  2.1712 -1.3920
 1123TIP3   OH2 3374   1.667   0.551   1.877  0.0241  0.1170  0.8162
 1123TIP3    H1 3375   1.685   0.461   1.903  1.7637 -0.0017 -0.6400
 1123TIP3    H2 3376   1.691   0.555   1.785 -0.7755  1.8918  0.6365
 1124TIP3   OH2 3377   2.241   1.541   2.504 -0.1823 -0.8547  0.1391
 1124TIP3    H1 3378   2.152   1.510   2.488 -0.1050 -1.1384  0.2681
 1124TIP3    H2 3379   2.283   1.472   2.555 -0.1740 -0.3076  0.8838
 1125TIP3   OH2 3380   2.059   1.879   4.677  0.5537  0.2347  0.4746
 1125TIP3    H1 3381   2.088   1.810   4.618 -2.2371 -2.4711  1.9659
 1125TIP3    H2 3382   1.976   1.909   4.640  1.0144  1.8363  0.6472
 1126TIP3   OH2 3383   1.152   4.397   4.900 -0.0843  0.6147 -0.2845
 1126TIP3    H1 3384   1.149   4.464   4.831  1.3887 -0.0946 -1.0808
 1126TIP3    H2 3385   1.212   4.331   4.867 -0.3301 -0.3751  1.1529
 1127TIP3   OH2 3386  -0.031   1.169   3.754  0.0753  0.2707  0.1983
 1127TIP3    H1 3387   0.025   1.140   3.826  1.0689 -1.8008 -1.3028
 1127TIP3    H2 3388   0.012   1.248   3.721  0.5792  0.2546  0.7898
 1128TIP3   OH2 3389   4.759   2.106   4.913  0.0573  0.3352  0.3129
 1128TIP3    H1 3390   4.702   2.032   4.935 -0.7860  1.2409  1.2240
 1128TIP3    H2 3391   4.760   2.160   4.992  1.5170  0.7776  0.0214
 1129TIP3   OH2 3392   3.178   4.422   3.334 -0.1913 -0.9508  0.1162
 1129TIP3    H1 3393   3.257   4.370   3.339  0.4951  0.0420 -0.0712
 1129TIP3    H2 3394   3.203   4.509   3.367 -0.8174 -0.2165 -1.2280
 1130TIP3   OH2 3395   3.561   3.763   4.521  0.1764 -0.4848 -0.1782
 1130TIP3    H1 3396   3.596   3.683   4.558 -1.1705 -1.3516 -0.7056
 1130TIP3    H2 3397   3.638   3.814   4.497  1.0553 -1.2942  0.8048
 1131TIP3   OH2 3398   2.741   5.296   2.582  0.0820 -0.0032  0.7422
 1131TIP3    H1 3399   2.826   5.331   2.553 -0.9768  1.3861 -0.9056
 1131TIP3    H2 3400   2.712   5.240   2.509 -0.7209  0.0866  0.9838
 1132TIP3   OH2 3401   3.874   5.706   3.491  0.1649 -0.3447  0.1416
 1132TIP3    H1 3402   3.852   5.616   3.466  1.8986 -0.9981  0.7973
 1132TIP3    H2 3403   3.857   5.708   3.586  0.7398 -0.1971  0.2461
 1133TIP3   OH2 3404   3.254   2.355   2.702 -0.1691 -0.0846  0.1821
 1133TIP3    H1 3405   3.339   2.327   2.670 -0.1705  0.5100 -0.3792
 1133TIP3    H2 3406   3.271   2.391   2.789  0.1591  0.0410  0.0674
 1134TIP3   OH2 3407   0.435   4.054   4.112 -0.2261  0.6429  0.0697
 1134TIP3    H1 3408   0.362   4.116   4.114 -0.5222  0.3809 -1.4022
 1134TIP3    H2 3409   0.459   4.042   4.204 -0.4968  2.5348  0.4219
 1135TIP3   OH2 3410   4.563   1.588   3.709 -0.0264  0.8803  0.3295
 1135TIP3    H1 3411   4.617   1.577   3.631 -1.0974 -0.9619 -0.2051
 1135TIP3    H2 3412   4.482   1.627   3.676 -0.9296 -0.9397  0.2890
 1136TIP3   OH2 3413   3.829   0.474   4.954  0.2786 -0.1073 -0.0337
 1136TIP3    H1 3414   3.826   0.516   4.868 -0.0921  0.9421  0.4763
 1136TIP3    H2 3415   3.864   0.541   5.012  0.8354 -0.9175  0.5820
 1137TIP3   OH2 3416   1.405   3.174   4.412 -0.3847  0.2369  0.0285
 1137TIP3    H1 3417   1.482   3.225   4.439 -0.1161  0.4230 -1.0612
 1137TIP3    H2 3418   1.333   3.211   4.464  0.2785 -0.0754  1.2085
 1138TIP3   OH2 3419   2.624   0.537   1.738  0.1713  0.4129 -0.0020
 1138TIP3    H1 3420   2.661   0.569   1.656  0.3378  0.4988  0.1076
 1138TIP3    H2 3421   2.535   0.510   1.714  0.0771  0.8230 -0.1227
 1139TIP3   OH2 3422   0.726   0.781   3.990  0.0317  0.4769  0.0607
 1139TIP3    H1 3423   0.637   0.798   3.959  0.1288 -0.1557 -0.5812
 1139TIP3    H2 3424   0.780   0.782   3.911  0.2460 -1.4177  0.1357
 1140TIP3   OH2 3425   2.751   0.242   4.271 -0.1245 -0.6269  0.3119
 1140TIP3    H1 3426   2.737   0.336   4.259 -1.1271 -1.0763 -3.3441
 1140TIP3    H2 3427   2.834   0.224   4.226 -1.1247 -1.7448 -1.2146
 1141TIP3   OH2 3428   2.715   1.774   3.117 -0.0061 -0.2935  0.1831
 1141TIP3    H1 3429   2.704   1.741   3.206  0.3208 -1.8549 -0.3356
 1141TIP3    H2 3430   2.800   1.739   3.089  0.1125  0.5729 -0.5931
 1142TIP3   OH2 3431   0.544   0.968   2.223 -0.1266 -0.8722  0.2802
 1142TIP3    H1 3432   0.589   1.014   2.294  0.0382 -0.0972 -0.3051
 1142TIP3    H2 3433   0.588   0.998   2.144 -1.6791 -0.0596 -0.3202
 1143TIP3   OH2 3434   5.930   0.091   3.541 -0.2263  0.0754  0.1605
 1143TIP3    H1 3435   5.890   0.032   3.605 -1.0264  0.6979  0.2485
 1143TIP3    H2 3436   5.860   0.152   3.517  0.5833  1.0020  0.0872
 1144TIP3   OH2 3437   4.293   5.082   0.694  0.0940  0.2832 -0.1526
 1144TIP3    H1 3438   4.215   5.137   0.690  0.4178  0.7082 -0.7515
 1144TIP3    H2 3439   4.259   4.992   0.700 -0.4472  0.4061 -1.1743
 1145TIP3   OH2 3440   4.220   1.611   4.975  0.1330 -0.4740 -0.3055
 1145TIP3    H1 3441   4.250   1.589   5.064  0.9881  1.3478 -0.0903
 1145TIP3    H2 3442   4.292   1.583   4.918  1.2373  1.5761 -0.0289
 1146TIP3   OH2 3443   4.044   0.506   4.523  0.3283 -0.1189 -0.3338
 1146TIP3    H1 3444   3.959   0.473   4.492  0.3375 -0.6002  0.1216
 1146TIP3    H2 3445   4.067   0.576   4.462 -0.9704  0.8444  0.2275
 1147TIP3   OH2 3446   5.590   5.326   3.514  0.4215  0.0691 -0.0858
 1147TIP3    H1 3447   5.522   5.393   3.506  0.6305  0.5039  1.4223
 1147TIP3    H2 3448   5.670   5.370   3.485  0.5521  0.4881  0.8657
 1148TIP3   OH2 3449   0.380   0.696   4.416 -0.2733  0.6642 -0.2320
 1148TIP3    H1 3450   0.389   0.759   4.345  0.3058  2.5228  1.3830
 1148TIP3    H2 3451   0.432   0.621   4.389  1.2474  1.9676 -1.0874
 1149TIP3   OH2 3452   6.269   5.821   3.501  0.3804  0.0130  0.3089
 1149TIP3    H1 3453   6.186   5.776   3.488  0.6977 -0.4860 -0.0625
 1149TIP3    H2 3454   6.246   5.907   3.536 -0.2597 -0.2819  0.6122
 1150TIP3   OH2 3455   5.972   3.894   0.967  0.0490 -0.4171 -0.1450
 1150TIP3    H1 3456   5.911   3.876   0.896 -2.0356 -0.1554  1.4805
 1150TIP3    H2 3457   5.989   3.809   1.007  1.0148 -0.5291 -0.7676
 1151TIP3   OH2 3458   5.113   5.015   5.092  0.1697 -0.4294 -0.3239
 1151TIP3    H1 3459   5.203   5.045   5.075 -0.7346  1.6653 -1.8354
 1151TIP3    H2 3460   5.085   5.064   5.169  0.0185 -0.4200 -0.3847
 1152TIP3   OH2 3461   6.292   2.959   2.193 -0.2280  0.3789 -0.1039
 1152TIP3    H1 3462   6.273   2.975   2.101 -2.8001  0.1935  0.3132
 1152TIP3    H2 3463   6.225   3.009   2.240  0.1589 -0.6437  1.6217
 1153TIP3   OH2 3464   6.350   5.909   1.002 -0.0963 -0.2751 -0.0406
 1153TIP3    H1 3465   6.305   5.883   1.082  0.7387 -0.2513  0.4522
 1153TIP3    H2 3466   6.281   5.911   0.935 -0.5799 -1.5457  0.3866
 1154TIP3   OH2 3467   2.929   2.203   0.109 -0.0648 -0.0655  0.0924
 1154TIP3    H1 3468   2.892   2.291   0.098  1.7665  0.6346 -0.9418
 1154TIP3    H2 3469   3.005   2.217   0.166  0.4008 -0.9422 -0.3051
 1155TIP3   OH2 3470   2.016   1.138   2.643 -0.0694  0.2550 -0.3212
 1155TIP3    H1 3471   1.950   1.162   2.708  0.0929  0.2383 -0.1473
 1155TIP3    H2 3472   1.973   1.150   2.559 -0.4578 -0.2316 -0.1957
 1156TIP3   OH2 3473   1.531   4.103   0.184  0.4974  0.7039 -0.1562
 1156TIP3    H1 3474   1.617   4.096   0.142  0.8623  2.2086  0.2782
 1156TIP3    H2 3475   1.480   4.159   0.126  0.3380  1.1096  0.3692
 1157TIP3   OH2 3476   4.641   5.546   1.665 -0.2527  0.1098 -0.1025
 1157TIP3    H1 3477   4.628   5.472   1.606  0.4255  0.5130 -0.7607
 1157TIP3    H2 3478   4.555   5.587   1.671 -0.6766 -0.8044  0.3894
 1158TIP3   OH2 3479   4.997   4.772   4.246  0.4413  0.5841 -0.7215
 1158TIP3    H1 3480   5.081   4.793   4.205  1.1266 -1.3350 -0.3862
 1158TIP3    H2 3481   4.956   4.708   4.188  1.2374 -1.8509  1.2150
 1159TIP3   OH2 3482   2.567   4.992   1.074 -0.0863 -0.2236 -0.4224
 1159TIP3    H1 3483   2.542   5.018   1.162  1.0317 -0.8996  0.1163
 1159TIP3    H2 3484   2.663   4.986   1.077  0.0054  0.2078 -1.8098
 1160TIP3   OH2 3485   2.934   3.864   1.481 -0.8851 -0.2665 -0.1381
 1160TIP3    H1 3486   2.883   3.934   1.522 -1.3527  0.4571 -1.8784
 1160TIP3    H2 3487   2.893   3.783   1.514 -2.1865  0.2974 -0.2900
 1161TIP3   OH2 3488   3.936   1.523   0.690  0.0956 -0.2991 -0.5881
 1161TIP3    H1 3489   3.960   1.431   0.701  0.7000 -0.0179  0.6558
 1161TIP3    H2 3490   3.932   1.536   0.595  3.7254 -0.7034 -0.9473
 1162TIP3   OH2 3491   2.022   0.781   1.977 -0.3328 -0.1901  0.2688
 1162TIP3    H1 3492   2.029   0.709   1.914  0.9559 -1.0107  1.3036
 1162TIP3    H2 3493   1.942   0.762   2.026  0.1680 -1.1104  0.7475
 1163TIP3   OH2 3494   2.727   1.965   1.486 -0.0512 -0.4349  0.2797
 1163TIP3    H1 3495   2.800   1.904   1.481  1.3308  1.1042  0.5635
 1163TIP3    H2 3496   2.768   2.052   1.480 -1.5622  0.5819  2.8687
 1164TIP3   OH2 3497   1.999   5.409   3.800 -0.7010 -0.1443 -0.5454
 1164TIP3    H1 3498   1.911   5.427   3.834 -0.2238  0.1752  0.5639
 1164TIP3    H2 3499   2.018   5.320   3.829  0.2285  0.5819  1.2672
 1165TIP3   OH2 3500   0.121   2.717   3.081 -0.2558 -0.1461 -0.4568
 1165TIP3    H1 3501   0.196   2.659   3.066 -0.0794 -0.6251  1.8689
 1165TIP3    H2 3502   0.090   2.739   2.993  1.4560 -1.4291 -1.4562
 1166TIP3   OH2 3503   3.570   5.153   1.806  0.0590 -0.4556 -0.4164
 1166TIP3    H1 3504   3.619   5.226   1.768  0.0645  0.4603  1.2470
 1166TIP3    H2 3505   3.525   5.191   1.882 -1.7747 -1.6883 -0.8317
 1167TIP3   OH2 3506   2.634   2.303   1.838  0.5584 -0.5949  0.0076
 1167TIP3    H1 3507   2.562   2.261   1.884  0.9017 -0.8323  0.3397
 1167TIP3    H2 3508   2.678   2.355   1.906  0.7760 -0.5518 -0.1648
 1168TIP3   OH2 3509   3.146   3.159   0.114  0.1452 -0.5053 -0.1860
 1168TIP3    H1 3510   3.078   3.223   0.092 -0.5313 -1.2130 -0.2030
 1168TIP3    H2 3511   3.124   3.082   0.062  0.7983 -0.8459  0.0311
 1169TIP3   OH2 3512   2.714   4.304   4.243 -0.3023  0.0291 -0.0159
 1169TIP3    H1 3513   2.711   4.301   4.339 -0.4685 -1.5784 -0.0567
 1169TIP3    H2 3514   2.785   4.365   4.224  1.2798 -1.3400  1.1658
 1170TIP3   OH2 3515   5.722   2.154   4.670 -0.3591  0.1672  0.2741
 1170TIP3    H1 3516   5.665   2.195   4.734  1.3522 -0.5813  2.3715
 1170TIP3    H2 3517   5.790   2.220   4.652  0.9693 -0.7465  1.7343
 1171TIP3   OH2 3518   3.062   4.086   3.719 -0.1652  0.4061 -0.5344
 1171TIP3    H1 3519   3.060   4.079   3.814  0.8211 -0.4247 -0.5629
 1171TIP3    H2 3520   3.093   4.001   3.689  1.1453  1.1997 -1.5171
 1172TIP3   OH2 3521   5.942   3.293   1.813 -0.2301  0.1162  0.3513
 1172TIP3    H1 3522   5.916   3.269   1.724  0.1495 -0.3279  0.3565
 1172TIP3    H2 3523   5.910   3.383   1.824 -0.6150  0.0365 -0.0949
 1173TIP3   OH2 3524   2.147   3.224   5.030  0.0332  0.1815  0.4645
 1173TIP3    H1 3525   2.171   3.195   5.118 -0.8941 -2.2711 -0.0079
 1173TIP3    H2 3526   2.174   3.152   4.973 -0.6755  1.1005 -1.1022
 1174TIP3   OH2 3527   0.339   4.591   3.320 -0.1970  0.4635  0.4494
 1174TIP3    H1 3528   0.403   4.533   3.362 -2.1677 -2.8902 -0.7358
 1174TIP3    H2 3529   0.380   4.614   3.236  0.0167 -0.6237  0.2289
 1175TIP3   OH2 3530   1.507   1.058   3.569 -0.3107 -0.1549 -0.0717
 1175TIP3    H1 3531   1.427   1.021   3.607  0.4186  1.0354  2.9305
 1175TIP3    H2 3532   1.475   1.120   3.503 -1.7335 -1.3293 -0.5392
 1176TIP3   OH2 3533   4.177   2.413   0.374 -0.2514  0.0292  0.1804
 1176TIP3    H1 3534   4.100   2.459   0.341 -1.1162 -1.1998  0.4055
 1176TIP3    H2 3535   4.141   2.345   0.430  1.0195 -0.5329  0.3398
 1177TIP3   OH2 3536   4.717   2.811   2.669  0.3825 -0.3597  0.4850
 1177TIP3    H1 3537   4.776   2.812   2.744  1.2205 -0.8037 -0.1473
 1177TIP3    H2 3538   4.767   2.852   2.598 -0.9706  1.5847  0.5470
 1178TIP3   OH2 3539   1.818   1.591   4.680  0.5666 -0.1158  0.4256
 1178TIP3    H1 3540   1.899   1.597   4.629  0.0128  1.4970 -0.3614
 1178TIP3    H2 3541   1.829   1.656   4.750 -0.5847  1.2303 -0.5800
 1179TIP3   OH2 3542   1.703   2.642   0.529  0.3228 -0.0576 -0.0773
 1179TIP3    H1 3543   1.761   2.634   0.454  1.7217 -0.5148  1.0063
 1179TIP3    H2 3544   1.746   2.705   0.587 -0.6111  0.1180  0.4442
 1180TIP3   OH2 3545   1.053   5.492   3.370  0.6085  0.5248 -0.2591
 1180TIP3    H1 3546   0.994   5.552   3.324  0.6669  0.6514 -0.1720
 1180TIP3    H2 3547   1.138   5.507   3.331  0.7051  0.8081  0.0509
 1181TIP3   OH2 3548   2.619   3.179   3.595  0.1106  0.0950  0.4438
 1181TIP3    H1 3549   2.550   3.113   3.583  1.1123 -0.7174 -1.2285
 1181TIP3    H2 3550   2.583   3.259   3.559  0.2893 -0.5156 -1.1522
 1182TIP3   OH2 3551   1.006   4.909   3.614  0.2310 -0.0491  0.4782
 1182TIP3    H1 3552   0.975   4.988   3.657 -1.8041  0.8268 -2.3046
 1182TIP3    H2 3553   0.929   4.851   3.613  0.6918 -0.6764 -0.4584
 1183TIP3   OH2 3554   6.092   5.601   1.804  0.1495  0.1089  0.4047
 1183TIP3    H1 3555   6.033   5.668   1.769 -0.0111  0.1899  0.8233
 1183TIP3    H2 3556   6.179   5.640   1.798  0.1828 -0.0697 -0.3551
 1184TIP3   OH2 3557   3.151   5.690   2.536 -0.1326  0.1023 -0.3398
 1184TIP3    H1 3558   3.074   5.725   2.490 -0.5177 -0.6629 -0.2980
 1184TIP3    H2 3559   3.218   5.683   2.468 -0.3744 -0.0384 -0.5685
 1185TIP3   OH2 3560   2.284   0.174   4.676  0.1942 -0.8581  0.0611
 1185TIP3    H1 3561   2.305   0.104   4.738  1.8795 -1.5350 -1.1738
 1185TIP3    H2 3562   2.210   0.140   4.626  0.6067 -1.5045 -0.1236
 1186TIP3   OH2 3563   2.652   1.716   4.247  0.2845 -0.3765 -0.4343
 1186TIP3    H1 3564   2.740   1.680   4.253  0.3705 -0.1861 -0.5425
 1186TIP3    H2 3565   2.646   1.751   4.158 -0.3533 -1.5598 -0.8795
 1187TIP3   OH2 3566   3.480   0.541   2.373 -0.4553  0.1712 -0.4086
 1187TIP3    H1 3567   3.574   0.535   2.384 -0.4877  0.4288  0.0065
 1187TIP3    H2 3568   3.446   0.460   2.412 -0.2856 -0.7797 -2.1380
 1188TIP3   OH2 3569   2.646   2.248   3.606  0.0822  0.1235  0.2079
 1188TIP3    H1 3570   2.668   2.338   3.584 -0.1582  0.0069 -0.5192
 1188TIP3    H2 3571   2.593   2.256   3.686 -0.0410  0.6352  0.0811
 1189TIP3   OH2 3572   4.829   3.395   3.101 -0.0901  0.0925  0.0615
 1189TIP3    H1 3573   4.834   3.372   3.008  0.8309  1.2599 -0.2133
 1189TIP3    H2 3574   4.737   3.385   3.123 -0.3081 -0.3185 -0.9516
 1190TIP3   OH2 3575   6.374   2.040   4.219  0.5866  0.1701 -0.1982
 1190TIP3    H1 3576   6.313   2.047   4.146  0.4595 -1.2673 -0.2559
 1190TIP3    H2 3577   6.329   2.084   4.292  0.8531  1.9164 -1.0164
 1191TIP3   OH2 3578   4.071   2.596   2.457  0.6129 -0.4452 -0.5996
 1191TIP3    H1 3579   3.996   2.601   2.517 -0.0293 -0.1691 -1.4039
 1191TIP3    H2 3580   4.146   2.624   2.509 -0.1720  1.2728 -0.3250
 1192TIP3   OH2 3581   3.583   2.528   3.790 -0.0703  0.0485  0.1921
 1192TIP3    H1 3582   3.550   2.449   3.747 -0.9443  1.1691 -1.2899
 1192TIP3    H2 3583   3.641   2.568   3.725 -1.0979  1.5843  0.1650
 1193TIP3   OH2 3584   1.515   1.844   4.087  0.0149 -0.3552  0.4035
 1193TIP3    H1 3585   1.536   1.761   4.044  0.6447  0.3070 -0.5804
 1193TIP3    H2 3586   1.590   1.861   4.144  0.3858  0.0721 -0.2058
 1194TIP3   OH2 3587   3.989   1.468   4.050 -0.3334 -0.2466  0.0660
 1194TIP3    H1 3588   3.967   1.504   4.136  0.0378  0.9411 -0.3091
 1194TIP3    H2 3589   3.923   1.505   3.991 -0.3193 -0.6930 -0.2357
 1195TIP3   OH2 3590   3.078   1.084   3.853 -0.3554  0.1653  0.1420
 1195TIP3    H1 3591   3.069   1.100   3.759 -0.9628 -0.2292  0.1281
 1195TIP3    H2 3592   3.000   1.124   3.891 -0.0555  0.4161  0.4897
 1196TIP3   OH2 3593   3.184   3.633   2.153  0.2623 -0.1217 -0.3192
 1196TIP3    H1 3594   3.206   3.687   2.077 -0.0086  0.0744 -0.2631
 1196TIP3    H2 3595   3.173   3.695   2.224 -0.0358 -0.2488 -0.2497
 1197TIP3   OH2 3596   1.843   2.224   3.597  0.8603 -0.0813  0.3510
 1197TIP3    H1 3597   1.765   2.213   3.652  0.9532  1.3548  0.8040
 1197TIP3    H2 3598   1.858   2.319   3.596  0.0706  0.1565 -3.2247
 1198TIP3   OH2 3599   1.736   5.357   1.430 -0.0200  0.1987  1.1099
 1198TIP3    H1 3600   1.652   5.398   1.408 -1.3067 -2.6785  0.1449
 1198TIP3    H2 3601   1.762   5.311   1.351  3.2515  1.9883  0.9588
 1199TIP3   OH2 3602   3.852   5.538   3.873  0.6702  0.2956  0.2205
 1199TIP3    H1 3603   3.785   5.564   3.810  0.9195  0.2933 -0.0456
 1199TIP3    H2 3604   3.915   5.486   3.823  0.5295 -0.2538  0.6101
 1200TIP3   OH2 3605   1.603   0.234   2.721  0.1404 -0.0255  0.2122
 1200TIP3    H1 3606   1.661   0.169   2.760  1.0095  0.7462  0.2372
 1200TIP3    H2 3607   1.600   0.305   2.784  0.9805  0.9250 -0.7714
 1201TIP3   OH2 3608   1.028   2.512   3.470  0.1870  0.3855  0.1348
 1201TIP3    H1 3609   1.075   2.474   3.396 -0.0715 -0.1243  0.2247
 1201TIP3    H2 3610   1.043   2.451   3.542 -1.0535 -0.0724  0.0214
 1202TIP3   OH2 3611   5.589   5.302   4.487 -0.0433  0.2909 -0.6304
 1202TIP3    H1 3612   5.551   5.389   4.487  0.6076  0.5924  0.2747
 1202TIP3    H2 3613   5.513   5.243   4.481 -1.0218  0.7992  3.4325
 1203TIP3   OH2 3614   4.295   3.374   2.045  0.2283  0.1657  0.7076
 1203TIP3    H1 3615   4.370   3.327   2.010  0.2718  1.0530 -0.4459
 1203TIP3    H2 3616   4.219   3.324   2.016  0.3408 -0.3725  1.3243
 1204TIP3   OH2 3617   4.944   3.294   4.396 -0.3370  0.3830 -0.4737
 1204TIP3    H1 3618   4.973   3.325   4.310 -0.7228 -0.1326 -0.7936
 1204TIP3    H2 3619   4.871   3.352   4.418  1.3205  2.1914  0.6804
 1205TIP3   OH2 3620   5.985   1.007   1.745 -0.2414  0.5306 -0.1916
 1205TIP3    H1 3621   5.920   0.999   1.675 -0.2930  0.5383 -0.1444
 1205TIP3    H2 3622   6.000   0.917   1.774 -0.2919  0.5369 -0.1465
 1206TIP3   OH2 3623   3.282   1.472   1.494 -0.8289  0.2327 -0.3051
 1206TIP3    H1 3624   3.219   1.429   1.551 -1.3012  0.3618 -0.7247
 1206TIP3    H2 3625   3.299   1.409   1.424  1.0753 -0.6484  0.8583
 1207TIP3   OH2 3626   4.607   5.505   0.020  0.1328  0.3850 -0.0611
 1207TIP3    H1 3627   4.636   5.506   0.111 -0.8157 -2.0713  0.3325
 1207TIP3    H2 3628   4.551   5.428   0.013 -0.2025  0.7672 -2.6293
 1208TIP3   OH2 3629   4.980   5.676   4.386 -0.2233 -0.5530 -0.6467
 1208TIP3    H1 3630   4.937   5.597   4.352 -0.0693 -1.2798  0.7782
 1208TIP3    H2 3631   4.963   5.673   4.480  3.1269 -1.0205  0.0740
 1209TIP3   OH2 3632   3.205   3.791   2.440  0.2983  0.5500  0.2838
 1209TIP3    H1 3633   3.298   3.787   2.466  0.3828 -1.1528 -0.1237
 1209TIP3    H2 3634   3.158   3.752   2.514 -0.0039  0.6450  0.1411
 1210TIP3   OH2 3635   3.908   2.624   2.031  0.9442 -0.1760 -0.1581
 1210TIP3    H1 3636   3.845   2.552   2.034  0.5548  0.1789  0.3283
 1210TIP3    H2 3637   3.993   2.581   2.032  0.7131 -0.6384  0.0665
 1211TIP3   OH2 3638   0.920   3.806   5.012 -0.2473  0.0418 -0.2630
 1211TIP3    H1 3639   0.908   3.889   4.966 -0.5374  0.4921  0.6097
 1211TIP3    H2 3640   0.953   3.831   5.098 -0.3105 -0.7562 -0.0032
 1212TIP3   OH2 3641   2.430   0.166   0.428  0.4997 -0.0335 -0.0477
 1212TIP3    H1 3642   2.454   0.198   0.515  1.0008  0.4643 -0.3637
 1212TIP3    H2 3643   2.340   0.197   0.415  0.2176 -0.6033  0.5232
 1213TIP3   OH2 3644   4.282   2.486   2.747 -0.4377  0.8131 -0.3719
 1213TIP3    H1 3645   4.366   2.440   2.746 -0.9508 -0.2156  0.8201
 1213TIP3    H2 3646   4.284   2.542   2.670  1.1053  0.3801 -0.6758
 1214TIP3   OH2 3647   2.270   1.419   1.237  0.7824  0.4612 -0.7316
 1214TIP3    H1 3648   2.263   1.326   1.215 -0.8585  0.4920 -0.4210
 1214TIP3    H2 3649   2.319   1.421   1.319  0.9267 -0.1086 -0.8009
 1215TIP3   OH2 3650   3.674   1.742   0.291 -0.1737 -0.0132  0.9130
 1215TIP3    H1 3651   3.758   1.724   0.248 -0.9007  0.9431 -1.0100
 1215TIP3    H2 3652   3.681   1.832   0.321 -1.2019  0.8047 -1.1187
 1216TIP3   OH2 3653   2.355   1.381   1.502  0.5211  0.3501  0.3684
 1216TIP3    H1 3654   2.280   1.323   1.514 -0.8480  1.7130 -1.1868
 1216TIP3    H2 3655   2.426   1.337   1.549 -1.0985 -1.2200  1.5028
 1217TIP3   OH2 3656   3.215   5.759   3.893  0.1384 -0.7959 -0.0184
 1217TIP3    H1 3657   3.254   5.746   3.979 -1.9043 -1.3434  0.8969
 1217TIP3    H2 3658   3.146   5.823   3.908 -1.7289 -2.5297 -0.7136
 1218TIP3   OH2 3659   3.544   4.070   5.039 -0.0743 -0.2406 -0.2069
 1218TIP3    H1 3660   3.628   4.095   5.076  0.4215 -0.2567 -1.2883
 1218TIP3    H2 3661   3.561   4.058   4.945 -1.2617 -0.2990 -0.4356
 1219TIP3   OH2 3662   5.408   4.302   3.535 -0.1133 -0.4747 -0.1614
 1219TIP3    H1 3663   5.313   4.311   3.542 -0.1839 -1.1041 -0.1870
 1219TIP3    H2 3664   5.443   4.387   3.561 -0.7191  0.1124 -1.1891
 1220TIP3   OH2 3665   1.696   3.551   4.857 -0.3688  0.1956  0.3392
 1220TIP3    H1 3666   1.652   3.528   4.775 -2.1548 -1.9582  1.7897
 1220TIP3    H2 3667   1.785   3.516   4.847 -0.0880  1.2090 -1.1450
 1221TIP3   OH2 3668   2.383   0.791   0.345  0.4512  0.0671 -0.1766
 1221TIP3    H1 3669   2.409   0.882   0.356  0.7053  0.0121 -0.3079
 1221TIP3    H2 3670   2.395   0.753   0.432  0.2967  0.1712 -0.1098
 1222TIP3   OH2 3671   3.055   5.277   3.449  0.1062 -0.2515  0.3887
 1222TIP3    H1 3672   3.079   5.351   3.394 -1.5698  0.0578  0.0128
 1222TIP3    H2 3673   2.963   5.262   3.429  0.6979 -3.2890 -0.5274
 1223TIP3   OH2 3674   3.942   5.631   1.452  0.4785 -0.1628 -0.1637
 1223TIP3    H1 3675   3.956   5.618   1.358  0.1594  0.8566 -0.3589
 1223TIP3    H2 3676   3.990   5.711   1.473  1.4048 -0.9404  0.7625
 1224TIP3   OH2 3677   3.467   5.494   4.772 -0.1774 -0.1139 -0.8432
 1224TIP3    H1 3678   3.471   5.420   4.833 -2.4555 -0.8063 -1.4182
 1224TIP3    H2 3679   3.495   5.456   4.688 -0.3644 -0.0666 -0.9269
 1225TIP3   OH2 3680   0.514   1.333   0.257  0.2256  0.2918  0.1276
 1225TIP3    H1 3681   0.421   1.353   0.263  0.6260  2.1396  0.8953
 1225TIP3    H2 3682   0.521   1.275   0.181 -1.6694 -0.9372  0.8202
 1226TIP3   OH2 3683   2.011   3.622   3.049  0.1728 -0.2915  0.4264
 1226TIP3    H1 3684   2.093   3.642   3.094 -0.2719  1.0540  0.6792
 1226TIP3    H2 3685   2.031   3.634   2.956  0.3534 -0.3054  0.4642
 1227TIP3   OH2 3686   2.514   5.938   0.134  0.0264 -0.2654 -0.1754
 1227TIP3    H1 3687   2.501   5.934   0.039 -1.0940  1.2474 -0.1339
 1227TIP3    H2 3688   2.430   5.969   0.168  0.4800 -0.5763  1.3000
 1228TIP3   OH2 3689   3.510   3.206   1.412  0.3453 -0.3998  0.1380
 1228TIP3    H1 3690   3.535   3.154   1.488  0.4758  0.4277  0.6764
 1228TIP3    H2 3691   3.590   3.214   1.361  0.2494 -0.9865 -0.1126
 1229TIP3   OH2 3692   1.467   5.431   1.034 -0.3410 -0.2240  0.1305
 1229TIP3    H1 3693   1.486   5.446   1.127  0.4507 -3.0628  0.5257
 1229TIP3    H2 3694   1.497   5.511   0.990 -0.3241  1.0088  2.2369
 1230TIP3   OH2 3695   1.907   3.984   1.100 -0.3465 -0.2252 -0.4702
 1230TIP3    H1 3696   1.843   4.055   1.095  0.9809  1.0030 -0.4051
 1230TIP3    H2 3697   1.985   4.018   1.058  1.7538 -0.0300  3.1734
 1231TIP3   OH2 3698   4.293   4.567   1.073 -0.2735 -0.2986  0.5429
 1231TIP3    H1 3699   4.221   4.522   1.028 -0.0454  0.1675 -0.3255
 1231TIP3    H2 3700   4.351   4.496   1.100 -0.5864 -0.6190  0.3976
 1232TIP3   OH2 3701   4.426   3.158   5.119 -0.3382  0.2327  0.4063
 1232TIP3    H1 3702   4.500   3.162   5.059 -0.7316 -1.9892 -0.3472
 1232TIP3    H2 3703   4.413   3.248   5.148  2.0064  0.8367 -0.2037
 1233TIP3   OH2 3704   0.505   3.833   0.390 -0.2367  0.3159 -0.1478
 1233TIP3    H1 3705   0.496   3.855   0.483 -0.3925 -0.4827  0.0294
 1233TIP3    H2 3706   0.584   3.779   0.385 -1.5194 -1.6763 -0.0900
 1234TIP3   OH2 3707   4.748   1.455   5.064 -0.4269 -0.4354  0.0520
 1234TIP3    H1 3708   4.778   1.542   5.091 -0.7359 -0.3042 -0.0206
 1234TIP3    H2 3709   4.797   1.438   4.983 -0.7370 -0.1096 -0.2077
 1235TIP3   OH2 3710   4.428   0.283   1.978  0.4717 -0.3327 -0.2693
 1235TIP3    H1 3711   4.423   0.246   2.066  0.1624  0.1453 -0.0832
 1235TIP3    H2 3712   4.511   0.332   1.978  0.1402  0.2325 -0.0201
 1236TIP3   OH2 3713   0.670   1.733   0.971  0.3472  0.2515 -0.1559
 1236TIP3    H1 3714   0.736   1.683   0.923  0.6336  1.8579 -1.4963
 1236TIP3    H2 3715   0.711   1.749   1.056  1.8128  1.3652 -1.0121
 1237TIP3   OH2 3716   3.213   4.516   1.711  0.3574 -0.1025  0.3979
 1237TIP3    H1 3717   3.213   4.610   1.728 -2.3923 -0.2436  1.6241
 1237TIP3    H2 3718   3.123   4.496   1.685  0.1235 -2.8085  2.8692
 1238TIP3   OH2 3719   0.187   0.576   1.655  0.2543  0.0716 -0.4608
 1238TIP3    H1 3720   0.243   0.508   1.615 -0.6373 -1.5497  0.9050
 1238TIP3    H2 3721   0.245   0.651   1.665  1.1888 -0.3136 -2.3799
 1239TIP3   OH2 3722   4.882   1.747   2.670 -0.2907  0.3321 -0.3966
 1239TIP3    H1 3723   4.810   1.786   2.720 -0.0881  1.4870 -0.9690
 1239TIP3    H2 3724   4.948   1.726   2.736 -0.7879  0.0914  0.0337
 1240TIP3   OH2 3725   6.264   4.648   3.535 -0.1618  0.5565 -0.2534
 1240TIP3    H1 3726   6.335   4.630   3.473 -0.4495  1.5977 -0.8996
 1240TIP3    H2 3727   6.221   4.563   3.547  0.0695  0.2836 -1.2667
 1241TIP3   OH2 3728   1.610   3.203   4.830 -0.5992  0.1748 -0.3311
 1241TIP3    H1 3729   1.606   3.130   4.768  0.5883  0.6127 -0.9541
 1241TIP3    H2 3730   1.572   3.168   4.911  0.0959 -1.1888 -0.5690
 1242TIP3   OH2 3731   5.322   4.275   1.879  0.6592 -0.3140 -0.3303
 1242TIP3    H1 3732   5.239   4.290   1.924  0.6502  1.0495 -0.7394
 1242TIP3    H2 3733   5.388   4.283   1.948  0.5107 -0.4336 -0.1732
 1243TIP3   OH2 3734   4.207   0.031   3.439  0.0933 -0.3224 -0.5770
 1243TIP3    H1 3735   4.177  -0.037   3.499 -0.1952  0.2193 -0.0946
 1243TIP3    H2 3736   4.275   0.078   3.486  0.0188 -0.0299 -0.7534
 1244TIP3   OH2 3737   0.809   0.191   0.345  0.4527 -0.8357 -0.3321
 1244TIP3    H1 3738   0.845   0.273   0.310  0.9325 -0.9752 -0.1811
 1244TIP3    H2 3739   0.818   0.200   0.440 -1.3316 -0.2344 -0.1914
 1245TIP3   OH2 3740   2.394   1.714   1.397 -0.2257 -0.5375 -0.3856
 1245TIP3    H1 3741   2.357   1.717   1.309  0.2813 -0.9418 -0.6178
 1245TIP3    H2 3742   2.321   1.739   1.454 -0.3112  0.6467 -0.9814
 1246TIP3   OH2 3743   0.957   4.049   2.412 -0.2588 -0.6239 -0.0669
 1246TIP3    H1 3744   1.005   4.124   2.377 -1.0139 -0.2039 -0.2141
 1246TIP3    H2 3745   1.025   3.983   2.428  0.4255  0.1128  0.1479
 1247TIP3   OH2 3746   3.005   0.113   3.425  0.4447 -0.4181  0.7658
 1247TIP3    H1 3747   3.044   0.152   3.347  0.8401 -0.8742  0.7302
 1247TIP3    H2 3748   2.927   0.066   3.392  0.7212 -0.7775  0.6088
 1248TIP3   OH2 3749   4.086   1.987   4.721  0.0443 -0.4492  0.1545
 1248TIP3    H1 3750   4.000   1.977   4.762 -1.3762  2.6384 -1.6533
 1248TIP3    H2 3751   4.145   2.006   4.794 -1.8786  2.3304  1.1870
 1249TIP3   OH2 3752   4.104   4.637   2.817  0.3272 -0.3479 -0.2850
 1249TIP3    H1 3753   4.140   4.548   2.819  1.2102  0.0063  0.9243
 1249TIP3    H2 3754   4.034   4.637   2.881  0.8419  0.0098  0.2971
 1250TIP3   OH2 3755   4.078   1.314   2.111  0.6393 -0.1056 -0.4483
 1250TIP3    H1 3756   4.043   1.313   2.022 -0.8053  0.4856  0.0949
 1250TIP3    H2 3757   4.171   1.291   2.100  0.3564 -0.6078 -2.0341
 1251TIP3   OH2 3758   4.204   5.877   2.865 -0.2500 -0.1081  0.3830
 1251TIP3    H1 3759   4.117   5.846   2.893 -0.4120 -1.0540 -1.0351
 1251TIP3    H2 3760   4.207   5.968   2.893 -1.2844 -0.3564  1.3845
 1252TIP3   OH2 3761   5.373   5.283   1.823 -0.5048 -0.4170  0.2378
 1252TIP3    H1 3762   5.332   5.329   1.897 -1.6832 -1.8310  0.5214
 1252TIP3    H2 3763   5.308   5.217   1.797  0.0700 -0.2607 -1.7846
 1253TIP3   OH2 3764   0.876   3.136   4.005 -0.0384  0.2614  0.3653
 1253TIP3    H1 3765   0.968   3.129   3.979  0.3484  2.6003  0.8522
 1253TIP3    H2 3766   0.877   3.128   4.100 -0.1354  1.5683  0.4953
 1254TIP3   OH2 3767   4.900   5.735   1.327 -0.2074  0.2344  0.1293
 1254TIP3    H1 3768   4.847   5.787   1.387  0.7159  0.5197  0.7086
 1254TIP3    H2 3769   4.957   5.798   1.284 -1.0005  0.0698 -1.2349
 1255TIP3   OH2 3770   5.905   3.846   1.529  0.0649 -0.1835  0.0029
 1255TIP3    H1 3771   5.979   3.897   1.495  0.2968  0.8397  1.9307
 1255TIP3    H2 3772   5.828   3.886   1.488  0.5065 -0.9666 -1.6648
 1256TIP3   OH2 3773   1.080   3.758   3.373  0.0681 -0.8942 -0.8124
 1256TIP3    H1 3774   1.099   3.805   3.454  0.4241 -0.1131 -1.3370
 1256TIP3    H2 3775   0.988   3.776   3.355  0.3040 -0.0306 -1.2274
 1257TIP3   OH2 3776   0.806   3.795   1.287 -0.1090  0.1005 -0.1994
 1257TIP3    H1 3777   0.892   3.797   1.328  0.5719  2.2869 -1.5490
 1257TIP3    H2 3778   0.825   3.801   1.193 -1.7441  0.5268 -0.5233
 1258TIP3   OH2 3779   3.594   2.867   1.362  0.5421  0.3199 -0.0106
 1258TIP3    H1 3780   3.623   2.918   1.285 -1.0869  0.1997 -0.7425
 1258TIP3    H2 3781   3.566   2.933   1.425  0.7717  0.3895  0.0200
 1259TIP3   OH2 3782   0.317   1.589   4.757 -0.3252 -0.1614  0.5589
 1259TIP3    H1 3783   0.330   1.643   4.835  1.2824  1.3205 -0.6584
 1259TIP3    H2 3784   0.266   1.645   4.699  2.2215  0.5823 -1.1256
 1260TIP3   OH2 3785   5.580   0.285   4.882 -0.3684 -0.3464  0.6961
 1260TIP3    H1 3786   5.599   0.339   4.959 -1.5809 -0.4831  1.1076
 1260TIP3    H2 3787   5.603   0.341   4.808 -0.0126  0.1121  1.1444
 1261TIP3   OH2 3788   2.901   3.528   1.378  0.2956  0.1170 -0.3116
 1261TIP3    H1 3789   2.994   3.531   1.404  0.1996  0.5849 -0.0129
 1261TIP3    H2 3790   2.853   3.546   1.459 -0.0379  0.5978 -0.6136
 1262TIP3   OH2 3791   1.280   1.923   1.048 -0.1164 -0.2202  0.0988
 1262TIP3    H1 3792   1.242   1.853   0.995 -0.4585  0.4865 -0.6186
 1262TIP3    H2 3793   1.205   1.967   1.088  0.1334 -0.7171  1.1642
 1263TIP3   OH2 3794   2.735   5.744   3.019  0.5195 -0.2334  0.4347
 1263TIP3    H1 3795   2.784   5.816   2.980 -1.0107  0.7557  0.2526
 1263TIP3    H2 3796   2.740   5.759   3.113  1.4474 -0.7617  0.4854
 1264TIP3   OH2 3797   6.140   2.533   3.851  0.8589 -0.0752 -0.0205
 1264TIP3    H1 3798   6.122   2.589   3.775 -1.1622  0.2184  0.5964
 1264TIP3    H2 3799   6.139   2.594   3.925  1.6257 -0.5273  0.3674
 1265TIP3   OH2 3800   1.191   0.343   3.672 -0.1494  0.3663 -0.4311
 1265TIP3    H1 3801   1.185   0.367   3.580 -0.8846  0.2355 -0.4212
 1265TIP3    H2 3802   1.165   0.423   3.719 -0.8105  0.1165 -0.3631
 1266TIP3   OH2 3803   4.267   3.914   2.438 -0.8016  0.3380  0.6969
 1266TIP3    H1 3804   4.354   3.916   2.479 -0.5406  4.0298  0.3038
 1266TIP3    H2 3805   4.270   3.839   2.380  2.5944  0.9322 -0.1292
 1267TIP3   OH2 3806   5.827   2.803   3.799  0.4756 -0.0289  0.1267
 1267TIP3    H1 3807   5.781   2.868   3.746  0.2929 -0.6109 -0.4504
 1267TIP3    H2 3808   5.805   2.719   3.758  1.6284 -0.3635  0.1724
 1268TIP3   OH2 3809   6.133   1.188   0.944  0.0442 -0.0404 -0.3195
 1268TIP3    H1 3810   6.092   1.119   0.892 -1.9059  0.6779  0.1753
 1268TIP3    H2 3811   6.122   1.267   0.892 -0.0869  0.3385  0.2700
 1269TIP3   OH2 3812   0.917   1.917   3.607  0.2660 -0.2519 -0.2114
 1269TIP3    H1 3813   0.977   1.916   3.682  0.9136  0.8498 -0.6853
 1269TIP3    H2 3814   0.942   1.841   3.555  0.4050 -0.5137  0.2318
 1270TIP3   OH2 3815   1.027   2.208   4.426 -0.1412  0.0945  0.2505
 1270TIP3    H1 3816   0.945   2.249   4.455  0.1767  1.9695 -1.2934
 1270TIP3    H2 3817   1.093   2.277   4.435  0.6096 -0.3246 -1.5316
 1271TIP3   OH2 3818   4.040   5.571   4.575 -0.1854  0.0790  1.0768
 1271TIP3    H1 3819   4.116   5.552   4.521  0.1264  2.6435  0.4772
 1271TIP3    H2 3820   4.017   5.487   4.616  2.3270 -0.9598  0.5126
 1272TIP3   OH2 3821   2.801   3.543   0.663 -0.1579  0.6865  0.1072
 1272TIP3    H1 3822   2.807   3.507   0.575 -0.0442 -0.6997  0.6542
 1272TIP3    H2 3823   2.890   3.539   0.697 -0.7371 -2.4044  1.6016
 1273TIP3   OH2 3824   5.146   1.573   1.754 -0.4485 -0.3807  0.2349
 1273TIP3    H1 3825   5.167   1.593   1.845 -2.3252 -0.0746  0.6472
 1273TIP3    H2 3826   5.229   1.580   1.707  0.3756  0.3816  1.7560
 1274TIP3   OH2 3827   2.962   4.698   2.159 -0.0794 -0.3013 -0.3709
 1274TIP3    H1 3828   2.896   4.716   2.093 -0.2910 -0.7233 -0.2745
 1274TIP3    H2 3829   2.912   4.671   2.236  0.1530  0.3703  0.0281
 1275TIP3   OH2 3830   2.996   1.494   3.196 -0.0171  0.2151  0.6312
 1275TIP3    H1 3831   3.018   1.584   3.219  1.2115  0.1192 -0.0502
 1275TIP3    H2 3832   2.965   1.500   3.105  1.0550 -0.1663  0.2312
 1276TIP3   OH2 3833   0.888   0.468   2.816  0.0915 -0.0875  0.8579
 1276TIP3    H1 3834   0.965   0.411   2.811  0.5679  0.5961  0.0156
 1276TIP3    H2 3835   0.858   0.476   2.726 -0.7965 -0.1097  1.1456
 1277TIP3   OH2 3836   0.859   3.654   0.803 -0.1081  0.0470 -0.6717
 1277TIP3    H1 3837   0.782   3.711   0.815  1.6275  2.6860 -1.2768
 1277TIP3    H2 3838   0.904   3.657   0.888 -0.6485 -1.5955 -0.2782
 1278TIP3   OH2 3839   2.586   2.244   1.309  0.3912 -0.1141 -0.6717
 1278TIP3    H1 3840   2.616   2.227   1.220  2.0437 -1.9724  0.1616
 1278TIP3    H2 3841   2.666   2.267   1.358 -0.6075  1.8375  0.1780
 1279TIP3   OH2 3842   4.143   1.683   1.175 -0.3881 -0.0868  0.1518
 1279TIP3    H1 3843   4.097   1.752   1.128 -2.7876 -0.2911  1.9764
 1279TIP3    H2 3844   4.120   1.603   1.127 -0.1449  0.0365 -0.1771
 1280TIP3   OH2 3845   0.014   4.013   5.201 -0.7162 -0.4508  0.1256
 1280TIP3    H1 3846   0.036   3.952   5.130 -0.4279  0.7061 -0.8120
 1280TIP3    H2 3847   0.022   4.100   5.161 -0.6686  0.2248  1.5517
 1281TIP3   OH2 3848   4.754   0.415   2.543 -0.0089 -0.9738  0.0283
 1281TIP3    H1 3849   4.703   0.439   2.620  0.9149 -0.4308  0.4866
 1281TIP3    H2 3850   4.769   0.321   2.553 -0.5494 -1.0544  0.1054
 1282TIP3   OH2 3851   4.804   1.838   3.246 -0.0674  0.4433  0.8849
 1282TIP3    H1 3852   4.877   1.892   3.274 -0.3010  0.9856  0.4637
 1282TIP3    H2 3853   4.827   1.750   3.275  0.3222  0.7620  1.5651
 1283TIP3   OH2 3854   3.301   4.544   3.877 -0.3829  0.3377 -0.4332
 1283TIP3    H1 3855   3.280   4.495   3.798 -0.4475  0.0159 -0.2185
 1283TIP3    H2 3856   3.293   4.636   3.852 -1.6070  0.2280 -0.4822
 1284TIP3   OH2 3857   3.586   0.594   0.516  0.5050  0.2264 -0.2461
 1284TIP3    H1 3858   3.541   0.678   0.515 -1.5658 -0.7959 -0.2909
 1284TIP3    H2 3859   3.618   0.582   0.427  0.7796  0.9408 -0.2433
 1285TIP3   OH2 3860   0.564   5.516   0.730  0.1291 -0.0428  0.3003
 1285TIP3    H1 3861   0.510   5.437   0.725 -1.9344  1.3147 -0.4249
 1285TIP3    H2 3862   0.649   5.486   0.760 -0.4137 -2.6086 -0.5129
 1286TIP3   OH2 3863   2.413   5.496   3.806  0.2509  0.5294  0.2249
 1286TIP3    H1 3864   2.343   5.561   3.814  0.2759  0.4895  0.8086
 1286TIP3    H2 3865   2.377   5.430   3.747  0.1268  0.9422 -0.1632
 1287TIP3   OH2 3866   5.615   5.180   3.736  0.3234 -0.3880  0.8910
 1287TIP3    H1 3867   5.633   5.088   3.719 -1.1383 -0.3550 -1.1430
 1287TIP3    H2 3868   5.602   5.219   3.650 -4.1848  0.5807  1.7274
 1288TIP3   OH2 3869   0.632   4.481   4.584  0.6978 -0.4577  0.0279
 1288TIP3    H1 3870   0.697   4.452   4.520  0.8213 -1.4799  0.5971
 1288TIP3    H2 3871   0.554   4.500   4.532  0.9786 -0.7035 -0.4915
 1289TIP3   OH2 3872   4.530   1.351   0.653 -0.6014 -0.8607 -0.5104
 1289TIP3    H1 3873   4.506   1.393   0.571  1.6581  0.5905 -0.5327
 1289TIP3    H2 3874   4.617   1.314   0.637  0.5892  0.7701  1.5604
 1290TIP3   OH2 3875  -0.008   3.793   2.258 -0.0908  0.1278  0.3803
 1290TIP3    H1 3876   0.075   3.821   2.220 -0.1833 -0.6193 -0.3908
 1290TIP3    H2 3877  -0.018   3.702   2.233  0.3101 -0.7566  3.0519
 1291TIP3   OH2 3878   1.945   1.546   1.092 -0.1232  0.6184  0.4793
 1291TIP3    H1 3879   1.923   1.479   1.027  0.3807  1.9293 -1.1099
 1291TIP3    H2 3880   1.879   1.535   1.161 -1.9388  0.4573 -1.1853
 1292TIP3   OH2 3881   1.486   2.145   3.006  0.1351 -0.9218  0.1399
 1292TIP3    H1 3882   1.546   2.143   2.932  1.3003 -0.7798  1.0591
 1292TIP3    H2 3883   1.538   2.178   3.079 -1.3263  0.1923  0.7314
 1293TIP3   OH2 3884   0.320   1.627   5.075  0.4180 -0.1850 -0.3118
 1293TIP3    H1 3885   0.276   1.589   5.151  2.0221  1.0695  1.3752
 1293TIP3    H2 3886   0.268   1.705   5.054 -1.1927 -1.6015 -1.8937
 1294TIP3   OH2 3887   2.910   1.057   3.301  0.1646 -0.3416  0.5200
 1294TIP3    H1 3888   2.911   1.151   3.284 -1.6678  0.1828  2.8907
 1294TIP3    H2 3889   2.950   1.019   3.222  0.5124  2.3416 -0.7284
 1295TIP3   OH2 3890   1.367   4.498   3.231 -0.2178 -0.0831  0.3850
 1295TIP3    H1 3891   1.351   4.562   3.301 -1.1997 -0.5315  0.5921
 1295TIP3    H2 3892   1.291   4.507   3.174  1.2255  1.2948 -1.4599
 1296TIP3   OH2 3893   0.276   3.798   2.131 -0.1616  0.9273 -0.5663
 1296TIP3    H1 3894   0.331   3.762   2.200 -3.1753 -1.8686  0.6192
 1296TIP3    H2 3895   0.304   3.752   2.052 -1.0085 -0.8628  0.1218
 1297TIP3   OH2 3896   2.367   1.802   4.406 -0.0283  1.1672  0.2361
 1297TIP3    H1 3897   2.319   1.852   4.340  0.6453  1.8258  0.2378
 1297TIP3    H2 3898   2.452   1.784   4.366 -0.7014 -1.1933 -0.3223
 1298TIP3   OH2 3899   0.258   5.763   0.071 -0.3667  0.4268 -0.0284
 1298TIP3    H1 3900   0.346   5.725   0.073  0.1901  1.3919 -2.5863
 1298TIP3    H2 3901   0.265   5.841   0.125  0.5307  0.8050 -0.6648
 1299TIP3   OH2 3902   2.559   2.973   5.125 -0.1178 -0.3445 -0.0292
 1299TIP3    H1 3903   2.567   2.886   5.086 -1.0692 -0.9408  1.0372
 1299TIP3    H2 3904   2.630   3.024   5.087  1.0902 -1.8810  0.1102
 1300TIP3   OH2 3905   0.732   5.356   1.783 -0.2106 -0.1464 -0.1629
 1300TIP3    H1 3906   0.755   5.302   1.708 -0.5738 -1.8902  0.9367
 1300TIP3    H2 3907   0.672   5.422   1.747 -0.1749 -0.7730 -1.4445
 1301TIP3   OH2 3908   1.337   0.128   2.784  0.1863  0.0889 -0.9735
 1301TIP3    H1 3909   1.333   0.044   2.828  2.0239  0.9150  0.9343
 1301TIP3    H2 3910   1.423   0.129   2.741  0.2410  1.0370 -0.8616
 1302TIP3   OH2 3911   0.016   4.215   3.143  0.0385 -0.0289  0.3491
 1302TIP3    H1 3912   0.095   4.212   3.197  2.4651 -0.8621 -2.9205
 1302TIP3    H2 3913  -0.007   4.122   3.131 -1.1249  0.1907  0.7933
 1303TIP3   OH2 3914   5.316   1.218   1.289  0.2121 -0.4234  0.2955
 1303TIP3    H1 3915   5.405   1.187   1.302 -0.1614 -2.3695 -1.3364
 1303TIP3    H2 3916   5.326   1.303   1.246  1.2399  0.7182  2.6256
 1304TIP3   OH2 3917   0.624   2.062   4.862 -0.1322 -0.7934  0.1987
 1304TIP3    H1 3918   0.610   1.968   4.853  0.4529 -0.9845  1.0931
 1304TIP3    H2 3919   0.700   2.069   4.920 -0.0338  0.2294 -0.0336
 1305TIP3   OH2 3920   5.921   3.813   3.588 -0.1182  0.3744 -0.2901
 1305TIP3    H1 3921   5.867   3.857   3.654 -1.7698 -0.3649 -1.0924
 1305TIP3    H2 3922   5.991   3.772   3.638 -0.3780  1.2175  0.8160
 1306TIP3   OH2 3923   0.737   2.156   1.213  0.0057 -0.0581 -0.0250
 1306TIP3    H1 3924   0.795   2.088   1.177  0.2369  0.1414 -0.0282
 1306TIP3    H2 3925   0.770   2.237   1.175  2.1795  0.6094  2.9077
 1307TIP3   OH2 3926   3.539   3.083   4.635  0.6373  0.5431 -0.7456
 1307TIP3    H1 3927   3.581   3.010   4.680  0.5375  1.0063  0.1073
 1307TIP3    H2 3928   3.592   3.096   4.556  1.1933  0.1429 -0.4395
 1308TIP3   OH2 3929   5.264   0.236   3.213  0.2573 -0.2018  0.7595
 1308TIP3    H1 3930   5.332   0.279   3.160  0.8548 -0.4877  1.2798
 1308TIP3    H2 3931   5.225   0.172   3.154 -0.2237  0.6242  0.1618
 1309TIP3   OH2 3932   3.995   1.935   4.330 -0.1687  0.2645 -0.2888
 1309TIP3    H1 3933   3.927   1.936   4.262 -0.9147  1.0457  0.4512
 1309TIP3    H2 3934   4.075   1.914   4.282 -1.0157 -1.3480 -1.0794
 1310TIP3   OH2 3935   3.925   5.058   1.862 -0.0533 -0.2051  0.4143
 1310TIP3    H1 3936   3.907   5.069   1.768 -1.1434 -1.0677  0.5126
 1310TIP3    H2 3937   3.911   5.146   1.899 -1.4299 -0.2521  0.0460
 1311TIP3   OH2 3938   1.209   3.376   2.069 -0.6245 -0.2669 -0.8235
 1311TIP3    H1 3939   1.253   3.349   2.150 -1.4003  0.5941 -0.0928
 1311TIP3    H2 3940   1.258   3.331   1.999  1.3972  0.6356 -0.0645
 1312TIP3   OH2 3941   5.169   5.801   2.066  0.4792  0.2526 -0.6229
 1312TIP3    H1 3942   5.074   5.813   2.071  0.4750 -0.3119  1.4126
 1312TIP3    H2 3943   5.201   5.883   2.028 -0.7264  0.9264 -0.2330
 1313TIP3   OH2 3944   5.879   4.379   3.998  0.0419  0.9161  0.2451
 1313TIP3    H1 3945   5.965   4.359   4.033  0.2348  0.0213 -0.7009
 1313TIP3    H2 3946   5.835   4.294   3.992 -0.0027  1.0339 -1.6070
 1314TIP3   OH2 3947   5.626   1.472   0.972 -0.0137  0.3231 -0.0273
 1314TIP3    H1 3948   5.653   1.422   0.894  1.1858  0.2767  0.3982
 1314TIP3    H2 3949   5.640   1.413   1.045 -0.8192  0.4844  0.2671
 1315TIP3   OH2 3950   2.935   0.001   0.306  0.3821  0.3827 -0.3711
 1315TIP3    H1 3951   3.024  -0.034   0.307  0.4547  0.5246 -1.2249
 1315TIP3    H2 3952   2.941   0.083   0.257 -0.2360  0.3400 -0.5310
 1316TIP3   OH2 3953   0.653   3.341   1.499 -0.0166  0.4692 -0.3608
 1316TIP3    H1 3954   0.562   3.359   1.522 -0.1399 -1.9555  1.4182
 1316TIP3    H2 3955   0.700   3.344   1.582  1.0895 -0.6393 -0.9162
 1317TIP3   OH2 3956   3.722   5.614   4.090  0.7908  0.6172 -0.3041
 1317TIP3    H1 3957   3.768   5.587   4.010  1.4532  0.0211  0.2580
 1317TIP3    H2 3958   3.790   5.655   4.144  0.5030  0.3971  0.2382
 1318TIP3   OH2 3959   1.086   0.149   0.060 -0.0560 -0.0795 -0.0915
 1318TIP3    H1 3960   1.150   0.079   0.076 -1.2244 -0.8129  1.6339
 1318TIP3    H2 3961   1.124   0.226   0.101  0.1707 -0.2884  0.0957
 1319TIP3   OH2 3962   3.762   0.723   2.855  0.1663 -0.0144 -0.2370
 1319TIP3    H1 3963   3.730   0.811   2.835 -0.6138 -0.3842 -0.6796
 1319TIP3    H2 3964   3.846   0.717   2.810  0.6156  0.7817  0.4777
 1320TIP3   OH2 3965   4.615   0.779   1.973 -0.6384  0.2179  0.5194
 1320TIP3    H1 3966   4.523   0.804   1.986 -0.6306  0.9804 -0.7225
 1320TIP3    H2 3967   4.646   0.756   2.060 -1.7903  0.7063  1.0800
 1321TIP3   OH2 3968   1.424   2.249   3.507 -0.4460  0.1111  0.2745
 1321TIP3    H1 3969   1.354   2.208   3.557 -0.6812 -0.4548 -0.4920
 1321TIP3    H2 3970   1.378   2.305   3.443 -0.3383 -1.6622 -1.4698
 1322TIP3   OH2 3971   5.790   2.132   1.117 -0.0895  0.4506 -0.5691
 1322TIP3    H1 3972   5.716   2.086   1.076 -0.5345  0.4199  0.2489
 1322TIP3    H2 3973   5.829   2.067   1.175  0.8063  0.3629 -1.2426
 1323TIP3   OH2 3974   5.035   2.653   4.085  0.2324 -0.2285  0.5696
 1323TIP3    H1 3975   5.103   2.719   4.086 -0.2151  0.2669 -0.5165
 1323TIP3    H2 3976   4.957   2.698   4.117 -0.2015 -0.0623 -0.6713
 1324TIP3   OH2 3977   3.587   4.166   0.227 -0.3389 -0.2097 -0.2037
 1324TIP3    H1 3978   3.654   4.161   0.295 -0.4659 -1.0120 -0.1257
 1324TIP3    H2 3979   3.633   4.147   0.146 -0.1864  0.7547 -0.3522
 1325TIP3   OH2 3980   4.793   4.124   1.638 -0.3528  0.1661  0.0724
 1325TIP3    H1 3981   4.781   4.069   1.560  1.3712 -0.4189  0.1659
 1325TIP3    H2 3982   4.733   4.197   1.626 -0.3643 -0.0877 -1.6457
 1326TIP3   OH2 3983   0.966   1.463   1.485  0.6116  0.1225 -0.3926
 1326TIP3    H1 3984   0.924   1.536   1.440 -0.5208 -0.3654 -0.1363
 1326TIP3    H2 3985   0.901   1.432   1.547  1.5235 -0.3455  0.3574
 1327TIP3   OH2 3986   1.294   1.036   2.945  0.8568  0.1315  0.2718
 1327TIP3    H1 3987   1.232   1.085   2.890 -0.2276 -2.5075 -1.0356
 1327TIP3    H2 3988   1.364   1.012   2.885  0.8963 -0.6978  0.6485
 1328TIP3   OH2 3989   0.737   2.250   0.841 -0.8058 -0.1237  0.2020
 1328TIP3    H1 3990   0.816   2.234   0.790 -2.1724 -0.3827 -1.9979
 1328TIP3    H2 3991   0.768   2.282   0.925  1.6451 -1.4376 -0.1180
 1329TIP3   OH2 3992   5.664   3.759   1.939  0.3395 -0.0080  0.2186
 1329TIP3    H1 3993   5.635   3.820   1.870 -0.4833  0.4635  0.9485
 1329TIP3    H2 3994   5.712   3.815   2.001  1.0836 -0.4299  0.0301
 1330TIP3   OH2 3995   6.068   1.690   2.693 -0.3158 -0.0409 -0.0302
 1330TIP3    H1 3996   5.998   1.702   2.628 -2.2377 -0.7122  1.8113
 1330TIP3    H2 3997   6.031   1.629   2.757  0.6946  2.0725  2.7447
 1331TIP3   OH2 3998   0.648   0.474   2.567  0.2435 -0.1699  0.5694
 1331TIP3    H1 3999   0.565   0.512   2.537 -0.0536  0.3841  1.9939
 1331TIP3    H2 4000   0.704   0.473   2.489 -0.8947  0.0187 -0.2695
 1332TIP3   OH2 4001   6.055   3.042   3.443 -0.2190 -0.2676  0.0742
 1332TIP3    H1 4002   6.009   3.119   3.476 -0.8106 -0.8625  0.6720
 1332TIP3    H2 4003   5.986   2.984   3.410  0.2678 -0.2516 -1.0237
 1333TIP3   OH2 4004   2.364   0.464   2.394  0.4284 -0.1220  0.0871
 1333TIP3    H1 4005   2.274   0.472   2.425 -0.0577  1.3104 -1.5621
 1333TIP3    H2 4006   2.366   0.380   2.348 -0.0429 -0.1844  0.1719
 1334TIP3   OH2 4007   0.767   3.561   2.086  0.1038 -0.2606  0.1648
 1334TIP3    H1 4008   0.764   3.654   2.064  2.3357 -0.1845 -0.0326
 1334TIP3    H2 4009   0.677   3.531   2.076 -0.8629  2.0806  1.1914
 1335TIP3   OH2 4010   3.094   3.490   0.760  0.0721  0.4433  0.1696
 1335TIP3    H1 4011   3.165   3.456   0.706  1.8466  2.9177  0.8003
 1335TIP3    H2 4012   3.101   3.585   0.753 -2.3921  0.7860  1.3007
 1336TIP3   OH2 4013   2.203   1.772   1.153  0.0112  0.3073  0.9779
 1336TIP3    H1 4014   2.254   1.848   1.123 -0.4822 -0.1603 -1.2556
 1336TIP3    H2 4015   2.112   1.801   1.149 -0.1371 -0.1702  0.7502
 1337TIP3   OH2 4016   4.204   1.139   4.487  0.2805 -0.0007 -0.4106
 1337TIP3    H1 4017   4.248   1.187   4.417  2.8060 -2.3735 -0.6024
 1337TIP3    H2 4018   4.244   1.174   4.567 -0.8171  0.9819 -0.2721
 1338TIP3   OH2 4019   3.467   2.684   1.648  0.7313  0.3084 -0.0737
 1338TIP3    H1 4020   3.436   2.594   1.640  0.5638  0.1230  2.2360
 1338TIP3    H2 4021   3.407   2.726   1.710  0.1425  2.3744 -1.8997
 1339TIP3   OH2 4022   3.483   2.687   3.281 -0.2814 -0.0930 -0.0834
 1339TIP3    H1 4023   3.555   2.624   3.287 -0.1130  0.0882 -0.2346
 1339TIP3    H2 4024   3.413   2.638   3.237 -0.2019 -0.2216 -0.0691
 1340TIP3   OH2 4025   3.030   3.422   0.068  0.2015  0.0334 -0.5618
 1340TIP3    H1 4026   3.002   3.500   0.019  1.4076  0.6122 -0.3617
 1340TIP3    H2 4027   3.102   3.452   0.122 -2.4540 -0.0202  3.4050
 1341TIP3   OH2 4028   3.322   0.957   2.191  0.2705 -0.1778 -0.2745
 1341TIP3    H1 4029   3.369   0.966   2.108  2.5523 -0.7701  0.8846
 1341TIP3    H2 4030   3.310   0.863   2.202 -0.8071 -0.0601 -0.3036
 1342TIP3   OH2 4031   5.478   5.886   1.751  0.2627 -0.0740 -0.2044
 1342TIP3    H1 4032   5.541   5.858   1.684  1.6844 -1.9043  1.7573
 1342TIP3    H2 4033   5.395   5.895   1.704  1.3079 -0.7554 -2.3037
 1343TIP3   OH2 4034   3.382   0.549   4.381 -0.3195 -0.1926  0.4598
 1343TIP3    H1 4035   3.389   0.454   4.383  0.1375 -0.1457  1.4177
 1343TIP3    H2 4036   3.356   0.569   4.291  0.1120 -1.1802  0.1059
 1344TIP3   OH2 4037   4.559   5.563   4.690  0.5712  0.0482 -0.6328
 1344TIP3    H1 4038   4.482   5.524   4.730 -1.7228  1.2116 -3.5110
 1344TIP3    H2 4039   4.580   5.639   4.744  0.6551 -1.0797  0.9784
 1345TIP3   OH2 4040   4.669   3.277   2.285  0.1930  0.1295 -0.6000
 1345TIP3    H1 4041   4.647   3.195   2.241 -1.3529  0.3041 -0.1854
 1345TIP3    H2 4042   4.688   3.338   2.214  1.0600 -0.4852 -0.9175
 1346TIP3   OH2 4043   4.253   4.942   2.180 -0.5223  0.0811  0.1451
 1346TIP3    H1 4044   4.256   5.028   2.223  1.2982  0.0530  0.1683
 1346TIP3    H2 4045   4.250   4.879   2.253  2.4020  0.0393  0.3499
 1347TIP3   OH2 4046   4.040   4.549   3.888  0.7344 -0.1064  0.1269
 1347TIP3    H1 4047   3.994   4.605   3.826  0.9719 -0.3088 -0.2346
 1347TIP3    H2 4048   3.972   4.496   3.928  0.5553  0.1698  0.1898
 1348TIP3   OH2 4049   4.762   5.414   0.301  0.0699 -0.0342  0.5810
 1348TIP3    H1 4050   4.844   5.366   0.309 -0.5512 -1.2834 -0.1968
 1348TIP3    H2 4051   4.694   5.346   0.309 -0.8369  0.6549 -0.8866
 1349TIP3   OH2 4052   4.200   5.785   0.542  0.4935 -0.5942 -0.1542
 1349TIP3    H1 4053   4.126   5.733   0.575  0.4406  0.0482  0.7861
 1349TIP3    H2 4054   4.200   5.770   0.448 -0.1451 -1.4925 -0.0255
 1350TIP3   OH2 4055   4.085   2.428   2.061 -0.1972  0.5940  0.1762
 1350TIP3    H1 4056   4.159   2.486   2.078  0.8084 -0.4850 -0.3251
 1350TIP3    H2 4057   4.071   2.382   2.144  0.7538 -0.3180 -0.1340
 1351TIP3   OH2 4058   2.245   0.073   3.236  0.2500  0.5072  0.5305
 1351TIP3    H1 4059   2.242  -0.008   3.185 -1.8871  0.1730  1.0539
 1351TIP3    H2 4060   2.180   0.130   3.195  1.7601  2.0190  0.1448
 1352TIP3   OH2 4061   1.068   4.787   3.044 -0.5064  0.0710 -0.3380
 1352TIP3    H1 4062   0.988   4.777   3.096 -0.5787 -1.0716 -0.6392
 1352TIP3    H2 4063   1.058   4.872   3.002 -1.7430 -0.2026 -0.6543
 1353TIP3   OH2 4064   1.797   3.703   4.586 -0.0209  0.7184  0.3673
 1353TIP3    H1 4065   1.859   3.756   4.537  0.7514 -0.4758  0.0004
 1353TIP3    H2 4066   1.818   3.719   4.678  3.3571 -2.3282  0.3317
 1354TIP3   OH2 4067   3.162   1.686   2.785 -0.3082 -0.4196 -0.1364
 1354TIP3    H1 4068   3.229   1.640   2.734 -0.3098  0.6809 -1.1843
 1354TIP3    H2 4069   3.103   1.617   2.815 -1.2293 -1.0299 -3.0130
 1355TIP3   OH2 4070   1.116   0.347   1.121 -0.6167  0.1856 -0.1814
 1355TIP3    H1 4071   1.154   0.298   1.194  0.5769 -0.0376 -0.9150
 1355TIP3    H2 4072   1.023   0.325   1.123 -0.5430 -0.1123  1.0304
 1356TIP3   OH2 4073   3.748   1.796   1.365  0.3230 -0.0262  0.0626
 1356TIP3    H1 4074   3.789   1.735   1.304 -0.0341  1.9354 -2.2477
 1356TIP3    H2 4075   3.656   1.798   1.339  0.1979  0.9929  0.5360
 1357TIP3   OH2 4076   4.414   2.085   0.777  0.4324  0.3924  0.0137
 1357TIP3    H1 4077   4.398   2.177   0.795  0.4806  1.2180 -3.5269
 1357TIP3    H2 4078   4.480   2.059   0.841 -0.8975  2.2182  2.2818
 1358TIP3   OH2 4079   2.840   0.340   3.845  0.1062 -0.1503 -0.8689
 1358TIP3    H1 4080   2.830   0.304   3.757  1.3510  0.8362 -1.4402
 1358TIP3    H2 4081   2.772   0.297   3.896  0.4079 -1.9601 -1.9243
 1359TIP3   OH2 4082   1.716   3.791   3.365  0.1644 -0.1491 -0.1205
 1359TIP3    H1 4083   1.622   3.772   3.360  0.5588 -1.9540 -2.5825
 1359TIP3    H2 4084   1.722   3.886   3.353 -1.3025 -0.2467 -2.3236
 1360TIP3   OH2 4085   3.691   5.164   1.437 -0.2335 -0.0017 -0.1233
 1360TIP3    H1 4086   3.706   5.114   1.356  0.3685  0.6857 -0.4473
 1360TIP3    H2 4087   3.701   5.255   1.410  1.8174  0.1902  1.0869
 1361TIP3   OH2 4088  -0.006   1.180   2.109 -0.0966 -0.0449 -0.4838
 1361TIP3    H1 4089   0.049   1.209   2.036  0.6611 -0.4643 -0.1040
 1361TIP3    H2 4090   0.042   1.207   2.188 -0.1653 -0.8631 -0.1409
 1362TIP3   OH2 4091   3.741   5.359   1.145 -0.3668 -0.4174 -0.2674
 1362TIP3    H1 4092   3.660   5.325   1.184 -1.0324  1.1605 -0.2082
 1362TIP3    H2 4093   3.712   5.415   1.074  0.6916  0.0587 -0.3422
 1363TIP3   OH2 4094   3.128   3.227   4.020  0.2151 -0.3544  0.2292
 1363TIP3    H1 4095   3.173   3.226   3.935 -0.1609  1.0932 -0.0122
 1363TIP3    H2 4096   3.197   3.241   4.084  0.4235 -0.8480  0.1215
 1364TIP3   OH2 4097   4.903   1.508   1.643 -0.0685 -0.1823  0.2991
 1364TIP3    H1 4098   4.927   1.510   1.550 -0.2976 -0.0130  0.2418
 1364TIP3    H2 4099   4.984   1.527   1.689  0.5055 -2.1704  0.2196
 1365TIP3   OH2 4100   3.857   4.275   2.748 -0.4463  0.1477 -0.2671
 1365TIP3    H1 4101   3.796   4.281   2.674 -2.1315  1.1658  1.1540
 1365TIP3    H2 4102   3.803   4.290   2.825  1.3410 -0.5365  1.1797
 1366TIP3   OH2 4103   5.605   2.853   3.471  0.1293  0.0002  0.7377
 1366TIP3    H1 4104   5.588   2.802   3.550  0.4590  0.0382  0.8328
 1366TIP3    H2 4105   5.632   2.939   3.503  0.3691 -0.0186  0.5824
 1367TIP3   OH2 4106   1.925   4.719   4.922  0.0043 -0.0508  0.0072
 1367TIP3    H1 4107   1.923   4.639   4.974  0.3004 -0.6958 -0.9515
 1367TIP3    H2 4108   2.002   4.709   4.866 -0.7143  0.2975 -1.0610
 1368TIP3   OH2 4109   2.553   2.161   4.199 -0.5077 -0.1843 -0.7668
 1368TIP3    H1 4110   2.470   2.130   4.163 -0.3956 -0.8268 -0.4757
 1368TIP3    H2 4111   2.611   2.169   4.123  0.3596 -3.4641 -0.5714
 1369TIP3   OH2 4112   0.070   2.227   5.006 -0.0705 -0.2335 -0.1301
 1369TIP3    H1 4113   0.018   2.222   4.925 -0.4281  2.4149 -0.1592
 1369TIP3    H2 4114   0.155   2.260   4.978  0.9034 -2.2869  0.2367
 1370TIP3   OH2 4115   4.625   5.351   3.947  0.3278  0.5085 -0.7857
 1370TIP3    H1 4116   4.586   5.365   4.034 -0.8321  0.0551 -1.2012
 1370TIP3    H2 4117   4.718   5.365   3.960  0.1553  0.6460  0.4951
 1371TIP3   OH2 4118   3.852   4.631   4.549  0.2395 -0.2995  0.5822
 1371TIP3    H1 4119   3.760   4.654   4.539  0.1712  0.4225  2.5144
 1371TIP3    H2 4120   3.853   4.536   4.557 -0.2869 -0.3448  0.1634
 1372TIP3   OH2 4121   5.221   1.595   3.380  0.3426  1.0762 -0.3375
 1372TIP3    H1 4122   5.145   1.652   3.388 -0.7618 -0.5298  1.4524
 1372TIP3    H2 4123   5.250   1.581   3.470  0.4323 -1.3387 -0.6881
 1373TIP3   OH2 4124   4.873   5.498   0.989  0.3846 -0.5805 -0.0890
 1373TIP3    H1 4125   4.912   5.565   0.932  0.7419  0.0268  0.8458
 1373TIP3    H2 4126   4.779   5.517   0.987  0.1069 -1.8716 -2.1209
 1374TIP3   OH2 4127   3.502   4.811   3.241  0.5649 -0.0118 -0.0876
 1374TIP3    H1 4128   3.434   4.878   3.239 -0.6160 -1.0801  2.0036
 1374TIP3    H2 4129   3.570   4.846   3.298 -0.5347 -0.9545  1.8829
 1375TIP3   OH2 4130   2.370   4.536   0.476 -0.0888 -0.3023 -0.1630
 1375TIP3    H1 4131   2.276   4.552   0.478 -0.0048  0.1285  0.4103
 1375TIP3    H2 4132   2.385   4.468   0.542 -0.0984 -0.9559 -0.8165
 1376TIP3   OH2 4133   2.355   5.103   4.762  0.2912  0.6047 -0.8415
 1376TIP3    H1 4134   2.347   5.176   4.823 -0.5101 -0.8542  0.8936
 1376TIP3    H2 4135   2.311   5.133   4.682  0.3900  2.1533 -0.3422
 1377TIP3   OH2 4136   5.665   1.772   1.059  0.2158 -0.2913 -0.9222
 1377TIP3    H1 4137   5.724   1.783   0.984 -1.2332 -0.5054 -2.1457
 1377TIP3    H2 4138   5.648   1.678   1.062 -1.2466 -0.0635 -1.5483
 1378TIP3   OH2 4139   2.308   1.065   1.607  0.0859  0.1235 -0.1317
 1378TIP3    H1 4140   2.383   1.010   1.630 -0.4816 -0.7028 -0.1974
 1378TIP3    H2 4141   2.286   1.111   1.688  0.8675  0.6397 -0.1998
 1379TIP3   OH2 4142   5.371   3.426   0.732 -0.1436  0.3732 -0.1839
 1379TIP3    H1 4143   5.368   3.359   0.664 -2.6369 -0.7172  0.8581
 1379TIP3    H2 4144   5.350   3.507   0.687  1.2784  0.2176 -1.1889
 1380TIP3   OH2 4145   0.876   5.664   1.309  0.2924 -0.0460 -0.1237
 1380TIP3    H1 4146   0.809   5.596   1.309  0.4768 -0.2496 -1.3673
 1380TIP3    H2 4147   0.834   5.740   1.269  0.3794  0.2862  0.3959
 1381TIP3   OH2 4148   3.930   5.812   4.162  0.3745  0.1632  0.1963
 1381TIP3    H1 4149   4.025   5.796   4.166  0.3362  0.1493  1.3666
 1381TIP3    H2 4150   3.899   5.791   4.250 -1.0902 -2.0768 -0.7977
 1382TIP3   OH2 4151   2.032   5.030   3.460  0.2374  0.4561 -1.1048
 1382TIP3    H1 4152   1.960   4.968   3.455  0.5212  0.1345 -1.2563
 1382TIP3    H2 4153   2.094   4.999   3.394  0.8058  0.3545 -0.5296
 1383TIP3   OH2 4154   2.981   0.914   4.696  0.9015  0.1348  0.5327
 1383TIP3    H1 4155   2.952   0.834   4.738 -0.8974  0.2929 -0.3077
 1383TIP3    H2 4156   2.906   0.974   4.704  1.3051  0.8888 -0.9661
 1384TIP3   OH2 4157   5.704   3.779   0.093  0.0630 -0.0809  0.1891
 1384TIP3    H1 4158   5.735   3.705   0.145  1.3409  0.7449  0.6746
 1384TIP3    H2 4159   5.766   3.784   0.020 -0.7654 -0.2471 -0.5374
 1385TIP3   OH2 4160   5.475   3.201   2.935 -0.2943  0.4207 -0.1944
 1385TIP3    H1 4161   5.536   3.161   2.873  0.5415  0.9578  0.2526
 1385TIP3    H2 4162   5.478   3.295   2.913 -3.1862  0.2128 -2.0837
 1386TIP3   OH2 4163   2.699   4.686   3.528 -0.0606 -0.3631  0.0848
 1386TIP3    H1 4164   2.757   4.619   3.493  0.7372  0.3902 -0.0498
 1386TIP3    H2 4165   2.611   4.649   3.518  0.3556 -1.3022 -0.1611
 1387TIP3   OH2 4166   3.467   1.598   4.318 -0.0400  0.2398 -0.3768
 1387TIP3    H1 4167   3.451   1.596   4.224  0.1591  0.1858 -0.4095
 1387TIP3    H2 4168   3.448   1.688   4.343 -4.1063 -0.5780  0.2432
 1388TIP3   OH2 4169   1.288   1.343   1.086 -0.1980  0.2580  0.2093
 1388TIP3    H1 4170   1.319   1.257   1.057 -2.8747 -0.7128 -0.0529
 1388TIP3    H2 4171   1.311   1.347   1.178  0.0036 -0.7279  0.2113
 1389TIP3   OH2 4172   3.170   3.744   0.676 -0.2105  0.3655 -0.1004
 1389TIP3    H1 4173   3.156   3.789   0.593 -2.4910 -0.2437 -0.1099
 1389TIP3    H2 4174   3.139   3.805   0.743  0.5664  0.4157  0.2236
 1390TIP3   OH2 4175   5.832   4.650   4.031  0.0329  0.2737 -0.0032
 1390TIP3    H1 4176   5.761   4.635   4.094  0.2196 -0.5888  0.0130
 1390TIP3    H2 4177   5.853   4.563   3.998  1.9458  0.3236  0.9184
 1391TIP3   OH2 4178   0.196   2.585   4.941  0.1992 -0.0143  0.4910
 1391TIP3    H1 4179   0.228   2.496   4.927 -1.5547 -0.6306  0.0931
 1391TIP3    H2 4180   0.256   2.640   4.891 -0.5160 -1.3177 -2.0305
 1392TIP3   OH2 4181   3.695   1.767   4.722 -0.1824 -0.1870 -0.1263
 1392TIP3    H1 4182   3.765   1.712   4.685  0.3583 -0.2560  0.9732
 1392TIP3    H2 4183   3.653   1.805   4.645  2.8834  2.1699 -0.8600
 1393TIP3   OH2 4184   5.881   2.425   4.008 -0.6977 -0.3292  0.0611
 1393TIP3    H1 4185   5.801   2.469   4.034 -0.3487  0.8212 -0.7557
 1393TIP3    H2 4186   5.951   2.475   4.049 -0.3873 -1.5656  1.1123
 1394TIP3   OH2 4187   5.319   1.068   5.128 -0.2049 -0.0365 -0.2388
 1394TIP3    H1 4188   5.371   1.000   5.172 -0.5485  0.1912  0.5282
 1394TIP3    H2 4189   5.285   1.025   5.049  1.5705 -0.0422 -1.0616
 1395TIP3   OH2 4190   1.168   1.109   3.779 -0.3537 -0.0800 -0.0438
 1395TIP3    H1 4191   1.095   1.152   3.735 -0.5000 -0.4772 -0.1926
 1395TIP3    H2 4192   1.219   1.181   3.817  0.7012  0.4262 -2.2587
 1396TIP3   OH2 4193   0.880   1.180   1.166  0.2850  0.0429 -0.0512
 1396TIP3    H1 4194   0.879   1.270   1.198  1.9513 -0.3602  1.2429
 1396TIP3    H2 4195   0.832   1.130   1.233  1.0058 -0.3075  0.2151
 1397TIP3   OH2 4196   5.449   1.169   0.487 -0.7317 -0.2622 -0.0497
 1397TIP3    H1 4197   5.498   1.158   0.568 -0.1654 -0.6070 -0.4312
 1397TIP3    H2 4198   5.433   1.263   0.481 -0.6788 -0.2223  0.3999
 1398TIP3   OH2 4199   4.361   2.058   4.435  0.7015 -0.5075  0.2135
 1398TIP3    H1 4200   4.412   2.138   4.445 -0.3601  0.1262  0.8166
 1398TIP3    H2 4201   4.270   2.087   4.442  0.2965 -1.7760  0.4392
 1399TIP3   OH2 4202   1.970   4.368   2.326 -0.1231 -0.2073  0.2665
 1399TIP3    H1 4203   1.909   4.439   2.305 -1.6700 -1.8463 -1.0965
 1399TIP3    H2 4204   1.929   4.322   2.399  0.5615 -0.0776  0.7377
 1400TIP3   OH2 4205   3.598   3.656   3.243  0.1488  0.0692  0.1696
 1400TIP3    H1 4206   3.686   3.665   3.281 -0.1789 -2.5494  1.7863
 1400TIP3    H2 4207   3.591   3.563   3.220 -1.9112  0.4029 -0.7468
 1401TIP3   OH2 4208   3.900   1.981   2.119 -0.4131 -0.7508  0.3386
 1401TIP3    H1 4209   3.814   1.986   2.162 -1.0191 -0.8835 -0.8003
 1401TIP3    H2 4210   3.896   1.900   2.068  0.5745 -0.9885  0.6130
 1402TIP3   OH2 4211   5.052   5.013   3.358 -0.3008 -0.4839  0.1735
 1402TIP3    H1 4212   5.108   5.005   3.435 -0.5676  0.5609  0.4937
 1402TIP3    H2 4213   5.017   5.102   3.363  1.1445  0.3235 -2.1309
 1403TIP3   OH2 4214   4.660   5.517   1.929  0.5956  0.7562 -0.4462
 1403TIP3    H1 4215   4.577   5.552   1.963  1.7667  3.6186 -0.2450
 1403TIP3    H2 4216   4.651   5.524   1.834  0.2220  0.0083 -0.4752
 1404TIP3   OH2 4217   0.368   5.254   2.529  0.0845  0.2148  0.0142
 1404TIP3    H1 4218   0.316   5.174   2.531  1.0025 -0.4245 -0.5502
 1404TIP3    H2 4219   0.331   5.309   2.598 -0.9591 -0.4382 -0.0003
 1405TIP3   OH2 4220   3.032   0.812   2.547 -0.2405  0.4972 -0.0236
 1405TIP3    H1 4221   2.938   0.815   2.562 -0.0141 -0.1907  1.7987
 1405TIP3    H2 4222   3.045   0.738   2.488 -1.0210  2.2131 -2.5385
 1406TIP3   OH2 4223   4.107   0.309   0.134  0.5911  0.1192  0.5564
 1406TIP3    H1 4224   4.186   0.348   0.171  0.3536 -0.6471  1.9077
 1406TIP3    H2 4225   4.074   0.376   0.074  1.0445  1.3626  1.6519
 1407TIP3   OH2 4226   6.350   1.823   4.400 -0.4198 -0.0257  0.5654
 1407TIP3    H1 4227   6.268   1.774   4.400 -0.8251  0.6274  0.9261
 1407TIP3    H2 4228   6.374   1.832   4.308  0.0216 -1.4610  0.5209
 1408TIP3   OH2 4229   2.574   5.033   3.612 -0.1705 -0.3605  0.3003
 1408TIP3    H1 4230   2.658   5.069   3.585 -1.5518  2.1328 -1.1026
 1408TIP3    H2 4231   2.537   4.994   3.533 -1.0042  0.0685  0.4591
 1409TIP3   OH2 4232   1.187   5.614   1.912 -0.3609  0.1860  0.0013
 1409TIP3    H1 4233   1.182   5.578   1.823 -1.6335  1.6334 -0.5483
 1409TIP3    H2 4234   1.122   5.684   1.913 -0.4518  0.1227  2.1247
 1410TIP3   OH2 4235   1.107   1.815   3.080 -0.3287 -0.6609 -0.0315
 1410TIP3    H1 4236   1.148   1.874   3.143  0.4612 -1.3992  0.1551
 1410TIP3    H2 4237   1.043   1.870   3.035  0.2175  0.2776  0.3034
 1411TIP3   OH2 4238   0.972   2.294   4.989  0.3032  0.0835  0.0708
 1411TIP3    H1 4239   1.029   2.322   5.061  0.0301 -0.2032  0.4006
 1411TIP3    H2 4240   0.949   2.203   5.011 -0.1244  0.1365 -0.1605
 1412TIP3   OH2 4241   4.689   0.631   3.385  0.0447  0.0697  0.2049
 1412TIP3    H1 4242   4.641   0.604   3.307 -2.3894  0.5714  1.4374
 1412TIP3    H2 4243   4.661   0.722   3.399  0.1056 -0.1520  1.8945
 1413TIP3   OH2 4244   0.939   5.159   4.799  0.3512  0.3767 -0.3095
 1413TIP3    H1 4245   0.890   5.239   4.819  2.3429  0.9962  2.8083
 1413TIP3    H2 4246   0.890   5.090   4.843 -0.8622 -0.0741 -2.2358
 1414TIP3   OH2 4247   5.427   4.865   4.512  0.2359  0.0552  0.5555
 1414TIP3    H1 4248   5.480   4.801   4.464  0.0163 -0.7519  1.3565
 1414TIP3    H2 4249   5.360   4.892   4.450  1.4595  0.9545 -0.4121
 1415TIP3   OH2 4250   4.821   3.101   1.738  0.1462  0.1950 -0.2871
 1415TIP3    H1 4251   4.769   3.032   1.779 -0.6891  1.4690  0.9013
 1415TIP3    H2 4252   4.892   3.055   1.693 -1.1952 -1.5022 -0.7340
 1416TIP3   OH2 4253   3.549   1.938   3.908 -0.2705  0.0732 -0.6781
 1416TIP3    H1 4254   3.568   1.847   3.931  1.0744 -0.0996 -2.2834
 1416TIP3    H2 4255   3.454   1.943   3.903 -0.3593 -1.2012 -0.4167
 1417TIP3   OH2 4256   3.950   3.567   0.542 -0.0886 -0.2183 -0.3175
 1417TIP3    H1 4257   3.899   3.597   0.616 -0.5504  0.9053 -1.0677
 1417TIP3    H2 4258   3.902   3.598   0.465  0.6396 -0.9210 -1.0813
 1418TIP3   OH2 4259   2.843   3.785   4.519 -0.3134 -0.0960  0.0225
 1418TIP3    H1 4260   2.906   3.857   4.516 -2.2567  1.7944  1.3785
 1418TIP3    H2 4261   2.772   3.813   4.461 -0.7662 -1.2864 -0.0093
 1419TIP3   OH2 4262   4.518   3.940   2.514 -0.5873  0.2841  0.0319
 1419TIP3    H1 4263   4.547   3.888   2.590 -0.6431 -0.3743 -0.3889
 1419TIP3    H2 4264   4.595   3.942   2.457 -0.9879 -0.4896 -0.5623
 1420TIP3   OH2 4265   0.559   2.883   2.883  0.2187  0.4815 -0.2624
 1420TIP3    H1 4266   0.571   2.922   2.797  0.9301  0.2796 -0.2658
 1420TIP3    H2 4267   0.512   2.949   2.933 -1.4405  0.0489 -1.1950
 1421TIP3   OH2 4268   3.299   2.105   2.169  0.4122  0.3190 -0.3586
 1421TIP3    H1 4269   3.383   2.072   2.137  0.5815  1.9231 -1.6959
 1421TIP3    H2 4270   3.291   2.193   2.131 -1.3158  0.6909  0.7290
 1422TIP3   OH2 4271   4.826   4.677   0.741  0.0216  0.2841  0.1506
 1422TIP3    H1 4272   4.858   4.714   0.823 -1.5103 -0.3598  1.0853
 1422TIP3    H2 4273   4.902   4.678   0.683  1.0126  1.2146  1.4086
 1423TIP3   OH2 4274   5.219   3.142   3.346 -0.5314  0.2049 -0.2294
 1423TIP3    H1 4275   5.160   3.212   3.372 -1.8114 -1.5934  2.1072
 1423TIP3    H2 4276   5.163   3.064   3.342  1.2718 -1.1653 -0.2582
 1424TIP3   OH2 4277   6.165   3.881   1.238  0.2097 -0.8051  0.0501
 1424TIP3    H1 4278   6.181   3.865   1.145 -0.1150  0.8269 -0.3205
 1424TIP3    H2 4279   6.113   3.806   1.267 -2.1502  0.0094 -1.7849
 1425TIP3   OH2 4280   1.903   2.944   0.377 -0.8409  0.1470 -0.6216
 1425TIP3    H1 4281   1.964   2.920   0.307 -0.3825 -0.6538  0.0380
 1425TIP3    H2 4282   1.874   3.032   0.354  2.3220  1.5256  0.2329
 1426TIP3   OH2 4283   0.452   5.740   1.423 -0.3511  0.4427  0.5011
 1426TIP3    H1 4284   0.533   5.689   1.417 -0.9062 -0.4442  0.2664
 1426TIP3    H2 4285   0.389   5.680   1.464 -1.2193  0.6880 -0.4131
 1427TIP3   OH2 4286   5.535   2.764   2.078  0.3071 -0.4101 -0.1280
 1427TIP3    H1 4287   5.552   2.698   2.011  1.4675 -0.6705  0.3887
 1427TIP3    H2 4288   5.540   2.716   2.161 -0.3882  0.0435  0.1878
 1428TIP3   OH2 4289   2.283   5.669   1.777  0.1625  0.1388  0.6473
 1428TIP3    H1 4290   2.213   5.735   1.767  0.7633  0.8286  0.9290
 1428TIP3    H2 4291   2.239   5.586   1.759 -0.7198  0.5679  0.7214
 1429TIP3   OH2 4292   3.055   2.302   4.617  0.2097 -0.0929  0.1565
 1429TIP3    H1 4293   3.108   2.349   4.553  0.8250  0.2540  0.8950
 1429TIP3    H2 4294   3.053   2.360   4.693 -2.2441  0.4427 -0.2514
 1430TIP3   OH2 4295   4.601   4.518   0.703  0.5265  0.3113 -0.4678
 1430TIP3    H1 4296   4.684   4.553   0.737  1.2369 -1.2670 -0.4755
 1430TIP3    H2 4297   4.534   4.566   0.752  1.4880 -0.1904  1.4803
 1431TIP3   OH2 4298   3.019   0.894   0.377 -0.0577  0.4254  0.4225
 1431TIP3    H1 4299   3.017   0.932   0.464 -0.6271  0.9077  0.2087
 1431TIP3    H2 4300   3.111   0.870   0.363 -0.2010 -1.0392  1.7229
 1432TIP3   OH2 4301   6.172   1.987   3.094  0.2263 -0.3089 -0.5087
 1432TIP3    H1 4302   6.198   1.896   3.086  1.1485 -0.0691 -0.4049
 1432TIP3    H2 4303   6.205   2.014   3.180 -0.3401  0.0247 -0.3916
 1433TIP3   OH2 4304   4.208   3.236   0.480  0.4561  0.6284  0.2151
 1433TIP3    H1 4305   4.287   3.282   0.450  1.0234  1.3834  2.6126
 1433TIP3    H2 4306   4.173   3.293   0.549 -1.7887 -0.0727 -0.2821
 1434TIP3   OH2 4307   1.874   1.312   1.643  0.3496 -0.6724 -0.4530
 1434TIP3    H1 4308   1.888   1.374   1.714 -0.3914 -0.6553 -0.3109
 1434TIP3    H2 4309   1.925   1.235   1.668  0.8901 -0.2970 -0.3973
 1435TIP3   OH2 4310   1.471   1.141   2.688  0.7084  0.0388  0.8990
 1435TIP3    H1 4311   1.538   1.150   2.620  0.0054  0.5855  0.2743
 1435TIP3    H2 4312   1.504   1.070   2.743  1.8757  0.3909  0.6907
 1436TIP3   OH2 4313   0.805   3.006   0.334 -0.1916  0.5189 -0.1950
 1436TIP3    H1 4314   0.869   3.051   0.389 -0.4922  0.2767  0.3625
 1436TIP3    H2 4315   0.785   2.925   0.381 -1.7379  1.1027  0.2158
 1437TIP3   OH2 4316   5.664   1.610   4.414 -0.0176 -0.0227 -0.1854
 1437TIP3    H1 4317   5.717   1.572   4.344  0.5279  0.6473 -0.1460
 1437TIP3    H2 4318   5.594   1.656   4.369 -0.2334 -0.4156 -0.2563
 1438TIP3   OH2 4319   0.162   4.259   5.142 -0.1169 -0.4899 -0.4371
 1438TIP3    H1 4320   0.223   4.333   5.141 -0.4224 -0.2438 -1.0346
 1438TIP3    H2 4321   0.178   4.214   5.059  0.3887 -1.3667  0.1183
 1439TIP3   OH2 4322   4.831   3.470   0.081 -0.4563  0.8088  0.3237
 1439TIP3    H1 4323   4.785   3.524   0.017 -0.5704  0.4873  0.1275
 1439TIP3    H2 4324   4.762   3.416   0.121 -0.1303 -0.4970 -0.7808
 1440TIP3   OH2 4325   1.043   3.173   5.068  0.0031 -0.0972 -0.0401
 1440TIP3    H1 4326   1.086   3.258   5.060 -1.1837  0.4356 -1.2616
 1440TIP3    H2 4327   0.993   3.179   5.149 -0.3657  0.5290 -0.3038
 1441TIP3   OH2 4328   0.351   1.490   2.539 -0.4520  0.6574 -0.1795
 1441TIP3    H1 4329   0.353   1.486   2.443 -2.0424 -0.8814 -0.1928
 1441TIP3    H2 4330   0.418   1.555   2.561  0.6004  0.3892 -2.2855
 1442TIP3   OH2 4331   3.309   2.978   2.019 -0.1130  0.6982  0.2250
 1442TIP3    H1 4332   3.293   3.073   2.027 -0.4081  0.8557 -1.7042
 1442TIP3    H2 4333   3.352   2.954   2.101  0.1485  2.5452  0.6786
 1443TIP3   OH2 4334   5.423   0.089   4.077  0.2857 -0.2419  0.0683
 1443TIP3    H1 4335   5.486   0.107   4.146 -0.8351 -0.8888  1.3085
 1443TIP3    H2 4336   5.363   0.024   4.115 -0.8950  0.0621 -1.1805
 1444TIP3   OH2 4337   1.745   5.181   3.978 -0.4870 -1.1129  0.0482
 1444TIP3    H1 4338   1.814   5.115   3.989  0.0725 -0.5030  0.2528
 1444TIP3    H2 4339   1.789   5.265   3.993 -0.7440 -0.5316 -2.0599
 1445TIP3   OH2 4340   2.499   5.372   0.589 -0.4325  0.0334 -0.0693
 1445TIP3    H1 4341   2.538   5.438   0.646  0.8356 -0.2362 -0.5667
 1445TIP3    H2 4342   2.555   5.295   0.602 -2.7517 -1.4929  1.6542
 1446TIP3   OH2 4343   4.079   3.222   2.593  0.7316 -0.3471  0.5193
 1446TIP3    H1 4344   4.033   3.263   2.666  1.7079  0.3905  0.7528
 1446TIP3    H2 4345   4.166   3.203   2.627  0.8393 -1.0505 -0.1199
 1447TIP3   OH2 4346   3.642   2.929   3.278  0.6411  0.5273 -0.0258
 1447TIP3    H1 4347   3.621   2.994   3.211  0.5719  1.4019  0.8361
 1447TIP3    H2 4348   3.583   2.855   3.258  0.9003  0.6059 -1.1597
 1448TIP3   OH2 4349   3.028   0.776   4.445  0.1257  0.2176  0.3882
 1448TIP3    H1 4350   2.943   0.786   4.401  0.8891  1.3017 -0.8996
 1448TIP3    H2 4351   3.015   0.816   4.531 -0.8233 -0.1261  0.4161
 1449TIP3   OH2 4352   3.380   5.900   3.177  0.2517 -0.3285 -0.1455
 1449TIP3    H1 4353   3.396   5.972   3.238  0.3408 -1.0870  0.7374
 1449TIP3    H2 4354   3.415   5.932   3.093 -2.4922  1.9594 -0.6166
 1450TIP3   OH2 4355   1.430   3.843   4.206 -0.3266 -0.6615  0.4573
 1450TIP3    H1 4356   1.371   3.823   4.278  0.1584  0.3565  1.1571
 1450TIP3    H2 4357   1.383   3.907   4.153 -0.5910 -1.2418 -0.0251
 1451TIP3   OH2 4358   1.595   0.383   4.231  0.6976  0.2028  0.4719
 1451TIP3    H1 4359   1.643   0.452   4.277 -1.5809  1.3694  1.2835
 1451TIP3    H2 4360   1.564   0.326   4.301 -1.2651  0.9669  0.2909
 1452TIP3   OH2 4361   1.299   5.720   2.200 -0.1617  0.0363  0.2963
 1452TIP3    H1 4362   1.381   5.747   2.158 -0.4561 -0.4043 -0.5965
 1452TIP3    H2 4363   1.248   5.801   2.205  0.0586  0.1826  0.2045
 1453TIP3   OH2 4364   0.155   5.974   0.672 -0.2122 -0.7311  0.0823
 1453TIP3    H1 4365   0.217   5.938   0.735 -0.1353 -0.7803 -0.0227
 1453TIP3    H2 4366   0.072   5.978   0.720  0.3280  1.3727  0.9528
 1454TIP3   OH2 4367   0.566   5.431   4.544 -0.2895 -0.2117  0.2801
 1454TIP3    H1 4368   0.622   5.458   4.471 -2.7824  0.0557 -1.6451
 1454TIP3    H2 4369   0.572   5.335   4.545 -0.8930 -0.2713 -0.8594
 1455TIP3   OH2 4370   2.960   1.746   2.317  0.5820  0.1494  0.1810
 1455TIP3    H1 4371   2.971   1.755   2.222 -2.0342  0.0815 -0.1928
 1455TIP3    H2 4372   2.924   1.831   2.345 -0.8357 -0.5850  0.6912
 1456TIP3   OH2 4373   5.219   1.974   4.590 -0.3793 -0.0405  0.1052
 1456TIP3    H1 4374   5.184   1.897   4.545  1.0189  0.3107 -1.6953
 1456TIP3    H2 4375   5.222   2.042   4.522 -2.2386  1.8801  1.8025
 1457TIP3   OH2 4376   1.533   0.032   0.122 -0.0307  0.3620  0.0789
 1457TIP3    H1 4377   1.614  -0.007   0.153  0.0947  1.3501  1.0300
 1457TIP3    H2 4378   1.526   0.115   0.169 -0.6511  1.1734 -1.3485
 1458TIP3   OH2 4379   5.539   2.218   5.172  0.2745  0.5241 -0.7620
 1458TIP3    H1 4380   5.593   2.295   5.191  1.0045 -0.2184  0.3463
 1458TIP3    H2 4381   5.556   2.199   5.080  0.4280  1.4217 -0.9311
 1459TIP3   OH2 4382   3.120   2.318   0.611  0.4817  0.5984  0.1340
 1459TIP3    H1 4383   3.190   2.382   0.597 -0.4936  1.4826 -0.8793
 1459TIP3    H2 4384   3.082   2.342   0.696  0.5906  0.9160  0.0937
 1460TIP3   OH2 4385   3.092   2.949   4.578  0.2304  0.1583 -0.3306
 1460TIP3    H1 4386   3.179   2.959   4.617  0.9825 -0.5000 -1.7854
 1460TIP3    H2 4387   3.071   3.035   4.542  0.1173  0.4030  0.3016
 1461TIP3   OH2 4388   4.009   1.558   3.584  0.0211 -0.0614 -0.0199
 1461TIP3    H1 4389   4.055   1.541   3.501  0.1169 -1.8986  0.3719
 1461TIP3    H2 4390   3.918   1.538   3.565 -0.6722  3.1394 -0.6616
 1462TIP3   OH2 4391   0.988   4.501   1.934 -0.7039 -0.1632 -0.0644
 1462TIP3    H1 4392   0.912   4.449   1.959  0.4461 -1.2209  1.4288
 1462TIP3    H2 4393   0.953   4.590   1.924 -2.3915 -0.8732 -0.9767
 1463TIP3   OH2 4394   4.404   5.682   1.723  0.4040  0.4527 -0.0230
 1463TIP3    H1 4395   4.318   5.644   1.734  0.6138  0.1923  0.7885
 1463TIP3    H2 4396   4.425   5.720   1.808  2.0583 -1.5330  0.5455
 1464TIP3   OH2 4397   3.677   5.893   1.979 -0.3267 -0.2682  0.3700
 1464TIP3    H1 4398   3.713   5.835   1.912 -0.7180  0.0747 -0.1433
 1464TIP3    H2 4399   3.634   5.835   2.041  3.2078 -0.9898  2.4235
 1465TIP3   OH2 4400   2.101   0.577   2.519  0.3589  0.1803  1.3136
 1465TIP3    H1 4401   2.121   0.644   2.453  1.4070 -1.4797 -0.1186
 1465TIP3    H2 4402   2.053   0.509   2.472  3.5073 -2.3690  1.4475
 1466TIP3   OH2 4403   2.084   0.314   0.888  0.1140  0.0176  0.3214
 1466TIP3    H1 4404   2.177   0.302   0.911  0.1699 -1.7623 -0.6129
 1466TIP3    H2 4405   2.064   0.403   0.914  1.1153 -0.6360  3.8181
 1467TIP3   OH2 4406   5.851   1.166   0.227  0.8354 -0.3693 -0.8629
 1467TIP3    H1 4407   5.888   1.081   0.250 -1.4868 -0.9452  1.1993
 1467TIP3    H2 4408   5.884   1.225   0.295  0.9601 -0.0353 -1.2128
 1468TIP3   OH2 4409   1.661   1.688   0.831 -0.2330 -0.0353  0.6865
 1468TIP3    H1 4410   1.681   1.687   0.738  3.1578 -4.2953  1.1559
 1468TIP3    H2 4411   1.597   1.618   0.843 -1.8078  1.4503  1.5339
 1469TIP3   OH2 4412   2.815   3.821   1.225  0.0946 -0.0846  0.1815
 1469TIP3    H1 4413   2.872   3.820   1.148  0.2535 -1.6094  0.2863
 1469TIP3    H2 4414   2.875   3.825   1.299 -0.0801  2.1484  0.2435
 1470TIP3   OH2 4415   5.642   1.624   2.202  0.2832 -0.3462  0.7149
 1470TIP3    H1 4416   5.685   1.550   2.160 -2.0884 -2.1194  1.2315
 1470TIP3    H2 4417   5.607   1.676   2.130  0.6010 -0.5945  0.3810
 1471TIP3   OH2 4418   5.311   2.110   0.917 -0.2919 -0.7774  0.1662
 1471TIP3    H1 4419   5.316   2.166   0.839 -1.0418 -1.5587 -0.4720
 1471TIP3    H2 4420   5.353   2.029   0.891 -1.1276 -1.2831  0.3361
 1472TIP3   OH2 4421   1.244   2.590   0.868  0.1384 -0.2331 -0.0112
 1472TIP3    H1 4422   1.302   2.534   0.918 -0.9540 -0.5081  1.0062
 1472TIP3    H2 4423   1.165   2.597   0.922  1.1138  4.5013  1.3245
 1473TIP3   OH2 4424   3.172   4.311   2.139  0.1226  0.0828 -0.1073
 1473TIP3    H1 4425   3.143   4.298   2.229 -0.4306 -1.6913 -0.5105
 1473TIP3    H2 4426   3.150   4.402   2.120 -0.0586  0.3878  1.4240
 1474TIP3   OH2 4427   0.548   5.209   0.014 -0.1409 -0.5206 -0.1219
 1474TIP3    H1 4428   0.612   5.208   0.084  1.2629  0.0587 -1.3424
 1474TIP3    H2 4429   0.471   5.250   0.052  0.5454 -0.3322  1.1041
 1475TIP3   OH2 4430   2.081   4.518   3.846 -0.6000  0.4859  0.3937
 1475TIP3    H1 4431   2.117   4.592   3.893 -2.4226  1.0843  0.9323
 1475TIP3    H2 4432   2.145   4.448   3.857  1.1974  1.9795 -0.2165
 1476TIP3   OH2 4433   4.879   5.157   1.833  0.5043  0.4333  0.4609
 1476TIP3    H1 4434   4.893   5.165   1.738 -1.3072 -1.4500 -0.0205
 1476TIP3    H2 4435   4.879   5.248   1.864  1.4960  1.0752 -1.2651
 1477TIP3   OH2 4436   0.213   1.359   1.090  0.0155 -0.6019  0.5629
 1477TIP3    H1 4437   0.131   1.339   1.135  0.0263 -0.8564  0.4695
 1477TIP3    H2 4438   0.252   1.429   1.143 -1.2612  1.0510 -0.5789
 1478TIP3   OH2 4439   6.319   2.390   4.009 -0.2618  0.0773  0.0913
 1478TIP3    H1 4440   6.401   2.387   3.959 -0.5097 -0.3666 -0.2902
 1478TIP3    H2 4441   6.261   2.446   3.958 -0.9166 -1.3157 -0.7431
 1479TIP3   OH2 4442   5.587   1.719   0.061 -0.3826  0.1131  0.1134
 1479TIP3    H1 4443   5.520   1.664   0.021  0.3964 -0.5203 -0.3732
 1479TIP3    H2 4444   5.618   1.775  -0.010  0.5042 -0.5144 -0.0169
 1480TIP3   OH2 4445   4.676   1.049   2.480  0.0707  0.1389 -0.3529
 1480TIP3    H1 4446   4.755   1.060   2.532  0.2436 -0.2104 -0.5413
 1480TIP3    H2 4447   4.611   1.105   2.523 -0.0331 -0.7962  0.7525
 1481TIP3   OH2 4448   3.489   1.179   0.353  0.1344 -0.2924 -0.0674
 1481TIP3    H1 4449   3.533   1.188   0.269  0.3461 -1.4210 -0.0956
 1481TIP3    H2 4450   3.449   1.264   0.369 -0.0689 -0.1219 -1.3967
 1482TIP3   OH2 4451   2.804   1.924   1.996 -0.1045 -0.1979  0.6123
 1482TIP3    H1 4452   2.803   1.889   1.907  0.8418  0.9970  0.1062
 1482TIP3    H2 4453   2.896   1.941   2.014 -0.2621 -0.5998  1.9118
 1483TIP3   OH2 4454   0.438   3.416   4.293  0.7308  0.0851  0.4091
 1483TIP3    H1 4455   0.424   3.356   4.221  1.6398  0.3186  0.0233
 1483TIP3    H2 4456   0.350   3.439   4.323  0.3168 -2.8037  1.7461
 1484TIP3   OH2 4457   4.231   5.518   4.398  0.1340 -0.4810  0.0025
 1484TIP3    H1 4458   4.257   5.434   4.362  0.4473 -1.0716  1.5168
 1484TIP3    H2 4459   4.187   5.564   4.326  0.1387 -1.8505 -0.8921
 1485TIP3   OH2 4460   1.347   1.070   2.175 -0.7933 -0.1267 -0.2675
 1485TIP3    H1 4461   1.322   1.116   2.255 -0.0843 -1.7338  0.9359
 1485TIP3    H2 4462   1.276   1.089   2.113 -2.6309 -0.7804  1.5209
 1486TIP3   OH2 4463   3.026   0.448   1.689  0.5178  0.5287 -0.1375
 1486TIP3    H1 4464   3.077   0.524   1.719  4.2607 -2.0024  0.6994
 1486TIP3    H2 4465   3.020   0.460   1.594  2.8126  0.9968 -0.2914
 1487TIP3   OH2 4466   3.687   2.327   0.989  0.1260  0.1258 -0.0239
 1487TIP3    H1 4467   3.764   2.362   1.034  0.7196 -0.4844 -0.5422
 1487TIP3    H2 4468   3.721   2.256   0.934 -0.5130  1.0125 -1.6572
 1488TIP3   OH2 4469   6.218   1.483   3.836 -0.5890  0.4781  0.2492
 1488TIP3    H1 4470   6.150   1.544   3.864 -0.4276  1.0543 -0.6083
 1488TIP3    H2 4471   6.170   1.408   3.802 -0.8001  0.8604 -0.3023
 1489TIP3   OH2 4472   4.732   0.242   4.779  0.0891 -0.0214  0.2842
 1489TIP3    H1 4473   4.821   0.264   4.804 -0.1448  0.0364  1.0756
 1489TIP3    H2 4474   4.737   0.225   4.685  1.0976 -0.8402  0.4716
 1490TIP3   OH2 4475   5.404   0.652   0.076  0.4857  0.4285 -0.3049
 1490TIP3    H1 4476   5.344   0.721   0.105  1.2996  1.5175 -1.1765
 1490TIP3    H2 4477   5.381   0.577   0.132  0.4451  1.7464  1.5575
 1491TIP3   OH2 4478   1.963   2.411   5.120 -0.3174  0.3848  0.7320
 1491TIP3    H1 4479   1.888   2.356   5.144  0.3478 -0.6096  0.5793
 1491TIP3    H2 4480   2.039   2.355   5.134  0.3064  0.8882 -0.5041
 1492TIP3   OH2 4481   4.660   3.299   4.016  0.0861 -0.1504 -0.6771
 1492TIP3    H1 4482   4.713   3.318   3.938  1.4365 -0.7447  0.0518
 1492TIP3    H2 4483   4.585   3.358   4.010  0.0638 -0.3290 -2.5172
 1493TIP3   OH2 4484   5.414   4.595   0.422 -0.4504 -0.1237  0.0572
 1493TIP3    H1 4485   5.470   4.526   0.458  0.3358  0.5041  0.0717
 1493TIP3    H2 4486   5.472   4.670   0.413 -1.1568  0.3659 -0.5070
 1494TIP3   OH2 4487   0.116   4.606   4.871  0.0961 -0.2220  0.3525
 1494TIP3    H1 4488   0.143   4.695   4.847  0.2199  0.0216  1.3608
 1494TIP3    H2 4489   0.188   4.550   4.841  0.3957  0.1117  0.4406
 1495TIP3   OH2 4490   4.356   2.126   0.442  0.3969 -0.0148 -0.4242
 1495TIP3    H1 4491   4.381   2.156   0.355  1.9157  0.9579  0.3063
 1495TIP3    H2 4492   4.438   2.094   0.480 -0.6343 -2.4949 -0.1093
 1496TIP3   OH2 4493   4.630   3.042   3.563  0.3022  0.5233  0.1773
 1496TIP3    H1 4494   4.648   3.028   3.656  0.7105 -0.9677 -0.1121
 1496TIP3    H2 4495   4.634   3.138   3.553 -1.1808  0.8152  1.9467
 1497TIP3   OH2 4496   0.972   2.899   2.392  0.3833 -0.1597 -0.3050
 1497TIP3    H1 4497   0.989   2.881   2.300  0.5891 -0.1949 -0.2603
 1497TIP3    H2 4498   0.885   2.939   2.393  0.5711  0.2538 -0.5559
 1498TIP3   OH2 4499   2.604   4.847   0.138 -0.0845  0.2622 -0.0747
 1498TIP3    H1 4500   2.637   4.782   0.076 -0.3998 -2.7735  2.6645
 1498TIP3    H2 4501   2.509   4.835   0.136 -0.4265  2.5810 -1.3647
 1499TIP3   OH2 4502   3.388   1.316   3.692  0.0908 -0.2642  0.4975
 1499TIP3    H1 4503   3.363   1.374   3.620  2.2377  0.0929 -0.0158
 1499TIP3    H2 4504   3.396   1.373   3.768 -1.4117 -0.5239  0.8951
 1500TIP3   OH2 4505   3.247   0.237   2.766  0.0087 -0.1390  0.7904
 1500TIP3    H1 4506   3.295   0.206   2.843  1.2206  0.7968  0.4379
 1500TIP3    H2 4507   3.214   0.157   2.726  3.7864 -1.2478 -0.5809
 1501TIP3   OH2 4508   5.433   5.201   4.267 -0.2764 -0.4217 -0.3386
 1501TIP3    H1 4509   5.520   5.162   4.281 -0.6187 -0.6786  1.1533
 1501TIP3    H2 4510   5.420   5.194   4.172 -0.1940 -3.7404 -0.2258
 1502TIP3   OH2 4511   0.327   2.138   2.598 -0.0065 -0.1147 -0.6618
 1502TIP3    H1 4512   0.270   2.176   2.532 -0.4997 -0.0042 -0.1781
 1502TIP3    H2 4513   0.291   2.050   2.615  0.8426 -0.6273 -1.4239
 1503TIP3   OH2 4514   1.337   5.508   3.020 -0.0070 -0.2752  0.5922
 1503TIP3    H1 4515   1.323   5.600   2.995 -3.5048 -1.2924 -2.2054
 1503TIP3    H2 4516   1.304   5.502   3.110 -1.7171  0.9287  0.1073
 1504TIP3   OH2 4517   2.032   0.521   2.161  0.2701  0.6755 -0.8525
 1504TIP3    H1 4518   2.104   0.495   2.103  0.9758  0.9112 -0.0953
 1504TIP3    H2 4519   2.053   0.610   2.186  1.0046 -0.0420  1.2768
 1505TIP3   OH2 4520   0.752   0.438   0.253 -0.2040  0.3147  0.0868
 1505TIP3    H1 4521   0.756   0.485   0.170 -0.8773  0.6456  0.2319
 1505TIP3    H2 4522   0.671   0.387   0.248  0.0521 -0.1190  0.3026
 1506TIP3   OH2 4523   2.355   0.102   0.989 -0.2047  0.5456 -0.1398
 1506TIP3    H1 4524   2.273   0.054   0.987  1.0839 -1.7635 -0.7616
 1506TIP3    H2 4525   2.423   0.036   1.002  1.7033  2.1609 -1.1108
 1507TIP3   OH2 4526   4.682   6.006   0.345  0.4773 -0.2479 -0.3881
 1507TIP3    H1 4527   4.596   5.984   0.309  0.6613 -0.4744 -0.6894
 1507TIP3    H2 4528   4.700   5.938   0.409  0.5466 -0.3434 -0.5095
 1508TIP3   OH2 4529   0.024   3.600   1.987  0.2322 -0.5646 -0.0814
 1508TIP3    H1 4530   0.050   3.692   1.975 -2.6673  0.6347  1.6357
 1508TIP3    H2 4531   0.083   3.568   2.056 -0.2025  0.8107  0.9976
 1509TIP3   OH2 4532   3.666   1.110   3.876  0.0282 -0.0186 -0.1321
 1509TIP3    H1 4533   3.618   1.150   3.804  2.2077  1.3001 -0.9435
 1509TIP3    H2 4534   3.634   1.156   3.954 -0.1636  0.7018 -0.6232
 1510TIP3   OH2 4535   3.261   3.109   2.400 -0.0366 -0.1773  0.2840
 1510TIP3    H1 4536   3.295   3.197   2.413  0.9617 -0.7834  1.9550
 1510TIP3    H2 4537   3.168   3.123   2.381  0.2156  1.2527 -0.0570
 1511TIP3   OH2 4538   2.852   3.319   2.676 -0.0947 -0.5192 -0.8092
 1511TIP3    H1 4539   2.804   3.345   2.755  0.1591 -0.0181 -0.8135
 1511TIP3    H2 4540   2.821   3.381   2.609  0.9107  0.1325 -0.6960
 1512TIP3   OH2 4541   0.582   0.737   0.269  0.2218 -0.0407  0.5732
 1512TIP3    H1 4542   0.674   0.749   0.243 -0.1041 -0.0313 -0.6444
 1512TIP3    H2 4543   0.550   0.668   0.211 -0.1525 -1.1255  1.9973
 1513TIP3   OH2 4544   5.848   4.702   2.814 -0.7664  0.9461  0.0807
 1513TIP3    H1 4545   5.772   4.732   2.766  0.6921  2.6170 -1.3075
 1513TIP3    H2 4546   5.882   4.628   2.763 -2.4792 -1.1273  1.7501
 1514TIP3   OH2 4547   4.098   0.322   5.139 -0.5089  0.4570  0.0705
 1514TIP3    H1 4548   4.008   0.310   5.108 -0.2362 -1.3185 -0.1388
 1514TIP3    H2 4549   4.099   0.281   5.226 -0.0579  1.0461  0.3504
 1515TIP3   OH2 4550   0.183   5.197   2.915 -0.0591  0.3508 -0.0347
 1515TIP3    H1 4551   0.153   5.204   3.006 -0.9216 -1.6626 -0.1212
 1515TIP3    H2 4552   0.189   5.288   2.885 -0.0135  1.0477  1.9357
 1516TIP3   OH2 4553   0.902   1.437   2.848 -0.0665 -0.3686 -0.0407
 1516TIP3    H1 4554   0.919   1.411   2.757 -0.7861  1.1278 -0.6480
 1516TIP3    H2 4555   0.808   1.425   2.860  0.1811 -1.6174  0.9064
 1517TIP3   OH2 4556   3.995   0.369   1.780 -0.4823  0.5889  0.1514
 1517TIP3    H1 4557   4.089   0.378   1.764 -0.3061 -0.1707  0.7042
 1517TIP3    H2 4558   3.963   0.316   1.707 -0.1828 -0.5101  0.7999
 1518TIP3   OH2 4559   2.111   1.676   0.850 -0.1948  0.1330  0.1521
 1518TIP3    H1 4560   2.073   1.607   0.795 -0.5404  1.5313 -1.4373
 1518TIP3    H2 4561   2.202   1.684   0.819 -0.2293  0.5636  0.1592
 1519TIP3   OH2 4562   3.293   1.724   4.779  0.1049 -0.0957 -0.1680
 1519TIP3    H1 4563   3.337   1.650   4.737 -0.6486 -0.6375 -0.0142
 1519TIP3    H2 4564   3.268   1.692   4.865  1.3311  0.9050  0.5862
 1520TIP3   OH2 4565   5.049   2.065   3.609  0.4722 -0.3291  0.4798
 1520TIP3    H1 4566   5.081   2.121   3.538 -0.6939  0.9834  0.9429
 1520TIP3    H2 4567   5.007   2.125   3.670 -0.3922 -1.6718  1.2607
 1521TIP3   OH2 4568   1.783   2.386   0.238 -0.3260  0.0524  0.0839
 1521TIP3    H1 4569   1.830   2.357   0.316  1.0119 -0.5141 -0.8757
 1521TIP3    H2 4570   1.706   2.330   0.234  0.1343 -0.6273  0.4596
 1522TIP3   OH2 4571   6.371   5.595   1.476  0.4527 -0.3718 -0.3883
 1522TIP3    H1 4572   6.299   5.557   1.526  0.3852 -0.6147 -0.6689
 1522TIP3    H2 4573   6.349   5.687   1.469  0.1568 -0.4505 -0.4966
 1523TIP3   OH2 4574   0.256   0.543   0.297 -0.1942 -0.2474  0.0962
 1523TIP3    H1 4575   0.178   0.517   0.345 -0.5804 -1.6880 -1.2461
 1523TIP3    H2 4576   0.324   0.552   0.365 -0.6346 -2.5509  0.9219
 1524TIP3   OH2 4577   2.551   1.999   3.838 -0.4909 -0.1359  0.5294
 1524TIP3    H1 4578   2.553   2.095   3.837  0.7144 -0.1425 -0.7591
 1524TIP3    H2 4579   2.637   1.973   3.805 -2.4567 -1.5741 -4.4960
 1525TIP3   OH2 4580   4.102   4.482   4.491  0.0519 -0.1337 -0.0453
 1525TIP3    H1 4581   4.128   4.508   4.580  0.4945 -0.6996 -0.0048
 1525TIP3    H2 4582   4.025   4.536   4.472  0.4046  0.5395  0.3897
 1526TIP3   OH2 4583   1.530   1.729   3.350 -0.3691  0.0481 -0.9325
 1526TIP3    H1 4584   1.525   1.695   3.261  0.4927  2.8328 -2.1434
 1526TIP3    H2 4585   1.624   1.738   3.367 -0.3078 -3.3137  1.5657
 1527TIP3   OH2 4586   2.221   3.441   2.476 -0.5815 -0.0508  0.0304
 1527TIP3    H1 4587   2.309   3.475   2.489 -0.7789  0.2433  0.6220
 1527TIP3    H2 4588   2.220   3.358   2.524 -0.3745 -0.4803 -0.6804
 1528TIP3   OH2 4589   0.595   4.940   4.333  0.1061 -0.2876  0.0635
 1528TIP3    H1 4590   0.602   5.033   4.312 -0.7867 -0.5003 -1.3517
 1528TIP3    H2 4591   0.685   4.907   4.330  0.3849  0.4435  0.1892
 1529TIP3   OH2 4592   0.047   1.909   1.632 -0.6063 -0.4699  0.3264
 1529TIP3    H1 4593  -0.048   1.923   1.626 -1.0461 -2.7553  1.2127
 1529TIP3    H2 4594   0.070   1.940   1.719 -0.5973 -0.2502  0.2467
 1530TIP3   OH2 4595   4.760   3.596   1.921  0.6421  0.4236 -1.0258
 1530TIP3    H1 4596   4.791   3.505   1.922 -1.1089 -0.2214 -1.9057
 1530TIP3    H2 4597   4.774   3.627   2.011 -2.6638 -2.1805  0.6041
 1531TIP3   OH2 4598   2.232   0.792   5.059 -0.0012  0.4761  0.3066
 1531TIP3    H1 4599   2.298   0.845   5.104 -0.4284  0.8097  0.5432
 1531TIP3    H2 4600   2.150   0.811   5.105  0.0852 -1.6319  1.5027
 1532TIP3   OH2 4601   5.783   1.257   1.797 -0.4305 -0.3389  0.0153
 1532TIP3    H1 4602   5.777   1.163   1.814 -1.8649 -0.3259 -0.2966
 1532TIP3    H2 4603   5.753   1.268   1.707  0.2762  0.3771 -0.1554
 1533TIP3   OH2 4604   1.058   3.023   4.456  0.6850 -0.3026  0.6011
 1533TIP3    H1 4605   1.065   3.113   4.488  2.2054  0.1397 -0.8112
 1533TIP3    H2 4606   1.144   2.985   4.475  0.9513 -0.6238 -1.0520
 1534TIP3   OH2 4607   1.020   1.031   0.631 -0.4468  0.0464 -0.1905
 1534TIP3    H1 4608   1.002   1.097   0.564 -0.2940 -1.7380 -2.0792
 1534TIP3    H2 4609   0.952   0.965   0.619 -0.6957 -0.1017  1.7612
 1535TIP3   OH2 4610   5.007   1.883   0.566  0.2167  0.1267 -0.6302
 1535TIP3    H1 4611   5.072   1.843   0.508 -0.4634 -1.0890 -0.5931
 1535TIP3    H2 4612   4.939   1.817   0.575 -0.5558  0.9897  0.1316
 1536TIP3   OH2 4613   0.869   4.681   1.550 -0.2068 -0.4119  0.5431
 1536TIP3    H1 4614   0.958   4.649   1.562 -0.4627 -0.5782  2.2970
 1536TIP3    H2 4615   0.852   4.733   1.628 -1.4930  0.0172  0.0059
 1537TIP3   OH2 4616   4.928   0.522   3.258  0.0280 -0.0738  0.0250
 1537TIP3    H1 4617   4.866   0.568   3.315  0.0203  1.5442 -1.2073
 1537TIP3    H2 4618   4.975   0.463   3.317 -1.3592  0.0478  1.3230
 1538TIP3   OH2 4619   6.152   4.145   0.558  0.1536  0.0102  0.1794
 1538TIP3    H1 4620   6.207   4.069   0.539 -1.4093 -1.8888  2.5663
 1538TIP3    H2 4621   6.063   4.116   0.534 -0.3699  1.3976  0.3582
 1539TIP3   OH2 4622   2.748   2.274   4.037  0.2376 -0.4041 -0.0395
 1539TIP3    H1 4623   2.716   2.334   4.104  1.8527  0.1529  0.2775
 1539TIP3    H2 4624   2.790   2.330   3.972 -1.8598 -0.8675 -1.9211
 1540TIP3   OH2 4625   5.101   5.398   1.762 -0.1438  0.1108 -0.0875
 1540TIP3    H1 4626   5.186   5.407   1.719 -0.7482  0.0165 -1.3377
 1540TIP3    H2 4627   5.044   5.461   1.717 -0.8169 -0.0338  0.5331
 1541TIP3   OH2 4628   4.910   3.226   5.146  0.6391 -0.3234  0.0660
 1541TIP3    H1 4629   4.886   3.140   5.111  1.5915 -0.0934 -1.2186
 1541TIP3    H2 4630   4.828   3.275   5.149  0.5835 -0.1421 -2.4967
 1542TIP3   OH2 4631   3.256   0.979   0.284 -0.1155  0.0359 -0.5615
 1542TIP3    H1 4632   3.340   0.978   0.330 -0.1200  1.0461 -0.5063
 1542TIP3    H2 4633   3.203   1.043   0.332 -0.7105 -0.1465 -0.9575
 1543TIP3   OH2 4634   6.171   4.397   2.294 -0.2887  0.1508 -0.0387
 1543TIP3    H1 4635   6.182   4.322   2.236 -0.6723  0.2422 -0.2377
 1543TIP3    H2 4636   6.226   4.466   2.256 -0.0442  0.0111  0.0660
 1544TIP3   OH2 4637   2.545   5.166   2.782 -0.0149  0.4200 -0.3111
 1544TIP3    H1 4638   2.610   5.235   2.773  0.5655 -0.2049 -1.0685
 1544TIP3    H2 4639   2.500   5.186   2.864  1.6128  0.4504  0.6084
 1545TIP3   OH2 4640   0.473   4.985   3.808 -0.2347  0.1658 -0.3528
 1545TIP3    H1 4641   0.484   4.963   3.901  0.1525 -0.5951 -0.5732
 1545TIP3    H2 4642   0.425   5.068   3.809 -3.1768 -1.3939  0.5012
 1546TIP3   OH2 4643   3.827   0.344   3.591  0.3575 -0.4573  0.4470
 1546TIP3    H1 4644   3.813   0.433   3.556 -0.4337 -0.9509 -0.5369
 1546TIP3    H2 4645   3.899   0.309   3.539 -1.1743 -1.3894 -1.1392
 1547TIP3   OH2 4646   4.644   0.719   1.261 -0.2005  0.2873  0.2863
 1547TIP3    H1 4647   4.614   0.671   1.184 -0.8691 -0.8675  1.2167
 1547TIP3    H2 4648   4.565   0.730   1.314  0.4407  0.0096  1.3295
 1548TIP3   OH2 4649   6.108   4.209   0.070 -0.0981  0.0875 -0.5156
 1548TIP3    H1 4650   6.045   4.149   0.031  1.9202 -0.5796 -3.0975
 1548TIP3    H2 4651   6.175   4.152   0.108 -0.4685  0.7637  1.2279
 1549TIP3   OH2 4652   2.720   2.870   1.067  0.5945  0.0360  0.1436
 1549TIP3    H1 4653   2.734   2.853   0.974 -0.5707  0.5820 -0.1548
 1549TIP3    H2 4654   2.693   2.962   1.070 -0.2250 -0.2108  0.9105
 1550TIP3   OH2 4655   1.760   2.969   3.167 -0.1103  0.0275 -0.2614
 1550TIP3    H1 4656   1.757   3.005   3.256  0.7882 -2.8496  1.0349
 1550TIP3    H2 4657   1.693   2.901   3.166  0.9573 -1.0539 -1.2489
 1551TIP3   OH2 4658   6.164   4.341   4.353  0.3995  0.0220  0.0669
 1551TIP3    H1 4659   6.189   4.421   4.399 -0.7557 -0.5750  1.8239
 1551TIP3    H2 4660   6.231   4.277   4.377  0.5542  0.0781 -0.2097
 1552TIP3   OH2 4661   2.932   2.839   2.787 -0.2104  0.5181  0.2670
 1552TIP3    H1 4662   2.976   2.903   2.732  0.1102  2.7183  2.8884
 1552TIP3    H2 4663   2.847   2.826   2.745  0.8377  0.2591 -1.9542
 1553TIP3   OH2 4664   2.143   2.800   1.487 -0.3572 -0.3357 -0.1179
 1553TIP3    H1 4665   2.164   2.708   1.506  0.7490  0.2131  1.5309
 1553TIP3    H2 4666   2.228   2.840   1.470 -0.4823  0.9469  1.9716
 1554TIP3   OH2 4667   2.446   2.035   0.821 -0.4068  0.1574 -0.3580
 1554TIP3    H1 4668   2.391   2.104   0.784  1.9046  1.8491 -0.8751
 1554TIP3    H2 4669   2.506   2.012   0.750  1.5564  0.6415  1.0529
 1555TIP3   OH2 4670   0.669   1.920   4.532  0.1901  0.2057  0.4257
 1555TIP3    H1 4671   0.698   2.011   4.541  1.0236 -0.1770  1.9010
 1555TIP3    H2 4672   0.749   1.868   4.547 -0.0947 -0.7657 -1.2244
 1556TIP3   OH2 4673   2.742   4.327   4.843  0.3708 -0.6064 -0.6282
 1556TIP3    H1 4674   2.728   4.280   4.924 -0.4880  0.4596 -0.1322
 1556TIP3    H2 4675   2.769   4.260   4.780  1.2968 -1.3996  0.5877
 1557TIP3   OH2 4676   4.846   1.124   3.564  0.2643 -0.2095  0.0163
 1557TIP3    H1 4677   4.852   1.045   3.618 -1.9095  0.1274  0.8256
 1557TIP3    H2 4678   4.856   1.196   3.627  2.2018  0.2234 -0.7079
 1558TIP3   OH2 4679   5.117   1.196   2.917  0.6061  0.3339 -0.1493
 1558TIP3    H1 4680   5.030   1.160   2.936  0.0469  1.0045 -1.3490
 1558TIP3    H2 4681   5.167   1.121   2.886  0.5449 -0.1068  0.7777
 1559TIP3   OH2 4682   2.836   3.306   3.774 -0.0256 -0.3070 -0.2467
 1559TIP3    H1 4683   2.894   3.348   3.711  0.3808 -0.7572 -0.1723
 1559TIP3    H2 4684   2.754   3.293   3.726  0.0307  0.0416 -0.4445
 1560TIP3   OH2 4685   3.271   5.120   1.056 -0.1469 -0.4508 -0.2953
 1560TIP3    H1 4686   3.271   5.216   1.055 -0.5924 -0.4414 -1.4724
 1560TIP3    H2 4687   3.331   5.097   0.985 -0.7783 -1.0262 -0.6497
 1561TIP3   OH2 4688   3.492   1.097   2.957  0.2605  0.3830  0.2812
 1561TIP3    H1 4689   3.564   1.053   3.002 -0.6546 -1.1695  0.3207
 1561TIP3    H2 4690   3.473   1.041   2.882 -1.9021 -0.1293  1.1375
 1562TIP3   OH2 4691   2.489   5.948   3.097 -0.0673  0.0988  0.1434
 1562TIP3    H1 4692   2.418   5.884   3.087  0.8926 -0.9982  0.1496
 1562TIP3    H2 4693   2.513   5.943   3.190 -0.6408  1.2129  0.3723
 1563TIP3   OH2 4694   2.139   2.499   4.152 -0.2005 -0.9184 -0.5699
 1563TIP3    H1 4695   2.136   2.463   4.240  0.6975  0.2517 -0.0387
 1563TIP3    H2 4696   2.231   2.496   4.126 -0.3171 -0.3974 -1.0920
 1564TIP3   OH2 4697   5.349   5.029   0.309 -0.0142  0.2640  0.1937
 1564TIP3    H1 4698   5.282   5.032   0.377  1.0733  1.2350  1.2728
 1564TIP3    H2 4699   5.345   5.115   0.267 -1.8905 -0.9043 -2.2798
 1565TIP3   OH2 4700   1.548   1.734   3.766  0.0188  0.5407  0.5487
 1565TIP3    H1 4701   1.636   1.769   3.755  0.3242 -0.6555 -1.1532
 1565TIP3    H2 4702   1.490   1.800   3.726  0.4270  0.0007 -0.9939
 1566TIP3   OH2 4703   3.235   3.448   1.417  0.3668 -0.2551  0.1823
 1566TIP3    H1 4704   3.277   3.365   1.439 -2.5023 -2.5654 -2.1851
 1566TIP3    H2 4705   3.286   3.480   1.342  0.9908 -0.2717  0.5881
 1567TIP3   OH2 4706   3.942   4.496   3.628 -0.2164  0.4109 -0.1408
 1567TIP3    H1 4707   3.993   4.434   3.577  1.1478 -0.5392  2.2357
 1567TIP3    H2 4708   3.866   4.446   3.657  0.5126  0.0357  1.1690
 1568TIP3   OH2 4709   3.487   0.671   0.048 -0.9412  0.1130  0.2220
 1568TIP3    H1 4710   3.400   0.668   0.087 -1.2499  0.2588 -0.4395
 1568TIP3    H2 4711   3.498   0.762   0.020 -0.5048  0.1361  0.4692
 1569TIP3   OH2 4712   3.935   1.213   3.973 -0.0113 -1.3216 -0.2792
 1569TIP3    H1 4713   3.964   1.304   3.985  1.3001 -1.8473  0.7106
 1569TIP3    H2 4714   3.850   1.210   4.017 -0.2431 -0.4789 -0.6492
 1570TIP3   OH2 4715   5.863   3.519   4.705  0.0061 -0.2023  0.0405
 1570TIP3    H1 4716   5.768   3.513   4.716  0.0602 -1.3646 -0.0326
 1570TIP3    H2 4717   5.890   3.587   4.767 -0.9634  0.7382 -0.5258
 1571TIP3   OH2 4718   1.749   3.395   5.077 -0.4753  0.1340 -0.3256
 1571TIP3    H1 4719   1.742   3.440   4.993 -0.3911  0.4040 -0.1897
 1571TIP3    H2 4720   1.831   3.428   5.114  0.3918 -1.2939 -0.9164
 1572TIP3   OH2 4721   2.095   5.134   1.928 -0.0735 -0.1975  0.4796
 1572TIP3    H1 4722   2.001   5.116   1.919  0.0927 -0.7671 -0.2183
 1572TIP3    H2 4723   2.106   5.159   2.019 -1.3467  2.5780 -0.0290
 1573TIP3   OH2 4724   0.421   3.290   2.729 -0.2243 -0.6235  0.2289
 1573TIP3    H1 4725   0.329   3.277   2.704 -1.1325  0.8157  2.4765
 1573TIP3    H2 4726   0.435   3.229   2.802 -0.3686  1.2011  1.8517
 1574TIP3   OH2 4727   2.616   4.287   2.672  0.1270 -0.1622  0.2221
 1574TIP3    H1 4728   2.552   4.348   2.636 -1.4454 -2.0714 -0.3568
 1574TIP3    H2 4729   2.646   4.329   2.753 -1.9147  0.7573  0.5603
 1575TIP3   OH2 4730   1.441   1.568   1.478 -0.2145  0.7520  0.6656
 1575TIP3    H1 4731   1.460   1.475   1.485  0.0485  0.7464 -0.0482
 1575TIP3    H2 4732   1.350   1.572   1.450  0.4218  0.6255 -1.6531
 1576TIP3   OH2 4733   0.379   1.225   0.589 -0.6068  0.7103 -0.0596
 1576TIP3    H1 4734   0.404   1.312   0.623 -0.1134  1.2529 -1.7341
 1576TIP3    H2 4735   0.312   1.244   0.523 -1.0084 -0.2558  0.0625
 1577TIP3   OH2 4736   4.221   3.019   4.809  0.4417  0.1643  0.1309
 1577TIP3    H1 4737   4.138   2.990   4.770  0.8300 -0.0773 -0.5340
 1577TIP3    H2 4738   4.198   3.100   4.855 -0.2564 -0.1477  0.3542
 1578TIP3   OH2 4739   6.070   5.729   0.386  0.3618 -0.1576  0.2138
 1578TIP3    H1 4740   6.056   5.824   0.376  1.9404 -0.0183 -1.0177
 1578TIP3    H2 4741   6.138   5.723   0.453  2.1892 -0.2343 -1.5584
 1579TIP3   OH2 4742   4.410   4.305   0.656  0.5479  0.1057  0.3830
 1579TIP3    H1 4743   4.386   4.296   0.748 -0.9030  0.4779  0.0635
 1579TIP3    H2 4744   4.480   4.370   0.657  1.9553 -1.3374  1.3834
 1580TIP3   OH2 4745   4.011   4.833   4.269  0.0915  0.3279  0.5790
 1580TIP3    H1 4746   3.932   4.873   4.307 -1.5225 -1.8846 -0.2114
 1580TIP3    H2 4747   3.989   4.740   4.260  2.0248 -0.0175 -1.6064
 1581TIP3   OH2 4748   4.458   3.462   5.103  0.5186  0.1833 -0.3392
 1581TIP3    H1 4749   4.368   3.493   5.111  0.6937  0.8553 -0.9075
 1581TIP3    H2 4750   4.481   3.479   5.012  1.2293  0.0268 -0.1919
 1582TIP3   OH2 4751   0.853   2.462   0.376 -0.5952 -0.5270  0.3936
 1582TIP3    H1 4752   0.845   2.417   0.460  1.7376 -2.4434 -0.2969
 1582TIP3    H2 4753   0.847   2.392   0.311  2.0034  0.2242 -0.7786
 1583TIP3   OH2 4754   5.575   1.905   2.107  0.7129  0.2503  0.1972
 1583TIP3    H1 4755   5.542   1.977   2.160  1.6476  0.1180  0.9907
 1583TIP3    H2 4756   5.658   1.881   2.149  0.6230 -0.9989 -0.3102
 1584TIP3   OH2 4757   4.480   0.015   0.592 -0.4276  0.2821  0.1464
 1584TIP3    H1 4758   4.531  -0.003   0.671 -1.5268 -0.8823  0.6243
 1584TIP3    H2 4759   4.545   0.047   0.529  0.3060  2.2878  1.8029
 1585TIP3   OH2 4760   4.923   5.438   1.989  0.2044 -0.5116  0.1684
 1585TIP3    H1 4761   4.838   5.479   1.972  0.3106 -0.6804 -0.8462
 1585TIP3    H2 4762   4.976   5.460   1.912  0.7987 -1.1550  0.3846
 1586TIP3   OH2 4763   2.305   1.288   3.556 -0.1900  0.4090  0.1685
 1586TIP3    H1 4764   2.259   1.295   3.640  1.3243 -0.1193  1.0862
 1586TIP3    H2 4765   2.263   1.354   3.501 -2.2178 -0.2438  0.8264
 1587TIP3   OH2 4766   2.571   0.917   0.873 -0.0425  0.3587  0.1838
 1587TIP3    H1 4767   2.518   0.965   0.937 -0.0618  1.2607 -0.4794
 1587TIP3    H2 4768   2.595   0.836   0.917 -2.3197 -0.2834  0.3414
 1588TIP3   OH2 4769   3.307   1.066   1.026  0.2287  0.1819  0.6382
 1588TIP3    H1 4770   3.250   1.083   1.101 -1.1142 -1.2931  0.0150
 1588TIP3    H2 4771   3.282   0.979   0.996 -1.0889  1.6100 -3.0255
 1589TIP3   OH2 4772   3.252   5.372   1.117  0.2082 -0.2278  0.1644
 1589TIP3    H1 4773   3.260   5.465   1.097  3.5223 -0.4999 -0.2655
 1589TIP3    H2 4774   3.169   5.365   1.165 -0.6914  2.7227 -0.7659
 1590TIP3   OH2 4775   5.429   1.653   3.211 -0.0700 -0.5594 -0.3995
 1590TIP3    H1 4776   5.374   1.645   3.288  1.0276 -1.9165  0.2871
 1590TIP3    H2 4777   5.389   1.724   3.160 -1.3011 -0.2103  0.9857
 1591TIP3   OH2 4778   3.327   2.171   1.398  0.6480 -0.0615  0.0292
 1591TIP3    H1 4779   3.359   2.258   1.374  1.3119 -0.3232 -0.0623
 1591TIP3    H2 4780   3.305   2.179   1.490 -1.2791  0.7681 -0.4564
 1592TIP3   OH2 4781   1.955   3.725   0.674  0.2276  0.2774  0.9718
 1592TIP3    H1 4782   1.956   3.656   0.608  0.7268 -0.0169  1.2761
 1592TIP3    H2 4783   1.996   3.800   0.631 -1.2350  0.7229  0.3007
 1593TIP3   OH2 4784   6.327   0.725   1.116 -0.5497 -0.0720  0.2788
 1593TIP3    H1 4785   6.301   0.816   1.104 -3.4904 -0.7463  0.6099
 1593TIP3    H2 4786   6.337   0.691   1.027  0.7247  0.5953  0.1572
 1594TIP3   OH2 4787   1.732   3.137   2.236  0.4823  0.4458  0.0256
 1594TIP3    H1 4788   1.712   3.157   2.145 -1.5004  0.7595  0.4920
 1594TIP3    H2 4789   1.819   3.095   2.233  0.1643 -0.1642 -2.0524
 1595TIP3   OH2 4790   5.399   1.705   4.287 -0.6094  0.3278 -0.2111
 1595TIP3    H1 4791   5.328   1.652   4.250  1.1377 -2.1332 -0.2693
 1595TIP3    H2 4792   5.449   1.733   4.210  0.2833 -0.7155 -0.0351
 1596TIP3   OH2 4793   0.721   3.958   2.289  0.1668  0.5594  0.9470
 1596TIP3    H1 4794   0.797   4.011   2.315  0.5078 -0.6517  2.6221
 1596TIP3    H2 4795   0.648   4.019   2.288  0.7051  1.2458  1.9190
 1597TIP3   OH2 4796   2.599   0.419   0.025 -0.6969  0.2414  0.1370
 1597TIP3    H1 4797   2.636   0.502  -0.005 -0.2636 -0.0269 -0.0837
 1597TIP3    H2 4798   2.509   0.421  -0.006  0.1774 -0.7782 -2.8042
 1598TIP3   OH2 4799   5.322   3.763   3.745  0.2950 -0.2739 -0.0061
 1598TIP3    H1 4800   5.259   3.817   3.698  1.0143  1.3756  0.8542
 1598TIP3    H2 4801   5.387   3.740   3.679  0.2128  0.2794 -0.2837
 1599TIP3   OH2 4802   1.588   1.252   1.504  0.4961 -0.1993 -0.3694
 1599TIP3    H1 4803   1.595   1.159   1.483  0.2516 -0.0466 -1.1511
 1599TIP3    H2 4804   1.672   1.274   1.543 -0.2707 -1.3051  2.1563
 1600TIP3   OH2 4805   0.428   4.571   2.163 -0.3198  0.1672  0.0545
 1600TIP3    H1 4806   0.335   4.559   2.139 -0.5990  0.8874  0.7583
 1600TIP3    H2 4807   0.463   4.625   2.092 -0.1486 -0.9938 -0.7884
 1601TIP3   OH2 4808   5.483   4.511   3.901 -0.3496 -0.1428 -0.1914
 1601TIP3    H1 4809   5.467   4.511   3.807  0.6570  1.9275 -0.4029
 1601TIP3    H2 4810   5.509   4.600   3.922  1.0724 -0.9440  1.7839
 1602TIP3   OH2 4811   3.446   5.080   3.565 -0.6694 -0.2207  0.6755
 1602TIP3    H1 4812   3.506   5.119   3.629 -1.6115 -0.6595  1.8590
 1602TIP3    H2 4813   3.501   5.017   3.517 -0.1431 -0.5640  1.6862
 1603TIP3   OH2 4814   0.177   0.328   2.666 -0.2664  0.1099 -0.3450
 1603TIP3    H1 4815   0.231   0.339   2.744  0.4761 -0.4798 -0.7664
 1603TIP3    H2 4816   0.115   0.401   2.669 -0.0475  0.2649  0.6321
 1604TIP3   OH2 4817   5.968   5.573   4.109 -0.2191 -0.5467  0.4405
 1604TIP3    H1 4818   6.024   5.599   4.036  0.9843 -1.1535  1.1208
 1604TIP3    H2 4819   5.985   5.479   4.119 -1.1130 -0.6663  0.8793
 1605TIP3   OH2 4820   4.187   3.568   3.694  0.0479  0.4006 -0.8297
 1605TIP3    H1 4821   4.277   3.565   3.660  0.4542  0.4502  0.2107
 1605TIP3    H2 4822   4.134   3.588   3.617  1.0407  1.5074 -1.2693
 1606TIP3   OH2 4823   3.029   2.648   2.923 -0.1869  0.0173 -0.1613
 1606TIP3    H1 4824   2.988   2.727   2.888 -2.4218 -1.5792 -1.3576
 1606TIP3    H2 4825   3.077   2.611   2.849 -2.6763 -1.9073 -0.9769
 1607TIP3   OH2 4826   4.040   4.205   0.185 -0.5013 -0.5964 -0.3183
 1607TIP3    H1 4827   4.030   4.130   0.127  0.4970  0.2071 -1.5777
 1607TIP3    H2 4828   4.130   4.199   0.217 -0.9640 -0.8882  0.9694
 1608TIP3   OH2 4829   2.382   2.737   1.174 -0.5977 -0.5214  0.1816
 1608TIP3    H1 4830   2.445   2.718   1.104  1.3846  1.0369  1.4366
 1608TIP3    H2 4831   2.413   2.685   1.248 -3.6792 -3.5633 -0.3788
 1609TIP3   OH2 4832   3.658   5.561   0.992  0.7184 -0.0988  0.0068
 1609TIP3    H1 4833   3.632   5.549   0.901  0.5888  1.2250 -0.1625
 1609TIP3    H2 4834   3.694   5.650   0.994 -1.2365  0.7338  1.6451
 1610TIP3   OH2 4835   0.987   0.968   4.438 -0.7210  0.4291 -0.4518
 1610TIP3    H1 4836   0.902   1.004   4.465 -0.9501 -0.5790  0.2394
 1610TIP3    H2 4837   0.971   0.935   4.350 -2.0105 -2.6213  0.7883
 1611TIP3   OH2 4838   0.366   1.749   0.189  0.0947 -0.0802 -0.0407
 1611TIP3    H1 4839   0.339   1.812   0.256  1.4719  0.7960 -0.2794
 1611TIP3    H2 4840   0.358   1.664   0.232 -2.5933  0.1169  0.0295
 1612TIP3   OH2 4841   1.567   4.001   0.934  0.3909  0.0934  0.0607
 1612TIP3    H1 4842   1.535   3.920   0.894  0.3642 -0.0702  0.4087
 1612TIP3    H2 4843   1.650   4.019   0.889 -0.0722  0.3912 -0.6728
 1613TIP3   OH2 4844   3.633   4.520   3.277  0.3870  0.1116 -0.3616
 1613TIP3    H1 4845   3.719   4.556   3.299  0.1670  0.3229  0.1677
 1613TIP3    H2 4846   3.614   4.555   3.190 -0.7932  3.1232  0.9737
 1614TIP3   OH2 4847   0.554   5.170   1.529  0.0727  0.0684 -0.4995
 1614TIP3    H1 4848   0.491   5.243   1.525  0.8164  0.7322 -0.3495
 1614TIP3    H2 4849   0.637   5.209   1.503  0.7028 -0.4880  0.6345
 1615TIP3   OH2 4850   1.019   0.594   4.992  0.0487  0.5147 -0.4901
 1615TIP3    H1 4851   1.050   0.504   4.988 -1.2679  0.0559 -1.3428
 1615TIP3    H2 4852   1.098   0.647   4.994  0.8962 -0.5948 -1.9909
 1616TIP3   OH2 4853   0.617   4.945   0.888 -0.0764 -0.7046 -0.2196
 1616TIP3    H1 4854   0.656   5.024   0.852  1.6545 -1.8734 -1.0528
 1616TIP3    H2 4855   0.558   4.976   0.957  0.9663  1.2632 -0.1552
 1617TIP3   OH2 4856   4.388   3.635   1.968  0.3816 -0.2126 -0.2183
 1617TIP3    H1 4857   4.429   3.616   1.883 -1.7283  0.0208 -1.3669
 1617TIP3    H2 4858   4.374   3.550   2.008  2.2512 -0.2819  0.3811
 1618TIP3   OH2 4859   4.344   3.748   0.631  0.6559  0.0975  0.4829
 1618TIP3    H1 4860   4.396   3.810   0.682 -1.1743  2.0465  0.1100
 1618TIP3    H2 4861   4.404   3.715   0.564  1.7080  1.4228  0.7463
 1619TIP3   OH2 4862   2.921   0.327   2.400 -0.2526  0.3511  0.1333
 1619TIP3    H1 4863   2.884   0.389   2.463 -0.9580 -2.6605  2.9719
 1619TIP3    H2 4864   2.845   0.283   2.363  0.2354 -1.1884  0.8709
 1620TIP3   OH2 4865   2.004   2.220   1.446  0.1389 -0.0803  0.5192
 1620TIP3    H1 4866   2.067   2.182   1.508  0.9001  0.8825  0.3538
 1620TIP3    H2 4867   2.013   2.314   1.458  0.2692  0.1201 -1.0365
 1621TIP3   OH2 4868   0.353   3.556   0.221 -0.2183  0.1890  0.7606
 1621TIP3    H1 4869   0.328   3.648   0.229 -1.2935 -0.0332  0.1789
 1621TIP3    H2 4870   0.379   3.547   0.129 -0.5708 -0.1835  0.6939
 1622TIP3   OH2 4871   0.931   1.576   3.138 -0.8064  0.0872 -0.4968
 1622TIP3    H1 4872   1.003   1.632   3.167 -1.2321  0.1219  0.5459
 1622TIP3    H2 4873   0.961   1.539   3.055  0.6049 -0.2496  0.1348
 1623TIP3   OH2 4874   5.765   5.690   0.533 -0.5658 -0.2118  0.5385
 1623TIP3    H1 4875   5.784   5.601   0.561  0.4004 -0.1991 -0.0399
 1623TIP3    H2 4876   5.839   5.715   0.478 -1.8418  0.1711 -1.1068
 1624TIP3   OH2 4877   0.173   0.886   5.078  0.1691  0.6800 -0.3514
 1624TIP3    H1 4878   0.214   0.920   5.157 -0.0914  0.8311 -0.2810
 1624TIP3    H2 4879   0.242   0.836   5.034  0.7921  1.9489 -0.8630
 1625TIP3   OH2 4880   2.490   2.045   2.767  0.3621  0.1271  0.0596
 1625TIP3    H1 4881   2.424   1.988   2.728  0.2152  0.0470  0.4223
 1625TIP3    H2 4882   2.561   1.985   2.792  0.6184  0.2263 -0.4250
 1626TIP3   OH2 4883   5.510   5.591   3.439 -0.2754  0.5445  0.0592
 1626TIP3    H1 4884   5.576   5.656   3.415 -0.4400  0.2205 -1.3162
 1626TIP3    H2 4885   5.456   5.581   3.361 -2.0188  0.8502  1.1744
 1627TIP3   OH2 4886   4.981   2.549   4.348  0.2964 -0.7316 -0.0851
 1627TIP3    H1 4887   4.939   2.626   4.386 -1.6978 -1.9849  0.3508
 1627TIP3    H2 4888   5.011   2.579   4.262 -0.1754  0.6103  0.1865
 1628TIP3   OH2 4889   4.233   1.495   3.428 -0.4087  0.1485  0.8312
 1628TIP3    H1 4890   4.230   1.584   3.392  0.0632  0.4206  1.4438
 1628TIP3    H2 4891   4.310   1.455   3.387 -1.2441 -0.3705 -0.2957
 1629TIP3   OH2 4892   1.041   1.187   1.468  0.0108  0.2198 -0.1591
 1629TIP3    H1 4893   0.960   1.137   1.472  0.4173 -0.5526 -1.2268
 1629TIP3    H2 4894   1.012   1.278   1.456 -0.7030  0.0436  0.1738
 1630TIP3   OH2 4895   3.381   5.738   4.640 -0.1484 -0.1088  0.4294
 1630TIP3    H1 4896   3.463   5.695   4.666 -0.6553 -0.8622  0.8291
 1630TIP3    H2 4897   3.343   5.679   4.575  0.9800  1.6280 -1.9587
 1631TIP3   OH2 4898   0.853   0.887   2.015  0.3098  0.6133  0.2831
 1631TIP3    H1 4899   0.797   0.965   2.011  0.1538  0.5106  0.4556
 1631TIP3    H2 4900   0.811   0.825   1.955  1.6803  1.4538 -1.6580
 1632TIP3   OH2 4901   2.886   1.568   2.523 -0.4888  0.3193  0.2601
 1632TIP3    H1 4902   2.896   1.499   2.457 -0.4362  0.2202  0.3707
 1632TIP3    H2 4903   2.877   1.649   2.473 -1.2350  0.1530  0.1058
 1633TIP3   OH2 4904   3.890   3.563   2.234  0.2550  0.2275 -0.4115
 1633TIP3    H1 4905   3.847   3.483   2.204 -0.3422 -0.0308  1.1013
 1633TIP3    H2 4906   3.960   3.532   2.292 -0.1069  0.8064  0.3373
 1634TIP3   OH2 4907   4.807   0.857   0.867 -0.6709  0.5631 -0.4557
 1634TIP3    H1 4908   4.717   0.841   0.836  0.1752 -1.4217 -2.1147
 1634TIP3    H2 4909   4.795   0.890   0.956 -3.0594  0.3939 -0.6253
 1635TIP3   OH2 4910   0.609   0.824   1.668  0.1158  0.2700  0.3003
 1635TIP3    H1 4911   0.675   0.894   1.673  0.2797  0.2996 -1.6440
 1635TIP3    H2 4912   0.640   0.759   1.732 -0.1070  1.9545  2.2587
 1636TIP3   OH2 4913   5.519   3.401   4.517  0.3377 -0.3152  0.2056
 1636TIP3    H1 4914   5.519   3.448   4.600  0.5395 -2.6254  1.6089
 1636TIP3    H2 4915   5.442   3.345   4.521  0.0781 -0.1222 -1.4030
 1637TIP3   OH2 4916   5.241   4.761   4.055 -0.4592  0.0689 -0.1859
 1637TIP3    H1 4917   5.250   4.680   4.004  0.8047 -0.1742  0.4012
 1637TIP3    H2 4918   5.254   4.830   3.990  3.4100 -0.2298  0.0541
 1638TIP3   OH2 4919   0.932   2.242   4.716  0.1952 -0.2019  0.8170
 1638TIP3    H1 4920   1.013   2.255   4.667  0.8405  1.5257  2.2156
 1638TIP3    H2 4921   0.953   2.271   4.805 -1.5093 -1.2694  1.6210
 1639TIP3   OH2 4922   2.272   2.145   1.859  0.1742 -0.2761  0.0550
 1639TIP3    H1 4923   2.336   2.190   1.915  0.3926 -0.9226  0.3403
 1639TIP3    H2 4924   2.271   2.055   1.892 -2.1627  0.0845  1.1765
 1640TIP3   OH2 4925   5.850   5.643   2.344 -0.2594 -0.2896  0.0997
 1640TIP3    H1 4926   5.759   5.640   2.314  0.4715  0.3429 -2.3460
 1640TIP3    H2 4927   5.860   5.731   2.381 -0.1350  0.3797 -1.4684
 1641TIP3   OH2 4928   0.023   1.227   1.571 -0.8977  0.4782 -0.1843
 1641TIP3    H1 4929   0.026   1.155   1.633  0.3574  1.4897  1.0113
 1641TIP3    H2 4930   0.066   1.300   1.617  1.8187  0.7756 -2.8738
 1642TIP3   OH2 4931   3.708   0.888   3.105  0.1416 -0.5031  0.6190
 1642TIP3    H1 4932   3.769   0.821   3.138  0.5183 -0.6183 -0.2922
 1642TIP3    H2 4933   3.641   0.839   3.058  0.7238 -0.2285 -0.5412
 1643TIP3   OH2 4934   1.022   1.991   2.090 -0.2227 -0.4063 -0.4949
 1643TIP3    H1 4935   0.960   1.930   2.128 -0.2353  0.4096  0.8476
 1643TIP3    H2 4936   1.077   2.020   2.164  0.6314  0.1948 -1.3296
 1644TIP3   OH2 4937   0.291   0.112   0.845 -0.3361 -0.2258  0.5331
 1644TIP3    H1 4938   0.369   0.138   0.796 -1.0686  0.4374 -0.3143
 1644TIP3    H2 4939   0.325   0.055   0.915  0.7535 -1.1444 -0.6828
 1645TIP3   OH2 4940   5.469   1.675   4.926 -0.5489  0.0538 -0.4998
 1645TIP3    H1 4941   5.441   1.758   4.887 -1.9722  0.0924  0.5421
 1645TIP3    H2 4942   5.488   1.619   4.851 -2.8699  0.2360 -1.3011
 1646TIP3   OH2 4943   0.283   4.338   3.781 -0.0612  0.1055 -0.2317
 1646TIP3    H1 4944   0.298   4.308   3.871 -0.0379 -0.8479 -0.5395
 1646TIP3    H2 4945   0.193   4.371   3.782  0.0496  0.4125  0.2136
 1647TIP3   OH2 4946   4.606   0.980   3.709 -0.0660  0.5029 -0.0077
 1647TIP3    H1 4947   4.638   1.066   3.683 -1.2702  1.1764  0.6484
 1647TIP3    H2 4948   4.570   0.993   3.797 -0.7696 -0.5264 -0.1241
 1648TIP3   OH2 4949   6.091   5.121   2.265 -0.1628  0.0590  0.6646
 1648TIP3    H1 4950   6.055   5.100   2.179 -2.6214 -0.4817  1.7457
 1648TIP3    H2 4951   6.124   5.037   2.298 -0.9058 -0.1210  0.9694
 1649TIP3   OH2 4952   4.500   5.566   3.830  0.0486 -0.0213  0.3506
 1649TIP3    H1 4953   4.573   5.514   3.863 -0.4078 -0.4791  0.6598
 1649TIP3    H2 4954   4.516   5.654   3.862 -0.5479 -0.5149  2.1022
 1650TIP3   OH2 4955   2.547   5.452   1.812 -0.2628 -0.4977 -0.1102
 1650TIP3    H1 4956   2.489   5.519   1.847 -0.1715 -0.5368  0.1132
 1650TIP3    H2 4957   2.589   5.495   1.737 -0.3546 -0.3726 -0.0919
 1651TIP3   OH2 4958   3.931   5.350   1.453  0.7818  0.1245 -0.0384
 1651TIP3    H1 4959   3.915   5.355   1.359  0.6793  0.3110 -0.0123
 1651TIP3    H2 4960   3.962   5.438   1.476 -1.8361  0.9659  0.5936
 1652TIP3   OH2 4961   3.865   3.950   4.041  0.1269 -0.3097  0.0174
 1652TIP3    H1 4962   3.786   3.976   4.088  0.1205  0.4808 -0.4295
 1652TIP3    H2 4963   3.931   4.016   4.064  0.5892 -0.8075  0.1687
 1653TIP3   OH2 4964   2.460   3.461   0.361  0.0860  0.6568  0.6927
 1653TIP3    H1 4965   2.401   3.515   0.307 -0.8894  0.0985  1.1655
 1653TIP3    H2 4966   2.519   3.524   0.402 -0.1731  1.2380  0.1957
 1654TIP3   OH2 4967   0.332   4.772   2.684 -0.2462 -0.3271  0.1790
 1654TIP3    H1 4968   0.340   4.857   2.726 -2.4884 -0.5985  1.3014
 1654TIP3    H2 4969   0.378   4.712   2.743  2.4971  0.1966 -1.2727
 1655TIP3   OH2 4970   0.109   2.684   1.024  0.1512  0.3691  0.2024
 1655TIP3    H1 4971   0.202   2.672   1.043 -0.1600  0.4268  1.9401
 1655TIP3    H2 4972   0.070   2.598   1.040  0.0712 -0.0338 -1.8759
 1656TIP3   OH2 4973   2.800   3.787   3.561 -0.2199  0.3350  0.4571
 1656TIP3    H1 4974   2.739   3.844   3.609 -0.1397  1.1556 -0.3757
 1656TIP3    H2 4975   2.755   3.769   3.478 -1.7022 -3.5365  1.8931
 1657TIP3   OH2 4976   0.208   5.753   1.112  0.3931  0.2250 -0.6484
 1657TIP3    H1 4977   0.265   5.808   1.166 -1.9517  1.2330  0.9795
 1657TIP3    H2 4978   0.152   5.816   1.066 -0.3212 -0.7480 -1.1212
 1658TIP3   OH2 4979   2.996   5.374   1.282 -0.1043  0.0937 -0.1356
 1658TIP3    H1 4980   2.933   5.437   1.248  0.3959 -0.3970 -2.0789
 1658TIP3    H2 4981   3.047   5.424   1.346 -2.4325  0.4826  1.5698
 1659TIP3   OH2 4982   3.585   2.418   0.497  0.6669 -0.3401 -0.1900
 1659TIP3    H1 4983   3.612   2.509   0.507 -0.0582 -0.2682  1.3471
 1659TIP3    H2 4984   3.494   2.417   0.524  1.0319 -1.7489  1.1011
 1660TIP3   OH2 4985   4.076   3.260   3.820 -0.1829  0.1056 -0.0486
 1660TIP3    H1 4986   3.994   3.297   3.786  0.2479  1.1579  0.0299
 1660TIP3    H2 4987   4.082   3.293   3.910 -0.3046 -1.0253  0.3907
 1661TIP3   OH2 4988   2.856   4.108   2.177  0.4960  0.0009  0.1585
 1661TIP3    H1 4989   2.928   4.068   2.224  0.0173 -1.0143  0.0590
 1661TIP3    H2 4990   2.806   4.155   2.243  1.1193  0.5404  0.2588
 1662TIP3   OH2 4991   2.692   1.074   3.535 -0.1450  0.3537 -0.1435
 1662TIP3    H1 4992   2.679   0.980   3.525  0.1649  0.1360  1.2848
 1662TIP3    H2 4993   2.613   1.113   3.497  0.5837 -0.3405 -2.5766
 1663TIP3   OH2 4994   5.148   5.511   3.606  0.2849 -0.1059 -0.1333
 1663TIP3    H1 4995   5.154   5.498   3.511  1.5074  2.0807 -0.4417
 1663TIP3    H2 4996   5.195   5.594   3.621 -0.8513  0.1832  2.2453
 1664TIP3   OH2 4997   2.253   4.241   3.500 -0.4517 -0.5679 -0.1683
 1664TIP3    H1 4998   2.174   4.270   3.545 -0.6120  0.6476 -1.1745
 1664TIP3    H2 4999   2.224   4.168   3.445 -0.7201 -0.5917  0.0045
 1665TIP3   OH2 5000   4.683   1.239   0.903  0.0814 -0.1043  0.3378
 1665TIP3    H1 5001   4.604   1.284   0.872  0.8990  1.1809  0.0402
 1665TIP3    H2 5002   4.703   1.281   0.987 -0.6228 -1.7680  1.3950
 1666TIP3   OH2 5003   1.177   1.687   1.680  1.0049  0.0111 -0.5981
 1666TIP3    H1 5004   1.258   1.638   1.679  1.5955  0.9528 -0.2889
 1666TIP3    H2 5005   1.116   1.633   1.731  1.0002 -1.3334 -1.9550
 1667TIP3   OH2 5006   5.924   2.740   2.764 -0.1914  0.4903  0.5732
 1667TIP3    H1 5007   5.946   2.745   2.858 -0.2361 -0.5740  0.6512
 1667TIP3    H2 5008   5.847   2.684   2.760 -0.5112  0.9652 -0.0619
 1668TIP3   OH2 5009   4.683   0.417   0.775 -0.3949 -0.2108  0.1624
 1668TIP3    H1 5010   4.699   0.325   0.797 -0.0085 -0.2179 -0.1421
 1668TIP3    H2 5011   4.730   0.466   0.843 -1.6828 -0.2271  1.1036
 1669TIP3   OH2 5012   6.313   4.977   0.655  0.6667 -0.3496 -0.2002
 1669TIP3    H1 5013   6.405   4.954   0.640  0.9642  0.3838  0.4094
 1669TIP3    H2 5014   6.281   4.909   0.714  0.4363 -1.3457 -1.4464
 1670TIP3   OH2 5015   0.328   4.389   4.044 -0.3800 -0.2251 -0.1874
 1670TIP3    H1 5016   0.403   4.380   3.985  0.2772  0.6783  0.4835
 1670TIP3    H2 5017   0.334   4.479   4.077 -1.9328 -0.0355 -0.3493
 1671TIP3   OH2 5018   4.945   1.883   1.306 -0.1742 -0.5357  0.0100
 1671TIP3    H1 5019   5.018   1.946   1.303 -0.7790  0.1899  0.2454
 1671TIP3    H2 5020   4.981   1.804   1.266  1.1597 -0.6239  1.2883
 1672TIP3   OH2 5021   4.250   1.905   3.772 -0.3224 -0.6585  0.0938
 1672TIP3    H1 5022   4.190   1.911   3.846  0.5431 -0.2678  0.7653
 1672TIP3    H2 5023   4.294   1.821   3.784  0.0447 -0.4501  0.1898
 1673TIP3   OH2 5024   4.137   5.261   3.213  0.2859 -0.0337 -0.0454
 1673TIP3    H1 5025   4.141   5.328   3.281  0.0004 -0.0372 -0.0262
 1673TIP3    H2 5026   4.054   5.276   3.168  0.4741 -0.0234 -0.4010
 1674TIP3   OH2 5027   2.475   0.704   2.313  0.4052 -0.2422  0.1330
 1674TIP3    H1 5028   2.427   0.621   2.320  0.1159 -0.0451  0.5399
 1674TIP3    H2 5029   2.523   0.697   2.230  0.0133 -0.6205 -0.0665
 1675TIP3   OH2 5030   4.317   4.216   3.125 -0.0853  0.3183  0.2648
 1675TIP3    H1 5031   4.328   4.288   3.187  0.8201  0.8865 -0.5159
 1675TIP3    H2 5032   4.389   4.227   3.063 -1.3964  0.2607 -1.3628
 1676TIP3   OH2 5033   1.267   5.736   3.507  0.8033 -0.5203  0.0985
 1676TIP3    H1 5034   1.235   5.656   3.549 -1.9777  0.2226 -0.3989
 1676TIP3    H2 5035   1.320   5.779   3.574 -2.0670 -0.2178  2.3931
 1677TIP3   OH2 5036   1.331   0.142   2.067 -0.0956 -0.5671 -0.3514
 1677TIP3    H1 5037   1.355   0.207   2.133 -1.4805 -0.9520  0.5815
 1677TIP3    H2 5038   1.414   0.114   2.029  0.6385  0.5429  0.3833
 1678TIP3   OH2 5039   4.243   1.768   3.325 -0.1512  0.0077  0.0880
 1678TIP3    H1 5040   4.266   1.836   3.261 -1.8348  0.1143 -0.4377
 1678TIP3    H2 5041   4.208   1.817   3.400 -0.5475 -0.2494  0.0681
 1679TIP3   OH2 5042   2.119   1.575   0.234 -0.1618 -0.1648 -0.4117
 1679TIP3    H1 5043   2.177   1.626   0.178 -1.8836  1.1004 -1.1186
 1679TIP3    H2 5044   2.165   1.570   0.318 -0.7226  4.3818  0.4075
 1680TIP3   OH2 5045   5.581   5.481   1.971 -0.2492 -0.0928  0.2963
 1680TIP3    H1 5046   5.672   5.508   1.964 -0.6367  0.9069 -1.5772
 1680TIP3    H2 5047   5.531   5.563   1.967 -1.2814 -0.7331 -0.5476
 1681TIP3   OH2 5048   5.059   4.154   0.061 -0.5110 -0.2106 -0.2675
 1681TIP3    H1 5049   5.019   4.094  -0.003  0.4267 -0.1819 -0.8953
 1681TIP3    H2 5050   5.150   4.125   0.067 -0.1781  0.8199 -0.1786
 1682TIP3   OH2 5051   4.906   1.916   2.452 -0.0218 -0.1404  0.1418
 1682TIP3    H1 5052   4.930   1.875   2.369  1.2625 -0.0807  0.4705
 1682TIP3    H2 5053   4.895   1.842   2.512  1.3826 -0.0621  0.5037
 1683TIP3   OH2 5054   0.199   5.555   0.285 -0.1469 -0.0182 -0.0459
 1683TIP3    H1 5055   0.220   5.586   0.373 -1.3895  0.1458  0.2088
 1683TIP3    H2 5056   0.158   5.629   0.242 -2.6294 -1.0620  0.3826
 1684TIP3   OH2 5057   2.986   1.465   0.032 -0.7041  0.4439  0.1909
 1684TIP3    H1 5058   3.036   1.529  -0.017  0.1066 -0.0313  0.3854
 1684TIP3    H2 5059   2.902   1.459  -0.015 -1.1717  2.3179  0.7073
 1685TIP3   OH2 5060   2.898   5.862   3.282 -0.1773  0.0840  0.3161
 1685TIP3    H1 5061   2.971   5.861   3.219 -0.1267  1.4930  0.3269
 1685TIP3    H2 5062   2.939   5.880   3.366 -0.4690  0.2205  0.4305
 1686TIP3   OH2 5063   2.513   1.089   1.397  0.1771 -0.0082  0.3045
 1686TIP3    H1 5064   2.439   1.124   1.446 -0.7211  1.3560 -1.8439
 1686TIP3    H2 5065   2.479   1.011   1.353 -0.1049  0.7685 -0.8951
 1687TIP3   OH2 5066   4.009   5.198   0.790 -0.2568  0.2801 -0.4652
 1687TIP3    H1 5067   3.922   5.239   0.788  0.4167  1.7765 -0.6438
 1687TIP3    H2 5068   4.059   5.246   0.724  0.5803 -0.8773 -0.6885
 1688TIP3   OH2 5069   3.972   0.693   4.713 -0.0112  0.4665  0.2670
 1688TIP3    H1 5070   4.010   0.631   4.650 -0.1695 -0.0498  0.6763
 1688TIP3    H2 5071   3.884   0.710   4.680  0.2348  0.9304 -0.1645
 1689TIP3   OH2 5072   3.408   0.150   1.216 -0.4050 -0.2403  0.2020
 1689TIP3    H1 5073   3.413   0.197   1.299 -1.6353  0.7933 -0.2755
 1689TIP3    H2 5074   3.321   0.171   1.182 -0.2420 -1.3204 -0.9547
 1690TIP3   OH2 5075   5.146   4.916   2.221 -0.1432  0.1340 -0.3098
 1690TIP3    H1 5076   5.071   4.963   2.186  0.2504  0.4745 -0.6987
 1690TIP3    H2 5077   5.219   4.942   2.166  0.3522  0.1613  0.3510
 1691TIP3   OH2 5078   3.840   3.327   2.056 -0.4852  0.1521  0.2358
 1691TIP3    H1 5079   3.826   3.258   2.120  0.3047  0.4658  0.7667
 1691TIP3    H2 5080   3.911   3.295   2.001 -0.8455  0.0835 -0.1873
 1692TIP3   OH2 5081   0.935   5.104   0.729  0.3644  0.4138  0.3072
 1692TIP3    H1 5082   0.958   5.071   0.642  2.4435 -0.1196  1.0177
 1692TIP3    H2 5083   1.011   5.154   0.757  0.5870 -1.0687  2.6199
 1693TIP3   OH2 5084   5.183   0.754   4.353  0.2429  0.6164 -0.4146
 1693TIP3    H1 5085   5.205   0.826   4.293 -0.8519  1.4491  0.1472
 1693TIP3    H2 5086   5.266   0.707   4.365  0.8184  1.3504 -1.3571
 1694TIP3   OH2 5087   5.004   4.181   1.482 -0.4937  0.5145 -0.1416
 1694TIP3    H1 5088   4.929   4.177   1.541 -0.9582 -0.6093 -0.7667
 1694TIP3    H2 5089   5.080   4.190   1.540 -0.9992  0.1675  0.5881
 1695TIP3   OH2 5090   6.151   3.296   2.331 -0.3216 -0.6729  0.3938
 1695TIP3    H1 5091   6.245   3.281   2.340  0.0654  0.8714 -0.8129
 1695TIP3    H2 5092   6.143   3.373   2.275 -2.3092 -0.5385  0.7711
 1696TIP3   OH2 5093   6.055   4.996   5.079  0.6393 -0.5518 -0.3918
 1696TIP3    H1 5094   6.122   4.942   5.120  0.3690 -2.0427 -1.8145
 1696TIP3    H2 5095   6.095   5.027   4.998  0.3188  0.2998 -0.2346
 1697TIP3   OH2 5096   1.556   4.957   0.899  0.4635  0.4618 -0.1316
 1697TIP3    H1 5097   1.465   4.980   0.917  0.0475  0.8296 -2.4300
 1697TIP3    H2 5098   1.606   5.013   0.958 -0.7666  1.3915  0.0880
 1698TIP3   OH2 5099   2.859   4.658   0.291  0.0052  0.3990 -0.0507
 1698TIP3    H1 5100   2.883   4.742   0.331  1.4806  0.3280 -0.6931
 1698TIP3    H2 5101   2.902   4.660   0.205  0.8905 -1.3858  0.2974
 1699TIP3   OH2 5102   4.951   3.679   3.692 -0.4404  0.1998  0.2865
 1699TIP3    H1 5103   5.023   3.741   3.682 -0.6458  0.3839 -0.0592
 1699TIP3    H2 5104   4.913   3.671   3.604 -0.9263  0.2055  0.4946
 1700TIP3   OH2 5105   3.875   1.826   3.651 -0.4540 -0.1902  0.3483
 1700TIP3    H1 5106   3.798   1.883   3.650 -0.7432 -0.5501 -1.1778
 1700TIP3    H2 5107   3.950   1.886   3.652 -0.7424  0.1712  0.8912
 1701TIP3   OH2 5108   4.126   4.360   2.769  0.3031  0.3670  0.2243
 1701TIP3    H1 5109   4.034   4.362   2.745  0.0942  0.6065  1.0299
 1701TIP3    H2 5110   4.155   4.271   2.747 -0.6115 -0.3379  1.7723
 1702TIP3   OH2 5111   3.665   3.407   1.650  0.5045  0.6286  0.0579
 1702TIP3    H1 5112   3.575   3.379   1.636 -0.0154  2.0842  0.3067
 1702TIP3    H2 5113   3.663   3.502   1.636  1.5471  1.0202  2.1364
 1703TIP3   OH2 5114   1.559   2.854   1.377 -0.7119 -0.4154 -0.4228
 1703TIP3    H1 5115   1.488   2.912   1.405 -0.8264 -0.9525  0.4209
 1703TIP3    H2 5116   1.516   2.769   1.363  0.0534 -1.3228  2.1509
 1704TIP3   OH2 5117   3.288   3.791   1.969  0.0949 -0.4516 -0.1221
 1704TIP3    H1 5118   3.362   3.837   2.011 -0.3038 -0.3639  0.4978
 1704TIP3    H2 5119   3.257   3.852   1.902  1.6114 -1.1510 -1.5129
 1705TIP3   OH2 5120   5.595   0.093   2.106  0.6949 -0.1086 -0.3401
 1705TIP3    H1 5121   5.660   0.102   2.175 -0.4682 -0.3471  0.8199
 1705TIP3    H2 5122   5.644   0.057   2.032  1.9381  0.0336  0.3812
 1706TIP3   OH2 5123   6.198   2.139   2.508 -0.3501  0.6037  0.2271
 1706TIP3    H1 5124   6.122   2.190   2.536  0.3193  2.0218 -0.4130
 1706TIP3    H2 5125   6.216   2.081   2.581 -0.9520  1.5123  1.1366
 1707TIP3   OH2 5126   0.483   5.698   2.943 -0.1188 -0.5794 -0.3708
 1707TIP3    H1 5127   0.438   5.780   2.923  1.0024  0.1402 -0.0430
 1707TIP3    H2 5128   0.568   5.725   2.979  0.0949 -1.8808  0.1747
 1708TIP3   OH2 5129   1.287   2.392   3.327 -0.5676  0.2293 -0.1833
 1708TIP3    H1 5130   1.312   2.457   3.261 -1.6301  1.1654  0.3076
 1708TIP3    H2 5131   1.243   2.324   3.277  1.3741 -0.6354 -0.8316
 1709TIP3   OH2 5132   1.645   1.407   3.813 -0.0820 -0.5018  0.0581
 1709TIP3    H1 5133   1.681   1.465   3.880 -0.1223  0.1868 -0.5062
 1709TIP3    H2 5134   1.670   1.447   3.730 -1.9868 -0.0742 -0.3601
 1710TIP3   OH2 5135   1.109   0.475   2.632  0.1638 -0.0198 -0.1958
 1710TIP3    H1 5136   1.199   0.492   2.659 -0.3336  0.7465  1.0364
 1710TIP3    H2 5137   1.101   0.380   2.632  0.8202 -0.0761  0.2129
 1711TIP3   OH2 5138   1.822   0.735   3.806 -0.0071 -0.6353  0.3751
 1711TIP3    H1 5139   1.900   0.687   3.780 -0.0400  0.3041 -1.5949
 1711TIP3    H2 5140   1.753   0.704   3.748 -0.5415  0.2418  0.5154
 1712TIP3   OH2 5141   1.565   1.341   2.969  0.1459 -0.8989  0.3684
 1712TIP3    H1 5142   1.575   1.325   2.875  1.4347 -0.1848  0.3611
 1712TIP3    H2 5143   1.650   1.374   2.997  0.0632 -1.9428  1.9718
 1713TIP3   OH2 5144   5.246   5.787   3.718 -0.2811  0.5159 -0.1105
 1713TIP3    H1 5145   5.298   5.863   3.690 -0.7729  0.8630 -0.1107
 1713TIP3    H2 5146   5.156   5.813   3.699 -0.3980 -0.3993 -0.8835
 1714TIP3   OH2 5147   5.869   4.248   2.347 -0.3499  0.6200  0.1106
 1714TIP3    H1 5148   5.862   4.321   2.409 -0.2711  0.3970  0.3842
 1714TIP3    H2 5149   5.960   4.221   2.352 -0.2341  0.8941 -0.4441
 1715TIP3   OH2 5150   5.996   2.029   3.497  0.2048  0.7276 -0.7355
 1715TIP3    H1 5151   5.964   2.105   3.546 -1.0530  0.8070 -1.6467
 1715TIP3    H2 5152   5.964   1.954   3.546 -0.7759  0.8049 -1.2491
 1716TIP3   OH2 5153   4.886   5.449   2.718 -0.1456 -0.0341  0.0598
 1716TIP3    H1 5154   4.850   5.368   2.754  0.5388  0.0937  1.0749
 1716TIP3    H2 5155   4.809   5.505   2.702 -0.5499 -0.5346  0.2330
 1717TIP3   OH2 5156   2.738   2.763   2.442  0.6602 -0.1186  0.0721
 1717TIP3    H1 5157   2.797   2.814   2.386  0.7822 -1.0362 -0.6616
 1717TIP3    H2 5158   2.661   2.819   2.452  0.3718 -0.1661 -1.5628
 1718TIP3   OH2 5159   0.454   3.305   2.368 -0.2454  0.2764 -0.1095
 1718TIP3    H1 5160   0.437   3.233   2.428 -1.0790  1.6581  1.3719
 1718TIP3    H2 5161   0.550   3.307   2.359 -0.2160 -1.0765 -0.3143
 1719TIP3   OH2 5162   3.971   0.556   0.801 -1.1057  0.9693 -0.3691
 1719TIP3    H1 5163   3.921   0.505   0.865 -0.9134 -0.4579 -1.3123
 1719TIP3    H2 5164   3.929   0.642   0.801 -1.6503  0.7356  1.0242
 1720TIP3   OH2 5165   1.208  -0.013   4.122  0.2279 -0.6686  0.2427
 1720TIP3    H1 5166   1.198   0.047   4.196 -0.7382 -0.4467 -0.0624
 1720TIP3    H2 5167   1.236   0.042   4.050 -0.9095 -0.5277 -0.1044
 1721TIP3   OH2 5168   1.663   5.841   5.094  0.5537  0.2039 -0.6340
 1721TIP3    H1 5169   1.707   5.783   5.156  0.0788  0.9397  0.4192
 1721TIP3    H2 5170   1.598   5.888   5.146 -0.3638  0.3319 -1.8290
 1722TIP3   OH2 5171   4.978   2.737   0.613 -0.2132 -0.1467 -0.0257
 1722TIP3    H1 5172   4.983   2.808   0.677 -3.4182  0.2837 -0.0700
 1722TIP3    H2 5173   4.970   2.658   0.665 -2.3200  0.1597  0.2369
 1723TIP3   OH2 5174   5.798   5.336   0.028 -0.5852  0.8559 -0.2565
 1723TIP3    H1 5175   5.811   5.263  -0.033 -0.6826  1.3619 -0.8912
 1723TIP3    H2 5176   5.859   5.317   0.100 -0.7763  0.0310 -0.2985
 1724TIP3   OH2 5177   5.396   0.234   1.194  0.4337 -0.1957  0.8327
 1724TIP3    H1 5178   5.410   0.139   1.194  1.1883 -0.0948  1.4588
 1724TIP3    H2 5179   5.445   0.265   1.270  1.1138  0.8380 -0.0117
 1725TIP3   OH2 5180   4.157   2.320   4.907 -0.2276  0.4229 -0.1507
 1725TIP3    H1 5181   4.137   2.405   4.868 -0.2348  0.5853  0.2029
 1725TIP3    H2 5182   4.073   2.286   4.936  0.0298  1.4260  1.9869
 1726TIP3   OH2 5183   5.850   1.957   1.512  0.1257 -0.2103 -0.3710
 1726TIP3    H1 5184   5.769   1.945   1.462  0.1286 -2.9613  0.1064
 1726TIP3    H2 5185   5.835   1.911   1.594  1.0461  2.0723  1.1761
 1727TIP3   OH2 5186   0.950   0.727   0.913  0.2063 -0.5357 -0.0783
 1727TIP3    H1 5187   0.911   0.641   0.928 -2.4255  0.4644 -0.6648
 1727TIP3    H2 5188   0.997   0.718   0.830 -1.7677 -0.9322 -1.2212
 1728TIP3   OH2 5189   6.163   2.488   2.599 -0.0394 -0.5998  0.3841
 1728TIP3    H1 5190   6.078   2.528   2.614  0.3658  1.0499 -1.2893
 1728TIP3    H2 5191   6.147   2.394   2.603 -1.6266 -0.3159  1.5186
 1729TIP3   OH2 5192   4.914   4.387   0.339  0.0699 -0.3481 -0.1172
 1729TIP3    H1 5193   4.932   4.294   0.328 -0.4488 -0.3333 -1.1509
 1729TIP3    H2 5194   4.844   4.390   0.405 -0.0219 -0.6998 -0.1964
 1730TIP3   OH2 5195   3.766   4.712   3.551  0.4046 -0.5025 -0.2336
 1730TIP3    H1 5196   3.841   4.653   3.560  1.5621  0.8193 -0.9008
 1730TIP3    H2 5197   3.744   4.736   3.641 -0.3441 -2.2183  0.0799
 1731TIP3   OH2 5198   4.885   5.640   4.669 -0.2822  0.4911 -0.0858
 1731TIP3    H1 5199   4.796   5.671   4.688 -0.3717 -0.4132  1.0854
 1731TIP3    H2 5200   4.888   5.552   4.706  1.0520  0.4463 -0.2580
 1732TIP3   OH2 5201   5.831   3.081   1.684  0.6262  0.2944 -0.2266
 1732TIP3    H1 5202   5.835   2.986   1.672 -0.1367  0.0640  1.1322
 1732TIP3    H2 5203   5.759   3.109   1.627 -1.0248 -0.3690  1.4361
 1733TIP3   OH2 5204   4.101   4.817   4.525 -0.0277  0.2432 -0.7422
 1733TIP3    H1 5205   4.084   4.809   4.431  2.7862 -1.9435 -1.2168
 1733TIP3    H2 5206   4.039   4.757   4.566  0.7758 -1.2114 -1.5652
 1734TIP3   OH2 5207   5.771   3.161   0.576 -0.5601 -0.7063  0.0558
 1734TIP3    H1 5208   5.764   3.235   0.636  0.7512 -0.4207 -0.1213
 1734TIP3    H2 5209   5.809   3.091   0.627  0.4642 -0.4955 -0.3987
 1735TIP3   OH2 5210   1.740   1.894   1.033  0.5509 -0.2792  0.5794
 1735TIP3    H1 5211   1.656   1.872   1.075 -0.1911  1.0407 -0.1313
 1735TIP3    H2 5212   1.760   1.817   0.979 -1.0440 -0.0101 -0.4781
 1736TIP3   OH2 5213   1.957   2.190   4.807 -0.1166 -0.1690  0.1688
 1736TIP3    H1 5214   1.911   2.212   4.726 -0.8204 -1.0465  0.3195
 1736TIP3    H2 5215   1.888   2.167   4.869  0.4482 -0.0984  0.8442
 1737TIP3   OH2 5216   6.325   2.778   2.524  0.2005 -0.5290  0.1153
 1737TIP3    H1 5217   6.322   2.874   2.523 -0.1803 -0.5310  0.4384
 1737TIP3    H2 5218   6.235   2.752   2.542  0.4938 -0.9180  1.1024
 1738TIP3   OH2 5219   3.651   0.108   4.091  0.2604 -0.0484  0.6893
 1738TIP3    H1 5220   3.561   0.115   4.060  0.5297  0.2787 -0.0436
 1738TIP3    H2 5221   3.644   0.060   4.174 -0.4042 -1.7639 -0.2950
 1739TIP3   OH2 5222   2.798   3.531   2.151 -0.3055  0.4999 -0.0635
 1739TIP3    H1 5223   2.713   3.572   2.166  0.3508  2.4130 -1.2106
 1739TIP3    H2 5224   2.778   3.444   2.117 -1.7720  0.5442  0.6157
 1740TIP3   OH2 5225   2.447   5.623   4.605 -0.4769  0.0273 -0.6566
 1740TIP3    H1 5226   2.480   5.544   4.561 -1.1229  0.4531 -1.9612
 1740TIP3    H2 5227   2.367   5.646   4.557 -0.0982  1.7002 -0.5583
 1741TIP3   OH2 5228   6.152   4.851   4.423  0.1780  0.3278 -0.8076
 1741TIP3    H1 5229   6.121   4.932   4.381 -2.0858  1.0779  2.0202
 1741TIP3    H2 5230   6.227   4.879   4.476 -0.4156  0.5454 -0.0684
 1742TIP3   OH2 5231   5.075   0.508   0.035  0.0356  0.4508  0.2676
 1742TIP3    H1 5232   5.141   0.481  -0.028 -0.2068 -0.8398  0.5486
 1742TIP3    H2 5233   5.110   0.484   0.120 -1.1423 -1.0930  0.3664
 1743TIP3   OH2 5234   2.861   3.422   0.430 -0.0093 -0.1438  0.2285
 1743TIP3    H1 5235   2.946   3.381   0.451 -0.4530 -2.4944 -2.0276
 1743TIP3    H2 5236   2.884   3.496   0.373  0.5562 -0.6318 -0.1917
 1744TIP3   OH2 5237   0.886   4.144   1.228 -0.3287  0.0209  0.2876
 1744TIP3    H1 5238   0.885   4.151   1.132  2.2435  1.3413  0.2682
 1744TIP3    H2 5239   0.806   4.189   1.256 -0.6553  0.4321 -1.2135
 1745TIP3   OH2 5240   2.318   1.138   4.161 -0.1340  0.2455  0.0250
 1745TIP3    H1 5241   2.412   1.149   4.173 -0.1374  0.3805 -0.0719
 1745TIP3    H2 5242   2.291   1.216   4.113 -0.3317  0.3060  0.2358
 1746TIP3   OH2 5243   4.108   3.821   2.658  0.2589  0.4193  0.5441
 1746TIP3    H1 5244   4.032   3.792   2.606  0.9371 -0.5000  0.0385
 1746TIP3    H2 5245   4.170   3.853   2.593  0.8874 -0.1923  0.8428
 1747TIP3   OH2 5246   5.268   0.844   3.860 -0.3470  0.0553  0.5740
 1747TIP3    H1 5247   5.301   0.934   3.862  0.6060 -0.2334 -0.9188
 1747TIP3    H2 5248   5.346   0.790   3.876 -0.6421 -0.5433  0.0281
 1748TIP3   OH2 5249   4.579   4.473   2.125  0.0046 -0.1206 -0.2459
 1748TIP3    H1 5250   4.673   4.486   2.109  0.3150 -1.1536  0.6073
 1748TIP3    H2 5251   4.549   4.557   2.159  0.5192  0.3540 -0.9301
 1749TIP3   OH2 5252   4.057   4.836   1.978  0.2277 -0.2301  0.0079
 1749TIP3    H1 5253   4.118   4.888   2.032 -1.3607  0.4306  1.2340
 1749TIP3    H2 5254   4.001   4.901   1.936 -1.4717 -0.8617  1.1710
 1750TIP3   OH2 5255   4.581   2.724   4.645 -0.0200 -0.6032  0.7347
 1750TIP3    H1 5256   4.529   2.795   4.684 -1.3600 -1.7549  1.1405
 1750TIP3    H2 5257   4.551   2.645   4.690  0.2292 -1.6423 -0.8421
 1751TIP3   OH2 5258   0.025   2.517   2.772  0.1683 -0.4334 -0.5346
 1751TIP3    H1 5259   0.054   2.430   2.799 -1.0205 -0.9255 -0.7925
 1751TIP3    H2 5260  -0.018   2.503   2.687  1.8788  0.7497 -1.6776
 1752TIP3   OH2 5261   5.053   0.731   1.148 -0.7345 -0.5854 -0.0742
 1752TIP3    H1 5262   5.086   0.646   1.177  0.0700 -0.4507 -0.5507
 1752TIP3    H2 5263   5.043   0.782   1.228 -1.8706 -1.3421  0.2820
 1753TIP3   OH2 5264   2.856   2.911   3.647 -0.2913 -0.2809  0.0257
 1753TIP3    H1 5265   2.934   2.955   3.680 -0.3432  0.1696 -0.4446
 1753TIP3    H2 5266   2.809   2.977   3.596 -0.7702 -0.6587 -0.0414
 1754TIP3   OH2 5267   0.364   1.933   3.775  0.0920 -0.3646  0.0548
 1754TIP3    H1 5268   0.302   1.994   3.814 -0.6211 -0.4063 -0.9687
 1754TIP3    H2 5269   0.447   1.951   3.819 -0.2663  0.8549  0.2496
 1755TIP3   OH2 5270   2.450   0.334   0.895 -0.2846  0.5589 -0.5316
 1755TIP3    H1 5271   2.512   0.386   0.946  2.7334 -1.9160 -1.3401
 1755TIP3    H2 5272   2.447   0.249   0.940 -1.8552  0.0713 -1.4521
 1756TIP3   OH2 5273   2.483   5.894   3.371  0.0779 -0.1661 -0.0334
 1756TIP3    H1 5274   2.540   5.817   3.371  1.9928  1.1653 -0.7350
 1756TIP3    H2 5275   2.493   5.931   3.459 -0.1744 -0.2598  0.0344
 1757TIP3   OH2 5276   5.395   1.196   3.425  0.0621 -0.7327 -0.2046
 1757TIP3    H1 5277   5.477   1.246   3.428  0.7683 -1.8266 -0.3545
 1757TIP3    H2 5278   5.352   1.224   3.345  0.3626 -0.2514 -0.1985
 1758TIP3   OH2 5279   5.510   0.355   3.699  0.4858  0.1010 -0.2049
 1758TIP3    H1 5280   5.486   0.328   3.610 -0.3308  2.5995 -0.8124
 1758TIP3    H2 5281   5.427   0.381   3.739  1.0671  0.6070  0.7094
 1759TIP3   OH2 5282   4.979   5.253   3.389 -0.2087  0.7920 -0.7085
 1759TIP3    H1 5283   4.928   5.258   3.308 -0.8460  0.6948 -0.3248
 1759TIP3    H2 5284   4.930   5.307   3.451  0.9577  1.9237 -0.7295
 1760TIP3   OH2 5285   3.701   5.509   1.949  0.2256 -0.3027 -0.1588
 1760TIP3    H1 5286   3.612   5.545   1.944  0.6876  1.2124  1.4454
 1760TIP3    H2 5287   3.704   5.444   1.880 -1.2902  1.4358 -1.9950
 1761TIP3   OH2 5288   2.802   0.786   4.119  0.0230 -0.3949  0.1574
 1761TIP3    H1 5289   2.864   0.858   4.115  0.7858 -1.0541 -0.1425
 1761TIP3    H2 5290   2.760   0.786   4.033  3.0732 -2.9100 -1.5351
 1762TIP3   OH2 5291   3.259   4.930   4.898  0.1222  0.3943 -0.0475
 1762TIP3    H1 5292   3.329   4.866   4.883  0.8266  1.5960 -2.4456
 1762TIP3    H2 5293   3.178   4.881   4.879  0.6147  0.0387 -1.3223
 1763TIP3   OH2 5294   4.488   0.843   0.257  0.7394 -0.6076  0.8468
 1763TIP3    H1 5295   4.457   0.893   0.333 -0.8898  1.1364 -0.8319
 1763TIP3    H2 5296   4.550   0.901   0.213  0.5031 -0.9307  0.0535
 1764TIP3   OH2 5297   1.714   5.745   4.810  0.4349 -0.3797 -0.0637
 1764TIP3    H1 5298   1.797   5.730   4.856 -0.9683 -0.3814  2.6961
 1764TIP3    H2 5299   1.680   5.826   4.848 -1.4059 -1.0526 -0.1824
 1765TIP3   OH2 5300   3.802   1.869   1.029  0.1822 -0.2710 -0.0036
 1765TIP3    H1 5301   3.863   1.857   0.956 -0.4155 -0.6354 -0.4514
 1765TIP3    H2 5302   3.822   1.956   1.063 -1.3556  1.1344 -2.3742
 1766TIP3   OH2 5303   4.609   4.198   2.723 -0.7687  0.3288 -0.0150
 1766TIP3    H1 5304   4.589   4.234   2.637 -2.5732 -0.8805 -0.1526
 1766TIP3    H2 5305   4.525   4.168   2.757 -0.0268  0.3551  1.9844
 1767TIP3   OH2 5306   4.720   1.445   2.761 -0.2059 -0.3849  0.6536
 1767TIP3    H1 5307   4.784   1.493   2.814  0.4931 -0.0675 -0.4364
 1767TIP3    H2 5308   4.689   1.375   2.818  0.6634 -0.1731  1.4115
 1768TIP3   OH2 5309   3.092   5.383   4.686 -0.0712  0.0667 -0.1087
 1768TIP3    H1 5310   3.091   5.287   4.695 -1.5429  0.1863  2.0187
 1768TIP3    H2 5311   3.054   5.400   4.600  0.3646 -1.2549 -0.5831
 1769TIP3   OH2 5312   2.978   0.838   0.094 -0.0178  0.6183  0.1898
 1769TIP3    H1 5313   2.969   0.925   0.055 -2.3649  0.7627  0.8880
 1769TIP3    H2 5314   2.974   0.853   0.188 -0.9740 -0.2735  0.3110
 1770TIP3   OH2 5315   4.355   2.068   2.237 -0.2095 -0.0554 -0.2223
 1770TIP3    H1 5316   4.322   2.097   2.152 -0.9457 -2.4141 -0.8339
 1770TIP3    H2 5317   4.280   2.026   2.280  0.2522  0.7377  1.4470
 1771TIP3   OH2 5318   2.808   3.394   1.129 -0.4065 -0.2932 -0.2456
 1771TIP3    H1 5319   2.721   3.356   1.138 -1.0911  1.2537  0.0520
 1771TIP3    H2 5320   2.837   3.410   1.219 -0.0151 -0.3821 -0.3554
 1772TIP3   OH2 5321   3.870   4.046   2.296 -0.2216 -0.2098 -0.1540
 1772TIP3    H1 5322   3.793   4.057   2.351  0.4293 -3.9711  1.7940
 1772TIP3    H2 5323   3.944   4.057   2.355  0.5647 -2.1869 -0.6940
 1773TIP3   OH2 5324   2.840   4.996   2.333 -0.2386 -0.1036 -0.3251
 1773TIP3    H1 5325   2.820   5.033   2.247  2.4847 -0.5127 -1.2034
 1773TIP3    H2 5326   2.791   4.914   2.336 -0.7296  0.1366 -1.2785
 1774TIP3   OH2 5327   4.935   3.112   2.227  0.0205  0.4201 -0.0196
 1774TIP3    H1 5328   4.878   3.041   2.198  0.2283  0.2745 -0.0701
 1774TIP3    H2 5329   4.879   3.166   2.284  0.6131 -1.3573  2.4030
 1775TIP3   OH2 5330   3.930   5.814   3.872 -0.1547 -0.2111  0.0871
 1775TIP3    H1 5331   3.923   5.825   3.967 -0.8814 -1.0859  0.1418
 1775TIP3    H2 5332   3.981   5.734   3.861 -1.0518 -0.7479 -0.2428
 1776TIP3   OH2 5333   4.962   5.570   3.379 -0.3013  0.4345  0.1949
 1776TIP3    H1 5334   4.917   5.653   3.361 -0.3132  0.2424 -0.6987
 1776TIP3    H2 5335   4.892   5.508   3.399 -0.2373  0.9128  2.1687
 1777TIP3   OH2 5336   0.488   5.250   3.127  0.1049  0.7953 -0.3888
 1777TIP3    H1 5337   0.562   5.257   3.067  0.4636 -0.4718 -0.1201
 1777TIP3    H2 5338   0.435   5.327   3.108  1.3031  1.5479 -0.8305
 1778TIP3   OH2 5339   2.579   3.596   4.527 -0.0364  0.0533 -0.1136
 1778TIP3    H1 5340   2.654   3.602   4.586 -1.3591  1.2896  1.5536
 1778TIP3    H2 5341   2.574   3.504   4.503  2.0474 -0.0392 -0.3507
 1779TIP3   OH2 5342   2.709   4.041   4.128  0.1173 -0.2211 -0.4373
 1779TIP3    H1 5343   2.620   4.048   4.095  0.1173 -0.2046 -0.4340
 1779TIP3    H2 5344   2.736   4.132   4.142 -0.3576 -0.2777  0.9201
 1780TIP3   OH2 5345   0.595   4.533   0.902  0.1902  0.1287  0.3202
 1780TIP3    H1 5346   0.690   4.530   0.913  0.0434 -1.2943  1.5524
 1780TIP3    H2 5347   0.564   4.588   0.973 -0.0264 -0.9898  1.1184
 1781TIP3   OH2 5348   1.678   3.779   3.768 -0.6080 -0.0090 -0.2036
 1781TIP3    H1 5349   1.636   3.697   3.793 -3.4361  1.0814 -0.9229
 1781TIP3    H2 5350   1.611   3.825   3.717  1.0961  2.4805 -0.3662
 1782TIP3   OH2 5351   0.089   3.848   3.427  0.4322  0.3204  0.4373
 1782TIP3    H1 5352   0.021   3.915   3.426  0.5254  0.4162  0.1827
 1782TIP3    H2 5353   0.084   3.808   3.514 -0.4930 -0.2313  0.1425
 1783TIP3   OH2 5354   6.251   5.232   0.919  0.4657 -0.2382 -0.0968
 1783TIP3    H1 5355   6.240   5.150   0.967 -0.0319  0.1644  0.4888
 1783TIP3    H2 5356   6.289   5.206   0.835 -0.4059 -1.1483 -0.2239
 1784TIP3   OH2 5357   1.906   2.599   0.796  0.1016 -0.3448  0.2578
 1784TIP3    H1 5358   1.950   2.655   0.860  2.8822 -3.1432  1.0646
 1784TIP3    H2 5359   1.944   2.624   0.712 -1.3823  1.3470  0.0471
 1785TIP3   OH2 5360   5.522   1.198   4.875 -0.0404  0.9872  0.0708
 1785TIP3    H1 5361   5.565   1.118   4.903 -0.6480  1.6924  3.4497
 1785TIP3    H2 5362   5.445   1.169   4.827 -0.0268 -0.4508  0.8842
 1786TIP3   OH2 5363   5.276   4.366   3.074 -0.3530  0.4952 -0.0524
 1786TIP3    H1 5364   5.252   4.362   3.167  1.4143  0.7995  0.4603
 1786TIP3    H2 5365   5.196   4.391   3.029 -1.7152 -1.4370  1.1718
 1787TIP3   OH2 5366   3.222   1.895   5.040 -0.2806  0.1430 -0.0534
 1787TIP3    H1 5367   3.214   1.814   5.090  1.1545  0.2165  0.3218
 1787TIP3    H2 5368   3.146   1.895   4.982 -0.3249 -1.4449 -0.0267
 1788TIP3   OH2 5369   1.688   1.599   5.038  0.3009  0.5229 -0.6449
 1788TIP3    H1 5370   1.668   1.668   4.975  1.6867  2.5594  1.0070
 1788TIP3    H2 5371   1.634   1.619   5.114  0.6505 -0.2978 -0.1680
 1789TIP3   OH2 5372   5.209   3.447   4.364 -0.7300 -0.0254  0.1959
 1789TIP3    H1 5373   5.210   3.507   4.290  0.3149  0.0126  0.2227
 1789TIP3    H2 5374   5.123   3.458   4.403 -0.3839  1.8782  0.5161
 1790TIP3   OH2 5375   3.651   3.120   5.042  0.1298  0.3781 -0.6049
 1790TIP3    H1 5376   3.563   3.130   5.005  0.4206  0.5097 -1.2679
 1790TIP3    H2 5377   3.636   3.077   5.127 -0.6342  1.1250 -0.3464
 1791TIP3   OH2 5378   3.833   3.915  -0.001  0.1157  0.1845 -0.5221
 1791TIP3    H1 5379   3.810   4.005  -0.025  0.4368 -0.1662 -2.2530
 1791TIP3    H2 5380   3.924   3.921   0.030  0.1181  0.4543 -0.5793
 1792TIP3   OH2 5381   4.245   0.539   0.715 -0.7773  0.2252 -0.0150
 1792TIP3    H1 5382   4.324   0.484   0.720  0.0744  1.2671 -1.2383
 1792TIP3    H2 5383   4.173   0.477   0.725  0.1711 -0.8816  0.3182
 1793TIP3   OH2 5384   5.343   4.648   4.679  0.4171  0.1744 -0.1545
 1793TIP3    H1 5385   5.356   4.738   4.650 -2.0504  0.5994 -0.1358
 1793TIP3    H2 5386   5.309   4.656   4.768  1.8834 -0.8776  0.5414
 1794TIP3   OH2 5387   2.877   5.318   0.741  0.2034  0.3087  0.1575
 1794TIP3    H1 5388   2.969   5.344   0.741  0.3683 -0.2499  1.1357
 1794TIP3    H2 5389   2.863   5.276   0.826 -0.5155 -1.1216 -0.6186
 1795TIP3   OH2 5390   1.683   4.702   4.776  0.7590  0.3976 -0.1919
 1795TIP3    H1 5391   1.638   4.619   4.794 -0.4762  1.1896  0.5097
 1795TIP3    H2 5392   1.757   4.703   4.837  0.5219  0.0174  0.1065
 1796TIP3   OH2 5393   5.414   4.608   2.863 -0.4541 -0.7341  0.1159
 1796TIP3    H1 5394   5.366   4.557   2.797 -2.3198 -0.5530  1.2712
 1796TIP3    H2 5395   5.352   4.674   2.892  1.1792  0.8022  0.2937
 1797TIP3   OH2 5396   5.451   5.820   2.751  0.1246 -0.1055  0.0043
 1797TIP3    H1 5397   5.488   5.733   2.732 -1.0679 -0.4194 -1.0072
 1797TIP3    H2 5398   5.452   5.865   2.667  0.3774  0.7338  0.4509
 1798TIP3   OH2 5399   5.831   1.073   0.577  0.0708  0.2949 -0.0953
 1798TIP3    H1 5400   5.754   1.025   0.608 -1.3993  1.3099 -1.9810
 1798TIP3    H2 5401   5.863   1.022   0.503  1.1470 -0.0439  0.5940
 1799TIP3   OH2 5402   2.347   1.866   4.686  0.5872  0.3018  0.2743
 1799TIP3    H1 5403   2.326   1.858   4.593 -2.0965  0.3164  0.8123
 1799TIP3    H2 5404   2.263   1.862   4.730  1.9314 -3.2385  3.0112
 1800TIP3   OH2 5405   0.627   4.285   1.285 -0.2353  0.0614 -0.1966
 1800TIP3    H1 5406   0.683   4.362   1.298  0.6083 -0.7850  1.4536
 1800TIP3    H2 5407   0.538   4.321   1.281  0.2090  1.1982 -0.3006
 1801TIP3   OH2 5408   4.391   3.628   2.857  0.1505  0.3243  0.2300
 1801TIP3    H1 5409   4.342   3.709   2.844 -1.5175 -0.4705  1.2310
 1801TIP3    H2 5410   4.426   3.635   2.946  0.5057  0.1772  0.1053
 1802TIP3   OH2 5411   3.755   3.431   4.200 -0.3590  0.4579 -0.1124
 1802TIP3    H1 5412   3.788   3.514   4.165  1.1134 -0.1134 -0.1634
 1802TIP3    H2 5413   3.786   3.365   4.138 -2.6381 -0.0480 -0.7976
 1803TIP3   OH2 5414   6.169   0.829   4.118  0.0688  0.8487 -0.2214
 1803TIP3    H1 5415   6.212   0.874   4.045 -0.1417 -0.8621 -1.4451
 1803TIP3    H2 5416   6.083   0.869   4.124 -0.2498  0.4065 -1.5288
 1804TIP3   OH2 5417   1.664   0.446   3.721  0.1578  0.0865 -0.1001
 1804TIP3    H1 5418   1.636   0.526   3.766  0.2432  0.1724 -0.1972
 1804TIP3    H2 5419   1.584   0.397   3.705  0.0796  0.2598 -0.2409
 1805TIP3   OH2 5420   1.703   5.414   4.291  0.6035 -0.1676 -0.2597
 1805TIP3    H1 5421   1.796   5.437   4.282  0.8482 -1.2377 -0.5652
 1805TIP3    H2 5422   1.699   5.362   4.371  0.1666  0.3077  0.0376
 1806TIP3   OH2 5423   4.778   5.597   3.902  0.2848  0.3141 -0.6210
 1806TIP3    H1 5424   4.854   5.592   3.845  0.3899  0.4200 -0.4895
 1806TIP3    H2 5425   4.808   5.646   3.978 -0.1689  1.2005 -0.9917
 1807TIP3   OH2 5426   3.255   2.862   3.352 -0.0533 -0.3330 -0.4648
 1807TIP3    H1 5427   3.333   2.809   3.338 -0.7926 -1.2410 -1.2177
 1807TIP3    H2 5428   3.186   2.799   3.371 -0.5811  0.4713  0.3761
 1808TIP3   OH2 5429   2.542   3.182   0.295 -0.4337 -0.2169 -0.3454
 1808TIP3    H1 5430   2.515   3.273   0.305  0.4264 -0.0589  0.7945
 1808TIP3    H2 5431   2.474   3.142   0.241 -0.7488  1.1300 -0.9717
 1809TIP3   OH2 5432   3.863   1.377   1.621 -0.6516 -0.2169  0.2897
 1809TIP3    H1 5433   3.817   1.293   1.615 -0.3705 -0.2949 -1.1218
 1809TIP3    H2 5434   3.800   1.436   1.662 -3.0913  0.3129 -3.6485
 1810TIP3   OH2 5435   0.363   0.756   2.249  0.1189 -0.1398 -0.6139
 1810TIP3    H1 5436   0.421   0.816   2.203  1.4733 -1.1021 -0.2179
 1810TIP3    H2 5437   0.275   0.786   2.227  0.7539  0.8940 -1.8498
 1811TIP3   OH2 5438   0.199   1.046   0.729  0.0684 -0.4267  0.3316
 1811TIP3    H1 5439   0.261   1.097   0.677  0.0257 -0.5085  0.2006
 1811TIP3    H2 5440   0.143   1.111   0.771 -0.4103 -0.3841 -0.3578
 1812TIP3   OH2 5441   3.359   4.388   3.047  1.0237  0.4648 -0.5006
 1812TIP3    H1 5442   3.360   4.374   3.141  2.2894  1.3208 -0.3718
 1812TIP3    H2 5443   3.428   4.331   3.013 -1.0759 -1.8332 -1.2711
 1813TIP3   OH2 5444   4.311   4.800   3.207 -0.1909  0.4771 -0.4501
 1813TIP3    H1 5445   4.266   4.732   3.256 -1.3975  0.5916 -1.3341
 1813TIP3    H2 5446   4.312   4.876   3.265 -0.1723  0.1421 -0.0151
 1814TIP3   OH2 5447   0.791   5.943   1.277 -0.8020 -0.5000 -0.6424
 1814TIP3    H1 5448   0.823   6.033   1.288 -1.0506 -0.5482  0.5712
 1814TIP3    H2 5449   0.771   5.937   1.183  0.1847  0.3779 -0.9272
 1815TIP3   OH2 5450   6.011   3.717   2.691  0.5475 -0.2792  0.0656
 1815TIP3    H1 5451   6.060   3.745   2.614  2.5325 -2.3847  0.4409
 1815TIP3    H2 5452   6.020   3.790   2.752  1.0405  0.4340 -0.8333
 1816TIP3   OH2 5453   1.321   2.188   0.116 -0.7635  0.1361 -0.1178
 1816TIP3    H1 5454   1.243   2.181   0.171 -0.4357  0.1500  0.3541
 1816TIP3    H2 5455   1.341   2.098   0.090 -1.0600  0.1548 -0.4206
 1817TIP3   OH2 5456   5.230   5.527   3.132  0.5175 -0.4222 -0.2675
 1817TIP3    H1 5457   5.155   5.554   3.079  1.3896 -0.4117 -1.5432
 1817TIP3    H2 5458   5.191   5.483   3.208 -0.7836  0.1170 -0.5995
 1818TIP3   OH2 5459   5.620   3.229   3.405 -0.6202 -0.1801 -0.0808
 1818TIP3    H1 5460   5.551   3.198   3.346 -0.8323 -0.3616  0.2623
 1818TIP3    H2 5461   5.598   3.321   3.420  0.9005  0.6526 -2.3887
 1819TIP3   OH2 5462   3.140   0.191   3.663  0.1265 -0.4394  0.5086
 1819TIP3    H1 5463   3.122   0.203   3.570 -0.4890 -0.0083  0.6804
 1819TIP3    H2 5464   3.200   0.263   3.685  0.3110 -0.5698  0.4428
 1820TIP3   OH2 5465   5.983   1.303   3.465  0.5629 -0.1070  0.5977
 1820TIP3    H1 5466   5.893   1.322   3.439  0.2152 -1.3198  0.8601
 1820TIP3    H2 5467   6.031   1.298   3.382  0.3042  0.1294  0.4333
 1821TIP3   OH2 5468   4.586   5.002   3.909  0.0253 -0.2473  0.0185
 1821TIP3    H1 5469   4.626   5.004   3.996  2.7523 -0.4072 -1.1073
 1821TIP3    H2 5470   4.655   5.036   3.851 -1.5119 -0.6189 -2.1428
 1822TIP3   OH2 5471   3.956   1.244   2.353  0.2930  0.3732 -0.0752
 1822TIP3    H1 5472   4.016   1.280   2.289  1.1134 -0.2713  0.3158
 1822TIP3    H2 5473   3.872   1.240   2.308  0.5420  1.2456 -0.6392
 1823TIP3   OH2 5474   4.461   1.522   4.852  0.0821 -0.5494 -0.7408
 1823TIP3    H1 5475   4.518   1.488   4.783 -0.4627 -0.7083 -1.1215
 1823TIP3    H2 5476   4.451   1.448   4.913  1.3959 -0.0899  0.0657
 1824TIP3   OH2 5477   1.395   3.523   4.682  0.0491  0.5768  0.2394
 1824TIP3    H1 5478   1.376   3.431   4.694 -4.9369  1.1075 -1.3249
 1824TIP3    H2 5479   1.387   3.562   4.769 -2.0402 -0.0112  0.3656
 1825TIP3   OH2 5480   1.086   5.616   1.147 -0.6832  0.7694  0.2733
 1825TIP3    H1 5481   1.051   5.662   1.071 -0.9827  0.5560  0.2816
 1825TIP3    H2 5482   1.019   5.628   1.215 -0.8983  0.0775  0.1893
 1826TIP3   OH2 5483   4.447   0.781   2.836 -0.5733  0.1974 -0.6332
 1826TIP3    H1 5484   4.393   0.741   2.904  0.9171 -2.3900 -0.8176
 1826TIP3    H2 5485   4.385   0.827   2.779 -2.1857 -0.1368  0.7977
 1827TIP3   OH2 5486   1.735   2.239   1.650  0.2648  0.1571 -0.2094
 1827TIP3    H1 5487   1.648   2.260   1.616  0.4910  0.0322 -0.8693
 1827TIP3    H2 5488   1.778   2.191   1.579  0.8454  0.1475  0.1426
 1828TIP3   OH2 5489   5.641   2.167   3.974 -0.3163  0.7450  0.2716
 1828TIP3    H1 5490   5.553   2.131   3.976 -0.2488  0.6222  1.4232
 1828TIP3    H2 5491   5.630   2.256   3.940 -0.8013  0.5348 -0.1350
 1829TIP3   OH2 5492   2.745   1.409   1.114  0.6144  0.1635  0.0185
 1829TIP3    H1 5493   2.708   1.493   1.087  1.8480  0.9036  0.5318
 1829TIP3    H2 5494   2.671   1.360   1.149 -0.0974  1.0981 -0.1494
 1830TIP3   OH2 5495   4.796   2.905   2.104  0.2325  0.1059  0.3114
 1830TIP3    H1 5496   4.794   2.828   2.161  0.9110  0.3896  0.7391
 1830TIP3    H2 5497   4.797   2.870   2.015 -0.3391 -0.3549  0.4792
 1831TIP3   OH2 5498   5.557   4.505   3.191  0.1786 -0.0805 -0.1632
 1831TIP3    H1 5499   5.598   4.581   3.231  1.2795 -0.5394 -0.3731
 1831TIP3    H2 5500   5.465   4.530   3.178  0.0332  0.4364  1.6845
 1832TIP3   OH2 5501   4.962   4.922   0.584  0.4644  0.0886  0.3092
 1832TIP3    H1 5502   4.886   4.966   0.546 -0.1225  2.2198  3.5005
 1832TIP3    H2 5503   4.986   4.856   0.520 -1.8938  1.6413 -2.4439
 1833TIP3   OH2 5504   1.826   3.119   2.800 -0.1762  0.0550 -0.1106
 1833TIP3    H1 5505   1.878   3.196   2.823  0.3645 -0.2696 -0.2343
 1833TIP3    H2 5506   1.840   3.109   2.706  0.4992 -0.7359  0.0649
 1834TIP3   OH2 5507   3.659   0.228   2.791  0.1456 -0.1574  0.6822
 1834TIP3    H1 5508   3.576   0.265   2.820  0.2826 -0.7570  1.8994
 1834TIP3    H2 5509   3.667   0.256   2.700 -2.8602 -2.5399 -0.5111
 1835TIP3   OH2 5510   0.322   3.905   4.776 -0.1533 -0.3744 -0.4781
 1835TIP3    H1 5511   0.399   3.881   4.725  0.3930 -0.0957  0.2031
 1835TIP3    H2 5512   0.297   3.825   4.822 -0.5182 -0.5694 -1.0057
 1836TIP3   OH2 5513   4.877   2.960   2.873 -0.2178  0.6196 -0.1212
 1836TIP3    H1 5514   4.907   3.043   2.834  1.4919 -0.6665 -1.7704
 1836TIP3    H2 5515   4.817   2.986   2.943  0.1019  3.2283 -0.7141
 1837TIP3   OH2 5516   6.272   5.395   0.631  0.0449  0.5389 -0.1420
 1837TIP3    H1 5517   6.332   5.429   0.565  0.6215 -0.2162 -0.0119
 1837TIP3    H2 5518   6.211   5.339   0.582  0.0619  0.5066 -0.1255
 1838TIP3   OH2 5519   4.341   0.885   1.911  0.0400  0.2906 -0.2816
 1838TIP3    H1 5520   4.404   0.906   1.842 -0.8822  0.3943 -1.1151
 1838TIP3    H2 5521   4.335   0.789   1.911 -1.1167  0.3309 -1.4542
 1839TIP3   OH2 5522   0.274   5.757   3.133  0.4529  0.1478 -0.2863
 1839TIP3    H1 5523   0.212   5.739   3.204 -0.7327 -0.5410 -1.4532
 1839TIP3    H2 5524   0.333   5.682   3.134 -0.3647 -0.5350 -0.8203
 1840TIP3   OH2 5525   4.146   3.842   4.520 -0.0786  0.1595 -0.2547
 1840TIP3    H1 5526   4.238   3.831   4.493  0.1386 -0.2249  0.6242
 1840TIP3    H2 5527   4.106   3.888   4.446  0.4755 -0.9553 -1.3011
 1841TIP3   OH2 5528   1.086   0.980   5.176 -0.5915 -0.1854 -0.1785
 1841TIP3    H1 5529   1.077   1.015   5.087 -0.4752  0.2333 -0.0295
 1841TIP3    H2 5530   1.180   0.972   5.190 -0.5977  0.0367  0.0111
 1842TIP3   OH2 5531   2.565   3.908   0.682 -0.0740 -0.6319 -0.5208
 1842TIP3    H1 5532   2.609   3.979   0.730 -0.4220  0.7714 -2.2059
 1842TIP3    H2 5533   2.533   3.849   0.751  0.4263  0.7164  0.9194
 1843TIP3   OH2 5534   5.798   1.600   3.888  0.4061  0.3457  0.2322
 1843TIP3    H1 5535   5.790   1.635   3.799  2.0464  0.4749  0.1094
 1843TIP3    H2 5536   5.833   1.511   3.875 -1.4979 -0.5230  0.6645
 1844TIP3   OH2 5537   2.606   5.705   0.513 -0.2390  0.1663  0.2659
 1844TIP3    H1 5538   2.523   5.691   0.467 -1.7726 -0.8780  3.0418
 1844TIP3    H2 5539   2.624   5.798   0.503 -2.3421  0.6344  0.3961
 1845TIP3   OH2 5540   2.929   4.470   4.183  0.7261  0.5695 -0.2250
 1845TIP3    H1 5541   2.894   4.507   4.102  1.7308  1.1531 -0.4037
 1845TIP3    H2 5542   3.024   4.470   4.170  0.8633  0.1799  0.7454
 1846TIP3   OH2 5543   5.772   0.445   3.252 -0.6290 -0.0153 -0.5027
 1846TIP3    H1 5544   5.770   0.381   3.181  0.1193 -1.1421  0.4493
 1846TIP3    H2 5545   5.702   0.508   3.230 -1.6229 -1.3394 -1.2840
 1847TIP3   OH2 5546   4.335   4.416   4.035 -0.5003  0.2332  0.3872
 1847TIP3    H1 5547   4.314   4.506   4.061  0.1372 -0.2937  2.9522
 1847TIP3    H2 5548   4.431   4.416   4.026 -0.5431 -0.0906 -0.0847
 1848TIP3   OH2 5549   1.122   3.740   3.042 -0.3663 -0.0584 -0.2806
 1848TIP3    H1 5550   1.063   3.804   3.082 -0.5815 -1.2523  1.4337
 1848TIP3    H2 5551   1.210   3.778   3.053 -0.4242 -0.3304  1.3537
 1849TIP3   OH2 5552   1.119   3.009   3.610  0.5138  0.2165 -0.4772
 1849TIP3    H1 5553   1.099   3.047   3.525 -1.6464  1.1248  0.3826
 1849TIP3    H2 5554   1.076   2.924   3.609 -0.6771  0.7982  0.1830
 1850TIP3   OH2 5555   3.595   4.653   3.789  0.5841  0.5665 -0.0183
 1850TIP3    H1 5556   3.659   4.705   3.837 -0.0166 -0.9510  2.6694
 1850TIP3    H2 5557   3.510   4.688   3.817  0.2159  0.2446 -0.7052
 1851TIP3   OH2 5558   0.072   4.145   0.330 -0.5870  0.7500  0.7247
 1851TIP3    H1 5559   0.012   4.084   0.373  0.0416  1.0164  2.0159
 1851TIP3    H2 5560   0.144   4.155   0.392  0.7369  0.5447 -0.7413
 1852TIP3   OH2 5561   2.164   0.254   0.425  0.3812  0.4050 -0.1864
 1852TIP3    H1 5562   2.150   0.290   0.338 -1.7059  0.0039 -0.0523
 1852TIP3    H2 5563   2.141   0.325   0.485  1.0463  0.4259  0.0544
 1853TIP3   OH2 5564   3.419   5.757   2.148 -0.8210  0.4488  0.1159
 1853TIP3    H1 5565   3.430   5.809   2.228 -0.2111 -0.6224  0.7534
 1853TIP3    H2 5566   3.490   5.693   2.151 -1.2920 -0.1506 -0.8751
 1854TIP3   OH2 5567   2.299   5.856   2.725 -0.0224 -0.1086 -0.4639
 1854TIP3    H1 5568   2.232   5.829   2.788  0.2959 -2.1261 -0.9287
 1854TIP3    H2 5569   2.380   5.856   2.776 -0.2771  2.1456  0.0503
 1855TIP3   OH2 5570   2.952   1.814   0.069 -0.5509 -0.5386 -0.0690
 1855TIP3    H1 5571   2.994   1.856   0.144 -0.2857 -0.4169 -0.2832
 1855TIP3    H2 5572   2.969   1.873  -0.004  0.3128 -1.2877 -0.4926
 1856TIP3   OH2 5573   6.225   5.133   3.816  0.3643  0.0185 -0.2217
 1856TIP3    H1 5574   6.136   5.102   3.799 -0.1326  2.1146 -1.9108
 1856TIP3    H2 5575   6.271   5.124   3.733  1.7790 -0.9811  0.6116
 1857TIP3   OH2 5576   0.770   5.869   2.169 -0.5627  0.3056 -0.2475
 1857TIP3    H1 5577   0.705   5.935   2.145 -0.2756  0.0309 -1.9451
 1857TIP3    H2 5578   0.726   5.785   2.156 -0.3753  0.1453  0.1515
 1858TIP3   OH2 5579   1.517   0.106   0.560  0.5156  0.2150  0.0930
 1858TIP3    H1 5580   1.478   0.053   0.490 -0.3543  0.7596  0.1436
 1858TIP3    H2 5581   1.469   0.189   0.556 -0.3820 -0.1398  2.0611
 1859TIP3   OH2 5582   3.827   2.255   0.082  0.3599  1.1719 -0.0171
 1859TIP3    H1 5583   3.829   2.265  -0.013  1.7889  1.1162 -0.0071
 1859TIP3    H2 5584   3.778   2.174   0.097 -0.2638  1.4138 -0.6714
 1860TIP3   OH2 5585   1.259   3.223   1.790  0.1192 -0.0164 -0.2057
 1860TIP3    H1 5586   1.342   3.184   1.818 -0.1535  0.4958  1.4201
 1860TIP3    H2 5587   1.208   3.150   1.755  1.0858 -0.4104 -0.8248
 1861TIP3   OH2 5588   5.212   2.617   1.998  1.0052  0.0273  0.3963
 1861TIP3    H1 5589   5.132   2.616   1.946  0.9972 -1.1248  0.4048
 1861TIP3    H2 5590   5.238   2.709   2.001  0.4613  0.2291 -0.7885
 1862TIP3   OH2 5591   3.040   4.241   5.077 -0.4964 -0.2257  0.0319
 1862TIP3    H1 5592   2.988   4.180   5.025 -1.1325  0.7017 -0.4581
 1862TIP3    H2 5593   2.976   4.292   5.126  0.0787 -0.7529  1.3672
 1863TIP3   OH2 5594   2.694   2.375   3.248  0.4287 -0.4541 -0.4953
 1863TIP3    H1 5595   2.729   2.286   3.247  1.1039 -0.2461  1.3739
 1863TIP3    H2 5596   2.688   2.400   3.156  1.8479 -1.8001 -0.9837
 1864TIP3   OH2 5597   3.351   0.258   0.735  0.1601  0.5867 -0.9034
 1864TIP3    H1 5598   3.381   0.337   0.690 -0.5437  1.6406  0.4084
 1864TIP3    H2 5599   3.314   0.290   0.817  3.2502 -1.3771  1.4815
 1865TIP3   OH2 5600   1.712   5.804   1.561 -0.6549  0.8804  0.3508
 1865TIP3    H1 5601   1.749   5.836   1.644 -2.2757  1.2955  0.9448
 1865TIP3    H2 5602   1.658   5.729   1.586  0.1661 -0.0422 -0.5717
 1866TIP3   OH2 5603   3.190   5.835   5.135 -0.2140 -0.0154  0.0014
 1866TIP3    H1 5604   3.271   5.876   5.166 -1.1871  1.1311  1.1203
 1866TIP3    H2 5605   3.205   5.741   5.147  0.6884  0.2237  0.8829
 1867TIP3   OH2 5606   3.776   1.071   5.137 -0.8831 -0.1572  0.7303
 1867TIP3    H1 5607   3.783   1.078   5.042  0.2945 -0.6221  0.7700
 1867TIP3    H2 5608   3.688   1.104   5.157 -1.0851  0.0919 -0.4956
 1868TIP3   OH2 5609   3.861   1.849   2.717 -0.0864 -0.5084 -0.8496
 1868TIP3    H1 5610   3.844   1.826   2.808  1.0664  2.2455  0.1574
 1868TIP3    H2 5611   3.925   1.785   2.687 -0.3934 -1.3700  0.2825
 1869TIP3   OH2 5612   3.285   3.106   4.682 -0.1176  0.4401 -0.1827
 1869TIP3    H1 5613   3.299   3.201   4.686  2.1883  0.1202  2.7921
 1869TIP3    H2 5614   3.368   3.071   4.650  0.0998 -0.6959  1.5359
 1870TIP3   OH2 5615   2.895   2.035   3.979  0.2572  0.1292 -0.0815
 1870TIP3    H1 5616   2.971   2.047   4.036 -0.7059 -1.7551  1.6917
 1870TIP3    H2 5617   2.833   2.102   4.007  0.8654  1.1175 -0.9711
 1871TIP3   OH2 5618   3.315   1.287   2.117 -0.0573  0.4680  0.3043
 1871TIP3    H1 5619   3.339   1.352   2.051 -2.1111 -1.8120 -3.0079
 1871TIP3    H2 5620   3.341   1.203   2.078 -1.1298 -1.0057  2.5458
 1872TIP3   OH2 5621   0.823   0.089   0.930  0.2677  0.0693  0.2514
 1872TIP3    H1 5622   0.751   0.027   0.918 -2.5549  2.2073  4.1752
 1872TIP3    H2 5623   0.819   0.145   0.853 -1.2208 -0.8039 -0.3511
 1873TIP3   OH2 5624   1.837   3.258   0.416 -0.5707  0.7404  0.2838
 1873TIP3    H1 5625   1.891   3.244   0.494 -0.8569  1.2849  0.5833
 1873TIP3    H2 5626   1.747   3.249   0.447 -0.6700 -0.8186 -0.3358
 1874TIP3   OH2 5627   5.771   5.691   4.499  0.2984 -0.0313 -0.2920
 1874TIP3    H1 5628   5.679   5.717   4.507 -0.2676 -1.8272 -0.4336
 1874TIP3    H2 5629   5.783   5.678   4.405  0.4747 -0.5393 -0.1998
 1875TIP3   OH2 5630   6.068   4.238   4.112 -0.3429  0.3866  0.3268
 1875TIP3    H1 5631   6.013   4.165   4.140  1.0372 -1.3783 -1.3252
 1875TIP3    H2 5632   6.109   4.269   4.193  0.1707 -1.6677  0.9101
 1876TIP3   OH2 5633   3.195   1.219   3.082 -0.1113 -0.7056  0.4725
 1876TIP3    H1 5634   3.243   1.137   3.091  0.0607 -0.5628  0.8905
 1876TIP3    H2 5635   3.209   1.245   2.991  0.2270 -0.8965  0.4681
 1877TIP3   OH2 5636   2.964   5.916   1.932 -0.1029  0.1460  0.1571
 1877TIP3    H1 5637   2.939   5.927   1.840  2.9464 -1.0966 -0.9850
 1877TIP3    H2 5638   2.947   5.823   1.951  0.9961 -0.0738  0.1740
 1878TIP3   OH2 5639   5.824   1.783   4.881  0.2819  0.3279  0.7359
 1878TIP3    H1 5640   5.861   1.711   4.933 -0.9697  0.4631  1.8736
 1878TIP3    H2 5641   5.733   1.756   4.864  0.1893  1.0514  0.0295
 1879TIP3   OH2 5642   3.242   0.813   1.340  0.7462  0.4257  0.5833
 1879TIP3    H1 5643   3.274   0.723   1.346 -2.7358 -1.0201 -0.2429
 1879TIP3    H2 5644   3.314   0.861   1.300  1.8140 -2.5771 -1.4781
 1880TIP3   OH2 5645   6.246   5.965   5.064 -0.6781  0.0918  0.0711
 1880TIP3    H1 5646   6.237   5.974   5.159  0.0393  1.2252  0.0545
 1880TIP3    H2 5647   6.341   5.969   5.049 -0.6689 -1.7706 -0.5537
 1881TIP3   OH2 5648   6.064   5.315   4.094  0.6680  0.1883 -0.0983
 1881TIP3    H1 5649   5.993   5.265   4.054 -1.0017  0.5590  2.1875
 1881TIP3    H2 5650   6.133   5.250   4.108 -0.6194 -1.0675  0.8496
 1882TIP3   OH2 5651   0.020   0.810   4.337  0.4433  0.4318 -0.0202
 1882TIP3    H1 5652  -0.028   0.801   4.255  0.9717  0.2372 -0.3128
 1882TIP3    H2 5653   0.048   0.902   4.338  2.1698 -0.0357 -1.0521
 1883TIP3   OH2 5654   6.117   0.335   1.715  0.0359  0.3072  0.1500
 1883TIP3    H1 5655   6.177   0.409   1.707  0.3722  0.2970  2.0253
 1883TIP3    H2 5656   6.030   0.375   1.726 -0.0673  0.3626 -0.8202
 1884TIP3   OH2 5657   0.431   5.131   1.946  0.0148 -0.5602 -0.0180
 1884TIP3    H1 5658   0.492   5.079   1.893 -0.6161 -2.2294  0.8391
 1884TIP3    H2 5659   0.427   5.216   1.901  2.5390 -0.5622 -0.3993
 1885TIP3   OH2 5660   6.005   4.193   1.895  0.2093 -0.1553  0.1477
 1885TIP3    H1 5661   5.998   4.097   1.896 -0.5702 -0.0982  0.3962
 1885TIP3    H2 5662   5.927   4.224   1.940  0.1094  0.6191 -0.5299
 1886TIP3   OH2 5663   0.713   3.478   2.785 -0.7438 -0.2662  0.0779
 1886TIP3    H1 5664   0.617   3.469   2.782 -1.1123  1.0912  3.5095
 1886TIP3    H2 5665   0.728   3.572   2.771  0.3483 -0.7228 -2.3875
 1887TIP3   OH2 5666   1.138   4.524   3.083  0.6518 -0.1963 -0.5480
 1887TIP3    H1 5667   1.119   4.617   3.092  0.6323 -0.2148 -0.3911
 1887TIP3    H2 5668   1.102   4.500   2.998 -2.4863 -0.8070  0.8044
 1888TIP3   OH2 5669   6.018   0.101   4.765 -0.0392 -0.5737 -0.1766
 1888TIP3    H1 5670   6.052   0.137   4.683 -1.4752  3.4245  0.7503
 1888TIP3    H2 5671   6.093   0.057   4.805  2.2088  2.0390 -1.2522
 1889TIP3   OH2 5672   5.061   0.529   4.216  0.4946  0.2558 -0.2759
 1889TIP3    H1 5673   5.086   0.607   4.265  0.6923  0.6573 -0.9960
 1889TIP3    H2 5674   5.044   0.463   4.283  1.7928  0.4806  0.3133
 1890TIP3   OH2 5675   4.908   1.006   2.973  0.3037 -0.2084  0.2044
 1890TIP3    H1 5676   4.818   0.984   2.998  0.2310 -1.6428 -1.1942
 1890TIP3    H2 5677   4.963   0.946   3.025  0.3426 -0.6345 -0.3230
 1891TIP3   OH2 5678   3.687   3.648   1.458 -0.2987  0.7457 -0.3329
 1891TIP3    H1 5679   3.610   3.671   1.510 -0.9074 -0.2566 -0.7608
 1891TIP3    H2 5680   3.743   3.725   1.463 -1.7228  1.8434 -0.7424
 1892TIP3   OH2 5681   0.066   4.818   1.361 -0.0551  0.5918 -0.5180
 1892TIP3    H1 5682  -0.017   4.835   1.316 -0.6939 -0.3075  0.2825
 1892TIP3    H2 5683   0.042   4.816   1.454  0.5949 -1.0777 -0.3653
 1893TIP3   OH2 5684   1.533   5.545   3.724 -0.1290 -0.1806  0.0191
 1893TIP3    H1 5685   1.502   5.456   3.737 -0.5295  0.1914  1.7774
 1893TIP3    H2 5686   1.457   5.600   3.743  0.1795  0.5547 -0.8199
 1894TIP3   OH2 5687   0.991   3.995   3.102 -0.4320  0.0203 -0.0715
 1894TIP3    H1 5688   1.033   4.081   3.111 -0.7922  0.0299  1.8842
 1894TIP3    H2 5689   0.921   4.009   3.039 -1.6559  1.6602  1.5689
 1895TIP3   OH2 5690   2.220   5.679   2.210 -0.4683 -0.0340  0.6166
 1895TIP3    H1 5691   2.197   5.708   2.298 -2.2202 -3.8431  1.5949
 1895TIP3    H2 5692   2.143   5.632   2.179  1.0434 -1.0534 -1.9171
 1896TIP3   OH2 5693   1.773   5.940   0.518  0.5756 -0.4344  0.1328
 1896TIP3    H1 5694   1.703   5.993   0.556 -0.6042 -1.0185 -1.1248
 1896TIP3    H2 5695   1.786   5.977   0.430 -1.6273 -3.2794 -1.5507
 1897TIP3   OH2 5696   5.453   3.608   1.257  0.2825 -0.2149 -0.1077
 1897TIP3    H1 5697   5.407   3.622   1.175  1.5405  0.2213 -0.7596
 1897TIP3    H2 5698   5.410   3.531   1.296  0.3055 -1.0432 -1.6398
 1898TIP3   OH2 5699   3.636   0.300   0.430  0.1762 -0.2410  0.0499
 1898TIP3    H1 5700   3.646   0.390   0.462 -0.9613 -0.2993  0.6193
 1898TIP3    H2 5701   3.725   0.265   0.430  0.4293  0.3349  1.4979
 1899TIP3   OH2 5702   1.837   2.703   2.634  0.1297  0.4066  0.1992
 1899TIP3    H1 5703   1.926   2.733   2.616 -0.1252  2.5221  1.9404
 1899TIP3    H2 5704   1.793   2.780   2.670 -2.0728 -0.8920  0.4643
 1900TIP3   OH2 5705   0.418   3.252   1.158 -0.0334 -0.0331 -0.6087
 1900TIP3    H1 5706   0.459   3.337   1.139  0.7181 -0.2778 -0.1256
 1900TIP3    H2 5707   0.335   3.274   1.199 -0.2239  0.4754 -1.2474
 1901TIP3   OH2 5708   5.281   0.435   4.082  0.1510 -0.5084  0.4069
 1901TIP3    H1 5709   5.198   0.473   4.110 -0.1082 -0.2077 -0.7321
 1901TIP3    H2 5710   5.331   0.425   4.163 -1.3514 -1.6176  1.2470
 1902TIP3   OH2 5711   2.542   1.221   1.162  0.2281  0.2596  0.5735
 1902TIP3    H1 5712   2.543   1.187   1.252 -0.3741 -0.3577  0.3553
 1902TIP3    H2 5713   2.491   1.157   1.113 -0.0835  0.9849 -0.0594
 1903TIP3   OH2 5714   0.161   0.742   1.926 -0.0074  0.1126 -0.1386
 1903TIP3    H1 5715   0.187   0.803   1.994  0.7324 -1.7794  1.3508
 1903TIP3    H2 5716   0.078   0.777   1.893  0.1991  1.6820  0.9177
 1904TIP3   OH2 5717   2.198   2.972   3.804  0.4402 -0.3039 -0.3234
 1904TIP3    H1 5718   2.270   3.034   3.794 -0.0432  0.3722  0.3234
 1904TIP3    H2 5719   2.144   2.984   3.727 -1.3136  2.3037  1.1833
 1905TIP3   OH2 5720   4.334   1.973   0.063 -0.1585  0.0309  0.2148
 1905TIP3    H1 5721   4.391   1.915   0.113  0.2377  0.0727 -0.1878
 1905TIP3    H2 5722   4.351   2.060   0.100 -0.5085 -0.0531  0.5912
 1906TIP3   OH2 5723   2.504   1.341   4.345  0.8772 -0.1566 -0.1954
 1906TIP3    H1 5724   2.472   1.427   4.319  2.6736 -0.0646 -2.3850
 1906TIP3    H2 5725   2.449   1.316   4.419 -1.5182  1.6332 -1.2588
 1907TIP3   OH2 5726   1.514   2.542   1.351  0.2830 -0.3990  0.1314
 1907TIP3    H1 5727   1.487   2.512   1.438  0.1359 -0.5932  0.0215
 1907TIP3    H2 5728   1.583   2.481   1.325 -0.8792 -1.4374 -0.6172
 1908TIP3   OH2 5729   1.758   5.918   3.079 -0.5751  0.3886  0.1280
 1908TIP3    H1 5730   1.840   5.928   3.129 -1.0580 -0.0475  1.0386
 1908TIP3    H2 5731   1.731   6.007   3.060 -0.3507  0.5678  0.6168
 1909TIP3   OH2 5732   1.804   4.322   2.055 -0.1793 -0.2906 -0.1417
 1909TIP3    H1 5733   1.797   4.388   2.124  0.7290  0.5463 -0.8108
 1909TIP3    H2 5734   1.782   4.239   2.098  0.6890  0.1517  1.2396
 1910TIP3   OH2 5735   4.673   5.682   0.261  0.3939 -0.2961 -0.0454
 1910TIP3    H1 5736   4.768   5.674   0.277  0.0844 -1.9640  1.2400
 1910TIP3    H2 5737   4.635   5.607   0.307 -1.5661  0.3391 -0.5573
 1911TIP3   OH2 5738   4.587   2.198   0.245  0.0807  0.0122  0.1098
 1911TIP3    H1 5739   4.604   2.145   0.322  0.2188  0.5972  0.4887
 1911TIP3    H2 5740   4.635   2.154   0.174 -0.4154 -0.7711  0.2562
 1912TIP3   OH2 5741   0.857   3.398   4.954 -0.1913 -0.1625 -0.2212
 1912TIP3    H1 5742   0.845   3.319   5.007  1.8965 -1.5888 -1.7004
 1912TIP3    H2 5743   0.789   3.392   4.887  0.8773 -1.6064 -1.2483
 1913TIP3   OH2 5744   0.733   0.139   1.574  0.3821  0.1205  0.0955
 1913TIP3    H1 5745   0.666   0.190   1.529 -0.4422 -1.2834 -0.3514
 1913TIP3    H2 5746   0.754   0.190   1.652  2.1069  2.8138 -1.9758
 1914TIP3   OH2 5747   5.365   5.082   2.383 -0.1299  0.1934 -0.6560
 1914TIP3    H1 5748   5.282   5.037   2.370 -0.9459  1.5384 -0.3520
 1914TIP3    H2 5749   5.358   5.161   2.329  2.2120 -1.0790 -3.0799
 1915TIP3   OH2 5750   1.270   1.099   0.077 -0.5857 -0.3344  0.2019
 1915TIP3    H1 5751   1.315   1.101  -0.007 -0.6575 -0.0173  0.1720
 1915TIP3    H2 5752   1.329   1.147   0.136 -0.7962 -0.0832  0.2062
 1916TIP3   OH2 5753   2.842   4.827   5.034 -0.2369 -0.2380  0.2613
 1916TIP3    H1 5754   2.806   4.892   5.094 -0.3982  0.2828 -0.3833
 1916TIP3    H2 5755   2.834   4.867   4.948 -0.3864 -1.1417 -0.1562
 1917TIP3   OH2 5756   3.913   4.219   3.293  0.1292 -0.3539 -0.0934
 1917TIP3    H1 5757   3.976   4.223   3.365 -0.7007 -0.4329  0.6488
 1917TIP3    H2 5758   3.963   4.247   3.216  0.9895 -0.1356  0.5319
 1918TIP3   OH2 5759   2.515   1.508   0.504  0.6599  0.3920 -0.6075
 1918TIP3    H1 5760   2.556   1.479   0.423 -2.8581 -0.4606 -2.2483
 1918TIP3    H2 5761   2.505   1.428   0.556  3.4062  1.0039  1.1212
 1919TIP3   OH2 5762   0.126   2.040   1.882 -0.8099  0.0268 -0.1686
 1919TIP3    H1 5763   0.047   2.043   1.936 -1.0165 -1.5018 -0.3155
 1919TIP3    H2 5764   0.198   2.032   1.944 -0.7572  1.3262 -0.0378
 1920TIP3   OH2 5765   1.526   1.125   3.139 -0.0484 -0.5183  0.0399
 1920TIP3    H1 5766   1.620   1.104   3.138 -0.4076 -2.2600 -1.2335
 1920TIP3    H2 5767   1.517   1.199   3.080  0.6116  0.1549  0.7633
 1921TIP3   OH2 5768   4.627   1.323   3.666  0.4872  0.2612 -0.8895
 1921TIP3    H1 5769   4.589   1.406   3.695  1.3583  0.3228  0.1330
 1921TIP3    H2 5770   4.706   1.312   3.719 -0.0693 -1.6714 -0.3757
 1922TIP3   OH2 5771   2.039   3.111   3.147  0.1465 -0.2247  0.4340
 1922TIP3    H1 5772   2.083   3.116   3.232 -1.1252 -1.0314  1.1548
 1922TIP3    H2 5773   1.959   3.162   3.158  1.2413  2.0871 -1.1690
 1923TIP3   OH2 5774   5.688   4.291   3.286  0.0439 -1.0923  0.1163
 1923TIP3    H1 5775   5.681   4.318   3.378  0.0876 -1.4934  0.2368
 1923TIP3    H2 5776   5.658   4.368   3.237  1.8624 -0.1293  0.3827
 1924TIP3   OH2 5777   3.466   3.760   2.448  0.1137  0.2229  0.0273
 1924TIP3    H1 5778   3.549   3.807   2.440 -0.1948  0.7891  0.1585
 1924TIP3    H2 5779   3.492   3.671   2.474  0.5724  0.9681  2.3503
 1925TIP3   OH2 5780   5.608   2.721   4.081  0.0588 -0.3815  0.3189
 1925TIP3    H1 5781   5.543   2.769   4.029 -0.5664 -0.4446  1.0216
 1925TIP3    H2 5782   5.581   2.629   4.073 -0.4783 -0.3186  1.3483
 1926TIP3   OH2 5783   4.018   2.569   4.756  0.0961 -0.2417 -0.1981
 1926TIP3    H1 5784   3.973   2.509   4.697 -0.7524  1.2414 -1.1360
 1926TIP3    H2 5785   3.948   2.617   4.800  0.7386  0.2906  0.2806
 1927TIP3   OH2 5786   0.031   3.947   3.079 -0.2855 -0.2754  0.0968
 1927TIP3    H1 5787   0.101   3.906   3.131  0.8513  1.3491 -0.0734
 1927TIP3    H2 5788   0.062   3.941   2.989  0.6899  2.2108  0.1745
 1928TIP3   OH2 5789   4.274   5.368   2.883 -0.0512 -0.2958 -0.3610
 1928TIP3    H1 5790   4.208   5.406   2.940 -0.2474 -1.4683  0.2241
 1928TIP3    H2 5791   4.322   5.307   2.939  0.2101 -0.9490 -1.2707
 1929TIP3   OH2 5792   1.354   2.985   2.127 -0.3860  0.4765 -0.2824
 1929TIP3    H1 5793   1.356   2.889   2.120  0.6869  0.4217  0.4418
 1929TIP3    H2 5794   1.397   3.016   2.047  1.1033  0.2646  0.4024
 1930TIP3   OH2 5795   4.733   4.899   4.163  0.7219 -0.0866 -0.4139
 1930TIP3    H1 5796   4.825   4.892   4.190  0.2515 -0.3096  1.2542
 1930TIP3    H2 5797   4.729   4.851   4.080  2.1508  0.1606 -0.6635
 1931TIP3   OH2 5798   0.065   1.659   1.128 -0.3392  0.0703 -0.7897
 1931TIP3    H1 5799   0.109   1.738   1.097  0.0437 -0.4097 -1.5060
 1931TIP3    H2 5800  -0.016   1.690   1.168 -0.2841  0.8056 -1.2451
 1932TIP3   OH2 5801   4.437   4.645   5.158 -0.1623  0.2594 -0.1962
 1932TIP3    H1 5802   4.366   4.624   5.097 -0.6814 -0.8203  0.7550
 1932TIP3    H2 5803   4.471   4.560   5.187  1.5356  0.7490 -0.6202
 1933TIP3   OH2 5804   0.648   1.072   0.096 -0.2262  0.0445 -0.1789
 1933TIP3    H1 5805   0.729   1.086   0.146  0.5007 -0.4975 -1.1630
 1933TIP3    H2 5806   0.657   0.982   0.063 -0.3302  0.6357 -1.8910
 1934TIP3   OH2 5807   4.970   2.697   1.813 -0.8203 -0.0239 -1.0016
 1934TIP3    H1 5808   4.911   2.675   1.884  1.0305 -1.5173  0.1915
 1934TIP3    H2 5809   4.970   2.619   1.757  2.8490 -1.8652  1.1538
 1935TIP3   OH2 5810   4.632   4.039   4.718 -0.0253  0.3195  0.5656
 1935TIP3    H1 5811   4.560   4.101   4.713  0.3286  1.0741  3.2847
 1935TIP3    H2 5812   4.631   4.008   4.808  3.7035  1.2507  1.1042
 1936TIP3   OH2 5813   1.775   1.736   0.177 -0.0276  0.3222 -0.4173
 1936TIP3    H1 5814   1.808   1.647   0.164  2.1185  1.0461 -0.3661
 1936TIP3    H2 5815   1.710   1.727   0.246  0.5696 -1.1367  0.0074
 1937TIP3   OH2 5816   1.116   2.450   1.244 -0.0287  0.5095  0.2370
 1937TIP3    H1 5817   1.063   2.437   1.322  1.5962  0.2722  1.3688
 1937TIP3    H2 5818   1.132   2.362   1.210  0.3024  0.5095  0.3845
 1938TIP3   OH2 5819   1.377   1.085   4.996 -0.4884  0.2697  0.0732
 1938TIP3    H1 5820   1.381   1.029   4.919 -0.8681  0.2762  0.0473
 1938TIP3    H2 5821   1.442   1.154   4.979  1.3441 -1.1527  0.9143
 1939TIP3   OH2 5822   1.990   2.472   4.662 -0.4772  0.4952 -0.1533
 1939TIP3    H1 5823   1.948   2.556   4.678  0.6016  1.0049  0.0798
 1939TIP3    H2 5824   2.081   2.494   4.641  0.5098 -0.7141  2.4144
 1940TIP3   OH2 5825   1.497   5.462   2.006  0.2358 -0.2777 -0.5153
 1940TIP3    H1 5826   1.577   5.492   1.963  0.5233 -0.2496  0.0212
 1940TIP3    H2 5827   1.524   5.384   2.054 -0.1732 -0.5481 -0.7202
 1941TIP3   OH2 5828   6.294   5.288   2.675  0.7044  0.0418  0.1333
 1941TIP3    H1 5829   6.233   5.307   2.603  0.5207 -0.1655  0.2299
 1941TIP3    H2 5830   6.379   5.319   2.644  0.5304  0.4177  0.0327
 1942TIP3   OH2 5831   2.120   3.409   4.110 -0.0142 -0.7638  0.0293
 1942TIP3    H1 5832   2.162   3.492   4.087  0.1533 -0.0460  2.5872
 1942TIP3    H2 5833   2.143   3.350   4.039  2.7011  0.4699 -0.2451
 1943TIP3   OH2 5834   1.236   4.076   3.885  0.2278  0.6082 -0.1615
 1943TIP3    H1 5835   1.202   4.000   3.931 -0.0938  0.4561 -0.6371
 1943TIP3    H2 5836   1.325   4.087   3.917 -0.4528  1.3837  1.5806
 1944TIP3   OH2 5837   5.562   5.303   0.427  0.0266  0.2861  0.4793
 1944TIP3    H1 5838   5.502   5.269   0.359  1.2660 -1.4782  0.2083
 1944TIP3    H2 5839   5.604   5.225   0.463  2.7326  1.4645  0.1305
 1945TIP3   OH2 5840   0.540   2.269   3.292  0.2046 -1.0425 -0.5409
 1945TIP3    H1 5841   0.565   2.361   3.305  0.4667 -0.6760 -3.0762
 1945TIP3    H2 5842   0.490   2.247   3.370  1.1249  0.8891  0.6795
 1946TIP3   OH2 5843   1.995   0.994   0.001 -0.6074 -0.0168  0.3992
 1946TIP3    H1 5844   1.967   0.924   0.060  1.0109 -0.4468  0.7152
 1946TIP3    H2 5845   2.059   1.044   0.052 -0.0339  0.3020 -0.6063
 1947TIP3   OH2 5846   1.087   5.960   0.553 -0.4050  0.2021  0.1526
 1947TIP3    H1 5847   1.079   5.915   0.469  0.0172  0.4002  0.0026
 1947TIP3    H2 5848   1.130   6.043   0.532  0.9393 -0.3130  0.7386
 1948TIP3   OH2 5849   4.837   2.767   0.939 -0.4709  0.1158  0.5645
 1948TIP3    H1 5850   4.799   2.712   0.871 -3.1337  1.2864  0.9602
 1948TIP3    H2 5851   4.862   2.848   0.893  0.9717 -0.3814  0.4323
 1949TIP3   OH2 5852   2.004   0.083   0.739  0.3816 -0.2555  0.3071
 1949TIP3    H1 5853   2.045   0.158   0.782  0.2875 -1.1204  2.0105
 1949TIP3    H2 5854   1.929   0.120   0.693  0.7703  0.7911  0.4750
 1950TIP3   OH2 5855   4.393   1.300   4.974  0.2286  0.0034  0.4198
 1950TIP3    H1 5856   4.353   1.346   5.048  0.3504 -0.7796  0.9815
 1950TIP3    H2 5857   4.472   1.260   5.011  1.7271  1.7185 -0.7137
 1951TIP3   OH2 5858   6.006   4.472   1.781  0.4125  0.1277  0.1294
 1951TIP3    H1 5859   6.089   4.427   1.764 -1.0355 -2.2670 -1.2030
 1951TIP3    H2 5860   6.002   4.541   1.714  1.5981  0.7245  0.6508
 1952TIP3   OH2 5861   3.275   0.256   1.693  0.3097  0.2143  0.3288
 1952TIP3    H1 5862   3.182   0.281   1.692  0.2376  0.0394 -1.3178
 1952TIP3    H2 5863   3.274   0.163   1.716 -0.3686 -0.9279 -3.5326
 1953TIP3   OH2 5864   3.289   2.988   4.334  0.1058 -0.2363 -0.5202
 1953TIP3    H1 5865   3.271   3.076   4.368  0.0107 -0.2088 -0.6396
 1953TIP3    H2 5866   3.229   2.979   4.260 -0.9631 -0.9703  0.3975
 1954TIP3   OH2 5867   5.652   1.560   4.729 -0.0108 -0.5403  0.0188
 1954TIP3    H1 5868   5.724   1.498   4.733  0.0173 -0.4708  1.0116
 1954TIP3    H2 5869   5.632   1.568   4.636 -0.3767 -2.4352 -0.1096
 1955TIP3   OH2 5870   2.285   3.136   3.322 -0.0117  0.1338  0.7228
 1955TIP3    H1 5871   2.303   3.081   3.246  0.6066  1.3741 -0.0595
 1955TIP3    H2 5872   2.340   3.100   3.392  1.9295  0.9645 -0.3301
 1956TIP3   OH2 5873   5.673   3.561   2.877  0.2837 -0.3772 -0.7119
 1956TIP3    H1 5874   5.685   3.593   2.787 -0.0414  1.3943 -0.1735
 1956TIP3    H2 5875   5.581   3.535   2.880  0.0248  0.5093 -0.6375
 1957TIP3   OH2 5876   4.592   0.572   1.728  0.4188  0.6001 -0.0155
 1957TIP3    H1 5877   4.592   0.579   1.632 -1.1131 -0.3673 -0.1179
 1957TIP3    H2 5878   4.634   0.653   1.757  0.2082  1.2761 -1.4865
 1958TIP3   OH2 5879   1.796   5.484   2.310  0.5862  0.2582 -0.1140
 1958TIP3    H1 5880   1.737   5.456   2.240 -1.8883 -1.7195  2.5316
 1958TIP3    H2 5881   1.757   5.564   2.344  2.4522  1.9067 -1.6225
 1959TIP3   OH2 5882   6.254   2.290   0.720  0.1867  0.1955 -0.1832
 1959TIP3    H1 5883   6.327   2.272   0.779 -0.6881 -0.8018  0.6208
 1959TIP3    H2 5884   6.210   2.366   0.758 -1.3233 -1.3856  1.4373
 1960TIP3   OH2 5885   4.557   0.084   1.678  0.0277 -0.0867  0.1076
 1960TIP3    H1 5886   4.478   0.102   1.728  0.0055  1.5439 -0.4226
 1960TIP3    H2 5887   4.560   0.155   1.614  3.0339  1.1827  1.4715
 1961TIP3   OH2 5888   5.139   4.323   2.238  0.7710 -0.0946 -0.5813
 1961TIP3    H1 5889   5.169   4.390   2.177  2.4107 -1.1962 -1.0557
 1961TIP3    H2 5890   5.190   4.245   2.215 -1.5282 -1.7279 -0.4857
 1962TIP3   OH2 5891   1.493   4.792   2.392  0.0634  0.0617 -0.3399
 1962TIP3    H1 5892   1.518   4.832   2.476  3.1581  0.8673 -1.4866
 1962TIP3    H2 5893   1.545   4.712   2.387  0.2092  0.2121 -1.6217
 1963TIP3   OH2 5894   5.274   1.136   4.753 -0.3419  0.2831  0.1475
 1963TIP3    H1 5895   5.275   1.114   4.660  0.6703 -1.0506  0.4349
 1963TIP3    H2 5896   5.183   1.159   4.772 -0.4826  0.9578 -1.2447
 1964TIP3   OH2 5897   6.027   3.964   0.187 -0.3755 -0.0441 -0.3193
 1964TIP3    H1 5898   6.057   3.874   0.173  0.2326 -0.3270  2.3657
 1964TIP3    H2 5899   5.983   3.987   0.105 -0.3037 -2.6731 -1.1899
 1965TIP3   OH2 5900   5.824   4.782   1.577  0.3685 -0.2563 -0.1540
 1965TIP3    H1 5901   5.847   4.843   1.507  0.7006 -0.5637 -0.3164
 1965TIP3    H2 5902   5.868   4.700   1.553 -0.7753 -0.8220 -0.3982
 1966TIP3   OH2 5903   2.817   4.285   1.177  0.1193  0.1661 -0.0314
 1966TIP3    H1 5904   2.769   4.203   1.159  1.1059 -0.3791 -0.2556
 1966TIP3    H2 5905   2.851   4.312   1.091  1.9198 -0.5684  0.4007
 1967TIP3   OH2 5906   4.491   5.807   0.083 -0.1011 -0.5073  0.3984
 1967TIP3    H1 5907   4.554   5.765   0.142 -0.5364 -2.1589 -0.2525
 1967TIP3    H2 5908   4.543   5.866   0.030  0.3015  1.1045  2.4425
 1968TIP3   OH2 5909   4.751   3.607   1.495  0.5888 -0.4201  0.4397
 1968TIP3    H1 5910   4.666   3.593   1.452  0.2755  1.0528  0.5049
 1968TIP3    H2 5911   4.728   3.629   1.585  1.1062 -0.9701  0.7120
 1969TIP3   OH2 5912   1.025   3.836   0.212  0.0667  0.5717 -0.5731
 1969TIP3    H1 5913   1.002   3.909   0.269  0.6380  1.2034 -1.1231
 1969TIP3    H2 5914   0.952   3.774   0.219 -0.1081  0.8846  0.4211
 1970TIP3   OH2 5915   1.842   2.255   3.121  0.3139 -0.5757  0.1384
 1970TIP3    H1 5916   1.888   2.306   3.188 -1.2536  0.5099  0.4377
 1970TIP3    H2 5917   1.755   2.240   3.158 -0.2420 -0.8685 -1.2277
 1971TIP3   OH2 5918   1.883   4.360   0.095 -0.5803 -0.4019  0.0753
 1971TIP3    H1 5919   1.925   4.373   0.180  0.1513 -0.8352 -0.2166
 1971TIP3    H2 5920   1.952   4.378   0.031 -1.6883  2.1797 -0.5287
 1972TIP3   OH2 5921   2.924   3.511   4.493 -0.1099  0.4656 -0.9570
 1972TIP3    H1 5922   2.915   3.490   4.400 -1.0611  1.0650 -1.0178
 1972TIP3    H2 5923   2.904   3.605   4.498 -0.8307  0.2778 -0.0462
 1973TIP3   OH2 5924   3.668   2.501   0.195 -0.7560  0.4367  0.1856
 1973TIP3    H1 5925   3.607   2.482   0.267  0.4880 -1.7795  0.7755
 1973TIP3    H2 5926   3.629   2.459   0.119 -0.3741 -0.3082  0.3907
 1974TIP3   OH2 5927   5.740   3.141   0.285 -0.6695  0.1119 -0.3190
 1974TIP3    H1 5928   5.752   3.127   0.379 -2.2404  0.2363 -0.0815
 1974TIP3    H2 5929   5.775   3.229   0.269  2.0568 -0.8809 -0.3874
 1975TIP3   OH2 5930   1.187   1.031   4.629 -0.2574 -0.2251 -0.1005
 1975TIP3    H1 5931   1.147   1.107   4.672 -0.8932 -0.7263  0.2056
 1975TIP3    H2 5932   1.116   0.994   4.576  0.1709 -0.3504 -0.5932
 1976TIP3   OH2 5933   2.703   4.454   2.896  0.2139  0.1693 -0.3035
 1976TIP3    H1 5934   2.712   4.485   2.986  0.2943  0.9964 -0.5919
 1976TIP3    H2 5935   2.792   4.433   2.868 -0.0275 -2.5338  0.6295
 1977TIP3   OH2 5936   5.217   5.907   0.262  0.0592  0.2935 -0.0172
 1977TIP3    H1 5937   5.182   5.922   0.174  0.1061  0.3133 -0.0328
 1977TIP3    H2 5938   5.188   5.983   0.312  0.2312  0.4001 -0.0762
 1978TIP3   OH2 5939   4.146   5.648   3.826 -0.2355 -0.0536 -0.7893
 1978TIP3    H1 5940   4.199   5.572   3.804  1.2035  0.6994 -0.0194
 1978TIP3    H2 5941   4.162   5.709   3.754 -2.0178 -0.7412 -1.8276
 1979TIP3   OH2 5942   0.199   3.130   4.850  0.7064 -0.7356  0.1078
 1979TIP3    H1 5943   0.167   3.218   4.871 -1.0285 -1.4107  0.4476
 1979TIP3    H2 5944   0.138   3.098   4.784  0.7317 -2.0374  0.6877
 1980TIP3   OH2 5945   4.672   4.276   3.456 -0.2773  0.0218  0.3314
 1980TIP3    H1 5946   4.640   4.268   3.546  1.0446  0.4425  0.8618
 1980TIP3    H2 5947   4.728   4.198   3.443 -0.4481 -0.0293 -0.1191
 1981TIP3   OH2 5948   0.622   2.139   2.930 -0.0514  0.4920  0.8280
 1981TIP3    H1 5949   0.615   2.048   2.903  1.8239  0.6053 -0.2049
 1981TIP3    H2 5950   0.557   2.149   2.999 -2.1786 -0.9030 -0.8535
 1982TIP3   OH2 5951   5.722   1.605   3.018 -0.5875  0.0942  0.8547
 1982TIP3    H1 5952   5.764   1.552   2.950 -1.5171  0.8580 -0.3595
 1982TIP3    H2 5953   5.644   1.555   3.042 -1.8923  1.1808 -0.8527
 1983TIP3   OH2 5954   0.248   2.952   4.093  0.4199  0.0588  0.0833
 1983TIP3    H1 5955   0.305   2.878   4.069  1.3000  0.6967  0.1665
 1983TIP3    H2 5956   0.223   2.991   4.009 -0.1345 -0.3986  0.0350
 1984TIP3   OH2 5957   2.343   0.961   2.198  1.1138 -0.2357 -0.0522
 1984TIP3    H1 5958   2.398   0.886   2.179  0.3906 -0.6271 -0.6279
 1984TIP3    H2 5959   2.401   1.037   2.186  0.9932 -0.5008 -2.8303
 1985TIP3   OH2 5960   5.121   4.880   1.850 -0.1036  0.3453 -0.0184
 1985TIP3    H1 5961   5.098   4.965   1.814  0.9687  0.2877 -0.8735
 1985TIP3    H2 5962   5.200   4.896   1.902 -1.0444  0.2337  1.4968
 1986TIP3   OH2 5963   0.600   2.502   4.686  0.1526  0.3695 -0.5629
 1986TIP3    H1 5964   0.511   2.495   4.722  0.2524 -1.4965 -0.5876
 1986TIP3    H2 5965   0.657   2.495   4.762  0.3096 -0.1623 -0.7308
 1987TIP3   OH2 5966   5.668   4.731   1.796  0.2891  0.0951 -0.5179
 1987TIP3    H1 5967   5.722   4.765   1.725  0.8375 -0.3857 -0.3380
 1987TIP3    H2 5968   5.716   4.751   1.876 -0.4713  0.9057 -0.2415
 1988TIP3   OH2 5969   5.499   3.527   1.980 -0.2065 -0.1138 -0.6435
 1988TIP3    H1 5970   5.415   3.544   1.937 -0.0258  0.1368 -0.9011
 1988TIP3    H2 5971   5.541   3.612   1.987 -0.0654 -0.2061 -0.3140
 1989TIP3   OH2 5972   1.894   5.601   0.239 -0.2015  0.4094 -0.1910
 1989TIP3    H1 5973   1.895   5.681   0.187 -1.6692 -0.2405 -1.3022
 1989TIP3    H2 5974   1.894   5.530   0.174 -3.1231 -0.4266  0.5775
 1990TIP3   OH2 5975   5.127   2.712   3.504 -0.2321 -0.2867  0.2395
 1990TIP3    H1 5976   5.110   2.781   3.569 -0.7009  1.6488 -1.8068
 1990TIP3    H2 5977   5.131   2.631   3.555  1.6432  1.3642  2.9581
 1991TIP3   OH2 5978   6.274   4.669   3.885 -0.3731 -0.0771 -0.0049
 1991TIP3    H1 5979   6.256   4.708   3.970  0.4365  1.1711 -0.3940
 1991TIP3    H2 5980   6.331   4.594   3.904  1.4280  1.3386  0.4073
 1992TIP3   OH2 5981   6.216   1.507   2.199  0.0554  0.0149  0.2451
 1992TIP3    H1 5982   6.288   1.483   2.140  0.7161 -1.1258  1.4704
 1992TIP3    H2 5983   6.139   1.512   2.142  1.3252  3.2024 -1.5011
 1993TIP3   OH2 5984   5.256   0.485   4.941 -0.0736  0.6895 -0.1721
 1993TIP3    H1 5985   5.200   0.427   4.993 -0.5058  1.0394 -0.2380
 1993TIP3    H2 5986   5.338   0.489   4.990  0.4089 -0.9433 -0.8007
 1994TIP3   OH2 5987   5.885   0.205   4.387 -0.1371 -0.1239 -0.0940
 1994TIP3    H1 5988   5.865   0.250   4.469  2.3525 -0.4801  0.7935
 1994TIP3    H2 5989   5.854   0.115   4.400 -1.5850  0.3008 -0.3834
 1995TIP3   OH2 5990   4.910   5.377   4.458  0.8195 -0.1808  0.1258
 1995TIP3    H1 5991   4.909   5.381   4.553  2.1453 -0.2743  0.1523
 1995TIP3    H2 5992   5.002   5.378   4.434  0.5219  1.9228 -1.2544
 1996TIP3   OH2 5993   0.105   3.846   4.989  0.3855 -0.4492 -0.5404
 1996TIP3    H1 5994   0.106   3.752   5.003 -1.6164 -0.1362  2.7292
 1996TIP3    H2 5995   0.193   3.875   5.014  0.6195 -1.3050 -0.3337
 1997TIP3   OH2 5996   3.308   1.983   3.191 -0.9713 -0.5233  0.0691
 1997TIP3    H1 5997   3.303   1.942   3.104  1.2482 -1.8018  0.4669
 1997TIP3    H2 5998   3.363   2.060   3.178  1.3462 -1.9648  0.6506
 1998TIP3   OH2 5999   5.872   5.733   0.200 -0.4501  0.1740 -0.2094
 1998TIP3    H1 6000   5.956   5.741   0.244 -0.7369  0.5804  0.2704
 1998TIP3    H2 6001   5.886   5.665   0.134 -0.4688 -1.7274  1.6208
 1999TIP3   OH2 6002   3.815   3.283   2.517 -0.2391 -0.1538 -0.4111
 1999TIP3    H1 6003   3.907   3.279   2.544 -0.4507  1.6764  0.7506
 1999TIP3    H2 6004   3.766   3.260   2.595 -0.8090 -0.6220 -0.8917
 2000TIP3   OH2 6005   1.982   4.394   0.381 -0.5549  0.9711 -0.7415
 2000TIP3    H1 6006   2.055   4.346   0.420 -0.2605 -0.3893 -2.7962
 2000TIP3    H2 6007   2.004   4.486   0.394  2.1965  0.6503 -2.3218
 2001TIP3   OH2 6008   2.782   5.319   1.882 -0.4639 -0.0228  0.5924
 2001TIP3    H1 6009   2.707   5.372   1.855 -0.4471 -1.1539 -1.9459
 2001TIP3    H2 6010   2.774   5.238   1.832  2.1153 -0.4393  0.6957
 2002TIP3   OH2 6011   0.829   4.386   3.168 -0.1386 -0.3917  0.1852
 2002TIP3    H1 6012   0.874   4.313   3.126  1.9838  0.5153  0.7569
 2002TIP3    H2 6013   0.739   4.356   3.178  0.0711 -1.9248 -1.8934
 2003TIP3   OH2 6014   1.964   5.583   2.093  0.2418 -0.3697 -0.0266
 2003TIP3    H1 6015   1.918   5.562   2.175  1.4309  0.0031  0.7690
 2003TIP3    H2 6016   1.903   5.640   2.046 -0.4133 -0.4774  0.6600
 2004TIP3   OH2 6017   0.838   0.257   1.141 -0.1425  0.7563 -0.4428
 2004TIP3    H1 6018   0.745   0.249   1.162  0.0830  1.1341  0.7576
 2004TIP3    H2 6019   0.852   0.198   1.067 -1.1094 -0.1137  0.0620
 2005TIP3   OH2 6020   1.069   5.477   3.640  0.6765  0.1426  0.1287
 2005TIP3    H1 6021   1.056   5.487   3.546  0.6068 -0.6109  0.0502
 2005TIP3    H2 6022   1.043   5.562   3.677  0.3643  0.3255 -0.4953
 2006TIP3   OH2 6023   4.519   5.268   3.676 -0.3048  0.0634 -0.7510
 2006TIP3    H1 6024   4.523   5.297   3.767 -3.3223 -2.2846  0.3040
 2006TIP3    H2 6025   4.592   5.208   3.667  1.2512  1.8434 -0.5912
 2007TIP3   OH2 6026   2.821   3.842   5.137 -0.2781  0.4512 -0.1775
 2007TIP3    H1 6027   2.844   3.749   5.138  1.4812  0.8159 -1.3936
 2007TIP3    H2 6028   2.904   3.887   5.157 -1.2079  1.7612  0.9078
 2008TIP3   OH2 6029   5.253   5.472   1.221  0.4746  0.6713  0.2048
 2008TIP3    H1 6030   5.160   5.466   1.241  0.3604 -2.4891 -0.7717
 2008TIP3    H2 6031   5.297   5.434   1.297  0.7899  0.0691 -0.2648
 2009TIP3   OH2 6032   4.738   1.168   1.400  0.2837  0.0065  0.0356
 2009TIP3    H1 6033   4.744   1.073   1.412 -0.9815  0.0355  1.1629
 2009TIP3    H2 6034   4.652   1.182   1.359  0.0334  0.7163  0.7778
 2010TIP3   OH2 6035   5.633   0.610   2.935  0.1711  0.4048  0.1791
 2010TIP3    H1 6036   5.632   0.622   3.030 -0.4652 -0.2820  0.2679
 2010TIP3    H2 6037   5.726   0.596   2.914  0.1195 -1.4917  0.9894
 2011TIP3   OH2 6038   3.943   5.571   0.474 -0.4802 -0.0291 -0.3023
 2011TIP3    H1 6039   3.945   5.476   0.475  1.7538 -0.0342 -0.6098
 2011TIP3    H2 6040   3.957   5.597   0.565  1.4576 -0.0391 -0.5623
 2012TIP3   OH2 6041   6.120   4.791   0.405 -0.4300  0.3266  0.4952
 2012TIP3    H1 6042   6.158   4.743   0.478  0.3202  1.8309  1.1435
 2012TIP3    H2 6043   6.042   4.742   0.382  0.7313 -1.6630  0.5444
 2013TIP3   OH2 6044   1.798   0.460   2.672 -1.1449 -0.2135 -0.5373
 2013TIP3    H1 6045   1.844   0.376   2.678  0.3982  0.6222 -0.3495
 2013TIP3    H2 6046   1.747   0.465   2.753  1.2094  0.3996  0.9968
 2014TIP3   OH2 6047   0.101   3.597   4.706 -0.8127 -0.2318  0.3877
 2014TIP3    H1 6048   0.094   3.610   4.801 -2.4603 -2.4042  0.6450
 2014TIP3    H2 6049   0.025   3.643   4.670 -0.8493 -0.4034  0.2441
 2015TIP3   OH2 6050   0.452   1.007   3.440 -0.7135  0.2032 -0.2242
 2015TIP3    H1 6051   0.398   1.067   3.491 -1.0452 -0.1856 -0.1126
 2015TIP3    H2 6052   0.494   0.951   3.507 -1.4839 -0.5933 -0.3833
 2016TIP3   OH2 6053   5.074   5.841   4.656 -0.0240 -0.2688  0.3607
 2016TIP3    H1 6054   5.013   5.771   4.682 -0.7865 -0.3006 -1.3620
 2016TIP3    H2 6055   5.020   5.919   4.652  0.3018 -0.0666 -0.0984
 2017TIP3   OH2 6056   0.447   4.494   2.433  0.3897 -0.4706  0.3910
 2017TIP3    H1 6057   0.427   4.492   2.340 -0.7110  0.3343  0.5783
 2017TIP3    H2 6058   0.362   4.483   2.476  0.9005 -0.9698  1.2958
 2018TIP3   OH2 6059   3.357   1.484   3.491 -0.2661 -0.4212 -0.0951
 2018TIP3    H1 6060   3.381   1.563   3.442 -0.5275 -0.4740 -0.3104
 2018TIP3    H2 6061   3.328   1.422   3.424  1.5878 -1.3246 -0.1105
 2019TIP3   OH2 6062   0.132   5.379   3.359  0.4137  0.7238  0.7161
 2019TIP3    H1 6063   0.063   5.361   3.423  0.4289 -0.1755  0.4829
 2019TIP3    H2 6064   0.125   5.474   3.344  0.4030  0.9562  2.0322
 2020TIP3   OH2 6065   4.168   0.070   0.025  0.2413 -0.2386 -0.2155
 2020TIP3    H1 6066   4.124   0.145   0.065  0.5042 -0.3573  0.3001
 2020TIP3    H2 6067   4.132   0.067  -0.064 -0.4364 -0.0410  0.0406
 2021TIP3   OH2 6068   5.716   2.121   3.395 -0.3123  0.6401  0.5144
 2021TIP3    H1 6069   5.727   2.121   3.491 -0.7964  1.0904  0.5755
 2021TIP3    H2 6070   5.634   2.074   3.381 -0.4450  0.9214  0.3481
 2022TIP3   OH2 6071   0.331   4.488   4.754  0.4021  0.1071  0.2330
 2022TIP3    H1 6072   0.404   4.449   4.803  0.9660  2.4763  1.4216
 2022TIP3    H2 6073   0.363   4.493   4.664  1.3349  0.2047  0.5520
 2023TIP3   OH2 6074   1.688   1.322   1.194  0.2965  0.3317 -0.2746
 2023TIP3    H1 6075   1.721   1.333   1.104 -1.8539  1.1168 -1.0478
 2023TIP3    H2 6076   1.625   1.393   1.205  1.9103  1.4681  2.6228
 2024TIP3   OH2 6077   2.486   0.225   4.185  0.3043 -0.0327  0.2227
 2024TIP3    H1 6078   2.414   0.248   4.244  0.1296  0.6930 -0.2518
 2024TIP3    H2 6079   2.551   0.183   4.241 -1.2021 -2.3114  0.3604
 2025TIP3   OH2 6080   0.612   5.470   2.489  0.5187 -0.3460 -0.3522
 2025TIP3    H1 6081   0.576   5.390   2.527  0.9610  0.1194  1.0866
 2025TIP3    H2 6082   0.567   5.478   2.405 -0.9574 -1.0705  0.3257
 2026TIP3   OH2 6083   4.369   2.367   0.738  0.1083 -0.4649  0.6121
 2026TIP3    H1 6084   4.363   2.421   0.659 -3.2485 -2.5579 -0.7674
 2026TIP3    H2 6085   4.299   2.398   0.795  0.7501 -0.7503  1.5874
 2027TIP3   OH2 6086   5.414   3.481   2.881  0.1064 -0.6576  0.7170
 2027TIP3    H1 6087   5.355   3.458   2.809  0.6693  0.5714 -0.1847
 2027TIP3    H2 6088   5.363   3.541   2.935  0.7259  1.0677 -0.5138
 2028TIP3   OH2 6089   5.184   2.650   5.164 -0.3439 -0.4945  0.3641
 2028TIP3    H1 6090   5.255   2.624   5.104 -1.5481 -1.5761 -0.6669
 2028TIP3    H2 6091   5.207   2.609   5.247  0.6675 -0.1341  0.2713
 2029TIP3   OH2 6092   4.711   2.957   1.449 -0.3719  0.2916  0.2088
 2029TIP3    H1 6093   4.658   2.954   1.370  1.3782  1.6371 -1.0976
 2029TIP3    H2 6094   4.655   2.998   1.515 -1.3564  0.5592 -0.7799
 2030TIP3   OH2 6095   3.557   4.668   0.889  0.3429  0.3629  0.3532
 2030TIP3    H1 6096   3.588   4.610   0.958 -0.4239 -0.9759 -0.3777
 2030TIP3    H2 6097   3.624   4.735   0.882  0.5802  0.3708  2.1752
 2031TIP3   OH2 6098   0.088   5.517   1.159 -0.1922  0.1966 -0.0330
 2031TIP3    H1 6099   0.084   5.521   1.255  1.6518  0.5151  0.0712
 2031TIP3    H2 6100   0.123   5.602   1.133  0.3476 -0.2705 -0.8933
 2032TIP3   OH2 6101   1.751   4.072   2.144  0.0492 -0.2401  0.3165
 2032TIP3    H1 6102   1.729   4.005   2.080  1.2914 -0.6751  0.3255
 2032TIP3    H2 6103   1.809   4.029   2.206 -1.8486 -0.0999  2.3285
 2033TIP3   OH2 6104   1.306   5.012   0.954  0.0733 -0.0613 -0.6242
 2033TIP3    H1 6105   1.263   4.991   0.870  0.8035 -1.4086 -0.6996
 2033TIP3    H2 6106   1.236   5.002   1.019 -0.1240 -0.6776 -0.9121
 2034TIP3   OH2 6107   3.159   5.458   3.276  0.4348  0.4723  0.9876
 2034TIP3    H1 6108   3.133   5.510   3.200 -1.4793 -0.3337  1.0238
 2034TIP3    H2 6109   3.230   5.508   3.316 -0.7686  2.6573  0.5862
 2035TIP3   OH2 6110   6.239   2.148   0.424 -0.1109 -0.0506  0.1114
 2035TIP3    H1 6111   6.300   2.131   0.495  0.0881 -2.0824 -0.4962
 2035TIP3    H2 6112   6.215   2.062   0.390 -0.3859  0.8204 -2.1162
 2036TIP3   OH2 6113   2.235   0.970   4.390  0.3114  0.1362 -0.1170
 2036TIP3    H1 6114   2.279   0.997   4.309 -0.2547 -1.5896 -1.0534
 2036TIP3    H2 6115   2.142   0.983   4.371  0.0634 -1.7708 -0.3810
 2037TIP3   OH2 6116   5.585   0.853   2.464  0.1027  0.3411 -0.3690
 2037TIP3    H1 6117   5.495   0.825   2.447  0.1732 -0.5145  0.5734
 2037TIP3    H2 6118   5.586   0.947   2.446 -0.9413  0.3282 -0.5066
 2038TIP3   OH2 6119   0.164   4.899   3.214 -0.4983 -0.2192 -0.6267
 2038TIP3    H1 6120   0.140   4.886   3.122 -1.7777  0.6801 -0.4489
 2038TIP3    H2 6121   0.163   4.994   3.226  1.1717 -0.2479 -0.0466
 2039TIP3   OH2 6122   2.087   2.815   3.434  0.6222  0.3124  0.2828
 2039TIP3    H1 6123   2.068   2.887   3.494  2.9030  3.4840 -2.3949
 2039TIP3    H2 6124   2.042   2.839   3.353  1.9412 -0.9585 -0.8948
 2040TIP3   OH2 6125   4.030   0.763   2.782  0.2485  0.3874  0.5732
 2040TIP3    H1 6126   4.100   0.701   2.761 -0.0135  0.2073  0.2103
 2040TIP3    H2 6127   4.065   0.815   2.854  2.7715  3.6188 -2.6378
 2041TIP3   OH2 6128   5.271   3.203   3.716  0.1990  0.1332 -0.0413
 2041TIP3    H1 6129   5.233   3.275   3.665  2.3151  1.0215 -0.4651
 2041TIP3    H2 6130   5.307   3.246   3.794  1.4208 -0.4428 -0.2660
 2042TIP3   OH2 6131   2.378   1.694   3.220  0.3481  0.1713  0.5611
 2042TIP3    H1 6132   2.374   1.697   3.125  3.3471  0.9987  0.3659
 2042TIP3    H2 6133   2.378   1.786   3.247 -0.2899 -0.0531  1.3503
 2043TIP3   OH2 6134   2.874   1.254   3.916 -0.3210 -0.8559  0.2113
 2043TIP3    H1 6135   2.823   1.271   3.837  0.2047  0.3386  0.1003
 2043TIP3    H2 6136   2.844   1.321   3.978  1.0666 -0.1126  0.1395
 2044TIP3   OH2 6137   3.902   1.692   0.141 -0.1151  0.1190  0.3279
 2044TIP3    H1 6138   3.882   1.612   0.092  0.2195 -0.5774  1.2975
 2044TIP3    H2 6139   3.955   1.744   0.082 -0.5967 -0.2401 -0.4313
 2045TIP3   OH2 6140   4.844   1.628   4.298  0.1528 -0.0267 -0.2594
 2045TIP3    H1 6141   4.805   1.628   4.385  0.5550  0.5144 -0.0701
 2045TIP3    H2 6142   4.802   1.555   4.253  1.1754 -1.3996  0.9312
 2046TIP3   OH2 6143   3.157   5.605   4.850  0.0641 -0.0631  0.1745
 2046TIP3    H1 6144   3.180   5.519   4.816 -0.0137  0.4595 -1.2675
 2046TIP3    H2 6145   3.222   5.664   4.812 -0.9398  0.7669 -0.3086
 2047TIP3   OH2 6146   1.196   1.769   0.813 -0.3223 -0.4630  0.4243
 2047TIP3    H1 6147   1.217   1.679   0.838  0.1041 -0.4372  0.1665
 2047TIP3    H2 6148   1.263   1.792   0.749  0.1567  0.3649  1.2059
 2048TIP3   OH2 6149   4.703   1.777   4.743  0.4257  0.1684  0.1931
 2048TIP3    H1 6150   4.640   1.785   4.815  1.7750 -0.4533  1.4928
 2048TIP3    H2 6151   4.672   1.840   4.678 -0.7780  0.8412  1.3495
 2049TIP3   OH2 6152   2.325   2.614   1.740 -0.0520  0.2476 -0.6178
 2049TIP3    H1 6153   2.391   2.672   1.701  0.1245  2.1172  2.1078
 2049TIP3    H2 6154   2.376   2.552   1.793 -0.3671  0.2790 -0.2694
 2050TIP3   OH2 6155   0.777   5.249   1.166  0.2313  0.1117  0.0818
 2050TIP3    H1 6156   0.835   5.174   1.181  2.2400  1.9117  2.0424
 2050TIP3    H2 6157   0.783   5.265   1.072  1.4234 -0.9229 -0.0571
 2051TIP3   OH2 6158   5.843   1.919   3.761 -0.3157 -0.1906 -0.3481
 2051TIP3    H1 6159   5.792   1.990   3.723 -1.6238 -1.1169 -0.3657
 2051TIP3    H2 6160   5.784   1.844   3.762  0.7317 -1.0429  0.5382
 2052TIP3   OH2 6161   3.830   4.386   0.235  0.7206  0.1930  0.3899
 2052TIP3    H1 6162   3.893   4.318   0.213 -0.9912 -0.9742 -1.0891
 2052TIP3    H2 6163   3.783   4.352   0.311 -1.7986 -1.5345 -1.7807
 2053TIP3   OH2 6164   2.788   4.158   3.796  0.9321  0.3319  0.8138
 2053TIP3    H1 6165   2.797   4.155   3.701 -0.2827  1.5636  0.6408
 2053TIP3    H2 6166   2.874   4.129   3.829  1.0366 -1.1546 -0.6183
 2054TIP3   OH2 6167   2.037   1.820   0.464 -0.0246  0.2192 -0.1747
 2054TIP3    H1 6168   2.085   1.742   0.492 -0.6254  0.2277  0.9242
 2054TIP3    H2 6169   2.076   1.843   0.379  1.5218 -0.1030  0.4162
 2055TIP3   OH2 6170   0.987   6.001   2.075 -0.4354 -0.3948 -0.1606
 2055TIP3    H1 6171   0.982   5.979   1.981 -1.2202  1.2646 -0.5341
 2055TIP3    H2 6172   0.917   5.949   2.115  2.2217 -4.0763  0.2154
 2056TIP3   OH2 6173   0.828   3.330   0.327  0.1384  0.4188 -0.3304
 2056TIP3    H1 6174   0.902   3.275   0.303 -0.1631  0.5032 -1.5162
 2056TIP3    H2 6175   0.826   3.327   0.423  0.9803 -0.4870 -0.3228
 2057TIP3   OH2 6176   3.102   4.708   5.062 -0.0539  0.1310 -0.2830
 2057TIP3    H1 6177   3.110   4.672   4.973 -0.7605  0.3767 -0.4550
 2057TIP3    H2 6178   3.008   4.720   5.074 -0.2073 -2.1527  1.4143
 2058TIP3   OH2 6179   4.063   4.159   1.371  0.0339 -0.4508 -0.2842
 2058TIP3    H1 6180   4.128   4.094   1.398 -1.5824 -1.8587  0.3819
 2058TIP3    H2 6181   4.091   4.240   1.413  2.0421 -0.6930 -1.0451
 2059TIP3   OH2 6182   5.266   3.251   4.178 -0.4457 -0.2873 -0.1367
 2059TIP3    H1 6183   5.176   3.257   4.147  0.6793  1.8574 -3.6096
 2059TIP3    H2 6184   5.277   3.328   4.234 -0.9699 -1.1318  1.1852
 2060TIP3   OH2 6185   2.624   1.638   1.099  0.5410 -0.4150 -0.0915
 2060TIP3    H1 6186   2.533   1.636   1.067  0.7642 -1.3444 -0.7244
 2060TIP3    H2 6187   2.636   1.727   1.132 -0.6420 -0.3118  0.1309
 2061TIP3   OH2 6188   3.017   5.704   0.905 -0.3618 -0.3012  0.3323
 2061TIP3    H1 6189   3.041   5.777   0.962 -0.0818 -0.5916  0.5898
 2061TIP3    H2 6190   2.993   5.745   0.822  0.9098  0.0187  0.1076
 2062TIP3   OH2 6191   5.578   5.814   2.489 -0.4255  0.5633  0.4303
 2062TIP3    H1 6192   5.597   5.888   2.431 -0.1499 -0.3357 -0.6710
 2062TIP3    H2 6193   5.545   5.746   2.430  1.7612 -1.0839  0.9652
 2063TIP3   OH2 6194   3.259   1.285   2.827  0.4666 -0.6119  0.4898
 2063TIP3    H1 6195   3.276   1.371   2.787  0.1033  0.4529  2.4666
 2063TIP3    H2 6196   3.322   1.226   2.787  0.0759  0.3270 -1.6585
 2064TIP3   OH2 6197   1.469   1.531   2.583  0.4288 -0.1395 -0.2754
 2064TIP3    H1 6198   1.505   1.617   2.605  2.8256 -0.8089 -1.2432
 2064TIP3    H2 6199   1.413   1.509   2.657  1.9817  1.0449  1.3533
 2065TIP3   OH2 6200   4.553   3.980   3.974 -1.1088  0.3513  0.6776
 2065TIP3    H1 6201   4.551   4.058   3.918  0.4698  0.1528  0.2869
 2065TIP3    H2 6202   4.472   3.984   4.025 -1.0369  2.2747  0.6975
 2066TIP3   OH2 6203   0.560   2.714   3.524 -0.2017 -0.2647  0.3441
 2066TIP3    H1 6204   0.553   2.649   3.454 -1.8937 -1.5855  1.6573
 2066TIP3    H2 6205   0.589   2.664   3.600  0.5168  0.9386  0.8851
 2067TIP3   OH2 6206   4.082   5.061   4.699  0.2367 -0.8024  0.4337
 2067TIP3    H1 6207   4.089   5.004   4.623 -1.0006 -1.4662  0.7865
 2067TIP3    H2 6208   3.993   5.048   4.731  0.5087 -0.0244  1.5953
 2068TIP3   OH2 6209   5.136   5.690   0.509  0.0450  0.3356  0.1650
 2068TIP3    H1 6210   5.216   5.637   0.507 -0.7279 -0.8731 -2.0000
 2068TIP3    H2 6211   5.065   5.625   0.507 -0.9422  1.3519 -2.5813
 2069TIP3   OH2 6212   0.725   3.309   2.367  0.1680  0.5720 -0.1454
 2069TIP3    H1 6213   0.784   3.263   2.307 -0.3759 -0.2807 -0.0476
 2069TIP3    H2 6214   0.775   3.318   2.448 -0.1146 -0.9148  0.2215
 2070TIP3   OH2 6215   1.140   5.338   4.927  0.3499  0.0251  0.5105
 2070TIP3    H1 6216   1.210   5.276   4.946  1.5357  1.3027  0.3922
 2070TIP3    H2 6217   1.085   5.293   4.862  1.5963 -0.6158 -0.1306
 2071TIP3   OH2 6218   5.686   5.243   1.503  1.2480  0.0595  0.1225
 2071TIP3    H1 6219   5.746   5.210   1.570  0.7785 -1.4369 -0.1584
 2071TIP3    H2 6220   5.672   5.169   1.444 -0.7871  0.3762  0.1240
 2072TIP3   OH2 6221   2.919   3.055   2.570  0.2774 -0.2352  0.2804
 2072TIP3    H1 6222   2.903   3.137   2.616  1.9476 -0.2351  0.9493
 2072TIP3    H2 6223   2.894   3.072   2.480 -1.9039  0.1557  0.9059
 2073TIP3   OH2 6224   6.135   3.077   3.702  0.6452  0.2634 -0.4183
 2073TIP3    H1 6225   6.103   3.039   3.621  1.8614 -0.8366 -0.4088
 2073TIP3    H2 6226   6.227   3.099   3.685  0.2576  2.3817 -0.1251
 2074TIP3   OH2 6227   0.586   5.860   4.093  0.4602  0.0339 -0.4867
 2074TIP3    H1 6228   0.605   5.899   4.178 -0.4171  0.3522 -0.4241
 2074TIP3    H2 6229   0.531   5.784   4.114  0.2981  0.0756 -0.7608
 2075TIP3   OH2 6230   3.737   5.117   3.810  0.4480  0.1055 -0.3294
 2075TIP3    H1 6231   3.799   5.160   3.752  1.9799 -2.8742 -1.0356
 2075TIP3    H2 6232   3.789   5.090   3.886 -0.5582 -0.1841  0.2845
 2076TIP3   OH2 6233   3.154   4.137   1.892 -0.6717  0.2802  0.5918
 2076TIP3    H1 6234   3.152   4.195   1.967  0.1153 -1.0875  1.7201
 2076TIP3    H2 6235   3.082   4.167   1.836 -0.1583  2.4263  1.0086
 2077TIP3   OH2 6236   2.130   3.873   2.502  0.0464 -0.0308  0.1600
 2077TIP3    H1 6237   2.173   3.857   2.417 -0.0607 -2.0267  0.4219
 2077TIP3    H2 6238   2.199   3.860   2.566 -0.2589 -0.2241  0.4505
 2078TIP3   OH2 6239   5.650   2.376   3.264 -0.5320  0.3488 -0.4389
 2078TIP3    H1 6240   5.559   2.381   3.295 -0.5477  0.3663 -0.4873
 2078TIP3    H2 6241   5.687   2.301   3.311 -0.1995  1.1041  0.5153
 2079TIP3   OH2 6242   4.235   2.206   0.185 -0.2927  0.1892 -0.5859
 2079TIP3    H1 6243   4.183   2.128   0.206  0.7051 -0.6017 -0.9875
 2079TIP3    H2 6244   4.210   2.270   0.251 -0.4929 -0.7571  0.2779
 2080TIP3   OH2 6245   0.466   5.214   0.936  0.2992  0.2764 -0.2144
 2080TIP3    H1 6246   0.440   5.191   0.847 -1.0614 -0.0164  0.2421
 2080TIP3    H2 6247   0.385   5.239   0.979  1.0674  1.2880  0.6968
 2081TIP3   OH2 6248   3.672   5.460   0.450 -0.6146  0.0225 -0.0795
 2081TIP3    H1 6249   3.607   5.447   0.380 -0.1496  3.6251 -1.4305
 2081TIP3    H2 6250   3.754   5.476   0.403 -0.2266  2.2917  1.2247
 2082TIP3   OH2 6251   3.688   5.923   4.437  0.2542 -0.2665  0.5192
 2082TIP3    H1 6252   3.764   5.866   4.444  1.2424  1.0283  0.5775
 2082TIP3    H2 6253   3.633   5.900   4.512  1.5859  0.2104  1.6724
 2083TIP3   OH2 6254   2.634   3.363   1.629  0.2279 -0.0715  0.3965
 2083TIP3    H1 6255   2.553   3.367   1.680  0.7644 -0.0352  1.2607
 2083TIP3    H2 6256   2.627   3.435   1.568 -0.5344 -0.2599  0.2476
 2084TIP3   OH2 6257   0.556   5.015   3.363  1.0164 -0.3222  0.1168
 2084TIP3    H1 6258   0.492   5.085   3.376  1.1582  0.1188 -1.3925
 2084TIP3    H2 6259   0.522   4.941   3.414 -0.7007 -0.1031 -0.6467
 2085TIP3   OH2 6260   0.569   5.088   0.638 -0.1064  0.0957 -0.2237
 2085TIP3    H1 6261   0.559   4.995   0.615 -1.8708  0.5412 -1.4043
 2085TIP3    H2 6262   0.645   5.116   0.587 -0.6217 -0.2974 -1.2487
 2086TIP3   OH2 6263   0.553   5.868   0.166 -0.1476 -0.2548 -0.5864
 2086TIP3    H1 6264   0.588   5.812   0.236  2.2753  0.7003 -0.9121
 2086TIP3    H2 6265   0.472   5.903   0.201  0.5773 -0.4584  1.4176
 2087TIP3   OH2 6266   2.278   3.553   0.665 -0.0706  0.8830 -0.4552
 2087TIP3    H1 6267   2.291   3.485   0.600 -1.1937  1.1519 -0.9902
 2087TIP3    H2 6268   2.337   3.623   0.639 -0.3363  0.8896 -1.0536
 2088TIP3   OH2 6269   2.561   4.917   1.892 -0.6757 -0.3100  0.0733
 2088TIP3    H1 6270   2.472   4.954   1.893  0.4758  2.9310 -1.7245
 2088TIP3    H2 6271   2.559   4.855   1.819 -1.3262  0.1307 -0.2995
 2089TIP3   OH2 6272   1.956   4.911   1.280 -0.0776 -0.1151 -0.4676
 2089TIP3    H1 6273   1.933   4.913   1.373 -0.7022  1.2893 -0.6158
 2089TIP3    H2 6274   2.052   4.910   1.280 -0.0723 -0.3592  0.1888
 2090TIP3   OH2 6275   0.061   0.164   2.450  0.6452 -0.3581  0.4279
 2090TIP3    H1 6276   0.093   0.213   2.526  1.6399  0.2791 -0.3863
 2090TIP3    H2 6277   0.044   0.076   2.484  2.7856 -0.5756  1.0234
 2091TIP3   OH2 6278   5.550   2.255   0.117  0.1579 -0.1718  0.2431
 2091TIP3    H1 6279   5.467   2.228   0.156  0.4360 -0.6520  0.5211
 2091TIP3    H2 6280   5.577   2.332   0.168  0.0614 -0.2347  0.3902
 2092TIP3   OH2 6281   3.227   0.501   2.652  0.1258 -0.0585 -0.2779
 2092TIP3    H1 6282   3.169   0.502   2.577 -0.3836 -2.2065  0.0440
 2092TIP3    H2 6283   3.213   0.416   2.693  1.7843  0.2998  1.1627
 2093TIP3   OH2 6284   0.192   5.251   4.591 -0.4612  0.1720  0.0288
 2093TIP3    H1 6285   0.117   5.299   4.558 -0.5409  0.3525  0.4770
 2093TIP3    H2 6286   0.246   5.316   4.635 -1.6369 -0.4836  2.5763
 2094TIP3   OH2 6287   0.891   5.775   0.988  0.7122  0.1336  0.3299
 2094TIP3    H1 6288   0.954   5.796   0.919  0.6343  1.4653  0.6347
 2094TIP3    H2 6289   0.826   5.845   0.983 -0.9027 -1.3355 -0.1339
 2095TIP3   OH2 6290   3.740   2.134   4.537  0.5441 -0.0326  0.1580
 2095TIP3    H1 6291   3.684   2.068   4.576 -1.0705  0.4781 -1.1789
 2095TIP3    H2 6292   3.815   2.085   4.503 -0.1602 -1.0568  0.0296
 2096TIP3   OH2 6293   1.911  -0.018   1.693 -0.0522 -0.1794  0.0779
 2096TIP3    H1 6294   1.906   0.076   1.674 -0.9999  0.0675  1.4018
 2096TIP3    H2 6295   1.851  -0.030   1.766  0.1164 -1.8194 -0.0329
 2097TIP3   OH2 6296   2.100   5.306   4.960  0.1363  0.2283  0.7122
 2097TIP3    H1 6297   2.008   5.283   4.964  0.1988  0.1294  2.5306
 2097TIP3    H2 6298   2.141   5.251   5.028  1.5087  0.3533  0.0180
 2098TIP3   OH2 6299   0.527   0.156   3.423 -0.0529  0.4001  0.2402
 2098TIP3    H1 6300   0.585   0.081   3.418 -0.1148  0.3815 -0.2224
 2098TIP3    H2 6301   0.451   0.124   3.473  0.0229  0.2249  0.2439
 2099TIP3   OH2 6302   5.086   4.895   2.494  0.3635 -0.2401  0.2071
 2099TIP3    H1 6303   5.089   4.907   2.399 -0.8378 -1.9491 -0.0864
 2099TIP3    H2 6304   5.012   4.949   2.522 -0.1338 -0.7987 -0.0209
 2100TIP3   OH2 6305   4.802   2.768   0.417 -0.1185  0.0567  0.1871
 2100TIP3    H1 6306   4.857   2.780   0.339  0.3424  0.5772  0.5860
 2100TIP3    H2 6307   4.865   2.749   0.487 -0.5864 -1.2649  0.2733
 2101TIP3   OH2 6308   4.216   3.367   1.293  0.2929 -0.0381 -0.4142
 2101TIP3    H1 6309   4.178   3.432   1.351  1.5954 -0.5538  1.0768
 2101TIP3    H2 6310   4.259   3.419   1.224 -0.8676  0.5876 -0.6869
 2102TIP3   OH2 6311   5.918   2.343   4.599 -0.0645 -0.7585 -0.0021
 2102TIP3    H1 6312   5.912   2.366   4.506 -1.3689 -0.4908  0.1257
 2102TIP3    H2 6313   6.011   2.347   4.618  0.2014 -0.5219 -1.2301
 2103TIP3   OH2 6314   1.714   1.225   4.767 -0.6284 -0.2308  0.0780
 2103TIP3    H1 6315   1.808   1.229   4.784 -0.2428 -0.2166 -1.8734
 2103TIP3    H2 6316   1.704   1.257   4.678 -2.5937  0.5362  0.5217
 2104TIP3   OH2 6317   0.540   0.925   3.027 -0.1680  0.2064 -0.2256
 2104TIP3    H1 6318   0.603   0.881   3.084  1.0427  1.4203 -0.5751
 2104TIP3    H2 6319   0.575   0.913   2.939  0.6266  2.4317 -0.2810
 2105TIP3   OH2 6320   6.109   5.168   1.819  0.0887  0.0162  0.0335
 2105TIP3    H1 6321   6.152   5.206   1.742 -0.3827  0.3524 -0.0685
 2105TIP3    H2 6322   6.121   5.233   1.888 -2.2394  1.2235 -0.5938
 2106TIP3   OH2 6323   4.374   5.628   2.758 -0.0910 -0.0666  0.6992
 2106TIP3    H1 6324   4.349   5.561   2.822 -1.3893 -1.8534 -1.5168
 2106TIP3    H2 6325   4.295   5.680   2.745  0.4387  0.8845  1.1972
 2107TIP3   OH2 6326   0.774   1.021   4.768  0.2361 -0.2059  0.6904
 2107TIP3    H1 6327   0.715   1.045   4.697  1.8422 -0.6612 -0.8742
 2107TIP3    H2 6328   0.738   0.940   4.804 -1.4174  0.8195  1.4386
 2108TIP3   OH2 6329   0.801   4.047   5.127 -0.0119  0.2861 -0.0482
 2108TIP3    H1 6330   0.839   4.135   5.124 -0.2788  0.4245  0.4495
 2108TIP3    H2 6331   0.707   4.062   5.136  0.0762 -0.0344  1.7197
 2109TIP3   OH2 6332   4.913   3.424   3.444  0.0245 -0.0652  0.0843
 2109TIP3    H1 6333   4.981   3.430   3.377  0.3756  0.4056  0.4802
 2109TIP3    H2 6334   4.869   3.509   3.443 -1.3265 -0.7274 -0.9525
 2110TIP3   OH2 6335   0.796   4.746   3.546  0.7668  0.3800 -0.2683
 2110TIP3    H1 6336   0.776   4.657   3.517  0.5845  0.7962 -1.5184
 2110TIP3    H2 6337   0.711   4.791   3.545  0.7457  0.4053  1.0384
 2111TIP3   OH2 6338   1.602   5.044   1.181 -0.0682 -0.0081 -0.5606
 2111TIP3    H1 6339   1.670   5.086   1.233 -0.1292 -0.3729 -0.1798
 2111TIP3    H2 6340   1.524   5.097   1.196 -0.1841 -0.3426  0.0448
 2112TIP3   OH2 6341   4.758   4.117   2.328 -0.0497  0.2534  0.0352
 2112TIP3    H1 6342   4.671   4.107   2.289 -0.2358  2.3631 -0.1863
 2112TIP3    H2 6343   4.751   4.193   2.385  1.0978 -0.8611  1.7532
 2113TIP3   OH2 6344   4.360   2.160   4.873  0.0367  0.1866 -0.5768
 2113TIP3    H1 6345   4.289   2.224   4.872  0.3022  0.5472  1.0870
 2113TIP3    H2 6346   4.435   2.208   4.836  0.3157  0.9900  0.9308
 2114TIP3   OH2 6347   3.825   3.536   0.269  0.0289  0.1512  0.1440
 2114TIP3    H1 6348   3.876   3.616   0.275  0.1079  0.0672  0.6257
 2114TIP3    H2 6349   3.867   3.485   0.199 -0.2200  0.6626 -0.3918
 2115TIP3   OH2 6350   4.782   4.823   1.215  0.2317 -0.2951 -0.4366
 2115TIP3    H1 6351   4.688   4.829   1.201  0.6653  0.6737 -3.8371
 2115TIP3    H2 6352   4.801   4.885   1.286 -1.4310  1.2671 -1.2957
 2116TIP3   OH2 6353   6.206   5.049   2.765 -0.2766 -0.1944  0.1683
 2116TIP3    H1 6354   6.141   5.078   2.829  0.4832 -0.7061  1.2025
 2116TIP3    H2 6355   6.236   5.130   2.724 -2.1140 -0.0075 -0.9094
 2117TIP3   OH2 6356   2.344   4.313   0.137  0.1577 -0.0161 -0.1935
 2117TIP3    H1 6357   2.348   4.403   0.171  1.4731 -0.5328  1.1249
 2117TIP3    H2 6358   2.412   4.267   0.185  0.1035 -1.5208 -1.5093
 2118TIP3   OH2 6359   4.498   2.190   2.509  0.2964  0.1250 -0.0095
 2118TIP3    H1 6360   4.432   2.245   2.552  0.1229  0.7285 -1.0024
 2118TIP3    H2 6361   4.500   2.222   2.418 -1.3022 -2.8806 -1.2157
 2119TIP3   OH2 6362   1.509   4.115   0.458 -0.0645 -0.3041  0.1338
 2119TIP3    H1 6363   1.502   4.118   0.363 -1.2257  1.3566  0.2239
 2119TIP3    H2 6364   1.572   4.183   0.480  0.5963 -1.0319  0.5380
 2120TIP3   OH2 6365   3.393   2.826   4.518  0.0148 -0.0579 -0.5391
 2120TIP3    H1 6366   3.393   2.907   4.468 -1.2407  0.2866 -0.0097
 2120TIP3    H2 6367   3.310   2.784   4.496 -0.0419 -0.4467  0.3859
 2121TIP3   OH2 6368   3.218   3.552   0.227  0.2112 -0.2047  0.5491
 2121TIP3    H1 6369   3.269   3.590   0.155 -0.1675 -1.2911 -0.3194
 2121TIP3    H2 6370   3.197   3.627   0.283 -1.5267  1.1584 -1.7118
 2122TIP3   OH2 6371   3.205   1.043   1.539 -0.5631  0.4277  0.3617
 2122TIP3    H1 6372   3.129   0.997   1.503 -0.6419  0.3144  0.6725
 2122TIP3    H2 6373   3.258   0.975   1.580 -0.1807  0.4746 -0.0377
 2123TIP3   OH2 6374   3.835   2.887   5.040  0.5094  0.0111 -0.2296
 2123TIP3    H1 6375   3.755   2.935   5.065 -0.3169 -0.7431 -1.3421
 2123TIP3    H2 6376   3.906   2.943   5.070 -0.3983 -0.0981  2.4165
 2124TIP3   OH2 6377   1.802   1.239   4.079  0.6174  0.4377 -0.3352
 2124TIP3    H1 6378   1.814   1.297   4.154  1.2635  2.2557 -1.7697
 2124TIP3    H2 6379   1.715   1.259   4.046  1.0061  0.9505 -1.0920
 2125TIP3   OH2 6380   4.088   0.941   3.284 -0.0427 -0.2305 -0.0849
 2125TIP3    H1 6381   4.171   0.920   3.326  0.6860  0.1067 -1.2813
 2125TIP3    H2 6382   4.041   0.994   3.348  1.0002  0.2243  0.3417
 2126TIP3   OH2 6383   0.742   1.184   3.615  0.7542 -0.0790 -0.0918
 2126TIP3    H1 6384   0.743   1.142   3.529  0.2899 -2.3902  0.9319
 2126TIP3    H2 6385   0.833   1.181   3.644  0.4935 -2.2559  0.7282
 2127TIP3   OH2 6386   3.837   4.531   1.283 -0.2753  0.6523 -0.3207
 2127TIP3    H1 6387   3.927   4.545   1.254 -0.7898  1.0628 -1.7708
 2127TIP3    H2 6388   3.842   4.536   1.379  1.0851  1.5729 -0.4150
 2128TIP3   OH2 6389   4.380   2.984   1.007  0.1534 -0.1496 -0.0628
 2128TIP3    H1 6390   4.421   2.907   1.045  1.3211 -0.5638 -2.0053
 2128TIP3    H2 6391   4.310   3.007   1.068 -0.0725 -2.5798  0.6981
 2129TIP3   OH2 6392   6.206   3.062   4.457  0.3279 -0.6325 -0.3537
 2129TIP3    H1 6393   6.132   3.035   4.402 -0.3899 -1.2294  0.8626
 2129TIP3    H2 6394   6.283   3.046   4.403 -0.4269  0.0461 -1.6657
 2130TIP3   OH2 6395   3.456   0.591   2.780  0.0572  0.4328 -0.2316
 2130TIP3    H1 6396   3.538   0.570   2.735  0.0491 -0.6973  0.2460
 2130TIP3    H2 6397   3.387   0.574   2.715  0.1574  0.6506 -0.3944
 2131TIP3   OH2 6398   5.785   4.234   2.063 -0.2141 -0.2626 -0.2003
 2131TIP3    H1 6399   5.755   4.300   2.001  1.7276  1.0338  0.1762
 2131TIP3    H2 6400   5.776   4.275   2.149  0.2265 -0.8068  0.1141
 2132TIP3   OH2 6401   3.442   4.354   1.664  0.0158  0.3841  0.2661
 2132TIP3    H1 6402   3.415   4.262   1.660  0.4702  0.2724 -0.8474
 2132TIP3    H2 6403   3.361   4.402   1.680 -0.3749 -0.1587 -0.0270
 2133TIP3   OH2 6404   1.956   0.825   4.246  0.2453  0.5462  0.1742
 2133TIP3    H1 6405   1.966   0.730   4.237  0.8736  0.5919  0.3105
 2133TIP3    H2 6406   1.864   0.838   4.266  0.6270 -0.2405  2.7910
 2134TIP3   OH2 6407   0.527   4.154   1.572 -1.0421 -0.3253  0.4350
 2134TIP3    H1 6408   0.487   4.191   1.493 -0.4093  1.6131  0.9821
 2134TIP3    H2 6409   0.601   4.103   1.539 -1.0566  0.0910 -0.2599
 2135TIP3   OH2 6410   0.646   3.215   3.868 -0.2891  0.2755 -0.1401
 2135TIP3    H1 6411   0.716   3.177   3.921 -0.7280 -0.0763  0.1900
 2135TIP3    H2 6412   0.686   3.227   3.782  0.7258  1.7399  0.4918
 2136TIP3   OH2 6413   5.005   2.967   3.377  0.2747 -0.3966  0.0783
 2136TIP3    H1 6414   5.019   2.873   3.385 -0.7252 -0.5095  0.7643
 2136TIP3    H2 6415   4.931   2.975   3.316 -0.2830 -0.1188  0.7750
 2137TIP3   OH2 6416   1.293   3.060   4.778 -0.3987  0.3141 -0.1675
 2137TIP3    H1 6417   1.350   2.991   4.812  0.4954  0.1373 -1.9016
 2137TIP3    H2 6418   1.206   3.021   4.777  0.2019 -1.1525 -1.8822
 2138TIP3   OH2 6419   3.562   0.039   2.285 -0.3517 -0.2178  0.5469
 2138TIP3    H1 6420   3.476   0.020   2.247  0.9587  0.8449 -3.4686
 2138TIP3    H2 6421   3.623  -0.010   2.230  1.8821  2.9600 -0.0927
 2139TIP3   OH2 6422   5.902   2.941   0.702 -0.7715 -0.6425  0.4537
 2139TIP3    H1 6423   5.832   2.877   0.713 -2.5948  1.4312  1.7353
 2139TIP3    H2 6424   5.933   2.958   0.791  0.6975 -0.7767 -0.0110
 2140TIP3   OH2 6425   3.368   3.966   4.712 -0.1785  0.2234  0.0069
 2140TIP3    H1 6426   3.459   3.970   4.739 -0.1692  0.4219 -0.0571
 2140TIP3    H2 6427   3.319   4.003   4.786 -0.2672 -0.5338  0.3427
 2141TIP3   OH2 6428   2.888   2.691   0.631 -0.0208 -0.3548 -0.2151
 2141TIP3    H1 6429   2.906   2.778   0.667 -0.8073 -0.5080  0.5666
 2141TIP3    H2 6430   2.822   2.707   0.563  1.3014 -0.0956 -1.4899
 2142TIP3   OH2 6431   2.155   3.689   0.974  0.4342 -0.7602  0.9445
 2142TIP3    H1 6432   2.078   3.650   1.017 -1.3228  0.8335 -0.6068
 2142TIP3    H2 6433   2.153   3.653   0.886 -0.6105  1.8749 -0.1877
 2143TIP3   OH2 6434   5.857   2.915   3.319  0.0824 -0.0009  0.3524
 2143TIP3    H1 6435   5.784   2.860   3.349  0.7679 -0.8323  0.5164
 2143TIP3    H2 6436   5.904   2.861   3.256  1.0217  0.2317  0.8401
 2144TIP3   OH2 6437   5.785   2.332   2.793 -0.1953 -0.0547  0.0979
 2144TIP3    H1 6438   5.727   2.255   2.794 -1.3549  0.7065  3.2323
 2144TIP3    H2 6439   5.872   2.296   2.807 -0.4870 -0.9223 -0.2388
 2145TIP3   OH2 6440   0.351   4.525   1.437  0.4501 -0.6288  0.0505
 2145TIP3    H1 6441   0.432   4.570   1.461  0.2404  0.2066 -0.7288
 2145TIP3    H2 6442   0.320   4.573   1.360 -1.3510 -0.2238  0.9671
 2146TIP3   OH2 6443   2.842   4.315   1.985 -0.2167 -0.4815  0.4915
 2146TIP3    H1 6444   2.849   4.221   2.001  1.1131 -0.1206  2.2930
 2146TIP3    H2 6445   2.755   4.339   2.018 -1.5798 -1.3909 -2.1242
 2147TIP3   OH2 6446   0.851   1.307   3.167  0.2982 -0.1517  0.0797
 2147TIP3    H1 6447   0.895   1.391   3.181  0.3105  0.2911 -2.2291
 2147TIP3    H2 6448   0.759   1.329   3.154  0.1349 -0.6096  0.4326
 2148TIP3   OH2 6449   1.587   4.400   4.723 -0.1220 -0.2067 -0.3787
 2148TIP3    H1 6450   1.654   4.422   4.659 -1.7842  1.7970 -1.5703
 2148TIP3    H2 6451   1.522   4.350   4.673 -0.0300 -1.2502  0.5081
 2149TIP3   OH2 6452   1.571   2.095   2.370  0.0865  0.0064  0.7154
 2149TIP3    H1 6453   1.492   2.053   2.338 -0.4238  0.6496  1.1065
 2149TIP3    H2 6454   1.597   2.155   2.300 -0.0096  0.0916  0.7513
 2150TIP3   OH2 6455   2.275   5.471   4.184 -0.2231  0.1051  0.3666
 2150TIP3    H1 6456   2.182   5.456   4.167 -0.0638  0.5134 -1.0239
 2150TIP3    H2 6457   2.278   5.556   4.229 -0.4637  0.7273 -0.7410
 2151TIP3   OH2 6458   1.489   3.893   3.619 -0.3766  0.0693  0.5243
 2151TIP3    H1 6459   1.395   3.911   3.622 -1.2224 -3.4878  0.0735
 2151TIP3    H2 6460   1.510   3.891   3.526 -0.3753 -1.0623  0.5279
 2152TIP3   OH2 6461   0.505   2.890   2.476 -0.1155  0.5598 -0.3892
 2152TIP3    H1 6462   0.575   2.887   2.410 -1.8557  2.6853 -2.4943
 2152TIP3    H2 6463   0.447   2.817   2.452  0.7574 -0.5609  0.7373
 2153TIP3   OH2 6464   1.284   3.322   4.833 -0.3674  0.0363 -0.1878
 2153TIP3    H1 6465   1.298   3.228   4.834 -1.0442 -0.0763 -0.6279
 2153TIP3    H2 6466   1.300   3.349   4.923  0.3124 -0.4173 -0.1625
 2154TIP3   OH2 6467   4.827   4.760   4.465  0.2098  0.2489 -0.8187
 2154TIP3    H1 6468   4.899   4.756   4.402 -0.2371 -2.9104 -1.2924
 2154TIP3    H2 6469   4.870   4.777   4.549  1.2256  0.6924 -1.4087
 2155TIP3   OH2 6470   5.146   4.385   1.136  0.3926 -0.3641 -0.3901
 2155TIP3    H1 6471   5.067   4.337   1.159  0.4013  0.5767  1.8860
 2155TIP3    H2 6472   5.215   4.318   1.134  0.6660 -0.4702  4.0468
 2156TIP3   OH2 6473   0.930   4.358   3.641 -0.3276 -0.5406  0.7419
 2156TIP3    H1 6474   0.898   4.268   3.631  0.3390 -0.6395 -0.7803
 2156TIP3    H2 6475   1.025   4.350   3.632 -0.3854  0.5476 -1.5946
 2157TIP3   OH2 6476   2.443   4.489   0.986  0.5109 -0.0546 -0.4267
 2157TIP3    H1 6477   2.506   4.418   0.999  0.5469  0.3655  2.4269
 2157TIP3    H2 6478   2.471   4.557   1.048 -1.0275  1.3816 -1.2381
 2158TIP3   OH2 6479   5.890   5.733   0.887  0.5866 -0.2851 -0.2990
 2158TIP3    H1 6480   5.983   5.750   0.876  0.5943 -0.8663 -1.2514
 2158TIP3    H2 6481   5.886   5.648   0.931  0.5068  0.4355  1.1443
 2159TIP3   OH2 6482   2.124   3.118   2.596  0.3522  0.0295 -0.8194
 2159TIP3    H1 6483   2.059   3.145   2.531  1.0261 -1.5180 -2.2033
 2159TIP3    H2 6484   2.114   3.023   2.603  1.5787 -0.0719 -0.0743
 2160TIP3   OH2 6485   4.219   5.804   3.622 -0.3064  0.0078 -0.0446
 2160TIP3    H1 6486   4.179   5.818   3.536  0.4483  1.0341 -0.2506
 2160TIP3    H2 6487   4.240   5.892   3.653  0.7811 -0.4346  0.5239
 2161TIP3   OH2 6488   6.095   1.912   2.201  0.5986 -0.2400  0.0777
 2161TIP3    H1 6489   6.153   1.962   2.145  0.8566 -0.7701 -0.1365
 2161TIP3    H2 6490   6.154   1.862   2.258  0.3427 -0.0104  0.5488
 2162TIP3   OH2 6491   1.558   4.418   0.670  0.0032 -0.3347  0.1490
 2162TIP3    H1 6492   1.606   4.385   0.594 -0.4946  0.4336 -0.5159
 2162TIP3    H2 6493   1.548   4.512   0.653 -1.3374 -0.3929  0.4806
 2163TIP3   OH2 6494   3.582   5.109   0.551  0.7203  0.1087  0.9969
 2163TIP3    H1 6495   3.597   5.140   0.462  0.7315 -0.3347  0.8403
 2163TIP3    H2 6496   3.513   5.166   0.586  0.0490 -0.3025  0.3800
 2164TIP3   OH2 6497   3.622   3.493   2.466  0.3122  0.4348  0.3679
 2164TIP3    H1 6498   3.621   3.530   2.377 -0.0166 -0.2177  0.0958
 2164TIP3    H2 6499   3.685   3.421   2.461  0.4312  0.5143  0.7158
 2165TIP3   OH2 6500   2.999   4.820   4.007  0.4914 -0.1271  0.1111
 2165TIP3    H1 6501   2.928   4.838   4.070  1.8994  2.2381  1.1968
 2165TIP3    H2 6502   2.972   4.866   3.928  0.3804  0.0180  0.2306
 2166TIP3   OH2 6503   2.153   0.748   2.296 -0.1819 -0.2681  0.2976
 2166TIP3    H1 6504   2.075   0.794   2.327 -1.1724 -1.9807  0.4737
 2166TIP3    H2 6505   2.216   0.818   2.278 -2.1806  1.2980 -1.1630
 2167TIP3   OH2 6506   2.627   2.288   4.437  0.1176 -0.2959 -0.1307
 2167TIP3    H1 6507   2.716   2.259   4.456  0.6676  0.8422 -0.8631
 2167TIP3    H2 6508   2.611   2.260   4.347 -0.1301 -0.1684 -0.1278
 2168TIP3   OH2 6509   4.140   3.559   2.747  0.4814  0.1738 -0.2988
 2168TIP3    H1 6510   4.232   3.545   2.769  0.8552  0.0412 -1.8494
 2168TIP3    H2 6511   4.132   3.654   2.736  0.2920  0.2415  0.3973
 2169TIP3   OH2 6512   1.529   5.831   2.092  0.0639 -0.0975  0.1114
 2169TIP3    H1 6513   1.620   5.803   2.093 -0.2929 -1.3064  1.1834
 2169TIP3    H2 6514   1.501   5.818   2.002  0.9207  0.2100 -0.2096
 2170TIP3   OH2 6515   1.975   3.938   3.344 -0.4523 -0.1405  0.1228
 2170TIP3    H1 6516   1.949   3.846   3.345 -0.9780 -0.1221 -3.0124
 2170TIP3    H2 6517   2.065   3.938   3.312 -0.2785  0.4465  0.5853
 2171TIP3   OH2 6518   0.678   2.718   1.649  0.7041  0.0308  0.2225
 2171TIP3    H1 6519   0.606   2.658   1.630  0.9076 -0.0781 -0.2416
 2171TIP3    H2 6520   0.661   2.750   1.737  0.6727 -0.8214  0.5270
 2172TIP3   OH2 6521   0.827   5.026   3.881 -0.5202  0.5722  0.9695
 2172TIP3    H1 6522   0.880   5.104   3.865 -0.6886  0.5163  0.0755
 2172TIP3    H2 6523   0.750   5.038   3.825 -0.5750 -0.2055  0.8623
 2173TIP3   OH2 6524   5.125   4.032   1.904  0.2040 -0.2348  0.2268
 2173TIP3    H1 6525   5.051   3.990   1.860 -0.0509  1.5879 -1.1877
 2173TIP3    H2 6526   5.127   3.991   1.991 -2.0346 -0.8058  0.0765
 2174TIP3   OH2 6527   3.415   0.300   2.519 -0.0626  0.1093  0.3905
 2174TIP3    H1 6528   3.379   0.300   2.607  0.8349 -0.1376  0.7628
 2174TIP3    H2 6529   3.345   0.263   2.465 -0.5344  0.0501  1.0287
 2175TIP3   OH2 6530   5.167   2.989  -0.021  0.6183  0.1222 -0.0668
 2175TIP3    H1 6531   5.238   3.053  -0.022  0.3463  0.4575  0.8566
 2175TIP3    H2 6532   5.142   2.983   0.071 -0.0050 -0.6020 -0.2738
 2176TIP3   OH2 6533   6.306   4.014   2.096  0.1579 -0.1751  0.3643
 2176TIP3    H1 6534   6.352   3.973   2.023  1.5631  0.7976  0.6501
 2176TIP3    H2 6535   6.272   3.941   2.147  0.3919 -0.9060 -0.4919
 2177TIP3   OH2 6536   0.144   0.491   2.194  0.4724 -0.4547 -0.7579
 2177TIP3    H1 6537   0.086   0.556   2.234 -0.4715 -1.8152  0.1678
 2177TIP3    H2 6538   0.216   0.543   2.157 -0.6577  1.1693 -0.7852
 2178TIP3   OH2 6539   4.639   3.351   0.238  0.0632  0.0886 -0.1520
 2178TIP3    H1 6540   4.616   3.262   0.209  0.3152  0.0267 -0.1654
 2178TIP3    H2 6541   4.641   3.345   0.333  0.5325 -0.0377 -0.1650
 2179TIP3   OH2 6542   5.996   1.365   4.962 -0.3312  0.0048  0.2276
 2179TIP3    H1 6543   5.940   1.377   4.885  3.0033 -1.6054 -2.7548
 2179TIP3    H2 6544   6.015   1.272   4.963 -0.1347  0.0000  3.0440
 2180TIP3   OH2 6545   5.506   4.368   1.424  0.1822 -0.2950 -0.0053
 2180TIP3    H1 6546   5.412   4.386   1.425  0.1728 -0.1260 -1.9257
 2180TIP3    H2 6547   5.542   4.427   1.358  1.7459  0.0101  1.0568
 2181TIP3   OH2 6548   0.462   4.549   3.708 -0.3331 -0.6902 -0.6115
 2181TIP3    H1 6549   0.405   4.473   3.724  1.3967 -1.6937  1.2390
 2181TIP3    H2 6550   0.410   4.624   3.736 -0.9267 -1.5348  0.6731
 2182TIP3   OH2 6551   5.725   1.229   3.057 -0.1514 -0.1631 -0.3456
 2182TIP3    H1 6552   5.679   1.165   3.110  0.4236 -0.4517 -0.1891
 2182TIP3    H2 6553   5.658   1.264   2.998 -0.3112 -1.5020 -1.0037
 2183TIP3   OH2 6554   2.035   4.075   3.030 -0.5188 -0.7229  0.2528
 2183TIP3    H1 6555   2.019   3.999   2.975  0.5777 -2.0632  1.7155
 2183TIP3    H2 6556   2.119   4.057   3.073 -0.2927  1.2445  0.7623
 2184TIP3   OH2 6557   1.819   1.750   3.317 -0.0254 -0.1747  0.2087
 2184TIP3    H1 6558   1.823   1.768   3.223 -0.6288 -0.1492  0.1845
 2184TIP3    H2 6559   1.818   1.654   3.322 -0.2408 -0.1760  0.1731
 2185TIP3   OH2 6560   2.411   0.040   0.168  0.1856 -0.0711  0.6467
 2185TIP3    H1 6561   2.393   0.094   0.091  1.8939  1.4860  1.2438
 2185TIP3    H2 6562   2.389   0.096   0.243  0.1683 -0.9214  1.2945
 2186TIP3   OH2 6563   2.108   5.352   1.685  0.4241 -0.0366 -0.9019
 2186TIP3    H1 6564   2.132   5.273   1.636  0.4626  0.6744 -2.0721
 2186TIP3    H2 6565   2.106   5.324   1.777  1.1911 -1.2086 -1.2231
 2187TIP3   OH2 6566   6.282   4.228   2.501  0.2964 -0.2640  0.4402
 2187TIP3    H1 6567   6.189   4.204   2.502  0.2804 -1.0433 -3.5997
 2187TIP3    H2 6568   6.282   4.324   2.496 -0.4889 -0.3201 -1.8310
 2188TIP3   OH2 6569   0.918  -0.001   4.008 -0.7935  0.0197 -0.0325
 2188TIP3    H1 6570   0.928  -0.056   4.085  1.3119 -1.2400 -1.1130
 2188TIP3    H2 6571   0.981   0.069   4.019 -1.5353  0.6951  0.0485
 2189TIP3   OH2 6572   0.594   0.450   2.923 -0.2153  0.2551 -0.0881
 2189TIP3    H1 6573   0.641   0.367   2.932 -0.1551  0.2344 -0.5772
 2189TIP3    H2 6574   0.659   0.511   2.889 -0.7803 -0.0290 -1.7728
 2190TIP3   OH2 6575   0.708   2.188   1.490 -0.2597  0.4409 -0.2749
 2190TIP3    H1 6576   0.617   2.160   1.478  0.0081 -0.2412 -0.7636
 2190TIP3    H2 6577   0.753   2.157   1.412  0.6513 -0.3607  0.5443
 2191TIP3   OH2 6578   3.066   1.710   2.063  0.4594 -0.4172 -0.1941
 2191TIP3    H1 6579   3.154   1.675   2.047 -0.2544 -1.6661 -1.6855
 2191TIP3    H2 6580   3.010   1.665   1.999 -1.1152  1.0454  0.0757
 2192TIP3   OH2 6581   3.893   1.023   2.152  0.3269  0.9523  0.5010
 2192TIP3    H1 6582   3.844   0.980   2.081  1.0024  1.6653 -0.4217
 2192TIP3    H2 6583   3.839   1.099   2.174  0.6698  1.3619 -0.0474
 2193TIP3   OH2 6584   5.768   3.016   3.653 -0.6539 -0.3706 -0.0040
 2193TIP3    H1 6585   5.835   3.068   3.609  0.2659 -1.3738  0.1503
 2193TIP3    H2 6586   5.732   3.075   3.719 -0.8190  0.5881 -0.9259
 2194TIP3   OH2 6587   6.031   4.932   0.049  0.0743  0.1742 -0.2275
 2194TIP3    H1 6588   5.942   4.898   0.061  0.6152 -0.5752  2.3141
 2194TIP3    H2 6589   6.060   4.895  -0.034 -1.7687 -0.0382 -0.8151
 2195TIP3   OH2 6590   2.775   4.711   1.140  0.1403 -0.1512 -0.0217
 2195TIP3    H1 6591   2.783   4.738   1.048  1.4342  1.4469  0.5065
 2195TIP3    H2 6592   2.688   4.673   1.146 -0.6317  1.2432 -1.5515
 2196TIP3   OH2 6593   5.857   0.095   3.189  0.3186  0.6787  0.3226
 2196TIP3    H1 6594   5.764   0.117   3.179  0.1433  1.1543  2.4347
 2196TIP3    H2 6595   5.856   0.013   3.239  1.0403 -0.3573 -1.3111
 2197TIP3   OH2 6596   0.951   2.243   2.215  0.4871 -0.3168 -0.1247
 2197TIP3    H1 6597   0.917   2.207   2.133 -0.4925  1.2103 -0.4170
 2197TIP3    H2 6598   1.046   2.228   2.210  0.0765 -3.9526  0.3536
 2198TIP3   OH2 6599   1.931   5.447   4.425 -0.1185  0.1930 -0.2825
 2198TIP3    H1 6600   1.927   5.433   4.520 -1.4619 -2.8583 -0.6782
 2198TIP3    H2 6601   2.023   5.430   4.402 -0.5482 -3.1843  0.0594
 2199TIP3   OH2 6602   1.944   4.686   0.074 -0.3277  0.2902 -0.0611
 2199TIP3    H1 6603   1.917   4.609   0.024 -1.2770  1.4407 -1.3808
 2199TIP3    H2 6604   1.904   4.673   0.160 -0.5928 -0.6131 -0.3062
 2200TIP3   OH2 6605   2.662   0.549   0.675  0.1070 -0.0552 -0.2306
 2200TIP3    H1 6606   2.716   0.628   0.671  0.9165 -0.5762  0.2184
 2200TIP3    H2 6607   2.651   0.532   0.769 -0.3607 -0.2844 -0.3227
 2201TIP3   OH2 6608   3.266   0.196   5.085 -0.4587  0.0162 -0.4219
 2201TIP3    H1 6609   3.357   0.166   5.079 -0.2437  0.7521 -1.0799
 2201TIP3    H2 6610   3.263   0.273   5.028 -1.2041  0.7089  0.5314
 2202TIP3   OH2 6611   3.623   5.295   4.040  0.1105  0.3510 -0.4818
 2202TIP3    H1 6612   3.540   5.339   4.024  0.0232  0.4526  0.2135
 2202TIP3    H2 6613   3.625   5.223   3.978  0.4610  1.5830 -1.9657
 2203TIP3   OH2 6614   0.785   4.182   4.684  0.4080  0.2760 -0.1364
 2203TIP3    H1 6615   0.814   4.262   4.727  0.8703  0.6964 -1.1779
 2203TIP3    H2 6616   0.829   4.184   4.599 -0.0375 -0.7931 -0.4087
 2204TIP3   OH2 6617   4.368   1.926   4.095 -0.0210  0.0780  0.1698
 2204TIP3    H1 6618   4.371   1.964   4.183  1.1972  0.6734 -0.1017
 2204TIP3    H2 6619   4.425   1.983   4.043  0.2154 -0.9566 -0.7358
 2205TIP3   OH2 6620   4.307   0.367   4.514 -0.5129 -0.1568 -0.2814
 2205TIP3    H1 6621   4.365   0.426   4.466 -0.4362 -0.6654 -0.8234
 2205TIP3    H2 6622   4.227   0.418   4.527  0.0401  0.5431  0.4563
 2206TIP3   OH2 6623   2.693   5.761   2.087  0.5281  0.1549 -0.0443
 2206TIP3    H1 6624   2.606   5.744   2.051  1.0330 -2.4282 -0.1932
 2206TIP3    H2 6625   2.751   5.764   2.010  0.6934  1.2486  0.1032
 2207TIP3   OH2 6626   1.345   0.592   4.661 -0.2580  0.1841 -0.6658
 2207TIP3    H1 6627   1.319   0.631   4.745  0.0079  0.1045 -0.5454
 2207TIP3    H2 6628   1.262   0.581   4.614 -0.5605 -0.8752  0.0635
 2208TIP3   OH2 6629   5.325   2.841   2.889 -0.3835  0.7010  0.1127
 2208TIP3    H1 6630   5.257   2.830   2.822 -0.0721  0.5031 -0.1737
 2208TIP3    H2 6631   5.366   2.924   2.868 -2.1656  2.0882  1.7656
 2209TIP3   OH2 6632   1.522   4.631   3.807  0.0605  0.0270 -0.2213
 2209TIP3    H1 6633   1.612   4.636   3.773 -0.8205  0.1296 -2.7308
 2209TIP3    H2 6634   1.495   4.722   3.817 -0.5209  0.0539 -1.7674
 2210TIP3   OH2 6635   3.505   0.431   3.005  0.0675  0.2421  0.3241
 2210TIP3    H1 6636   3.586   0.467   3.041  1.2045 -0.4431 -1.4158
 2210TIP3    H2 6637   3.499   0.471   2.918 -0.6104 -0.9418 -0.1883
 2211TIP3   OH2 6638   1.120   2.284   0.469  0.7231 -0.4301  0.9268
 2211TIP3    H1 6639   1.173   2.311   0.543  0.4905 -0.1243  0.9819
 2211TIP3    H2 6640   1.129   2.188   0.467 -0.2694 -0.5653  2.1059
 2212TIP3   OH2 6641   0.061   3.209   0.432  0.5527 -0.3280  0.2982
 2212TIP3    H1 6642   0.037   3.294   0.394  0.6148 -0.7922 -0.8415
 2212TIP3    H2 6643   0.156   3.205   0.422  0.8143  0.2871  2.1684
 2213TIP3   OH2 6644   6.067   3.728   3.837  0.0801 -0.0287 -0.0397
 2213TIP3    H1 6645   6.070   3.823   3.843 -0.5682  0.1233 -1.5506
 2213TIP3    H2 6646   6.154   3.699   3.866  0.6282  1.0894 -0.5055
 2214TIP3   OH2 6647   6.084   0.950   3.288  0.1261 -0.3380 -0.0013
 2214TIP3    H1 6648   6.147   0.974   3.356 -0.1062 -1.2037  0.5367
 2214TIP3    H2 6649   6.060   0.860   3.308 -2.1178  0.2891  0.4457
 2215TIP3   OH2 6650   5.520   3.776   1.457  0.2556  0.3532  0.0683
 2215TIP3    H1 6651   5.577   3.709   1.494  0.5646  0.1334 -0.7876
 2215TIP3    H2 6652   5.485   3.736   1.376 -0.0085  1.0057 -0.1495
 2216TIP3   OH2 6653   0.850   3.305   4.392  0.2300 -0.2414 -0.3635
 2216TIP3    H1 6654   0.866   3.211   4.388  0.0601 -0.2806 -0.1749
 2216TIP3    H2 6655   0.755   3.313   4.397  0.2334 -0.0497 -0.5984
 2217TIP3   OH2 6656   3.412   1.690   3.302 -0.1863 -0.2991  0.1509
 2217TIP3    H1 6657   3.404   1.784   3.316  0.3517 -0.3288  0.7273
 2217TIP3    H2 6658   3.396   1.678   3.209 -1.3939  0.2239  0.2724
 2218TIP3   OH2 6659   0.478   4.918   3.083  0.5154  0.3460  0.4083
 2218TIP3    H1 6660   0.554   4.963   3.047  1.0718 -1.6609 -1.1006
 2218TIP3    H2 6661   0.473   4.947   3.174  1.7993  2.1262 -0.0548
 2219TIP3   OH2 6662   2.175   4.720   0.246 -0.0687  0.0862  0.3825
 2219TIP3    H1 6663   2.138   4.696   0.331 -0.5821  0.6654  0.3260
 2219TIP3    H2 6664   2.105   4.768   0.202  0.2662 -0.0347 -0.2887
 2220TIP3   OH2 6665   1.134   1.951   4.517 -0.1945 -0.3694  0.1628
 2220TIP3    H1 6666   1.224   1.949   4.485 -0.4743 -0.0667 -0.6596
 2220TIP3    H2 6667   1.098   2.033   4.484 -1.4151 -1.4620 -1.3557
 2221TIP3   OH2 6668   1.657   1.190   5.156 -0.3151 -0.3328  0.0268
 2221TIP3    H1 6669   1.747   1.218   5.139  0.1887 -2.9082 -2.3878
 2221TIP3    H2 6670   1.604   1.244   5.096 -0.0540 -0.5912 -0.4426
 2222TIP3   OH2 6671   5.932   0.813   0.821  0.3014 -0.1125  0.7088
 2222TIP3    H1 6672   5.988   0.736   0.838 -0.9848 -1.5961 -1.3136
 2222TIP3    H2 6673   5.845   0.776   0.804 -0.0234  1.5937 -1.9077
 2223TIP3   OH2 6674   5.092   3.396   3.229 -0.3508 -0.3684  0.2565
 2223TIP3    H1 6675   5.007   3.376   3.191 -0.0392 -0.9100 -0.1590
 2223TIP3    H2 6676   5.153   3.338   3.184  0.1582 -0.3794  0.9461
 2224TIP3   OH2 6677   1.047   2.177   1.174 -0.0553  0.0027  0.1780
 2224TIP3    H1 6678   0.988   2.121   1.125 -0.9603  0.1960  1.0170
 2224TIP3    H2 6679   1.068   2.127   1.253 -0.2196  0.5011  0.5422
 2225TIP3   OH2 6680   0.078   2.694   3.947  0.2231 -0.1269 -0.0368
 2225TIP3    H1 6681   0.010   2.747   3.906 -0.6303 -1.9495 -1.0981
 2225TIP3    H2 6682   0.155   2.705   3.890  0.2584  0.4423  0.1101
 2226TIP3   OH2 6683   0.320   3.112   3.602  0.4950 -0.1114 -0.1871
 2226TIP3    H1 6684   0.328   3.154   3.516 -1.5639 -1.1676 -0.9546
 2226TIP3    H2 6685   0.334   3.019   3.585  1.7667 -0.1663  0.9556
 2227TIP3   OH2 6686   1.096   5.365   4.263 -0.1872  0.2281  0.0094
 2227TIP3    H1 6687   1.028   5.298   4.265 -0.0745  0.0882 -0.6410
 2227TIP3    H2 6688   1.087   5.406   4.177 -0.1620  0.9564  0.3430
 2228TIP3   OH2 6689   3.252   0.900   2.677  0.6584  0.3778  0.3592
 2228TIP3    H1 6690   3.262   0.832   2.744  1.9897  0.5513  0.3523
 2228TIP3    H2 6691   3.189   0.863   2.615  0.2867 -0.2570  1.0989
 2229TIP3   OH2 6692   0.708   3.444   0.915 -0.1847 -0.3564  0.1786
 2229TIP3    H1 6693   0.651   3.378   0.877 -0.6453  0.3393 -0.3453
 2229TIP3    H2 6694   0.774   3.461   0.848  0.3467 -0.7850  0.5830
 2230TIP3   OH2 6695   4.756   0.582   4.166  0.1163  0.1615  0.2056
 2230TIP3    H1 6696   4.749   0.669   4.206  0.3153  0.5275 -0.5552
 2230TIP3    H2 6697   4.849   0.560   4.171  0.6383  1.3719 -2.4344
 2231TIP3   OH2 6698   0.566   3.705   3.830  0.3918 -0.3806  1.1203
 2231TIP3    H1 6699   0.621   3.724   3.754  3.2199 -1.6848  2.6895
 2231TIP3    H2 6700   0.514   3.784   3.842  1.4817  0.7163 -0.8516
 2232TIP3   OH2 6701   2.113   3.338   2.769  0.0190  0.3774 -0.1609
 2232TIP3    H1 6702   2.116   3.251   2.730  0.3963  0.6329 -0.7086
 2232TIP3    H2 6703   2.025   3.370   2.750 -1.1531 -0.9397  2.4093
 2233TIP3   OH2 6704   2.096   2.816   5.142 -0.0609 -0.1009 -0.3710
 2233TIP3    H1 6705   2.097   2.912   5.148  1.4283 -0.1706  2.0917
 2233TIP3    H2 6706   2.162   2.795   5.076  1.4683  0.5787  0.8771
 2234TIP3   OH2 6707   5.357   0.642   2.978  0.1171 -0.2672  0.4261
 2234TIP3    H1 6708   5.381   0.720   2.929  0.4038 -0.5605  0.0978
 2234TIP3    H2 6709   5.405   0.650   3.061 -1.0308  0.6530  1.0357
 2235TIP3   OH2 6710   4.218   2.728   1.498 -0.2189  0.4700  0.2556
 2235TIP3    H1 6711   4.274   2.694   1.428  0.9766 -0.6856  1.7018
 2235TIP3    H2 6712   4.178   2.650   1.536 -1.4215  1.1471  0.4090
 2236TIP3   OH2 6713   2.056   2.659   0.572  0.0430 -0.0666 -0.3033
 2236TIP3    H1 6714   2.137   2.687   0.529  0.8635 -0.5538  0.8624
 2236TIP3    H2 6715   2.002   2.622   0.502  0.7979  0.3519 -1.1126
 2237TIP3   OH2 6716   4.147   2.722   3.178  0.2360  0.0141 -0.0821
 2237TIP3    H1 6717   4.203   2.674   3.239  0.9082  0.3404 -0.4379
 2237TIP3    H2 6718   4.201   2.735   3.100 -0.2998  0.4246 -0.3912
 2238TIP3   OH2 6719   3.513   5.001   2.770 -0.2347 -0.0555 -0.4295
 2238TIP3    H1 6720   3.581   4.941   2.801  1.6052  2.4398  0.7249
 2238TIP3    H2 6721   3.432   4.950   2.775  1.2490 -2.5651 -0.0357
 2239TIP3   OH2 6722   0.448   1.564   0.973 -0.3030 -0.1885  0.2484
 2239TIP3    H1 6723   0.522   1.623   0.986 -0.6483  0.2917  0.0837
 2239TIP3    H2 6724   0.415   1.548   1.062  0.5274 -1.1087  0.3995
 2240TIP3   OH2 6725   2.839   4.975   1.011  0.0539 -0.1249 -0.4012
 2240TIP3    H1 6726   2.823   4.953   0.919  0.3727 -1.7942 -0.0899
 2240TIP3    H2 6727   2.900   4.908   1.041  0.7029  0.9522  0.7900
 2241TIP3   OH2 6728   5.860   5.126   4.092  0.6828  0.5433  0.5116
 2241TIP3    H1 6729   5.916   5.067   4.142  0.5973  1.5712  1.8841
 2241TIP3    H2 6730   5.825   5.072   4.021  2.3412 -0.4611  0.4053
 2242TIP3   OH2 6731   2.523   2.297   0.628 -0.6806  0.0546 -0.3936
 2242TIP3    H1 6732   2.586   2.270   0.560 -0.5229  1.2199 -0.7261
 2242TIP3    H2 6733   2.444   2.245   0.609  0.2634 -1.7198  0.2692
 2243TIP3   OH2 6734   5.005   4.430   4.597  0.9344 -0.0333 -0.4224
 2243TIP3    H1 6735   5.012   4.525   4.585  2.3415 -0.1136 -0.4227
 2243TIP3    H2 6736   4.986   4.396   4.509  0.7819  0.2242 -0.4880
 2244TIP3   OH2 6737   2.679   1.823   0.039  0.2617  0.0632 -0.1033
 2244TIP3    H1 6738   2.650   1.813   0.129 -1.5432  0.4376 -0.6075
 2244TIP3    H2 6739   2.773   1.805   0.042  0.1740 -0.2696  1.7770
 2245TIP3   OH2 6740   4.274   0.182   4.232 -0.6677  0.3397 -0.6871
 2245TIP3    H1 6741   4.215   0.175   4.306 -0.2740  4.1931  0.1943
 2245TIP3    H2 6742   4.359   0.205   4.270 -0.3297  1.9311 -2.2296
 2246TIP3   OH2 6743   4.264   1.168   1.907  0.3756  0.0753  0.2950
 2246TIP3    H1 6744   4.276   1.073   1.914  1.5025  0.2828  1.6960
 2246TIP3    H2 6745   4.180   1.178   1.863 -0.1655 -1.5916  0.8578
 2247TIP3   OH2 6746   6.280   5.680   0.556  0.2139  0.1011 -0.1647
 2247TIP3    H1 6747   6.296   5.770   0.527 -1.7698  0.3882 -0.5173
 2247TIP3    H2 6748   6.365   5.650   0.588  1.2685  1.5868 -1.4072
 2248TIP3   OH2 6749   3.085   2.978   4.120  0.1545  0.0661 -0.6733
 2248TIP3    H1 6750   3.091   3.067   4.085  0.7064  0.1592 -0.3563
 2248TIP3    H2 6751   3.046   2.927   4.049 -2.2723  0.9691 -0.1071
 2249TIP3   OH2 6752   1.074   5.264   0.159  0.2157 -0.2071 -0.4912
 2249TIP3    H1 6753   1.050   5.172   0.170  1.2767 -0.3786  0.6557
 2249TIP3    H2 6754   1.154   5.262   0.106  0.5547 -0.0045 -0.0020
 2250TIP3   OH2 6755   0.253   0.875   0.141 -0.0431 -0.4715  0.6456
 2250TIP3    H1 6756   0.308   0.935   0.192  0.9700 -0.7852 -0.0543
 2250TIP3    H2 6757   0.210   0.820   0.207 -1.2464  1.1875  1.3283
 2251TIP3   OH2 6758   4.680   4.977   4.469 -0.8580  0.2066 -0.0406
 2251TIP3    H1 6759   4.723   4.892   4.456  0.5886  0.8343  0.4260
 2251TIP3    H2 6760   4.647   4.974   4.558 -1.3876 -0.0978 -0.2414
 2252TIP3   OH2 6761   2.262   0.061   3.555  0.0859 -0.1077  0.3452
 2252TIP3    H1 6762   2.231   0.037   3.468 -1.0327 -0.0484  0.7121
 2252TIP3    H2 6763   2.213   0.141   3.577  1.7199  0.9567  0.2797
 2253TIP3   OH2 6764   6.159   3.494   2.797  0.2345 -0.2760 -0.2429
 2253TIP3    H1 6765   6.116   3.559   2.741 -1.7010 -0.5822  0.8009
 2253TIP3    H2 6766   6.230   3.543   2.839 -0.3996  0.8406 -0.4157
 2254TIP3   OH2 6767   0.891   5.783   4.445  0.1486  0.2619  0.0169
 2254TIP3    H1 6768   0.924   5.870   4.468 -0.3356 -0.3639  3.6144
 2254TIP3    H2 6769   0.969   5.729   4.438  0.3274  0.5310 -0.0976
 2255TIP3   OH2 6770   5.055   4.469   2.918  0.1959 -0.0158 -0.4578
 2255TIP3    H1 6771   5.075   4.400   2.855 -2.3850 -1.2113 -0.0953
 2255TIP3    H2 6772   4.960   4.479   2.914  0.1651  1.2824  1.7990
 2256TIP3   OH2 6773   5.977   1.851   0.370 -0.7559  0.4205  0.1531
 2256TIP3    H1 6774   6.052   1.873   0.314  0.2043 -1.2905  0.6710
 2256TIP3    H2 6775   5.926   1.789   0.318 -0.5037 -0.2608  0.7094
 2257TIP3   OH2 6776   2.949   5.641   1.590  0.1683 -0.0574  0.1154
 2257TIP3    H1 6777   3.026   5.592   1.561  1.2425  0.5037  1.8744
 2257TIP3    H2 6778   2.979   5.732   1.596 -1.0567  0.4269 -0.5341
 2258TIP3   OH2 6779   4.436   0.705   4.189 -0.5965 -1.0018  0.7346
 2258TIP3    H1 6780   4.385   0.782   4.212 -1.2537 -0.7072 -1.4666
 2258TIP3    H2 6781   4.370   0.637   4.171 -0.2102 -1.0141 -0.8047
 2259TIP3   OH2 6782   4.726   1.686   0.812 -0.2375 -0.3012 -0.3404
 2259TIP3    H1 6783   4.632   1.668   0.812 -0.4137  0.5444 -1.1986
 2259TIP3    H2 6784   4.744   1.717   0.901 -0.6186 -1.1406  0.0484
 2260TIP3   OH2 6785   1.025   3.634   1.548 -0.2674 -0.9969 -0.3104
 2260TIP3    H1 6786   1.104   3.627   1.601 -0.1126 -0.3507 -0.4439
 2260TIP3    H2 6787   1.044   3.704   1.485 -1.0871 -0.5521 -0.0817
 2261TIP3   OH2 6788   5.119   2.727   4.595 -0.5007 -0.0581  0.3311
 2261TIP3    H1 6789   5.199   2.765   4.630 -0.4822  0.0919  0.1260
 2261TIP3    H2 6790   5.049   2.785   4.625 -0.6240 -0.6422  1.2054
 2262TIP3   OH2 6791   1.408   0.771   1.364  0.2975  0.0388  0.4962
 2262TIP3    H1 6792   1.352   0.757   1.287  0.8539 -1.0578  0.2676
 2262TIP3    H2 6793   1.425   0.683   1.397  2.6095  0.2441  0.0335
 2263TIP3   OH2 6794   4.981   3.665   0.946  0.3309  0.0233 -0.0400
 2263TIP3    H1 6795   5.004   3.749   0.984  0.6470 -0.0008 -0.1788
 2263TIP3    H2 6796   4.970   3.606   1.020 -1.5323  0.5822  0.1769
 2264TIP3   OH2 6797   0.332   1.207   3.617 -0.5108 -0.3387  0.1985
 2264TIP3    H1 6798   0.378   1.291   3.607 -0.9423 -0.1559 -0.2913
 2264TIP3    H2 6799   0.245   1.232   3.649 -0.6726 -0.5926 -0.0425
 2265TIP3   OH2 6800   4.190   2.428   1.174  0.8028  0.0797  0.6755
 2265TIP3    H1 6801   4.199   2.335   1.197  2.8031  0.1043  0.1919
 2265TIP3    H2 6802   4.096   2.441   1.162  0.5661 -2.1356 -0.2991
 2266TIP3   OH2 6803   4.553   2.241   4.462  0.1772 -0.1111 -0.2897
 2266TIP3    H1 6804   4.544   2.263   4.555  1.1392  0.2273 -0.2575
 2266TIP3    H2 6805   4.618   2.303   4.430 -2.0436  1.5371 -1.8337
 2267TIP3   OH2 6806   3.429   1.131   5.026 -0.2107  0.5047  0.0980
 2267TIP3    H1 6807   3.477   1.165   5.101 -1.1227  1.1999  0.3928
 2267TIP3    H2 6808   3.361   1.076   5.064 -1.1307  1.4407 -0.1576
 2268TIP3   OH2 6809   0.915   5.674   2.465 -0.1460 -0.6977  0.4475
 2268TIP3    H1 6810   0.846   5.731   2.500  0.1957 -0.2148  0.3380
 2268TIP3    H2 6811   0.868   5.612   2.410 -0.5405 -0.6259  0.6931
 2269TIP3   OH2 6812   2.643   0.804   3.509  0.1161 -0.1849 -0.5429
 2269TIP3    H1 6813   2.550   0.811   3.532  0.1741  0.7467 -0.5638
 2269TIP3    H2 6814   2.679   0.743   3.574 -0.1159  0.9377  0.6838
 2270TIP3   OH2 6815   1.123   2.529   4.028 -0.0110  1.1485 -0.0251
 2270TIP3    H1 6816   1.099   2.476   4.104  0.1492  0.7566 -0.2424
 2270TIP3    H2 6817   1.077   2.487   3.955  1.9524 -0.1342 -0.6101
 2271TIP3   OH2 6818   3.802   1.816   0.613 -0.4050  0.7144  0.5462
 2271TIP3    H1 6819   3.844   1.895   0.648  1.6978 -0.7064  1.4082
 2271TIP3    H2 6820   3.862   1.786   0.544 -0.9645 -0.3274  0.4978
 2272TIP3   OH2 6821   3.676   1.046   4.484  0.1578  0.0171  0.0027
 2272TIP3    H1 6822   3.772   1.045   4.480  0.1970 -1.4208  0.7320
 2272TIP3    H2 6823   3.651   0.954   4.474 -1.1898  0.4650 -0.9212
 2273TIP3   OH2 6824   3.495   4.982   5.106  0.2076  0.2952  0.2527
 2273TIP3    H1 6825   3.589   4.986   5.124  0.1736  0.0316  0.5003
 2273TIP3    H2 6826   3.483   4.902   5.055 -0.0194 -0.2390  1.1237
 2274TIP3   OH2 6827   4.574   2.467   1.398  0.4665  0.3869  0.5895
 2274TIP3    H1 6828   4.643   2.452   1.334 -1.2701  1.8798 -1.7930
 2274TIP3    H2 6829   4.595   2.552   1.436  1.1954 -0.2503  1.6654
 2275TIP3   OH2 6830   3.030   3.231   2.298  0.6311  0.3623  0.3995
 2275TIP3    H1 6831   2.935   3.237   2.288  0.5288 -1.3188  0.0513
 2275TIP3    H2 6832   3.057   3.319   2.323 -0.8826  1.1486 -0.5753
 2276TIP3   OH2 6833   1.983   1.765   2.394  0.1519 -0.5649 -0.0854
 2276TIP3    H1 6834   2.001   1.711   2.317  1.8958  1.2409 -1.0750
 2276TIP3    H2 6835   1.905   1.815   2.370  1.0541  0.4649 -1.0493
 2277TIP3   OH2 6836   4.378   1.885   2.843  0.4187  0.1099 -0.0001
 2277TIP3    H1 6837   4.373   1.915   2.752 -1.0266  2.1158  0.6786
 2277TIP3    H2 6838   4.310   1.819   2.850  0.5313 -0.0508 -0.3455
 2278TIP3   OH2 6839   4.339   0.471   4.892 -0.2567  0.3332  0.1710
 2278TIP3    H1 6840   4.412   0.525   4.924  1.4176 -0.7826 -1.5121
 2278TIP3    H2 6841   4.353   0.385   4.932 -1.4761  0.4586  0.9097
 2279TIP3   OH2 6842   5.567   0.014   0.205  0.1224  0.3331  0.2609
 2279TIP3    H1 6843   5.583   0.091   0.152 -0.2237 -0.0315 -0.3880
 2279TIP3    H2 6844   5.522  -0.047   0.146 -0.4640  0.0044  1.0305
 2280TIP3   OH2 6845   3.494   3.707   1.637  0.0120 -0.1052  0.3333
 2280TIP3    H1 6846   3.399   3.712   1.644 -0.1656  0.7118 -1.9324
 2280TIP3    H2 6847   3.526   3.780   1.690 -0.6419  0.0909  0.4674
 2281TIP3   OH2 6848   3.553   0.527   4.607 -0.0156  0.0805  0.2626
 2281TIP3    H1 6849   3.486   0.529   4.539 -1.0694 -1.5329  1.1859
 2281TIP3    H2 6850   3.536   0.605   4.660 -1.9399 -0.8868  1.1506
 2282TIP3   OH2 6851   2.666   5.706   3.335 -0.4810  0.0247 -0.0386
 2282TIP3    H1 6852   2.754   5.739   3.318  0.3197 -2.4510 -1.3532
 2282TIP3    H2 6853   2.680   5.627   3.388 -2.2329  1.4598  2.7734
 2283TIP3   OH2 6854   6.114   2.697   1.904  0.0360  0.6181  0.5368
 2283TIP3    H1 6855   6.178   2.767   1.897  1.6193 -0.6546  1.4286
 2283TIP3    H2 6856   6.144   2.631   1.842 -0.5009  0.0749  0.8448
 2284TIP3   OH2 6857   4.343   1.171   4.730 -0.7404 -0.0128  0.2354
 2284TIP3    H1 6858   4.369   1.230   4.800  0.7534  0.6372 -0.8178
 2284TIP3    H2 6859   4.345   1.084   4.770 -2.3020  0.5254  1.6158
 2285TIP3   OH2 6860   5.011   3.839   4.137 -0.1287 -0.0846 -0.2439
 2285TIP3    H1 6861   4.969   3.895   4.202  2.1013  0.2294  1.0249
 2285TIP3    H2 6862   4.954   3.846   4.060 -1.2006  2.0117  0.6362
 2286TIP3   OH2 6863   0.083   3.279   4.515  0.4397  0.4856 -0.6016
 2286TIP3    H1 6864   0.008   3.220   4.510  0.2119  0.5968  1.0283
 2286TIP3    H2 6865   0.058   3.355   4.462 -0.5721  0.4834 -0.1537
 2287TIP3   OH2 6866   3.818   0.585   2.311  0.1081 -0.3946 -0.1516
 2287TIP3    H1 6867   3.769   0.648   2.364 -0.1145 -1.2389  0.6850
 2287TIP3    H2 6868   3.884   0.550   2.370 -1.1472 -2.5137  0.1030
 2288TIP3   OH2 6869   2.923   3.382   3.186  0.1267  0.2373  0.5931
 2288TIP3    H1 6870   2.886   3.341   3.265 -1.3298  1.2140  0.4455
 2288TIP3    H2 6871   3.018   3.369   3.195 -0.1966 -2.9389  0.6593
 2289TIP3   OH2 6872   0.190   5.744   2.478  0.0379 -0.3744 -0.6647
 2289TIP3    H1 6873   0.199   5.804   2.404  0.9246  0.4083  0.0600
 2289TIP3    H2 6874   0.278   5.737   2.514 -0.4417 -0.5108  0.5044
 2290TIP3   OH2 6875   0.820   3.991   1.797 -0.2583  0.2132  0.1317
 2290TIP3    H1 6876   0.808   3.956   1.709  0.5413  1.6446 -0.5785
 2290TIP3    H2 6877   0.858   4.078   1.784 -0.1189  0.4616  1.8917
 2291TIP3   OH2 6878   4.409   5.622   3.113 -0.3382 -0.5215 -0.5209
 2291TIP3    H1 6879   4.430   5.716   3.111 -0.6629 -0.4667 -1.4430
 2291TIP3    H2 6880   4.315   5.618   3.096 -0.1058 -1.0843 -1.7182
 2292TIP3   OH2 6881   2.768   5.475   3.815 -0.0704 -0.0026 -0.3547
 2292TIP3    H1 6882   2.768   5.408   3.747  2.5374  1.2536 -1.7356
 2292TIP3    H2 6883   2.823   5.440   3.884 -2.3275 -1.0689  1.0290
 2293TIP3   OH2 6884   0.291   3.766   4.425  0.2971 -0.2231 -0.1968
 2293TIP3    H1 6885   0.309   3.721   4.507  0.6722  2.4639  1.3394
 2293TIP3    H2 6886   0.366   3.746   4.369  1.2503 -0.2014  1.0288
 2294TIP3   OH2 6887   4.374   0.383   2.428  0.0239 -0.5205 -0.5806
 2294TIP3    H1 6888   4.456   0.357   2.386  0.8182 -1.9549  1.6422
 2294TIP3    H2 6889   4.381   0.478   2.438  2.8154 -0.8553  2.0419
 2295TIP3   OH2 6890   3.072   0.956   2.284  0.1501 -0.4341 -0.1042
 2295TIP3    H1 6891   3.160   0.954   2.245  0.7536 -1.8171  1.2357
 2295TIP3    H2 6892   3.083   0.916   2.370 -1.6542  0.1333  0.4321
 2296TIP3   OH2 6893   4.518   0.412   3.670 -0.6387 -0.3304  0.4540
 2296TIP3    H1 6894   4.482   0.483   3.618  1.0460  0.0891 -0.2000
 2296TIP3    H2 6895   4.522   0.446   3.759  0.4887  0.5723  0.0876
 2297TIP3   OH2 6896   1.923   0.317   3.310  0.1895  0.2753  0.2815
 2297TIP3    H1 6897   2.010   0.350   3.334  0.1039  0.9855 -0.3546
 2297TIP3    H2 6898   1.862   0.382   3.345  0.0152  0.7894 -0.9237
 2298TIP3   OH2 6899   5.859   2.037   0.556  0.2661  0.1237  0.0823
 2298TIP3    H1 6900   5.882   1.973   0.489 -0.9964 -0.7923  0.4803
 2298TIP3    H2 6901   5.939   2.049   0.607  0.4897 -1.2569  0.0826
 2299TIP3   OH2 6902   0.307   3.607   3.558  0.5857  0.5544 -0.2522
 2299TIP3    H1 6903   0.326   3.686   3.610  0.7505  0.6599 -0.4712
 2299TIP3    H2 6904   0.361   3.539   3.597 -0.9523  0.0742  1.1554
 2300TIP3   OH2 6905   6.279   2.204   2.952  0.0654 -0.2944  0.3752
 2300TIP3    H1 6906   6.229   2.132   2.990  0.7911 -1.1553 -0.2424
 2300TIP3    H2 6907   6.371   2.176   2.958  0.2826  0.0187 -0.9594
 2301TIP3   OH2 6908   3.251   2.478   1.683 -0.4218 -0.6448 -0.2018
 2301TIP3    H1 6909   3.160   2.448   1.679 -1.3038  1.9114 -2.0358
 2301TIP3    H2 6910   3.254   2.533   1.761 -0.5320 -0.4864 -0.3092
 2302TIP3   OH2 6911   6.098   2.455   0.880 -0.1751 -0.5720  0.1309
 2302TIP3    H1 6912   6.132   2.380   0.930 -0.9018 -1.3390 -0.5127
 2302TIP3    H2 6913   6.097   2.527   0.944  1.6794 -0.7699  0.4440
 2303TIP3   OH2 6914   2.096   0.639   2.805 -0.6908  0.3837 -0.1578
 2303TIP3    H1 6915   2.057   0.724   2.825  0.7108  0.7703  1.1096
 2303TIP3    H2 6916   2.116   0.644   2.711 -2.0444  0.8253 -0.4437
 2304TIP3   OH2 6917   1.035   0.285   2.950 -0.4161  0.1815 -0.4170
 2304TIP3    H1 6918   1.057   0.194   2.973  0.1705 -0.2073 -2.3311
 2304TIP3    H2 6919   0.940   0.289   2.959 -0.5738 -0.9540 -1.2696
 2305TIP3   OH2 6920   0.672   2.424   3.507 -0.3586 -0.1184  0.8792
 2305TIP3    H1 6921   0.710   2.484   3.572  0.4820 -0.6250  0.8653
 2305TIP3    H2 6922   0.704   2.458   3.423 -1.3402  0.4608  0.7325
 2306TIP3   OH2 6923   2.641   1.525   2.175 -0.3295 -0.3740  0.2054
 2306TIP3    H1 6924   2.567   1.466   2.193  0.3409 -1.5403 -0.6856
 2306TIP3    H2 6925   2.713   1.488   2.226  0.1210 -0.3895 -0.4303
 2307TIP3   OH2 6926   1.893   0.097   3.149  0.0149 -0.2544 -0.5162
 2307TIP3    H1 6927   1.897   0.167   3.213 -2.0868  0.3997 -1.0342
 2307TIP3    H2 6928   1.950   0.126   3.077 -1.2331  1.2240 -0.9602
 2308TIP3   OH2 6929   0.819   3.602   3.723 -0.1381 -0.3532  0.5007
 2308TIP3    H1 6930   0.787   3.541   3.656 -0.5809 -0.6340  0.9591
 2308TIP3    H2 6931   0.801   3.557   3.806  2.8287 -1.2580  0.7931
 2309TIP3   OH2 6932   1.838   2.988   3.451  0.2538 -0.5265  0.0131
 2309TIP3    H1 6933   1.808   3.053   3.514 -2.0876 -0.3583 -1.1710
 2309TIP3    H2 6934   1.791   2.908   3.473  0.5255 -0.8719 -0.6208
 2310TIP3   OH2 6935   1.279   3.229   2.861  0.9161 -0.1969  0.3349
 2310TIP3    H1 6936   1.197   3.180   2.875 -0.3951  1.8413  0.2575
 2310TIP3    H2 6937   1.323   3.183   2.790 -1.1920 -0.1911 -1.0585
 2311TIP3   OH2 6938   6.000   3.582   4.486 -0.2286 -0.2476 -0.1415
 2311TIP3    H1 6939   5.938   3.648   4.455  0.1445 -0.5553 -1.6138
 2311TIP3    H2 6940   5.961   3.548   4.567 -0.5424  1.5742  0.5265
 2312TIP3   OH2 6941   6.074   2.191   1.815  0.5474  0.1148 -0.3362
 2312TIP3    H1 6942   6.123   2.165   1.737 -0.5781 -1.8570 -0.4206
 2312TIP3    H2 6943   6.014   2.258   1.784  0.7599  0.0237 -0.9555
 2313TIP3   OH2 6944   5.097   0.352   0.937  0.9426 -0.0706  0.1663
 2313TIP3    H1 6945   5.083   0.340   1.031  2.2474  1.8372  0.6663
 2313TIP3    H2 6946   5.041   0.425   0.913  1.4075  0.1488 -0.2894
 2314TIP3   OH2 6947   4.910   5.883   2.102 -0.2505  0.0159  0.0195
 2314TIP3    H1 6948   4.836   5.898   2.044 -0.2812  1.9325  0.5078
 2314TIP3    H2 6949   4.872   5.840   2.178 -0.2032 -2.5592 -1.3004
 2315TIP3   OH2 6950   3.725   4.415   2.986  0.0586 -0.2539  0.3551
 2315TIP3    H1 6951   3.771   4.341   3.026  0.0406 -0.3870  0.1312
 2315TIP3    H2 6952   3.654   4.376   2.936  1.0017 -0.2340 -1.0930
 2316TIP3   OH2 6953   5.341   2.368   1.817 -0.3462  0.3197 -0.1796
 2316TIP3    H1 6954   5.246   2.373   1.807 -0.1964  2.5624 -0.9798
 2316TIP3    H2 6955   5.361   2.425   1.890  0.4510  0.4929 -0.5220
 2317TIP3   OH2 6956   1.319   2.348   0.633 -0.5381 -0.0125 -0.1302
 2317TIP3    H1 6957   1.352   2.363   0.722  2.6403 -3.2951 -0.5033
 2317TIP3    H2 6958   1.363   2.414   0.580  0.5060 -0.3201  0.3125
 2318TIP3   OH2 6959   4.474   2.326   3.876  0.2327 -0.1851  0.2717
 2318TIP3    H1 6960   4.392   2.375   3.885 -0.8172 -1.5272 -1.3397
 2318TIP3    H2 6961   4.451   2.235   3.896  1.2401 -0.6430 -0.5130
 2319TIP3   OH2 6962   1.512   2.505   4.085 -0.0259 -0.0239 -0.1542
 2319TIP3    H1 6963   1.589   2.518   4.140  0.4915  2.2372 -1.2740
 2319TIP3    H2 6964   1.442   2.552   4.131 -0.0694  0.1824 -0.4282
 2320TIP3   OH2 6965   0.351   2.664   2.458 -0.2044  0.1445 -0.7463
 2320TIP3    H1 6966   0.361   2.580   2.413  2.0463  0.8029 -1.5752
 2320TIP3    H2 6967   0.306   2.641   2.539 -2.3274 -1.4057 -2.2094
 2321TIP3   OH2 6968   2.961   5.501   0.527 -0.2015 -0.2168 -0.1356
 2321TIP3    H1 6969   3.035   5.449   0.494 -0.0549 -1.4547  1.9716
 2321TIP3    H2 6970   2.884   5.450   0.505 -0.2393 -0.1358 -0.1903
 2322TIP3   OH2 6971   5.356   0.250   0.905 -0.2170 -0.0495  0.3472
 2322TIP3    H1 6972   5.277   0.304   0.901 -1.7666 -2.0663  1.6953
 2322TIP3    H2 6973   5.373   0.239   0.999  1.4502  0.0088  0.0836
 2323TIP3   OH2 6974   5.577   3.486   3.461  0.4338 -0.1536  0.2719
 2323TIP3    H1 6975   5.528   3.563   3.433 -0.6901 -1.1057 -0.4404
 2323TIP3    H2 6976   5.564   3.483   3.556 -0.7526 -0.2810  0.1222
 2324TIP3   OH2 6977   2.861   5.283   2.948  0.0312  0.3442 -0.1624
 2324TIP3    H1 6978   2.829   5.193   2.956 -1.2298  0.8337  0.6984
 2324TIP3    H2 6979   2.835   5.311   2.861 -0.4558  0.1893 -0.0666
 2325TIP3   OH2 6980   1.331   2.150   2.016 -0.9073 -0.8028  0.3133
 2325TIP3    H1 6981   1.244   2.184   1.993 -0.0596  2.8208  1.8210
 2325TIP3    H2 6982   1.325   2.131   2.109  0.2299  0.7646  0.7341
 2326TIP3   OH2 6983   5.818   3.945   2.215  0.0219  0.4744 -0.3401
 2326TIP3    H1 6984   5.790   4.035   2.197  0.1101  0.4894 -0.4019
 2326TIP3    H2 6985   5.810   3.936   2.310 -1.6707 -0.0104 -0.4861
 2327TIP3   OH2 6986   4.068   0.152   1.441  0.3443  0.0596 -0.4850
 2327TIP3    H1 6987   4.065   0.113   1.353  0.9327  0.0215 -0.4943
 2327TIP3    H2 6988   4.157   0.135   1.471  0.6605  1.4929 -0.5316
 2328TIP3   OH2 6989   0.038   0.452   5.182 -0.0851  0.2808 -0.4035
 2328TIP3    H1 6990   0.039   0.507   5.104  0.0797  0.5545 -0.2097
 2328TIP3    H2 6991  -0.046   0.470   5.223  0.4685  1.3216  0.3138
 2329TIP3   OH2 6992   2.708   4.899   4.052 -0.8740  0.1338  0.4390
 2329TIP3    H1 6993   2.698   4.804   4.064  1.2908 -0.1131  0.6486
 2329TIP3    H2 6994   2.731   4.910   3.960  0.1681  0.3163  0.7117
 2330TIP3   OH2 6995   2.718   5.545   0.712  0.6249  0.5318 -0.6569
 2330TIP3    H1 6996   2.727   5.603   0.637  2.3349  0.7782 -0.3096
 2330TIP3    H2 6997   2.778   5.473   0.694  1.6405  0.9762  0.7916
 2331TIP3   OH2 6998   2.299   0.546   4.265 -0.3878 -0.0242  0.1147
 2331TIP3    H1 6999   2.318   0.603   4.190 -1.8295  2.1255  1.2811
 2331TIP3    H2 7000   2.271   0.463   4.226  1.2648  0.1802 -1.6634
 2332TIP3   OH2 7001   0.633   5.183   2.126  0.6761  0.3194  0.2710
 2332TIP3    H1 7002   0.637   5.110   2.188  0.2359 -1.8250 -2.0592
 2332TIP3    H2 7003   0.558   5.163   2.070  1.4007  1.8054 -1.3350
 2333TIP3   OH2 7004   0.236   5.921   4.020 -0.1037  0.1431 -0.7616
 2333TIP3    H1 7005   0.306   5.870   4.061  0.3859  1.1521 -0.3008
 2333TIP3    H2 7006   0.268   5.941   3.933  0.3650  0.9295 -0.4187
 2334TIP3   OH2 7007   1.768   5.786   2.791 -0.0784  0.4479  0.1883
 2334TIP3    H1 7008   1.834   5.853   2.809  0.1585 -0.4931  3.6057
 2334TIP3    H2 7009   1.685   5.834   2.790  0.4100  1.3281 -1.8277
 2335TIP3   OH2 7010   5.272   1.841   3.083 -0.1577  0.4289 -0.0630
 2335TIP3    H1 7011   5.248   1.844   2.991  1.3337  1.9288 -0.4597
 2335TIP3    H2 7012   5.319   1.923   3.098  1.0655 -0.5184  1.6275
 2336TIP3   OH2 7013   6.321   2.858   0.253  0.0113  0.0423  0.0041
 2336TIP3    H1 7014   6.389   2.838   0.317  0.4947 -1.8681 -1.0230
 2336TIP3    H2 7015   6.241   2.819   0.288  0.0817 -0.2058 -0.1041
 2337TIP3   OH2 7016   0.292   2.935   1.183 -0.3701  0.1505 -0.6643
 2337TIP3    H1 7017   0.203   2.907   1.204 -0.9892  0.3398 -2.7839
 2337TIP3    H2 7018   0.347   2.860   1.207 -0.8310  0.6491  2.2122
 2338TIP3   OH2 7019   2.168   0.574   4.564  0.3877  0.2965 -0.6377
 2338TIP3    H1 7020   2.225   0.610   4.496 -1.3544  3.0665 -0.7782
 2338TIP3    H2 7021   2.150   0.647   4.622 -1.9821 -0.7801  0.1155
 2339TIP3   OH2 7022   4.624   5.350   1.451 -0.1796 -0.2900 -0.0999
 2339TIP3    H1 7023   4.588   5.272   1.495  0.2895 -1.1221 -1.1496
 2339TIP3    H2 7024   4.625   5.326   1.358 -1.4027  1.5253 -0.6388
 2340TIP3   OH2 7025   4.853   5.875   0.537 -0.2548  0.1013  0.7488
 2340TIP3    H1 7026   4.933   5.924   0.559 -1.1754  1.0405  2.2377
 2340TIP3    H2 7027   4.885   5.793   0.500  1.3899  0.6917  0.7437
 2341TIP3   OH2 7028   0.672  -0.029   0.223  0.0581 -0.3943  0.5375
 2341TIP3    H1 7029   0.727   0.041   0.259 -0.2943 -0.3065  0.9110
 2341TIP3    H2 7030   0.583  -0.003   0.244 -0.1869 -0.1896 -0.6884
 2342TIP3   OH2 7031   4.454   0.798   1.471 -0.3343 -0.0040 -0.1014
 2342TIP3    H1 7032   4.435   0.817   1.562  0.2586 -3.1642  0.8081
 2342TIP3    H2 7033   4.379   0.832   1.423  0.0860  3.1796  1.2829
 2343TIP3   OH2 7034   0.620   5.663   3.263  0.0195 -0.0766 -0.4398
 2343TIP3    H1 7035   0.593   5.577   3.293  1.3486 -0.0683  0.9105
 2343TIP3    H2 7036   0.647   5.650   3.172  0.3294 -1.1162 -0.2087
 2344TIP3   OH2 7037   6.015   3.006   2.374 -0.3652 -0.2563 -0.3570
 2344TIP3    H1 7038   6.029   3.099   2.358  0.3251  0.0914  1.9121
 2344TIP3    H2 7039   5.928   3.002   2.414 -0.7428 -0.7135 -1.1909
 2345TIP3   OH2 7040   6.050   4.469   3.440 -0.2162  0.0209 -0.4180
 2345TIP3    H1 7041   5.973   4.459   3.496 -0.9780 -1.5814 -1.6448
 2345TIP3    H2 7042   6.113   4.405   3.474  0.6540  1.3839  0.6323
 2346TIP3   OH2 7043   5.195   0.516   2.090  0.2426  0.1164 -0.1853
 2346TIP3    H1 7044   5.119   0.574   2.095  0.9441  1.0218  0.2921
 2346TIP3    H2 7045   5.158   0.428   2.096 -0.5632  0.5188  4.2913
 2347TIP3   OH2 7046   3.675   0.716   4.076  0.5401  0.2664  0.7262
 2347TIP3    H1 7047   3.721   0.779   4.020  1.4619  0.3915  1.5984
 2347TIP3    H2 7048   3.614   0.672   4.017 -0.2943  2.1119  0.1429
 2348TIP3   OH2 7049   5.833   2.790   1.646  0.0203  0.1574 -0.3458
 2348TIP3    H1 7050   5.843   2.722   1.580 -1.3383 -0.2016 -0.2167
 2348TIP3    H2 7051   5.838   2.743   1.730 -1.4416  0.0911 -0.2607
 2349TIP3   OH2 7052   4.337   0.419   0.232 -0.2105 -0.6593 -0.1692
 2349TIP3    H1 7053   4.394   0.461   0.167  1.0276 -1.8682  0.0848
 2349TIP3    H2 7054   4.314   0.489   0.292  1.5486 -0.2471  0.0674
 2350TIP3   OH2 7055   2.625   5.420   3.554  0.1321  0.4432  0.4039
 2350TIP3    H1 7056   2.567   5.389   3.485  1.3518  1.8384 -1.3206
 2350TIP3    H2 7057   2.567   5.461   3.618 -0.8313  1.3529 -1.0217
 2351TIP3   OH2 7058   4.048   5.667   0.248 -0.5516 -0.0674  0.3650
 2351TIP3    H1 7059   3.985   5.641   0.181 -0.5738  2.4449 -0.7170
 2351TIP3    H2 7060   4.004   5.649   0.331 -1.8590 -0.2332 -0.3377
 2352TIP3   OH2 7061   4.625   1.407   4.666 -0.0675 -0.0602  0.2512
 2352TIP3    H1 7062   4.714   1.395   4.701 -0.7329 -0.6736  1.8487
 2352TIP3    H2 7063   4.583   1.322   4.678 -0.7889  0.1341 -0.7919
 2353TIP3   OH2 7064   4.566   4.933   2.791 -0.3276 -0.0261  0.0490
 2353TIP3    H1 7065   4.518   4.856   2.821 -1.2070  0.3830 -0.2549
 2353TIP3    H2 7066   4.619   4.959   2.866 -1.8338  0.4802  0.9867
 2354TIP3   OH2 7067   4.097   5.899   3.137  0.0234 -0.1579 -0.0767
 2354TIP3    H1 7068   4.081   5.897   3.232  1.0061  0.4445  0.1042
 2354TIP3    H2 7069   4.180   5.944   3.127  0.2758 -0.8430 -1.1936
 2355TIP3   OH2 7070   5.830   1.855   2.190  0.4967 -0.4151 -0.3118
 2355TIP3    H1 7071   5.913   1.832   2.231  0.5478  0.9038  0.3744
 2355TIP3    H2 7072   5.855   1.903   2.111  0.4519  2.0920  1.1120
 2356TIP3   OH2 7073   5.884   1.236   1.260 -0.2768  0.2009  0.5104
 2356TIP3    H1 7074   5.901   1.305   1.196 -1.9075  1.3380  1.2362
 2356TIP3    H2 7075   5.958   1.243   1.321  0.7362 -0.2006 -0.6278
 2357TIP3   OH2 7076   3.366   0.753   4.598 -0.1477 -0.1348  0.1148
 2357TIP3    H1 7077   3.374   0.689   4.527  1.2570  0.6306 -0.4652
 2357TIP3    H2 7078   3.288   0.726   4.645 -0.4939 -1.3330 -1.0559
 2358TIP3   OH2 7079   5.576   5.548   1.384  0.5245 -0.0299 -0.1333
 2358TIP3    H1 7080   5.666   5.569   1.358  0.4441  1.0124  0.3819
 2358TIP3    H2 7081   5.578   5.551   1.480 -0.4063  1.6414 -0.1240
 2359TIP3   OH2 7082   1.236   1.879   2.850 -0.1414 -0.0671  0.0991
 2359TIP3    H1 7083   1.167   1.824   2.812  0.0902 -0.6401  0.5055
 2359TIP3    H2 7084   1.201   1.905   2.936 -0.1099  0.1535  0.0465
 2360TIP3   OH2 7085   3.618   3.878   4.220  0.0220 -0.1110 -0.1211
 2360TIP3    H1 7086   3.628   3.973   4.209 -1.9011  0.4088  2.0058
 2360TIP3    H2 7087   3.674   3.857   4.295 -1.7629 -0.0633  1.2946
 2361TIP3   OH2 7088   5.285   4.104   0.495 -0.0155 -0.2456  0.1635
 2361TIP3    H1 7089   5.237   4.047   0.555  0.9907 -0.8203  0.4377
 2361TIP3    H2 7090   5.273   4.192   0.531  0.0713 -0.5154  0.8575
 2362TIP3   OH2 7091   3.155   4.874   1.032 -0.5382  0.7122 -0.0206
 2362TIP3    H1 7092   3.204   4.956   1.039  0.7367  0.0227 -0.4401
 2362TIP3    H2 7093   3.219   4.806   1.055 -1.4811 -0.1803  0.0326
 2363TIP3   OH2 7094   4.041   3.004   2.407 -0.2275  0.6106 -0.1265
 2363TIP3    H1 7095   3.955   2.973   2.434  0.7855 -0.2629  2.3310
 2363TIP3    H2 7096   4.058   3.081   2.462  0.9199  0.2110  0.1171
 2364TIP3   OH2 7097   5.794   3.792   4.885  0.2534  0.5022 -0.2622
 2364TIP3    H1 7098   5.702   3.816   4.872 -0.1215 -0.4440  0.5575
 2364TIP3    H2 7099   5.797   3.754   4.972  0.6143 -3.2114 -1.7280
 2365TIP3   OH2 7100   2.365   4.549   4.198  0.0260 -0.5022 -0.3704
 2365TIP3    H1 7101   2.360   4.455   4.184 -1.7601 -0.3495 -1.0261
 2365TIP3    H2 7102   2.308   4.566   4.273 -0.7329  0.1828 -1.0809
 2366TIP3   OH2 7103   0.703   3.772   3.047  0.1895  0.3377 -0.6886
 2366TIP3    H1 7104   0.615   3.801   3.024 -0.6371 -1.2846  0.2051
 2366TIP3    H2 7105   0.746   3.758   2.963 -0.9527 -0.3605 -1.1885
 2367TIP3   OH2 7106   5.984   0.487   2.074  0.5077 -0.1364  0.0803
 2367TIP3    H1 7107   6.009   0.396   2.059  0.5149  0.1676 -1.9303
 2367TIP3    H2 7108   6.063   0.538   2.053 -0.2845  0.4909 -1.5390
 2368TIP3   OH2 7109   2.544   5.354   4.581 -0.4536  0.3620  0.2377
 2368TIP3    H1 7110   2.567   5.344   4.674 -1.1454  0.3232  0.4142
 2368TIP3    H2 7111   2.448   5.363   4.581 -0.5392 -0.3883 -0.5304
 2369TIP3   OH2 7112   3.713   2.751   4.108 -0.8623  0.2954  0.1642
 2369TIP3    H1 7113   3.669   2.799   4.038 -0.4917  0.4979  0.0638
 2369TIP3    H2 7114   3.647   2.692   4.143 -1.7133  1.7136  1.0800
 2370TIP3   OH2 7115   0.779   0.679   1.842 -0.3807  0.5922  0.4203
 2370TIP3    H1 7116   0.771   0.585   1.857 -0.7700  0.6342  0.4995
 2370TIP3    H2 7117   0.867   0.691   1.806 -0.2536  0.2264  0.6129
 2371TIP3   OH2 7118   5.401   3.868   0.363 -0.6823 -0.1812 -0.0600
 2371TIP3    H1 7119   5.356   3.953   0.361 -1.2128 -0.4195  1.0805
 2371TIP3    H2 7120   5.349   3.813   0.304 -1.2090 -0.1230  0.3387
 2372TIP3   OH2 7121   6.012   2.296   2.937  0.4153 -0.0532 -0.4053
 2372TIP3    H1 7122   6.107   2.296   2.934  0.3975  0.6037 -1.6161
 2372TIP3    H2 7123   5.989   2.208   2.966  1.4003  0.1278  1.0062
 2373TIP3   OH2 7124   4.127   3.496   0.048  0.5331  0.4345  0.2032
 2373TIP3    H1 7125   4.038   3.464   0.031  0.1175  1.1195  1.0010
 2373TIP3    H2 7126   4.184   3.423   0.026 -0.2806 -0.2843  0.4399
 2374TIP3   OH2 7127   3.893   1.187   0.552  0.1086 -0.4306  0.0677
 2374TIP3    H1 7128   3.889   1.098   0.519  0.1451 -0.4104  0.0079
 2374TIP3    H2 7129   3.874   1.242   0.476  0.7289 -0.3636 -0.0433
 2375TIP3   OH2 7130   4.918   5.022   0.838  0.6433 -0.4576  0.4612
 2375TIP3    H1 7131   4.956   4.985   0.758  0.5696 -1.8267  1.0348
 2375TIP3    H2 7132   4.897   4.946   0.892 -1.5104  0.3157  0.8034
 2376TIP3   OH2 7133   0.691   3.466   3.519  0.1711  0.3389 -0.2317
 2376TIP3    H1 7134   0.683   3.532   3.450  1.7170  1.1908  0.3593
 2376TIP3    H2 7135   0.748   3.399   3.482 -0.4453 -0.0985 -0.4050
 2377TIP3   OH2 7136   6.186   0.956   2.164  0.0538 -0.1311  0.1048
 2377TIP3    H1 7137   6.213   1.044   2.137  2.4516 -0.4422  1.2260
 2377TIP3    H2 7138   6.118   0.972   2.230  0.1644  0.8632 -0.0030
 2378TIP3   OH2 7139   1.358   4.683   4.344 -0.1504  0.2597  0.7714
 2378TIP3    H1 7140   1.353   4.778   4.335  0.5424  0.2552  0.2246
 2378TIP3    H2 7141   1.353   4.667   4.438  1.0275  0.9300  0.9635
 2379TIP3   OH2 7142   0.342   0.544   2.538  0.0215  0.6264 -0.0531
 2379TIP3    H1 7143   0.259   0.577   2.571 -0.1139  0.9591 -0.7088
 2379TIP3    H2 7144   0.318   0.474   2.477  0.2637  0.0855  0.4567
 2380TIP3   OH2 7145   5.420   3.287   0.443 -0.1260  0.0805 -0.4080
 2380TIP3    H1 7146   5.381   3.260   0.360 -1.7072  1.1181 -0.0252
 2380TIP3    H2 7147   5.508   3.316   0.420  0.0055 -1.0928 -1.4750
 2381TIP3   OH2 7148   2.715   4.437   0.360  0.0296  0.1992  0.0769
 2381TIP3    H1 7149   2.728   4.413   0.269 -2.4286  0.1636 -0.3327
 2381TIP3    H2 7150   2.752   4.525   0.368  0.3996  0.1421 -0.9130
 2382TIP3   OH2 7151   0.769   1.504   4.287  0.1790  0.3253 -0.1101
 2382TIP3    H1 7152   0.850   1.520   4.335  1.0351 -1.4197 -0.9001
 2382TIP3    H2 7153   0.795   1.448   4.214 -1.0353  2.8966 -2.7386
 2383TIP3   OH2 7154   3.100   3.840   3.582 -0.9643 -0.1670 -0.5462
 2383TIP3    H1 7155   3.007   3.837   3.560 -0.9123 -2.1974 -0.7243
 2383TIP3    H2 7156   3.124   3.748   3.598  1.0042  0.2964 -0.5241
 2384TIP3   OH2 7157   3.290   0.670   4.157  0.5536 -0.1246  0.1912
 2384TIP3    H1 7158   3.301   0.760   4.186  3.8579 -0.3598  0.0682
 2384TIP3    H2 7159   3.288   0.676   4.061  1.0315 -0.1580  0.1734
 2385TIP3   OH2 7160   2.060   5.828   1.822 -0.2590  0.2754  0.4244
 2385TIP3    H1 7161   2.075   5.854   1.913  0.0517  0.0539  0.4386
 2385TIP3    H2 7162   1.965   5.835   1.810 -0.7664 -2.8817  1.7489
 2386TIP3   OH2 7163   3.534   4.213   0.920 -0.1302 -0.1029  0.0859
 2386TIP3    H1 7164   3.613   4.198   0.972 -0.0439 -0.7449 -0.2192
 2386TIP3    H2 7165   3.489   4.285   0.965  1.0019  0.7862 -0.1646
 2387TIP3   OH2 7166   4.774   0.703   4.494  0.0732  0.0953 -0.5230
 2387TIP3    H1 7167   4.716   0.728   4.566  0.2982  0.2103 -0.3810
 2387TIP3    H2 7168   4.755   0.766   4.425  1.5492  1.4884  0.2860
 2388TIP3   OH2 7169   1.956   2.307   3.359 -0.6059 -1.0162 -0.8057
 2388TIP3    H1 7170   1.872   2.280   3.397  0.2740 -3.3989 -0.4005
 2388TIP3    H2 7171   1.997   2.360   3.427 -1.9784  0.7273 -1.2437
 2389TIP3   OH2 7172   0.321   4.734   0.494 -1.0965  0.4145  0.0272
 2389TIP3    H1 7173   0.385   4.755   0.562 -2.4018  0.8756  1.1496
 2389TIP3    H2 7174   0.275   4.816   0.477  0.6145  0.8983 -3.0606
 2390TIP3   OH2 7175   0.574   2.064   2.540  0.1918  0.0130 -0.4297
 2390TIP3    H1 7176   0.581   1.974   2.570 -0.6427 -0.3594 -1.2881
 2390TIP3    H2 7177   0.491   2.095   2.575  1.0148  0.8592  0.8484
 2391TIP3   OH2 7178   1.907   4.205   3.416 -0.0580 -0.1059 -0.4344
 2391TIP3    H1 7179   1.914   4.111   3.399 -0.6943 -0.5305  1.3893
 2391TIP3    H2 7180   1.900   4.245   3.329 -1.0611 -1.8576 -1.2163
 2392TIP3   OH2 7181   5.273   3.648   1.834  0.3030  0.1436 -0.0996
 2392TIP3    H1 7182   5.306   3.647   1.744 -0.5858  1.3060 -0.4805
 2392TIP3    H2 7183   5.181   3.676   1.825  0.3533  0.8196  1.2026
 2393TIP3   OH2 7184   6.348   5.368   0.369  0.3331 -0.3110 -0.0172
 2393TIP3    H1 7185   6.381   5.457   0.356  0.8239 -0.2432  1.4910
 2393TIP3    H2 7186   6.253   5.378   0.376  0.3450  0.0298 -0.3215
 2394TIP3   OH2 7187   3.846   2.519   3.916 -0.1472  0.3376 -0.1673
 2394TIP3    H1 7188   3.778   2.546   3.977 -1.6261 -0.1776 -1.5046
 2394TIP3    H2 7189   3.808   2.445   3.869  0.9672  0.6253 -1.6021
 2395TIP3   OH2 7190   3.156   1.202   4.966  0.7486 -0.4641  0.1381
 2395TIP3    H1 7191   3.187   1.259   5.037 -1.2036 -0.9562  1.4539
 2395TIP3    H2 7192   3.236   1.162   4.931  2.1493  2.5069 -0.4018
 2396TIP3   OH2 7193   2.662   0.179   3.964  0.4240  0.5103 -0.4371
 2396TIP3    H1 7194   2.649   0.086   3.984  0.7175  0.2470 -1.4172
 2396TIP3    H2 7195   2.609   0.225   4.030 -0.0026 -0.3550 -0.1561
 2397TIP3   OH2 7196   4.710   4.685   3.510  0.0488 -0.2001  0.3020
 2397TIP3    H1 7197   4.678   4.636   3.434 -0.3092  1.7214 -0.8681
 2397TIP3    H2 7198   4.800   4.657   3.521  0.4650  0.2561 -1.5597
 2398TIP3   OH2 7199   3.481   3.212   1.059 -0.1165  0.1458 -0.0211
 2398TIP3    H1 7200   3.514   3.300   1.072 -0.6193  0.1387  1.4372
 2398TIP3    H2 7201   3.489   3.197   0.965  1.9008  0.9627 -0.0240
 2399TIP3   OH2 7202   4.214   2.511   4.340 -0.6254  0.4022 -0.4547
 2399TIP3    H1 7203   4.124   2.485   4.360 -0.8362  1.8037  0.4982
 2399TIP3    H2 7204   4.267   2.465   4.405 -0.4064 -1.8271 -2.0780
 2400TIP3   OH2 7205   5.765   4.079   4.701  0.5804  0.1626  0.2096
 2400TIP3    H1 7206   5.831   4.146   4.681  0.3405  0.3765  0.1220
 2400TIP3    H2 7207   5.811   3.996   4.693  1.5527  0.3809  2.8041
 2401TIP3   OH2 7208   4.561   2.302   3.115  0.2207  0.4400  0.2412
 2401TIP3    H1 7209   4.547   2.208   3.112 -0.1044  0.5047 -0.3462
 2401TIP3    H2 7210   4.645   2.315   3.070 -0.2292  0.5266 -0.5822
 2402TIP3   OH2 7211   1.100   1.633   2.731  0.5427  0.1631  0.3413
 2402TIP3    H1 7212   1.051   1.587   2.799 -0.1394 -1.6515 -1.2967
 2402TIP3    H2 7213   1.188   1.594   2.734  0.8565  0.8884  0.9032
 2403TIP3   OH2 7214   3.821   4.049   1.332 -0.1803 -0.4311 -0.4712
 2403TIP3    H1 7215   3.900   4.095   1.360 -0.0730  0.0065 -1.4610
 2403TIP3    H2 7216   3.749   4.107   1.356 -0.1431 -0.4220 -0.3809
 2404TIP3   OH2 7217   2.208   1.996   3.502  0.1502  0.1004  0.4252
 2404TIP3    H1 7218   2.128   1.962   3.462  0.3467  1.7425 -1.4740
 2404TIP3    H2 7219   2.182   2.079   3.542  0.9628  0.8389 -0.5426
 2405TIP3   OH2 7220   4.910   2.142   0.575 -0.0535  0.0171 -0.1044
 2405TIP3    H1 7221   4.936   2.050   0.561  1.7487  0.6301 -1.2777
 2405TIP3    H2 7222   4.986   2.192   0.545 -0.4547  1.8808  1.7846
 2406TIP3   OH2 7223   0.185   2.592   1.930 -0.6563  0.2494 -0.2860
 2406TIP3    H1 7224   0.142   2.634   1.855 -0.8549  0.1557 -0.2244
 2406TIP3    H2 7225   0.127   2.612   2.004 -0.6814 -0.0242 -0.2340
 2407TIP3   OH2 7226   1.284   0.376   2.926  0.0044 -0.1537  1.0526
 2407TIP3    H1 7227   1.192   0.349   2.930 -0.3565  0.7045 -0.7103
 2407TIP3    H2 7228   1.331   0.298   2.897 -0.3973 -0.1477  0.3842
 2408TIP3   OH2 7229   4.905   4.709   3.291  0.1019 -0.5104  0.3753
 2408TIP3    H1 7230   4.973   4.733   3.229 -0.2228 -0.6182 -0.0274
 2408TIP3    H2 7231   4.952   4.667   3.363  0.4290 -0.9372 -0.0787
 2409TIP3   OH2 7232   1.771   3.242   1.676 -0.4825  0.1695  0.2812
 2409TIP3    H1 7233   1.695   3.262   1.621 -0.8926  1.2683  1.2192
 2409TIP3    H2 7234   1.769   3.147   1.686 -1.4316  0.1396 -0.1342
 2410TIP3   OH2 7235   5.269   3.760   4.461 -0.5216 -0.0303 -0.6943
 2410TIP3    H1 7236   5.236   3.712   4.386  0.0021  1.4050 -1.8906
 2410TIP3    H2 7237   5.232   3.848   4.452  2.3045  1.2267 -1.2885
 2411TIP3   OH2 7238   3.165   3.437   3.808  0.0341  0.6256 -0.0531
 2411TIP3    H1 7239   3.187   3.356   3.762  0.5600  1.2025 -0.8552
 2411TIP3    H2 7240   3.248   3.468   3.844  0.5673  2.5259 -2.6064
 2412TIP3   OH2 7241   5.465   3.001   3.698 -0.0279  0.5104  0.1672
 2412TIP3    H1 7242   5.531   3.058   3.738  1.0749 -0.1385 -0.6780
 2412TIP3    H2 7243   5.387   3.057   3.692  0.3326  1.2036  1.4437
 2413TIP3   OH2 7244   2.110   2.675   1.209  0.4215  0.0277 -0.3319
 2413TIP3    H1 7245   2.166   2.704   1.281  0.1947 -1.5852  0.5226
 2413TIP3    H2 7246   2.093   2.755   1.159 -0.2807  1.3986  1.9618
 2414TIP3   OH2 7247   0.232   5.312   2.072 -0.2566 -0.5403  0.0875
 2414TIP3    H1 7248   0.248   5.218   2.063  1.3449 -0.1616 -1.8265
 2414TIP3    H2 7249   0.200   5.339   1.986  1.5194  1.0060 -0.1639
 2415TIP3   OH2 7250   2.484   0.476   2.638  0.2769  0.1573  0.0293
 2415TIP3    H1 7251   2.427   0.457   2.563 -0.2932  1.6375  0.0688
 2415TIP3    H2 7252   2.432   0.450   2.714  0.4344 -0.3342 -0.0271
 2416TIP3   OH2 7253   5.699   4.259   0.019 -0.0780  0.1924  0.3476
 2416TIP3    H1 7254   5.747   4.324   0.071  2.7746 -1.3666 -0.1357
 2416TIP3    H2 7255   5.669   4.194   0.083  2.7915 -1.3355  0.3253
 2417TIP3   OH2 7256   5.670   4.504   4.230  0.5881 -0.0302 -0.1574
 2417TIP3    H1 7257   5.742   4.455   4.268 -1.1341 -1.0613  2.0145
 2417TIP3    H2 7258   5.608   4.437   4.199  0.1189  0.8137 -1.1264
 2418TIP3   OH2 7259   4.264   3.654   0.210 -0.3621  0.0879 -0.1811
 2418TIP3    H1 7260   4.224   3.601   0.142  1.1846 -0.1863 -0.9198
 2418TIP3    H2 7261   4.220   3.739   0.203 -0.2017  0.0781 -1.5536
 2419TIP3   OH2 7262   0.809   0.978   0.930 -0.1065 -0.2212 -0.1498
 2419TIP3    H1 7263   0.756   0.969   1.009 -1.9405 -0.2467 -1.3298
 2419TIP3    H2 7264   0.778   0.909   0.872  0.2450  0.6507 -1.4220
 2420TIP3   OH2 7265   1.107   5.586   0.206 -0.1667 -0.2847  0.1677
 2420TIP3    H1 7266   1.094   5.537   0.287 -0.8408 -0.6708 -0.1637
 2420TIP3    H2 7267   1.186   5.549   0.167  0.4892  0.2949  0.9257
 2421TIP3   OH2 7268   5.195   4.664   4.909 -0.2970  0.2195  0.2460
 2421TIP3    H1 7269   5.107   4.703   4.910 -0.9169 -1.1089 -0.6033
 2421TIP3    H2 7270   5.180   4.572   4.887  1.2540 -0.2033  0.8573
 2422TIP3   OH2 7271   2.732   2.720   3.278  0.2431  0.2166  0.1905
 2422TIP3    H1 7272   2.687   2.642   3.245  1.6572 -1.2474  1.5405
 2422TIP3    H2 7273   2.757   2.768   3.199  2.5186 -2.5736 -0.9774
 2423TIP3   OH2 7274   4.352   5.758   5.103 -0.2073  0.6400 -0.8682
 2423TIP3    H1 7275   4.316   5.730   5.019  1.0870  2.2291 -1.9989
 2423TIP3    H2 7276   4.358   5.853   5.097  2.1680  0.6097  0.0638
 2424TIP3   OH2 7277   3.143   4.764   1.666  0.2494  0.2381  0.2317
 2424TIP3    H1 7278   3.073   4.743   1.605 -1.5869  2.2475  1.5154
 2424TIP3    H2 7279   3.213   4.798   1.610 -0.4984 -0.0408 -0.9279
 2425TIP3   OH2 7280   3.138   0.666   5.059  0.3833  0.3310  0.2862
 2425TIP3    H1 7281   3.068   0.702   5.004  1.2697 -0.0156 -1.1313
 2425TIP3    H2 7282   3.093   0.625   5.132 -0.9242 -0.2002 -0.7757
 2426TIP3   OH2 7283   4.948   4.191   1.193  0.5121 -0.4831 -0.4216
 2426TIP3    H1 7284   4.976   4.196   1.285  1.2331 -2.8539 -0.4389
 2426TIP3    H2 7285   4.852   4.186   1.198  0.4420  0.8974  0.0751
 2427TIP3   OH2 7286   2.904   0.576   4.633  0.1993  0.0255 -0.3956
 2427TIP3    H1 7287   2.858   0.493   4.622 -0.5469  0.1392  1.4137
 2427TIP3    H2 7288   2.932   0.600   4.545 -1.5443 -1.0196 -1.2967
 2428TIP3   OH2 7289   1.374   4.327   4.559 -0.2488  0.0685 -0.5221
 2428TIP3    H1 7290   1.398   4.319   4.467 -0.6474  0.3079 -0.6530
 2428TIP3    H2 7291   1.308   4.259   4.573 -0.9502  0.6880 -0.6911
 2429TIP3   OH2 7292   4.563   4.124   4.275 -0.2032  0.3244  0.0989
 2429TIP3    H1 7293   4.589   4.130   4.183 -0.7820  2.4151  0.0304
 2429TIP3    H2 7294   4.637   4.159   4.324 -0.8692  1.5924  0.2345
 2430TIP3   OH2 7295   6.208   4.606   0.185 -0.6427 -0.5616  0.3685
 2430TIP3    H1 7296   6.259   4.560   0.252 -1.3998 -3.2060 -0.7206
 2430TIP3    H2 7297   6.226   4.699   0.200  0.6204 -1.1447  3.0514
 2431TIP3   OH2 7298   0.256   5.235   4.886 -0.0360  0.3533  0.0599
 2431TIP3    H1 7299   0.241   5.141   4.895  0.5327  0.4570  3.1486
 2431TIP3    H2 7300   0.344   5.242   4.849 -0.0360 -0.2982 -0.0700
 2432TIP3   OH2 7301   0.168   5.033   3.960 -0.0132 -0.0926 -0.5659
 2432TIP3    H1 7302   0.204   5.121   3.962 -2.3398  0.9478  1.2828
 2432TIP3    H2 7303   0.120   5.028   3.877 -1.2307  1.0511  0.0291
 2433TIP3   OH2 7304   1.668   3.474   2.050  0.1948  0.1058  0.5427
 2433TIP3    H1 7305   1.591   3.465   1.994 -1.0866 -0.0310  2.2428
 2433TIP3    H2 7306   1.739   3.434   2.000 -0.7113  0.6374 -1.2669
 2434TIP3   OH2 7307   2.591   1.066   4.076 -0.3502 -0.2534 -0.1598
 2434TIP3    H1 7308   2.562   1.008   4.147 -2.0828 -0.8716 -1.3012
 2434TIP3    H2 7309   2.671   1.105   4.108  0.1836 -2.3017  1.2132
 2435TIP3   OH2 7310   0.085   0.197   4.880  0.1564  0.1393  0.1384
 2435TIP3    H1 7311   0.115   0.285   4.904 -1.6303  0.8869 -0.2293
 2435TIP3    H2 7312  -0.008   0.207   4.863  0.0516 -1.7066 -0.6057
 2436TIP3   OH2 7313   1.946   3.044   1.782  0.6246 -0.1829 -0.4678
 2436TIP3    H1 7314   1.951   3.080   1.694 -0.3948 -0.4396 -0.6441
 2436TIP3    H2 7315   2.022   2.986   1.789  1.4516  0.8425 -0.7003
 2437TIP3   OH2 7316   0.140   1.782   3.978 -0.4286  0.1674  0.1352
 2437TIP3    H1 7317   0.178   1.790   4.066 -1.0013  0.7604  0.3400
 2437TIP3    H2 7318   0.146   1.870   3.942 -2.1568  0.4378  0.4199
 2438TIP3   OH2 7319   1.792   1.011   3.831 -0.4663  0.0243  0.1577
 2438TIP3    H1 7320   1.867   1.041   3.882 -0.8580  2.0423 -0.3394
 2438TIP3    H2 7321   1.780   0.920   3.856  2.0640 -0.3278  0.3286
 2439TIP3   OH2 7322   1.281   4.939   3.567 -0.1555  0.1603 -0.1872
 2439TIP3    H1 7323   1.314   4.996   3.637  0.8647  0.9451 -1.2602
 2439TIP3    H2 7324   1.186   4.940   3.578 -0.1887  2.2110 -0.2578
 2440TIP3   OH2 7325   5.586   2.420   4.182 -0.1797  0.3061  1.0016
 2440TIP3    H1 7326   5.552   2.348   4.236  1.2943 -1.0886  0.1712
 2440TIP3    H2 7327   5.509   2.457   4.139 -1.0230 -0.4994  1.7892
 2441TIP3   OH2 7328   4.395   4.011   4.466  0.0190  0.1038  0.0380
 2441TIP3    H1 7329   4.454   4.039   4.397 -1.1685 -1.1978 -1.5736
 2441TIP3    H2 7330   4.328   4.079   4.469 -1.0335 -0.7835 -1.5686
 2442TIP3   OH2 7331   4.894   5.359   3.163  0.3633 -0.2065  0.3369
 2442TIP3    H1 7332   4.932   5.447   3.156  1.2135 -0.5496  0.5828
 2442TIP3    H2 7333   4.820   5.361   3.103  1.5650  0.0521 -1.1862
 2443TIP3   OH2 7334   0.186   0.044   5.092 -0.4389 -0.4009  0.3487
 2443TIP3    H1 7335   0.147   0.087   5.015  0.3877  0.4960  0.4186
 2443TIP3    H2 7336   0.223   0.115   5.143  0.1270 -1.1190  0.9591
 2444TIP3   OH2 7337   6.133   0.842   0.591 -0.1394  0.1950  0.6077
 2444TIP3    H1 7338   6.102   0.775   0.530  1.7116 -0.7003  0.5816
 2444TIP3    H2 7339   6.057   0.861   0.647 -0.5466 -2.4287  1.0461
 2445TIP3   OH2 7340   4.201   2.334   3.893 -0.0257  0.1568 -0.0769
 2445TIP3    H1 7341   4.183   2.427   3.878  0.0265  0.0851 -0.5859
 2445TIP3    H2 7342   4.172   2.290   3.814  0.6113 -0.1789 -0.1346
 2446TIP3   OH2 7343   3.444   3.783   0.604  0.0750  0.2224 -0.1002
 2446TIP3    H1 7344   3.420   3.875   0.616  3.0855  1.0556  0.2629
 2446TIP3    H2 7345   3.372   3.735   0.643 -0.6531  2.4842  1.5591
 2447TIP3   OH2 7346   4.964   1.447   3.547 -1.1364 -0.0813  0.4269
 2447TIP3    H1 7347   4.976   1.534   3.586 -0.1256 -0.7098  1.5843
 2447TIP3    H2 7348   4.939   1.465   3.456  0.4062  1.4255  0.2499
 2448TIP3   OH2 7349   5.251   4.571   3.298 -0.1034 -0.2461 -0.2889
 2448TIP3    H1 7350   5.174   4.564   3.354 -0.1575 -0.7476 -0.4247
 2448TIP3    H2 7351   5.313   4.623   3.349  0.0127 -1.0564  0.4125
 2449TIP3   OH2 7352   0.037   1.979   0.829  0.0847  0.2686 -0.0156
 2449TIP3    H1 7353   0.017   2.046   0.894 -1.6497  0.5130 -0.7621
 2449TIP3    H2 7354   0.112   1.932   0.866  1.6042  2.8133  0.3583
 2450TIP3   OH2 7355   4.412   4.472   2.885  0.2828 -0.5061 -0.4438
 2450TIP3    H1 7356   4.429   4.566   2.897  1.0696 -0.7213  0.2372
 2450TIP3    H2 7357   4.367   4.467   2.801  1.4493  0.3614 -1.1637
 2451TIP3   OH2 7358   1.706   2.429   4.920  0.2058  0.2489  0.3376
 2451TIP3    H1 7359   1.715   2.334   4.912  0.6018  0.2271  0.9749
 2451TIP3    H2 7360   1.790   2.463   4.888  0.3502  0.3420  0.8088
 2452TIP3   OH2 7361   5.758   1.845   3.231  0.1472 -0.8023  0.5427
 2452TIP3    H1 7362   5.847   1.825   3.260 -0.0170 -0.8101  1.0589
 2452TIP3    H2 7363   5.743   1.787   3.156  0.8370 -0.2669 -0.0239
 2453TIP3   OH2 7364   3.586   4.897   1.907 -0.1185  0.1628  0.2066
 2453TIP3    H1 7365   3.594   4.978   1.856 -0.1649  0.0880  0.0800
 2453TIP3    H2 7366   3.572   4.927   1.997  0.4316  0.2956  0.2503
 2454TIP3   OH2 7367   0.486   0.130   4.869  0.1131 -0.2423  0.5029
 2454TIP3    H1 7368   0.466   0.058   4.929  1.6271 -1.0845  0.0476
 2454TIP3    H2 7369   0.400   0.161   4.840 -0.5910 -1.9383  0.6235
 2455TIP3   OH2 7370   1.141   2.509   5.151 -0.0531  0.4783 -0.4683
 2455TIP3    H1 7371   1.195   2.523   5.073  2.6358 -1.2314  0.9367
 2455TIP3    H2 7372   1.150   2.416   5.171 -3.4123  0.1320  0.0622
 2456TIP3   OH2 7373   2.907   3.641   0.968 -0.2044 -0.5174  0.3473
 2456TIP3    H1 7374   2.960   3.717   0.947  0.7085 -1.5134 -1.2221
 2456TIP3    H2 7375   2.818   3.675   0.977  0.2088  0.7518 -0.1690
 2457TIP3   OH2 7376   2.329   4.869   0.997 -0.1181 -0.3855 -0.0607
 2457TIP3    H1 7377   2.411   4.914   1.019  0.5141 -1.6878  0.3716
 2457TIP3    H2 7378   2.290   4.848   1.082 -0.4153 -0.6152 -0.2545
 2458TIP3   OH2 7379   3.445   1.187   4.587  0.3804 -0.6771 -0.1943
 2458TIP3    H1 7380   3.521   1.129   4.576  1.7314  1.1221 -0.7604
 2458TIP3    H2 7381   3.399   1.151   4.663  1.0999 -2.5373 -0.5812
 2459TIP3   OH2 7382   4.039   5.356   4.750  0.0610 -0.0687 -0.1561
 2459TIP3    H1 7383   3.974   5.286   4.761 -0.9246  0.9483  0.9367
 2459TIP3    H2 7384   4.084   5.360   4.834  0.1787  0.5255 -0.2411
 2460TIP3   OH2 7385   4.166   2.119   3.184 -0.2117 -0.0202  0.5970
 2460TIP3    H1 7386   4.214   2.199   3.205 -0.5806 -0.0720  1.6593
 2460TIP3    H2 7387   4.233   2.057   3.157  0.0314  0.8055 -0.8080
 2461TIP3   OH2 7388   1.431   2.384   4.782 -0.4043 -0.0550  0.2390
 2461TIP3    H1 7389   1.485   2.338   4.846  0.5031 -0.0977 -0.5449
 2461TIP3    H2 7390   1.491   2.405   4.711 -1.6446 -1.0624 -1.1579
 2462TIP3   OH2 7391   0.031   3.785   3.901  0.6351  0.1182  0.0317
 2462TIP3    H1 7392   0.054   3.699   3.936  1.3962 -0.0267 -0.7767
 2462TIP3    H2 7393   0.029   3.773   3.806 -0.7996  0.6343 -0.0227
 2463TIP3   OH2 7394   3.695   0.784   2.511  0.4353 -0.1959  0.7450
 2463TIP3    H1 7395   3.614   0.835   2.514 -0.0401 -0.9512  1.2928
 2463TIP3    H2 7396   3.765   0.849   2.514 -0.1434  0.4073  1.8240
 2464TIP3   OH2 7397   0.100   4.717   0.719  0.1273 -0.5406 -0.0538
 2464TIP3    H1 7398   0.179   4.750   0.676  0.4745 -0.7190  0.4359
 2464TIP3    H2 7399   0.129   4.638   0.765  0.6357  1.5136  3.4914
 2465TIP3   OH2 7400   2.520   4.307   3.435  0.3263  0.2761 -0.1100
 2465TIP3    H1 7401   2.512   4.358   3.355  1.5238  1.8206  0.6980
 2465TIP3    H2 7402   2.430   4.287   3.460 -0.0643 -2.3731 -3.0590
 2466TIP3   OH2 7403   5.100   4.241   3.279 -0.4349 -0.3101 -0.6190
 2466TIP3    H1 7404   5.117   4.224   3.372 -0.9226  2.4700  0.0823
 2466TIP3    H2 7405   5.133   4.164   3.234  1.0518 -1.1740  1.7597
 2467TIP3   OH2 7406   1.501   4.469   4.031  0.1759 -0.2474  0.8679
 2467TIP3    H1 7407   1.477   4.550   3.987  0.2763 -0.7504 -0.1405
 2467TIP3    H2 7408   1.581   4.440   3.987 -1.9681 -2.9807 -1.5949
 2468TIP3   OH2 7409   2.466   4.049   4.044 -0.1977 -0.4223 -0.5429
 2468TIP3    H1 7410   2.454   4.054   3.949 -2.6623  0.1449 -0.2621
 2468TIP3    H2 7411   2.423   3.967   4.070 -0.0933 -0.2597  0.1644
 2469TIP3   OH2 7412   3.473   3.865   0.052  0.5731  0.7110  0.5081
 2469TIP3    H1 7413   3.527   3.852   0.129  0.7040  2.9730  0.8812
 2469TIP3    H2 7414   3.514   3.938   0.006  0.6054 -0.6958 -1.8371
 2470TIP3   OH2 7415   2.016   0.267   4.254 -0.2985  0.1336  0.1201
 2470TIP3    H1 7416   2.036   0.173   4.260 -0.2204  0.1419 -0.0069
 2470TIP3    H2 7417   1.940   0.271   4.196 -1.3726  0.0121  1.4741
 2471TIP3   OH2 7418   0.060   4.566   3.144  0.8007 -0.1195  0.2501
 2471TIP3    H1 7419   0.086   4.613   3.223 -1.1555 -0.3886  1.1238
 2471TIP3    H2 7420   0.005   4.495   3.176  2.0809 -1.8753 -1.1814
 2472TIP3   OH2 7421   2.369   5.327   4.933  0.1190  0.0578  0.1735
 2472TIP3    H1 7422   2.379   5.319   5.028 -1.0629  2.3136  0.5588
 2472TIP3    H2 7423   2.277   5.352   4.921 -0.2973 -2.0795 -1.7436
 2473TIP3   OH2 7424   0.932   4.137   4.459  0.1805 -0.6137 -0.1225
 2473TIP3    H1 7425   0.979   4.199   4.403 -0.2615  0.3963  0.5934
 2473TIP3    H2 7426   0.999   4.074   4.487  0.0697 -2.3757 -3.3152
 2474TIP3   OH2 7427   5.283   5.640   2.259 -0.2474 -0.3242  0.1980
 2474TIP3    H1 7428   5.237   5.700   2.201  1.1672  0.9157  0.2935
 2474TIP3    H2 7429   5.216   5.611   2.322 -0.4259  3.5550  2.0714
 2475TIP3   OH2 7430   0.830   0.366   1.721 -0.5982  0.1361  0.3104
 2475TIP3    H1 7431   0.743   0.375   1.759 -1.0232 -0.9418 -0.3682
 2475TIP3    H2 7432   0.889   0.376   1.796 -1.3728 -0.6923  1.0656
 2476TIP3   OH2 7433   2.963   5.047   3.825  0.1152  0.3819 -0.4268
 2476TIP3    H1 7434   3.000   5.132   3.802  2.1308 -0.5983 -1.1063
 2476TIP3    H2 7435   2.925   5.015   3.743  1.6039 -0.3846 -0.8661
 2477TIP3   OH2 7436   0.881   3.966   3.994  0.1493 -0.1140  0.3864
 2477TIP3    H1 7437   0.899   3.880   4.032  0.5748 -1.2969 -2.2612
 2477TIP3    H2 7438   0.960   3.987   3.944  0.3548  2.2220  1.5895
 2478TIP3   OH2 7439   3.425   5.617   2.400 -0.0589  0.1348 -0.1964
 2478TIP3    H1 7440   3.464   5.691   2.446  1.3430  0.3983 -1.7012
 2478TIP3    H2 7441   3.496   5.581   2.347 -1.0155 -1.5546 -0.4152
 2479TIP3   OH2 7442   0.585   4.161   0.748  0.3080 -0.0008 -0.3928
 2479TIP3    H1 7443   0.542   4.083   0.714 -1.6905  1.7290 -2.0714
 2479TIP3    H2 7444   0.663   4.171   0.694 -0.7570  0.5080 -1.8945
 2480TIP3   OH2 7445   3.029   0.512   1.398 -0.7045  0.1668 -0.2383
 2480TIP3    H1 7446   3.125   0.518   1.397 -0.7149  0.6934  0.6633
 2480TIP3    H2 7447   3.001   0.573   1.330 -0.4089  0.6003  0.0173
 2481TIP3   OH2 7448   2.853   4.127   4.649  0.0081  0.2660  0.1859
 2481TIP3    H1 7449   2.865   4.183   4.572  1.1496  0.5745  0.5765
 2481TIP3    H2 7450   2.906   4.049   4.631  1.0481  0.7512  1.0530
 2482TIP3   OH2 7451   4.960   1.311   1.346 -0.0627  0.2033 -0.0864
 2482TIP3    H1 7452   4.960   1.305   1.251  0.6428  1.7399 -0.2063
 2482TIP3    H2 7453   4.885   1.257   1.373  0.5531 -1.3981 -1.3956
 2483TIP3   OH2 7454   5.860   0.919   4.129 -0.0152  0.3078  0.1670
 2483TIP3    H1 7455   5.842   0.974   4.053 -1.1078  0.3175  0.4248
 2483TIP3    H2 7456   5.795   0.945   4.194 -0.7461 -1.4918  0.2017
 2484TIP3   OH2 7457   2.739   0.594   3.679 -0.1430  0.8563 -0.4330
 2484TIP3    H1 7458   2.813   0.582   3.620 -0.0694 -0.2581 -0.1443
 2484TIP3    H2 7459   2.751   0.526   3.746 -1.8563  0.1357 -0.8199
 2485TIP3   OH2 7460   2.701   4.321   1.657  0.1182  0.6846  0.5852
 2485TIP3    H1 7461   2.677   4.381   1.587 -0.5773 -0.3644 -0.0955
 2485TIP3    H2 7462   2.638   4.338   1.727 -0.5200  0.2583  0.1155
 2486TIP3   OH2 7463   1.386   4.490   0.122 -0.1920  0.7219 -0.2553
 2486TIP3    H1 7464   1.372   4.585   0.113 -0.7433  0.4703 -2.8704
 2486TIP3    H2 7465   1.337   4.452   0.049  0.1067 -1.6022  0.6750
 2487TIP3   OH2 7466   0.904   4.057   0.336 -0.3672 -0.2294 -0.1629
 2487TIP3    H1 7467   0.886   3.994   0.406 -2.9160  0.3973 -0.1578
 2487TIP3    H2 7468   0.859   4.137   0.364  1.1557  1.0193 -1.1033
 2488TIP3   OH2 7469   3.726   5.337   2.900 -0.1037  0.5474  0.7673
 2488TIP3    H1 7470   3.747   5.281   2.825  0.8890  0.5104  1.0609
 2488TIP3    H2 7471   3.631   5.325   2.912  0.2217 -1.9587  1.5251
 2489TIP3   OH2 7472   3.966   2.472   5.146 -0.0782  0.5842  0.0168
 2489TIP3    H1 7473   3.876   2.503   5.139 -0.0835  0.4789 -0.4755
 2489TIP3    H2 7474   3.964   2.406   5.215 -0.8238 -0.9225 -1.3895
 2490TIP3   OH2 7475   5.435   5.624   4.750  0.6458 -0.0174  0.1045
 2490TIP3    H1 7476   5.417   5.541   4.794  2.9078 -0.7684 -0.2677
 2490TIP3    H2 7477   5.514   5.657   4.793 -1.1048  2.8619  1.4068
 2491TIP3   OH2 7478   6.028   4.596   1.533 -0.2318 -0.0881 -0.7029
 2491TIP3    H1 7479   5.959   4.561   1.476 -0.2994  0.3424 -0.8906
 2491TIP3    H2 7480   6.102   4.538   1.519 -0.8398 -1.1213  0.2098
 2492TIP3   OH2 7481   4.046   0.182   0.863 -0.1669  0.1417  0.4272
 2492TIP3    H1 7482   4.067   0.228   0.781  0.6799  2.3814  1.7870
 2492TIP3    H2 7483   4.009   0.250   0.919 -0.7713 -1.3453  1.8963
 2493TIP3   OH2 7484   5.297   0.388   0.551  0.3558  0.3368  0.3426
 2493TIP3    H1 7485   5.267   0.414   0.464 -0.5748 -1.1173  0.1864
 2493TIP3    H2 7486   5.227   0.415   0.609  1.1833  1.7222  0.7267
 2494TIP3   OH2 7487   4.227   4.443   2.177 -0.1277  0.2165  0.3400
 2494TIP3    H1 7488   4.245   4.483   2.092  1.0161 -0.2654  0.3290
 2494TIP3    H2 7489   4.275   4.497   2.239 -2.0083  1.3362  0.8656
 2495TIP3   OH2 7490   0.723   1.509   0.699  0.0525 -0.5600  0.1928
 2495TIP3    H1 7491   0.629   1.529   0.706 -0.1171 -1.1895 -0.2479
 2495TIP3    H2 7492   0.742   1.456   0.776  0.1027 -0.2383  0.4053
 2496TIP3   OH2 7493   5.219   1.849   2.830 -0.1040 -0.4031 -0.3013
 2496TIP3    H1 7494   5.282   1.795   2.781  0.3224  0.4721 -0.7436
 2496TIP3    H2 7495   5.189   1.914   2.766 -1.2958 -0.6739 -0.0225
 2497TIP3   OH2 7496   0.140   5.465   2.559 -0.1088 -0.9157  0.2734
 2497TIP3    H1 7497   0.228   5.460   2.594 -0.1635 -0.4372  0.4729
 2497TIP3    H2 7498   0.139   5.544   2.505  0.1851 -1.9983 -1.3908
 2498TIP3   OH2 7499   4.804   5.190   0.575 -0.0374  0.0815  0.3634
 2498TIP3    H1 7500   4.885   5.236   0.595 -0.1203  0.7250 -0.6949
 2498TIP3    H2 7501   4.736   5.257   0.578 -0.2503 -0.0720 -0.5826
 2499TIP3   OH2 7502   3.381   1.010   4.173  0.4764 -0.3519 -0.1123
 2499TIP3    H1 7503   3.357   1.094   4.135 -2.8916 -0.3538  1.6397
 2499TIP3    H2 7504   3.315   0.994   4.241  3.1333 -2.6798  2.2193
 2500TIP3   OH2 7505   6.319   5.275   4.874  0.2808 -0.0494  0.1607
 2500TIP3    H1 7506   6.272   5.351   4.839  0.6561 -0.7301 -1.9936
 2500TIP3    H2 7507   6.410   5.304   4.880  1.1799 -1.1904 -4.1517
 2501TIP3   OH2 7508   4.077   0.148   4.467 -0.6002  0.1799  0.4069
 2501TIP3    H1 7509   4.026   0.069   4.482 -1.3790  0.7666  0.9153
 2501TIP3    H2 7510   4.013   0.215   4.444 -0.2619  1.2420  2.2711
 2502TIP3   OH2 7511   4.871   2.468   2.025  0.3084 -0.2448 -0.1972
 2502TIP3    H1 7512   4.776   2.453   2.019 -0.0429  1.7313 -0.2058
 2502TIP3    H2 7513   4.909   2.381   2.013 -1.4917 -1.0740 -0.3282
 2503TIP3   OH2 7514   4.011   5.912   3.388 -0.4433 -0.1749 -0.2873
 2503TIP3    H1 7515   3.960   5.834   3.410  0.2092 -0.2909  0.8954
 2503TIP3    H2 7516   3.967   5.984   3.434  0.5004 -0.2959  0.8361
 2504TIP3   OH2 7517   2.024   4.319   3.627  0.9352  0.0217 -0.9661
 2504TIP3    H1 7518   1.984   4.300   3.712  1.6995 -1.6184 -0.9392
 2504TIP3    H2 7519   1.962   4.285   3.563  0.1903  1.5768 -1.1155
 2505TIP3   OH2 7520   3.061   0.312   0.589 -0.2583  0.6162 -0.1859
 2505TIP3    H1 7521   3.095   0.377   0.528 -0.0367 -0.0065 -0.7512
 2505TIP3    H2 7522   2.969   0.300   0.562 -0.9635  2.2461  1.2948
 2506TIP3   OH2 7523   5.481   0.674   3.908  0.6833  0.1248  0.5787
 2506TIP3    H1 7524   5.516   0.607   3.967  1.0140 -0.1500  0.0766
 2506TIP3    H2 7525   5.462   0.627   3.827 -0.9842  0.2384  0.8702
 2507TIP3   OH2 7526   3.888   1.620   3.853  0.3837 -0.2149 -0.0750
 2507TIP3    H1 7527   3.881   1.707   3.813  0.8087 -0.1110  0.0715
 2507TIP3    H2 7528   3.902   1.561   3.778 -0.2468 -0.2011 -0.2040
 2508TIP3   OH2 7529   2.301   1.385   4.021 -0.2344  0.2531  0.2494
 2508TIP3    H1 7530   2.211   1.416   4.020  0.3340  2.0020  0.1947
 2508TIP3    H2 7531   2.345   1.440   4.087  0.9132 -0.1953 -0.1149
 2509TIP3   OH2 7532   4.255   4.616   1.978 -0.0081  0.2460 -0.0952
 2509TIP3    H1 7533   4.222   4.705   1.981  0.5513  0.4811 -0.7233
 2509TIP3    H2 7534   4.326   4.618   1.914  0.5006 -0.4830  0.4233
 2510TIP3   OH2 7535   1.796   4.556   2.216  0.3917 -0.2558 -0.3736
 2510TIP3    H1 7536   1.742   4.581   2.292  0.3681 -0.8427 -0.1918
 2510TIP3    H2 7537   1.765   4.612   2.146 -0.3886 -0.4982 -0.2378
 2511TIP3   OH2 7538   4.406   2.825   2.009  0.5996  0.1680  0.8315
 2511TIP3    H1 7539   4.395   2.855   2.099  0.3038  0.9432  0.5487
 2511TIP3    H2 7540   4.318   2.807   1.978  0.8102 -1.5223  1.1561
 2512TIP3   OH2 7541   0.193   4.272   2.051 -0.4240 -0.5929 -0.0595
 2512TIP3    H1 7542   0.211   4.271   2.145 -0.0239  1.6611 -0.0504
 2512TIP3    H2 7543   0.107   4.313   2.044  0.0534  0.3318 -0.7105
 2513TIP3   OH2 7544   5.379   1.912   0.235  0.3314  0.1402 -0.4096
 2513TIP3    H1 7545   5.456   1.952   0.275  1.1022  1.5086 -3.0294
 2513TIP3    H2 7546   5.409   1.882   0.149 -1.6472 -0.9655 -0.7914
 2514TIP3   OH2 7547   2.405   3.472   3.581  0.6871  0.0515  0.0956
 2514TIP3    H1 7548   2.412   3.545   3.641  1.2374 -0.2586  0.4206
 2514TIP3    H2 7549   2.349   3.504   3.510  1.5343  1.0483 -0.1578
 2515TIP3   OH2 7550   6.120   3.927   2.846  0.1273 -0.2963 -0.3559
 2515TIP3    H1 7551   6.058   3.999   2.860  0.9776  0.1574  1.3334
 2515TIP3    H2 7552   6.130   3.887   2.932  0.6111 -1.6831 -1.0298
 2516TIP3   OH2 7553   0.658   2.127   2.048  0.3678 -0.1998 -0.2388
 2516TIP3    H1 7554   0.675   2.124   2.142 -1.5672 -0.1713  0.1607
 2516TIP3    H2 7555   0.716   2.061   2.011  1.0741 -0.2967  0.9848
 2517TIP3   OH2 7556   5.694   1.449   1.498 -0.1113  0.6911  0.2372
 2517TIP3    H1 7557   5.707   1.446   1.404 -0.0580 -0.0443  0.2674
 2517TIP3    H2 7558   5.766   1.504   1.530 -0.4551  1.4147 -0.1973
 2518TIP3   OH2 7559   1.640   1.440   1.994  0.2595 -0.2707  0.1172
 2518TIP3    H1 7560   1.613   1.437   2.086  1.7148 -0.6689  0.5619
 2518TIP3    H2 7561   1.632   1.533   1.970  1.6165  0.1599  1.2223
 2519TIP3   OH2 7562   3.344   0.237   0.389  0.2912  0.0545  0.1747
 2519TIP3    H1 7563   3.320   0.288   0.312 -1.5466 -0.8855  0.0898
 2519TIP3    H2 7564   3.358   0.302   0.458  1.9888  0.9084 -0.9084
 2520TIP3   OH2 7565   2.667   4.796   2.458 -0.4389 -0.3606  0.6548
 2520TIP3    H1 7566   2.723   4.719   2.445  1.5258  0.8317  1.4789
 2520TIP3    H2 7567   2.651   4.798   2.552  0.1056  0.5697  0.7468
 2521TIP3   OH2 7568   0.477   2.541   3.312  0.1440 -0.2285 -0.2040
 2521TIP3    H1 7569   0.392   2.501   3.327 -0.0017  0.5842  1.3982
 2521TIP3    H2 7570   0.479   2.559   3.218 -1.1751 -0.8429 -0.3741
 2522TIP3   OH2 7571   2.874   1.200   3.039 -0.3781  0.0617  0.2626
 2522TIP3    H1 7572   2.969   1.205   3.043 -0.3229 -1.1520  0.9692
 2522TIP3    H2 7573   2.856   1.109   3.015 -1.3557  0.4399 -0.4987
 2523TIP3   OH2 7574   3.552   3.914   3.206  0.2538 -0.1906 -0.5199
 2523TIP3    H1 7575   3.529   3.940   3.296 -0.4910  1.2055 -1.0854
 2523TIP3    H2 7576   3.539   3.819   3.204 -1.6598  0.0159  0.2981
 2524TIP3   OH2 7577   1.563   4.261   2.302 -0.7257 -0.5384 -0.3331
 2524TIP3    H1 7578   1.633   4.220   2.250 -0.9532 -1.4451  0.0530
 2524TIP3    H2 7579   1.504   4.189   2.324 -1.3276  0.0670  0.0757
 2525TIP3   OH2 7580   3.359   1.039   3.608 -0.5808  0.2573 -0.3103
 2525TIP3    H1 7581   3.299   1.002   3.673 -0.9755  1.6013  0.1168
 2525TIP3    H2 7582   3.360   1.133   3.626 -0.9004  0.7221 -2.4235
 2526TIP3   OH2 7583   2.122   3.402   0.830 -0.2332 -0.2700 -0.0229
 2526TIP3    H1 7584   2.073   3.343   0.773  0.6423 -0.3521 -0.7192
 2526TIP3    H2 7585   2.166   3.462   0.770  1.2426 -0.7728  0.5091
 2527TIP3   OH2 7586   1.080   0.754   4.665 -0.2164  0.0482  0.6225
 2527TIP3    H1 7587   1.069   0.849   4.662 -1.1163 -0.0604 -0.8239
 2527TIP3    H2 7588   1.129   0.737   4.745  1.5364  1.8780  0.0085
 2528TIP3   OH2 7589   2.428   3.475   1.787  0.3830  0.3831  0.5767
 2528TIP3    H1 7590   2.448   3.441   1.875 -1.2361 -0.6940  0.5773
 2528TIP3    H2 7591   2.344   3.520   1.798 -0.4139 -0.7464 -0.6135
 2529TIP3   OH2 7592   2.935   3.640   0.288 -0.6040 -0.6711  0.3050
 2529TIP3    H1 7593   2.991   3.643   0.210  1.4862 -0.0460  1.7560
 2529TIP3    H2 7594   2.887   3.723   0.286 -0.4936 -0.6180 -0.2505
 2530TIP3   OH2 7595   1.224   3.909   3.661 -0.4702 -0.2001 -0.6199
 2530TIP3    H1 7596   1.239   3.986   3.716 -0.8507 -0.3031 -0.3718
 2530TIP3    H2 7597   1.132   3.886   3.675 -0.4083 -0.5929 -0.8309
 2531TIP3   OH2 7598   3.125   0.858   1.017  0.2981  0.6935  0.2043
 2531TIP3    H1 7599   3.085   0.899   1.094  0.9196  0.7941  0.4785
 2531TIP3    H2 7600   3.055   0.804   0.980  0.2417 -0.0612  1.3455
 2532TIP3   OH2 7601   2.682   5.597   1.625  0.2766  0.2346  0.1882
 2532TIP3    H1 7602   2.775   5.618   1.628  0.4524 -0.4254  3.4001
 2532TIP3    H2 7603   2.638   5.682   1.628  0.7676  0.5273 -0.7032
 2533TIP3   OH2 7604   4.950   2.806   1.400 -0.7435  0.2521 -0.4932
 2533TIP3    H1 7605   4.867   2.853   1.395 -0.8180  0.2832  0.7956
 2533TIP3    H2 7606   4.996   2.844   1.475  1.3480  1.6265 -2.3536
 2534TIP3   OH2 7607   1.591   1.788   4.855 -0.0730  0.2728 -0.1115
 2534TIP3    H1 7608   1.500   1.812   4.877  0.4276  1.3207  0.9090
 2534TIP3    H2 7609   1.638   1.871   4.856  0.9533 -0.2981 -0.4046
 2535TIP3   OH2 7610   6.138   0.973   3.008  0.6036 -0.0671  0.0986
 2535TIP3    H1 7611   6.222   0.928   3.011  0.2246 -0.7647  0.5331
 2535TIP3    H2 7612   6.115   0.987   3.100  0.2511  0.1206 -0.0172
 2536TIP3   OH2 7613   2.103   1.463   0.681  0.0619  0.1924  0.7070
 2536TIP3    H1 7614   2.134   1.374   0.699 -1.0317 -0.2566  0.4910
 2536TIP3    H2 7615   2.007   1.456   0.686 -0.1023  1.0517 -0.6746
 2537TIP3   OH2 7616   0.690   1.685   4.052  0.1508 -0.5649  0.1233
 2537TIP3    H1 7617   0.729   1.638   4.126  0.7303  1.3301  1.0928
 2537TIP3    H2 7618   0.597   1.694   4.076 -0.1259 -1.7704 -0.4060
 2538TIP3   OH2 7619   6.208   1.945   2.714 -0.1435  0.5284  0.1431
 2538TIP3    H1 7620   6.124   1.900   2.712  0.2135 -0.2749 -3.1861
 2538TIP3    H2 7621   6.270   1.879   2.745 -0.3724  0.3623  0.2491
 2539TIP3   OH2 7622   5.817   3.585   0.918  0.1427  0.4867 -0.4052
 2539TIP3    H1 7623   5.778   3.598   1.005  0.6183 -0.5233 -0.0276
 2539TIP3    H2 7624   5.909   3.608   0.930  0.2852 -0.0099 -0.5533
 2540TIP3   OH2 7625   1.904   2.623   0.342 -0.3067  0.2709  0.2451
 2540TIP3    H1 7626   1.871   2.547   0.295 -0.3851  0.4809 -0.0386
 2540TIP3    H2 7627   1.971   2.660   0.285  1.0372 -0.6404  1.1792
 2541TIP3   OH2 7628   0.986   5.264   3.803  0.2888  0.3140 -0.7151
 2541TIP3    H1 7629   1.047   5.330   3.768  1.5893 -1.0053 -1.0334
 2541TIP3    H2 7630   0.906   5.276   3.752  1.2826  0.1590 -2.3748
 2542TIP3   OH2 7631   1.180   0.146   0.376 -0.3370  0.5173 -0.2720
 2542TIP3    H1 7632   1.171   0.180   0.465 -0.3114  2.0293 -0.8288
 2542TIP3    H2 7633   1.159   0.220   0.319  0.6596 -0.1324 -1.5385
 2543TIP3   OH2 7634   2.744   0.409   2.746 -0.1936 -0.2710  0.1417
 2543TIP3    H1 7635   2.701   0.426   2.830  1.5343  0.6975  0.8949
 2543TIP3    H2 7636   2.672   0.402   2.683 -1.5858 -1.7072  1.7726
 2544TIP3   OH2 7637   0.334   3.269   4.597  0.2146 -0.3401  0.1919
 2544TIP3    H1 7638   0.335   3.185   4.641 -0.6723  0.4238  1.7569
 2544TIP3    H2 7639   0.242   3.285   4.576 -0.0968  1.3845  2.3843
 2545TIP3   OH2 7640   2.403   1.330   2.232  0.3307  0.3234  0.5697
 2545TIP3    H1 7641   2.328   1.270   2.238 -0.3985  0.9890 -1.1082
 2545TIP3    H2 7642   2.440   1.331   2.320 -0.1694 -1.8940  0.8771
 2546TIP3   OH2 7643   3.361   0.868   3.362  0.3824 -0.6340 -0.2844
 2546TIP3    H1 7644   3.341   0.904   3.448  0.7823 -1.7305  0.2856
 2546TIP3    H2 7645   3.354   0.774   3.373 -0.5882 -0.7560 -1.7281
 2547TIP3   OH2 7646   4.400   2.849   1.673 -0.3044  0.2470 -0.0726
 2547TIP3    H1 7647   4.329   2.799   1.631  0.6867  0.6419 -2.3345
 2547TIP3    H2 7648   4.385   2.939   1.646  1.0892  0.3216 -0.6652
 2548TIP3   OH2 7649   5.623   2.972   1.916 -0.0452  0.3666  0.6999
 2548TIP3    H1 7650   5.547   3.026   1.939 -0.8858 -0.8496  0.9248
 2548TIP3    H2 7651   5.591   2.882   1.927  1.1701 -0.1764 -0.0899
 2549TIP3   OH2 7652   4.882   4.173   4.818 -0.0449  0.1072 -0.0379
 2549TIP3    H1 7653   4.851   4.085   4.837  0.1595  0.0285 -0.0684
 2549TIP3    H2 7654   4.947   4.162   4.749  1.3527  0.0708  1.2371
 2550TIP3   OH2 7655   1.066   0.222   4.000  0.6099 -0.5086  0.0505
 2550TIP3    H1 7656   1.042   0.314   4.007  1.4235 -0.2792 -0.0567
 2550TIP3    H2 7657   1.156   0.223   3.966  0.9369 -1.3179  0.8579
 2551TIP3   OH2 7658   1.031   3.582   4.849  0.9512 -0.8029  0.4108
 2551TIP3    H1 7659   0.971   3.514   4.880 -0.2764 -0.0321 -0.1762
 2551TIP3    H2 7660   0.997   3.662   4.889  0.5202 -0.0946 -1.2905
 2552TIP3   OH2 7661   3.609   0.675   1.444 -0.1906 -0.5020 -0.6598
 2552TIP3    H1 7662   3.619   0.738   1.373 -0.6410 -1.8011 -1.9193
 2552TIP3    H2 7663   3.522   0.692   1.480  0.2151  0.4607 -0.0675
 2553TIP3   OH2 7664   3.243   1.843   0.700  0.7727  0.2923  0.5911
 2553TIP3    H1 7665   3.214   1.777   0.763 -1.8079  0.6878 -0.0710
 2553TIP3    H2 7666   3.218   1.927   0.740  0.6562  0.6441 -0.2018
 2554TIP3   OH2 7667   1.575   2.607   4.727 -0.2949  0.2032  0.2133
 2554TIP3    H1 7668   1.658   2.613   4.775  0.9111 -0.3928 -1.7089
 2554TIP3    H2 7669   1.598   2.624   4.636 -1.4670 -3.9893 -1.0970
 2555TIP3   OH2 7670   2.841   5.978   1.449 -0.4592 -0.4341  0.8956
 2555TIP3    H1 7671   2.920   6.029   1.467  0.6807 -2.2988  1.4726
 2555TIP3    H2 7672   2.865   5.924   1.373 -1.1578 -1.0806  1.1256
 2556TIP3   OH2 7673   0.985   5.499   0.686  0.6209 -0.1470  0.1772
 2556TIP3    H1 7674   0.936   5.577   0.714 -0.2163 -0.5949 -0.0173
 2556TIP3    H2 7675   0.998   5.512   0.592  0.0949 -0.4422  0.0594
 2557TIP3   OH2 7676   6.246   3.571   1.279  0.1537 -0.3162 -0.7502
 2557TIP3    H1 7677   6.266   3.489   1.235  0.8742  0.1125 -1.2273
 2557TIP3    H2 7678   6.156   3.592   1.252  0.9803  0.5872 -3.0783
 2558TIP3   OH2 7679   1.546   2.714   0.065  0.1758 -0.2909 -0.6923
 2558TIP3    H1 7680   1.595   2.732   0.145 -1.8031 -0.9001  0.7119
 2558TIP3    H2 7681   1.567   2.623   0.044 -1.0850 -0.8946  0.5053
 2559TIP3   OH2 7682   6.272   2.611   4.888  0.2031 -0.1218  0.0555
 2559TIP3    H1 7683   6.360   2.612   4.926  0.2551  0.2025 -0.0683
 2559TIP3    H2 7684   6.266   2.526   4.844  0.0905 -0.5657  0.9017
 2560TIP3   OH2 7685   0.275   1.135   2.994 -0.5766  0.4396 -0.1288
 2560TIP3    H1 7686   0.285   1.146   2.900 -0.5514 -1.8488 -0.4493
 2560TIP3    H2 7687   0.363   1.120   3.027 -0.6127  0.9913  0.2293
 2561TIP3   OH2 7688   0.211   2.318   4.682 -0.5807  0.3520  0.2043
 2561TIP3    H1 7689   0.261   2.338   4.602  0.5506  0.1598  0.8398
 2561TIP3    H2 7690   0.121   2.343   4.661  0.2408  3.5227 -0.0055
 2562TIP3   OH2 7691   0.425   5.948   2.806  0.1729 -0.1249  0.0937
 2562TIP3    H1 7692   0.470   5.982   2.884 -0.4865  0.1953  0.3382
 2562TIP3    H2 7693   0.333   5.970   2.820  0.1488  0.6171 -1.1476
 2563TIP3   OH2 7694   4.296   1.021   3.613  0.6095 -0.0494 -0.0931
 2563TIP3    H1 7695   4.324   1.019   3.705 -0.5635  1.8042  0.3501
 2563TIP3    H2 7696   4.276   1.113   3.596 -1.6563 -0.7218 -1.4568
 2564TIP3   OH2 7697   3.969   4.881   1.415  0.6087  0.4664 -0.0749
 2564TIP3    H1 7698   3.898   4.912   1.360 -0.4445  0.9385  1.4932
 2564TIP3    H2 7699   4.030   4.955   1.420  0.5445  0.5367 -0.3118
 2565TIP3   OH2 7700   4.299   0.301   1.200 -0.1883  0.0997  0.0267
 2565TIP3    H1 7701   4.335   0.237   1.261  1.2413  1.7002  0.9305
 2565TIP3    H2 7702   4.323   0.268   1.113  0.2440 -0.7460  0.4629
 2566TIP3   OH2 7703   5.846   1.517   4.207 -0.3130 -0.3302 -0.4019
 2566TIP3    H1 7704   5.765   1.537   4.160  0.3881 -0.1090 -1.5451
 2566TIP3    H2 7705   5.895   1.598   4.207 -0.0019 -0.5107  0.1422
 2567TIP3   OH2 7706   0.470   0.860   5.083 -0.1230 -0.5536  0.3706
 2567TIP3    H1 7707   0.463   0.825   5.172 -1.3956 -1.9322 -0.2279
 2567TIP3    H2 7708   0.506   0.948   5.094  1.5599 -1.3745  2.0982
 2568TIP3   OH2 7709   2.298   3.601   4.727  0.1348 -0.0536  0.2435
 2568TIP3    H1 7710   2.361   3.534   4.751 -1.0975 -0.3967  2.8900
 2568TIP3    H2 7711   2.272   3.641   4.810 -1.3175  1.7305 -0.9708
 2569TIP3   OH2 7712   4.213   4.052   3.540 -0.4577 -0.2946 -0.2001
 2569TIP3    H1 7713   4.262   4.032   3.620 -0.8352  1.4805  0.5035
 2569TIP3    H2 7714   4.273   4.027   3.470  0.7625  0.1364  0.6426
 2570TIP3   OH2 7715   2.712   2.550   2.966 -0.5708  0.1691 -0.3252
 2570TIP3    H1 7716   2.779   2.488   2.937  0.1390  0.5821  0.3566
 2570TIP3    H2 7717   2.665   2.575   2.887  0.0302 -0.2019 -0.8035
 2571TIP3   OH2 7718   2.406   2.674   3.171 -0.7638 -0.2065  0.0138
 2571TIP3    H1 7719   2.414   2.681   3.076 -0.6176  1.8699  0.1390
 2571TIP3    H2 7720   2.431   2.584   3.190  0.2948 -0.3502 -1.8043
 2572TIP3   OH2 7721   3.958   5.944   0.215 -0.1274 -0.5310  0.2870
 2572TIP3    H1 7722   3.884   5.922   0.271 -0.3155  1.1031  0.7190
 2572TIP3    H2 7723   4.012   5.864   0.215 -2.7085 -2.4393 -1.5223
 2573TIP3   OH2 7724   1.044   2.879   2.121  0.3364  0.0454 -0.1814
 2573TIP3    H1 7725   0.965   2.921   2.087  0.4803  0.3051 -0.1998
 2573TIP3    H2 7726   1.104   2.876   2.047  0.8677  1.1437  0.1858
 2574TIP3   OH2 7727   2.112   3.674   2.793  0.3675  0.4008 -0.2972
 2574TIP3    H1 7728   2.185   3.730   2.767  0.5672 -0.9929 -3.1589
 2574TIP3    H2 7729   2.150   3.586   2.795 -0.9083 -0.1662 -0.4095
 2575TIP3   OH2 7730   2.296   1.913   2.626 -0.1227  0.3128  1.3099
 2575TIP3    H1 7731   2.226   1.977   2.614  2.5944  3.2198 -0.4439
 2575TIP3    H2 7732   2.299   1.865   2.543  1.2102  1.6908  0.4991
 2576TIP3   OH2 7733   0.520   0.521   4.044 -0.6714  0.3350 -0.2933
 2576TIP3    H1 7734   0.470   0.466   3.984  1.8689  0.1777 -2.4639
 2576TIP3    H2 7735   0.535   0.602   3.996 -1.8120  1.8452  1.7126
 2577TIP3   OH2 7736   0.451   3.031   4.250 -0.3783 -0.9948 -0.2073
 2577TIP3    H1 7737   0.367   2.999   4.217 -1.4079 -0.4882  1.7257
 2577TIP3    H2 7738   0.460   3.119   4.213 -2.5760  0.4656  2.2996
 2578TIP3   OH2 7739   3.721   1.665   1.634 -0.0206  0.0743  0.0216
 2578TIP3    H1 7740   3.750   1.717   1.559 -0.0285  0.2695  0.1518
 2578TIP3    H2 7741   3.799   1.656   1.689  0.4831 -1.6965 -0.9268
 2579TIP3   OH2 7742   2.679   0.111   0.734 -0.2367 -0.9469  0.5592
 2579TIP3    H1 7743   2.721   0.191   0.766 -2.1435 -0.5047  2.1402
 2579TIP3    H2 7744   2.708   0.103   0.643  1.2024  0.6950  0.8253
 2580TIP3   OH2 7745   5.237   1.885   1.089 -0.1080  0.2627  0.6218
 2580TIP3    H1 7746   5.192   1.957   1.044 -0.3812  0.1636  0.7355
 2580TIP3    H2 7747   5.251   1.819   1.020 -0.1460  0.2883  0.5897
 2581TIP3   OH2 7748   4.312   3.318   4.467 -0.1190 -1.2093 -0.2220
 2581TIP3    H1 7749   4.351   3.237   4.433 -0.8730 -1.3662 -0.7515
 2581TIP3    H2 7750   4.265   3.355   4.392 -1.0963 -1.1082  0.4152
 2582TIP3   OH2 7751   6.100   2.057   0.680  0.2675  0.4763  0.5338
 2582TIP3    H1 7752   6.164   2.033   0.746  0.0240  2.0516  1.3853
 2582TIP3    H2 7753   6.137   2.134   0.637  0.2148 -0.2610 -0.8857
 2583TIP3   OH2 7754   1.232   3.843   2.327 -0.1331  0.6050  0.3206
 2583TIP3    H1 7755   1.245   3.791   2.248  0.1446  1.3356 -0.1275
 2583TIP3    H2 7756   1.146   3.817   2.360  0.1816 -0.4355  0.3432
 2584TIP3   OH2 7757   5.967   3.874   1.809 -0.0875  0.1454  0.3292
 2584TIP3    H1 7758   5.958   3.863   1.714  2.5508 -0.0894  0.0360
 2584TIP3    H2 7759   6.033   3.810   1.835  0.1578  1.0610  2.1359
 2585TIP3   OH2 7760   2.957   4.719   0.040 -0.0589 -0.3299 -0.4576
 2585TIP3    H1 7761   2.904   4.678  -0.028 -0.5957 -0.7700  0.2103
 2585TIP3    H2 7762   3.038   4.667   0.042  0.3534  0.2507 -1.3747
 2586TIP3   OH2 7763   0.284   3.307   3.381 -0.0436  0.2244  0.4047
 2586TIP3    H1 7764   0.207   3.333   3.329  0.8814 -0.4760 -1.3936
 2586TIP3    H2 7765   0.352   3.368   3.354  0.7165 -0.7608  0.0366
 2587TIP3   OH2 7766   3.553   0.817   4.412 -0.2936  0.3051  0.1750
 2587TIP3    H1 7767   3.463   0.847   4.429 -1.1698 -2.2554  0.4897
 2587TIP3    H2 7768   3.550   0.783   4.322  1.2016  2.8042 -0.9414
 2588TIP3   OH2 7769   5.488   3.892   2.444 -0.0401  0.2203  0.4074
 2588TIP3    H1 7770   5.423   3.870   2.511  2.4077  1.3126  3.4257
 2588TIP3    H2 7771   5.445   3.955   2.387 -1.9919 -0.0925  1.4628
 2589TIP3   OH2 7772   5.279   1.063   4.477 -0.0953 -0.3024 -0.4814
 2589TIP3    H1 7773   5.249   1.150   4.451  2.3664  0.9976  0.7343
 2589TIP3    H2 7774   5.307   1.022   4.395 -3.9443 -1.2223 -1.5323
 2590TIP3   OH2 7775   4.570   1.031   4.290  0.0781  0.1541  0.3830
 2590TIP3    H1 7776   4.555   1.007   4.382 -2.2811 -0.7091 -0.1630
 2590TIP3    H2 7777   4.509   1.103   4.274 -0.6542 -0.7171 -0.8898
 2591TIP3   OH2 7778   4.552   1.010   0.802  0.2973  0.4892  0.1259
 2591TIP3    H1 7779   4.610   1.077   0.838  1.5679 -1.3555  1.7429
 2591TIP3    H2 7780   4.530   0.955   0.877  0.6383 -1.8166 -1.3730
 2592TIP3   OH2 7781   3.528   4.343   4.770  0.7264  0.9530 -0.1186
 2592TIP3    H1 7782   3.507   4.345   4.677 -0.1944  1.1932  0.0848
 2592TIP3    H2 7783   3.444   4.359   4.814  0.9873 -0.0135  0.7694
 2593TIP3   OH2 7784   4.083   1.174   2.933  0.7265  0.2880  0.1536
 2593TIP3    H1 7785   3.990   1.197   2.928  0.5635 -0.5427 -0.9166
 2593TIP3    H2 7786   4.128   1.248   2.891  0.4431  0.0936 -0.5072
 2594TIP3   OH2 7787   1.956   3.906   2.842  0.5702  0.3832 -0.1307
 2594TIP3    H1 7788   1.894   3.913   2.769 -0.0976 -1.5604  0.2010
 2594TIP3    H2 7789   1.986   3.816   2.840  0.5291  0.2697  2.0012
 2595TIP3   OH2 7790   5.114   1.752   4.777 -0.2055  0.0279  0.3111
 2595TIP3    H1 7791   5.141   1.818   4.840  1.1295 -0.4417  0.2671
 2595TIP3    H2 7792   5.098   1.801   4.696 -0.6323  0.4689  0.6624
 2596TIP3   OH2 7793   5.698   1.437   0.516 -0.4038 -0.2778  0.0944
 2596TIP3    H1 7794   5.758   1.466   0.447 -0.5531  0.8037  0.3916
 2596TIP3    H2 7795   5.615   1.422   0.471 -0.3615 -0.0872 -0.0476
 2597TIP3   OH2 7796   4.907   0.371   1.565 -0.3279 -0.1392 -0.3744
 2597TIP3    H1 7797   4.999   0.346   1.555 -0.3600  0.0206 -1.0963
 2597TIP3    H2 7798   4.872   0.308   1.628 -0.2096 -1.4233 -1.5674
 2598TIP3   OH2 7799   0.442   0.970   1.926  0.0992  0.2762 -0.2723
 2598TIP3    H1 7800   0.526   1.013   1.944  0.6644 -0.8171 -0.2300
 2598TIP3    H2 7801   0.451   0.883   1.966 -0.5403 -0.3377 -1.4407
 2599TIP3   OH2 7802   0.086   5.334   1.854 -0.8284 -0.2866  0.0713
 2599TIP3    H1 7803   0.020   5.350   1.786 -0.0690 -0.1407 -0.6431
 2599TIP3    H2 7804   0.087   5.238   1.863 -0.9168 -0.3077 -0.1325
 2600TIP3   OH2 7805   3.464   0.955   4.804  0.1471  0.7918  0.0340
 2600TIP3    H1 7806   3.384   1.002   4.785  0.7299  2.2886  1.1090
 2600TIP3    H2 7807   3.499   0.997   4.882  0.5747 -1.6009  1.2508
 2601TIP3   OH2 7808   0.071   0.445   0.450 -0.6415  0.3183 -0.3305
 2601TIP3    H1 7809   0.082   0.463   0.543  0.1101 -0.8958 -0.1520
 2601TIP3    H2 7810  -0.014   0.401   0.444  0.8060 -2.8927  0.3830
 2602TIP3   OH2 7811   1.730   1.109   0.274  0.1886 -0.3211  0.4963
 2602TIP3    H1 7812   1.817   1.148   0.267  0.0134  0.0792  0.5354
 2602TIP3    H2 7813   1.743   1.018   0.248  0.4756 -0.0767 -0.2420
 2603TIP3   OH2 7814   3.908   5.310   0.333  0.3994  0.0111 -0.4667
 2603TIP3    H1 7815   3.948   5.244   0.276  0.9236 -0.6439  0.6373
 2603TIP3    H2 7816   3.817   5.281   0.343  0.8438 -1.0374  0.7031
 2604TIP3   OH2 7817   4.422   5.614   4.166  0.0681 -0.3298  0.2166
 2604TIP3    H1 7818   4.449   5.523   4.156  0.3246 -0.3299  0.8785
 2604TIP3    H2 7819   4.440   5.635   4.257  1.4650  0.8514 -0.2956
 2605TIP3   OH2 7820   5.753   2.637   3.344  0.4300  0.3658  0.1090
 2605TIP3    H1 7821   5.726   2.548   3.321  1.2954 -0.4059  1.8687
 2605TIP3    H2 7822   5.673   2.679   3.375  0.3975 -0.5121  1.2719
 2606TIP3   OH2 7823   6.195   3.582   0.476 -0.3097 -0.2841 -0.5933
 2606TIP3    H1 7824   6.272   3.544   0.435 -1.0219 -2.0841 -0.3461
 2606TIP3    H2 7825   6.139   3.607   0.403  0.5748  1.3141 -0.7845
 2607TIP3   OH2 7826   2.752   1.206   1.936 -0.4758  0.1194  0.3138
 2607TIP3    H1 7827   2.745   1.219   1.842 -1.3136  0.8562  0.4576
 2607TIP3    H2 7828   2.813   1.133   1.947  0.1943  0.5045 -0.7687
 2608TIP3   OH2 7829   5.544   1.110   4.472 -0.0794 -0.3174  0.0083
 2608TIP3    H1 7830   5.586   1.145   4.551 -0.0106  0.3451 -0.3156
 2608TIP3    H2 7831   5.458   1.080   4.502 -1.2996  2.6800 -0.1783
 2609TIP3   OH2 7832   1.449   1.745   2.381  0.6022 -1.0694 -0.0579
 2609TIP3    H1 7833   1.454   1.660   2.427  4.3047 -0.8863  0.2250
 2609TIP3    H2 7834   1.540   1.775   2.378 -0.4631  2.4738 -1.0483
 2610TIP3   OH2 7835   3.816   5.487   5.136  0.6528  0.6553 -0.2289
 2610TIP3    H1 7836   3.799   5.414   5.076  0.2494  1.0191 -0.5586
 2610TIP3    H2 7837   3.825   5.445   5.222  2.9009 -0.0616 -0.7438
 2611TIP3   OH2 7838   2.688   1.238   5.092  0.0475  0.0500 -0.1984
 2611TIP3    H1 7839   2.674   1.308   5.028 -0.1549 -0.0876 -0.3062
 2611TIP3    H2 7840   2.682   1.157   5.040  0.1570 -0.0508 -0.0531
 2612TIP3   OH2 7841   3.621   0.228   3.277 -0.1014  1.2562 -0.1237
 2612TIP3    H1 7842   3.668   0.205   3.358 -0.0777 -0.1461 -0.5096
 2612TIP3    H2 7843   3.686   0.217   3.208 -1.2673 -2.4743 -0.9018
 2613TIP3   OH2 7844   6.233   5.098   4.076  0.2607 -0.5091  0.4561
 2613TIP3    H1 7845   6.306   5.036   4.076 -0.5785 -1.5814 -1.8029
 2613TIP3    H2 7846   6.220   5.120   3.984  0.0013  2.4701  1.1054
 2614TIP3   OH2 7847   6.085   0.245   1.953  0.7720 -0.0212  0.1979
 2614TIP3    H1 7848   6.103   0.266   1.861  3.2586 -2.1564  0.0664
 2614TIP3    H2 7849   6.129   0.161   1.967 -1.0739 -0.6549  2.8981
 2615TIP3   OH2 7850   3.063   4.701   4.518  0.3499  0.2247 -0.0194
 2615TIP3    H1 7851   3.053   4.708   4.424 -0.9723  1.9783  0.2056
 2615TIP3    H2 7852   3.019   4.618   4.540 -0.0703  0.2200 -0.8399
 2616TIP3   OH2 7853   4.801   0.313   3.776 -0.7112  0.0931  0.3094
 2616TIP3    H1 7854   4.835   0.399   3.748 -0.8208  0.9836  2.6358
 2616TIP3    H2 7855   4.709   0.314   3.752 -0.6175  0.4592 -0.0462
 2617TIP3   OH2 7856   1.343   3.766   1.186 -0.0023 -0.5180 -0.6561
 2617TIP3    H1 7857   1.376   3.696   1.130 -1.0992 -0.8692 -0.8892
 2617TIP3    H2 7858   1.390   3.755   1.269 -0.5379 -1.8621 -0.5110
 2618TIP3   OH2 7859   2.843   4.012   1.911  0.2709 -0.2352  0.2697
 2618TIP3    H1 7860   2.879   4.010   2.000  2.0821  1.1347 -0.3895
 2618TIP3    H2 7861   2.851   3.922   1.881  0.8863 -0.4486  1.0209
 2619TIP3   OH2 7862   1.857   1.997   4.494 -1.0624  0.7842  0.0530
 2619TIP3    H1 7863   1.917   2.036   4.430 -1.0571  1.4564  0.4616
 2619TIP3    H2 7864   1.779   2.053   4.491 -1.7344 -0.1470 -0.5532
 2620TIP3   OH2 7865   5.984   5.883   1.892 -0.1834 -0.2635 -0.3778
 2620TIP3    H1 7866   6.003   5.836   1.973 -0.8226 -1.1714 -0.7478
 2620TIP3    H2 7867   5.900   5.926   1.908  1.1529  2.2293  0.5799
 2621TIP3   OH2 7868   4.727   3.384   1.186  0.1736  0.2393  0.1542
 2621TIP3    H1 7869   4.689   3.331   1.115 -0.6037  1.5796 -0.4755
 2621TIP3    H2 7870   4.653   3.401   1.244 -0.0052  2.0052 -0.5323
 2622TIP3   OH2 7871   3.780   3.457   3.474  0.2962 -0.1378 -0.0877
 2622TIP3    H1 7872   3.752   3.375   3.434  1.1855 -0.4063 -0.1986
 2622TIP3    H2 7873   3.845   3.493   3.413  0.7001  0.1066  0.4682
 2623TIP3   OH2 7874   2.310   2.769   4.621  0.0048  0.3161 -0.4955
 2623TIP3    H1 7875   2.271   2.855   4.637 -0.3950  0.0800 -0.1703
 2623TIP3    H2 7876   2.303   2.756   4.527  1.5077  1.3152 -0.7823
 2624TIP3   OH2 7877   4.373   3.386   1.601 -0.0346  0.3650 -1.1484
 2624TIP3    H1 7878   4.293   3.412   1.648 -0.4289 -0.1863 -1.5112
 2624TIP3    H2 7879   4.435   3.364   1.671 -0.6406 -0.5102 -0.8688
 2625TIP3   OH2 7880   2.831   2.860   3.064 -0.3815  0.3129 -0.0057
 2625TIP3    H1 7881   2.897   2.929   3.072  0.0914  0.1057 -1.6115
 2625TIP3    H2 7882   2.830   2.839   2.970 -0.1340 -2.1976  0.4722
 2626TIP3   OH2 7883   5.831   0.184   0.756 -0.6679  0.1674 -0.5226
 2626TIP3    H1 7884   5.739   0.206   0.740 -0.8357 -0.1732 -0.0808
 2626TIP3    H2 7885   5.878   0.266   0.744 -0.7956  0.0110 -2.3952
 2627TIP3   OH2 7886   0.379   1.616   3.023  0.2136 -0.0737  0.0277
 2627TIP3    H1 7887   0.303   1.559   3.034  0.2874  0.1490  1.8707
 2627TIP3    H2 7888   0.429   1.576   2.952 -1.8636  0.0751 -1.6257
 2628TIP3   OH2 7889   0.756   1.959   1.687  0.8830 -0.3552  0.2194
 2628TIP3    H1 7890   0.830   1.907   1.655  2.1186  1.3796  0.1708
 2628TIP3    H2 7891   0.750   2.032   1.626 -0.8838 -0.4334  0.2426
 2629TIP3   OH2 7892   2.105   4.618   0.512  0.2077  0.5914  0.5371
 2629TIP3    H1 7893   2.104   4.543   0.572  0.0764  0.5023  0.4256
 2629TIP3    H2 7894   2.055   4.686   0.558 -0.0796  0.4507  0.4399
 2630TIP3   OH2 7895   2.620   5.395   4.858 -0.0561  0.7146  0.0485
 2630TIP3    H1 7896   2.654   5.455   4.925  1.4593 -1.3672  1.2767
 2630TIP3    H2 7897   2.537   5.364   4.894  0.5062 -0.0029  0.7812
 2631TIP3   OH2 7898   1.068   2.285   0.798 -0.1924  0.1185 -0.2670
 2631TIP3    H1 7899   1.109   2.228   0.862 -0.8038  0.4515  0.4458
 2631TIP3    H2 7900   1.130   2.290   0.725  1.1678  0.8465  0.8935
 2632TIP3   OH2 7901   1.830   3.433   2.276 -0.7275 -0.2456  0.3952
 2632TIP3    H1 7902   1.755   3.434   2.216 -0.9730 -0.2834  0.7000
 2632TIP3    H2 7903   1.792   3.414   2.361 -0.3589 -0.3366  0.5393
 2633TIP3   OH2 7904   4.785   1.306   2.978 -0.2216 -0.2764 -0.6910
 2633TIP3    H1 7905   4.778   1.248   2.902 -2.1039 -0.1233 -0.6912
 2633TIP3    H2 7906   4.780   1.248   3.054  2.5515 -0.5241 -0.5987
 2634TIP3   OH2 7907   1.439   1.907   1.619 -0.1058 -0.3579 -0.2178
 2634TIP3    H1 7908   1.366   1.922   1.678  0.0460  0.3419 -0.1976
 2634TIP3    H2 7909   1.401   1.913   1.531  0.1639  1.4770 -0.2460
 2635TIP3   OH2 7910   5.748   5.986   3.576  0.4174  0.3188 -0.1119
 2635TIP3    H1 7911   5.828   5.983   3.629  0.4800  1.2296 -0.1335
 2635TIP3    H2 7912   5.742   5.899   3.537  1.3714  0.2166 -0.0652
 2636TIP3   OH2 7913   5.329   3.659   0.597 -0.2331  0.0829  0.1420
 2636TIP3    H1 7914   5.371   3.744   0.609  1.1848 -0.7662  1.6185
 2636TIP3    H2 7915   5.335   3.643   0.502  0.3345  1.2029 -0.0320
 2637TIP3   OH2 7916   1.717   4.305   0.460 -0.0177  0.3597  0.7628
 2637TIP3    H1 7917   1.807   4.335   0.470 -0.4006  1.2830  1.7976
 2637TIP3    H2 7918   1.687   4.347   0.379  0.9480 -1.2796 -0.4971
 2638TIP3   OH2 7919   3.973   2.986   4.663  0.7398  0.2091  0.0014
 2638TIP3    H1 7920   3.880   2.965   4.660  0.4594  0.5309  3.0444
 2638TIP3    H2 7921   4.017   2.905   4.638 -0.3139  0.1725 -1.8814
 2639TIP3   OH2 7922   1.980   4.991   0.270  0.3861 -0.0921 -0.1980
 2639TIP3    H1 7923   2.041   4.985   0.344 -1.3530 -0.5827  1.3002
 2639TIP3    H2 7924   1.962   5.085   0.262 -0.6777 -0.1380  1.1752
 2640TIP3   OH2 7925   1.104   2.952   0.630  0.0563 -0.7975 -0.1765
 2640TIP3    H1 7926   1.152   2.928   0.709  1.2079 -1.4184 -1.0282
 2640TIP3    H2 7927   1.055   2.872   0.607 -0.5985 -0.4886  0.1267
 2641TIP3   OH2 7928   0.971   5.195   2.160 -0.6496  0.0969  0.1837
 2641TIP3    H1 7929   0.923   5.248   2.223 -0.2645 -2.0195  2.4174
 2641TIP3    H2 7930   1.048   5.248   2.137 -0.3905  0.6288  2.1264
 2642TIP3   OH2 7931   5.811   3.067   2.899 -0.2340  0.0889 -0.3531
 2642TIP3    H1 7932   5.757   3.145   2.890 -2.3817 -1.2685  0.1707
 2642TIP3    H2 7933   5.762   2.998   2.855  1.6386 -0.9969 -0.8608
 2643TIP3   OH2 7934   1.127   0.063   3.188  0.3584  0.1592 -0.3610
 2643TIP3    H1 7935   1.089  -0.022   3.166  0.5528 -0.7501  2.3781
 2643TIP3    H2 7936   1.219   0.055   3.164  0.0510  0.2322 -1.6289
 2644TIP3   OH2 7937   0.439   0.987   0.306  0.2174  0.0882 -0.8168
 2644TIP3    H1 7938   0.499   0.912   0.300  2.3033  1.5570  0.1984
 2644TIP3    H2 7939   0.496   1.061   0.327 -2.1051  1.4347  1.2384
 2645TIP3   OH2 7940   2.861   3.792   4.795 -0.6658 -0.4562  0.6120
 2645TIP3    H1 7941   2.774   3.762   4.820 -1.0102  0.7127  0.8588
 2645TIP3    H2 7942   2.860   3.795   4.700 -1.1506  0.2623  0.6343
 2646TIP3   OH2 7943   2.825   1.527   0.243 -0.4083 -0.4396 -0.5666
 2646TIP3    H1 7944   2.843   1.616   0.271 -0.1813 -0.9992  1.1744
 2646TIP3    H2 7945   2.877   1.516   0.163  1.2409  0.3297  0.3485
 2647TIP3   OH2 7946   1.810   2.866   4.929 -0.7908 -0.0952  0.0357
 2647TIP3    H1 7947   1.822   2.809   5.006 -0.9181  1.0494  0.9287
 2647TIP3    H2 7948   1.790   2.952   4.966 -0.5273  0.5571 -1.2857
 2648TIP3   OH2 7949  -0.009   1.439   4.401  0.3887 -0.1905 -0.1443
 2648TIP3    H1 7950  -0.020   1.437   4.496 -2.0069 -1.9526 -0.3545
 2648TIP3    H2 7951   0.085   1.451   4.388  0.7516  0.2986  2.4325
 2649TIP3   OH2 7952   1.677   5.455   0.099  0.0329 -0.1724 -0.2557
 2649TIP3    H1 7953   1.609   5.487   0.040  0.0118  1.0416  0.3888
 2649TIP3    H2 7954   1.659   5.498   0.183  0.8922 -0.7584  0.2542
 2650TIP3   OH2 7955   3.194   3.503   4.478 -0.0224  0.0529 -0.5760
 2650TIP3    H1 7956   3.204   3.598   4.484 -0.9216  0.1778 -0.9168
 2650TIP3    H2 7957   3.103   3.490   4.449  0.1159 -0.9059 -0.6122
 2651TIP3   OH2 7958   5.276   5.955   4.522 -0.4082 -0.1468  0.4360
 2651TIP3    H1 7959   5.229   6.007   4.456  0.5085 -2.7586 -2.5679
 2651TIP3    H2 7960   5.209   5.896   4.558 -1.0650  1.7522  2.5344
 2652TIP3   OH2 7961   2.543   3.925   1.552  0.0545 -0.1325 -0.0946
 2652TIP3    H1 7962   2.473   3.985   1.578  0.1196 -0.0827 -0.0343
 2652TIP3    H2 7963   2.608   3.981   1.509 -0.1034 -0.2291 -0.4707
 2653TIP3   OH2 7964   0.374   5.894   0.854 -0.6265  0.1680 -0.2169
 2653TIP3    H1 7965   0.446   5.939   0.810  1.3380  0.0873  2.6973
 2653TIP3    H2 7966   0.408   5.807   0.873 -1.5942  0.0309  0.9957
 2654TIP3   OH2 7967   5.182   3.243   2.197 -0.4943  0.0888  0.7969
 2654TIP3    H1 7968   5.160   3.310   2.262  0.1012 -0.0337  1.1368
 2654TIP3    H2 7969   5.113   3.177   2.207  0.2216 -0.5122  2.1619
 2655TIP3   OH2 7970   5.954   1.936   4.396 -0.2493 -0.0400  0.0557
 2655TIP3    H1 7971   5.973   1.859   4.451  0.5446 -0.1195 -0.3192
 2655TIP3    H2 7972   5.964   2.010   4.456  0.8284 -0.1103 -0.0114
 2656TIP3   OH2 7973   4.507   4.750   1.129  0.4602  0.5257 -0.1614
 2656TIP3    H1 7974   4.574   4.716   1.069  0.3618  1.5479 -0.8735
 2656TIP3    H2 7975   4.438   4.683   1.128  0.6944  0.2905 -0.7963
 2657TIP3   OH2 7976   3.123   0.257   3.217 -0.5489  0.4482  0.0007
 2657TIP3    H1 7977   3.065   0.333   3.225  0.8948  1.5888 -0.0906
 2657TIP3    H2 7978   3.209   0.289   3.244  0.4950 -0.6299 -1.8623
 2658TIP3   OH2 7979   2.703   2.779   1.326 -0.5660 -0.8007  0.1269
 2658TIP3    H1 7980   2.726   2.801   1.236  2.0771 -1.9053  0.4437
 2658TIP3    H2 7981   2.643   2.704   1.318  0.3015 -1.4249 -0.7278
 2659TIP3   OH2 7982   3.730   4.920   0.724  0.7527  0.3273 -0.2792
 2659TIP3    H1 7983   3.711   5.005   0.686  0.1608  1.3235  2.0732
 2659TIP3    H2 7984   3.821   4.925   0.753  0.9556 -0.1207 -0.8297
 2660TIP3   OH2 7985   1.089   1.813   3.412 -0.6665  0.2068 -0.0102
 2660TIP3    H1 7986   1.082   1.904   3.382 -0.2374  0.4973  0.7460
 2660TIP3    H2 7987   1.182   1.803   3.436 -0.8377 -0.2531  0.4788
 2661TIP3   OH2 7988   5.368   2.935   2.346 -0.2774 -0.4435  0.3381
 2661TIP3    H1 7989   5.411   2.924   2.430 -0.0260  0.7992  0.3909
 2661TIP3    H2 7990   5.439   2.947   2.283 -0.4853 -0.7291  0.0404
 2662TIP3   OH2 7991   5.199   5.417   4.342  0.4455  0.4567  0.2126
 2662TIP3    H1 7992   5.267   5.363   4.303 -1.1213 -0.2300 -1.7195
 2662TIP3    H2 7993   5.230   5.507   4.332  0.9562  0.1671 -0.8716
 2663TIP3   OH2 7994   0.666   0.796   3.293 -0.2918 -0.2907  0.1301
 2663TIP3    H1 7995   0.760   0.780   3.288 -0.2849 -0.3872  0.5162
 2663TIP3    H2 7996   0.656   0.860   3.363 -0.3303  1.4180 -1.3807
 2664TIP3   OH2 7997   3.773   0.876   3.370 -1.1099 -0.2113  0.5686
 2664TIP3    H1 7998   3.713   0.910   3.304  0.3166 -0.3462 -0.8583
 2664TIP3    H2 7999   3.842   0.943   3.376  1.3571 -2.3129 -1.7483
 2665TIP3   OH2 8000   4.972   2.063   4.435  0.1936  0.0683  0.3138
 2665TIP3    H1 8001   5.032   2.125   4.477  0.9940  0.2095 -0.9855
 2665TIP3    H2 8002   4.890   2.072   4.484  0.9880  0.4456  1.6249
 2666TIP3   OH2 8003   3.912   0.713   5.156 -0.1725 -0.0175 -0.3660
 2666TIP3    H1 8004   3.834   0.746   5.111  0.3091 -1.2247 -2.1759
 2666TIP3    H2 8005   3.976   0.698   5.086  1.1283 -0.6026  0.8983
 2667TIP3   OH2 8006   3.936   0.928   2.603  0.0738  0.2611 -0.3825
 2667TIP3    H1 8007   4.007   0.978   2.563  0.1219  0.1506 -0.4355
 2667TIP3    H2 8008   3.979   0.870   2.665 -0.0993  1.2439  0.6886
 2668TIP3   OH2 8009   1.501   4.458   4.977 -0.3189 -0.1021 -0.2273
 2668TIP3    H1 8010   1.447   4.383   5.002  1.5390 -1.1593  0.8434
 2668TIP3    H2 8011   1.543   4.432   4.896 -0.7331  0.3729 -0.6021
 2669TIP3   OH2 8012   5.953   1.855   2.450 -0.2018 -0.0422  0.0627
 2669TIP3    H1 8013   5.909   1.924   2.500 -0.0087  0.6660 -0.7316
 2669TIP3    H2 8014   6.026   1.899   2.407 -0.4252 -0.6140 -0.9265
 2670TIP3   OH2 8015   5.033   1.612   2.878 -0.2815 -0.3923  0.3797
 2670TIP3    H1 8016   5.096   1.684   2.879 -0.1961 -0.4108 -0.9360
 2670TIP3    H2 8017   5.069   1.547   2.939 -0.1520  0.4948  1.2583
 2671TIP3   OH2 8018   1.785   2.278   4.299 -0.5144  0.0376  0.1437
 2671TIP3    H1 8019   1.807   2.215   4.230 -1.0848 -1.5449  1.3578
 2671TIP3    H2 8020   1.814   2.362   4.264  1.6862 -1.0765 -0.9070
 2672TIP3   OH2 8021   3.159   1.784   1.407  0.0302  0.1833 -0.2294
 2672TIP3    H1 8022   3.102   1.734   1.349  0.0254 -1.1591  0.8971
 2672TIP3    H2 8023   3.245   1.782   1.364  0.3341 -1.8979  0.3647
 2673TIP3   OH2 8024   1.500   1.509   4.226  0.1994 -0.7322  0.1932
 2673TIP3    H1 8025   1.587   1.544   4.206 -0.7966  1.6614 -0.3186
 2673TIP3    H2 8026   1.475   1.556   4.306 -0.7635 -1.1107  0.1143
 2674TIP3   OH2 8027   0.072   5.746   3.699  0.0703 -0.1680  0.7644
 2674TIP3    H1 8028   0.022   5.758   3.619 -1.6798 -1.6735  1.5333
 2674TIP3    H2 8029   0.061   5.828   3.747  0.9433  0.6546 -0.3922
 2675TIP3   OH2 8030   4.122   4.342   3.479  0.4615  0.1318 -1.0543
 2675TIP3    H1 8031   4.148   4.249   3.484  2.8786  0.7881  0.4696
 2675TIP3    H2 8032   4.170   4.384   3.550 -2.3620  2.2327 -0.1898
 2676TIP3   OH2 8033   3.133   0.037   4.547  0.1389  0.1192 -0.6795
 2676TIP3    H1 8034   3.226   0.057   4.532  0.8574 -0.8299  1.9421
 2676TIP3    H2 8035   3.119   0.057   4.640 -2.4396  0.7039 -1.1321
 2677TIP3   OH2 8036   2.461   3.140   2.613 -0.2378 -0.2259  0.0804
 2677TIP3    H1 8037   2.403   3.116   2.685 -1.9328 -0.1203 -1.1970
 2677TIP3    H2 8038   2.493   3.227   2.637  0.6680 -0.9180  1.5385
 2678TIP3   OH2 8039   3.534   1.808   1.056 -0.0294 -0.0074 -0.1894
 2678TIP3    H1 8040   3.484   1.887   1.033 -0.6856 -0.3200  0.1393
 2678TIP3    H2 8041   3.625   1.833   1.041 -0.3304  0.2824 -1.6450
 2679TIP3   OH2 8042   1.485   4.145   1.457 -0.1042  0.4180 -0.1354
 2679TIP3    H1 8043   1.578   4.144   1.479 -0.3837 -0.5909  1.1399
 2679TIP3    H2 8044   1.482   4.122   1.364  0.8995 -0.0854 -0.0611
 2680TIP3   OH2 8045   1.368   3.346   0.869 -0.1109 -0.1539  0.4000
 2680TIP3    H1 8046   1.358   3.398   0.790  0.6976 -0.6984 -0.0681
 2680TIP3    H2 8047   1.460   3.320   0.871 -0.2179 -0.5395  1.2697
 2681TIP3   OH2 8048   2.760   0.805   0.687 -0.6607 -0.5783  0.6145
 2681TIP3    H1 8049   2.728   0.883   0.732 -1.6800 -0.2211 -0.6654
 2681TIP3    H2 8050   2.757   0.829   0.594 -0.7374 -2.0552  0.2227
 2682TIP3   OH2 8051   2.479   1.599   0.224  0.4105 -0.4480 -0.7151
 2682TIP3    H1 8052   2.556   1.657   0.234  0.3599 -0.5891  0.7017
 2682TIP3    H2 8053   2.405   1.660   0.217  0.4136 -0.3052  0.2681
 2683TIP3   OH2 8054   2.883   5.147   4.093 -0.1440 -0.1342  0.3532
 2683TIP3    H1 8055   2.920   5.230   4.062  1.1355 -0.4788  0.8876
 2683TIP3    H2 8056   2.905   5.084   4.024  1.8104 -0.6871  1.4085
 2684TIP3   OH2 8057   3.409   2.765   0.331 -0.4198  0.0913 -0.1755
 2684TIP3    H1 8058   3.443   2.791   0.246 -0.6848  3.1605  0.5288
 2684TIP3    H2 8059   3.322   2.806   0.336 -0.5858 -0.3669  1.3987
 2685TIP3   OH2 8060   1.671   2.935   1.637  0.9874 -0.2286 -0.0105
 2685TIP3    H1 8061   1.627   2.863   1.682 -1.2288  1.4370  0.6736
 2685TIP3    H2 8062   1.637   2.931   1.547 -1.5202  1.5996  0.7324
 2686TIP3   OH2 8063   5.408   1.552   1.896 -0.1797 -0.2679 -0.3094
 2686TIP3    H1 8064   5.451   1.514   1.973 -0.7656  0.0734  0.1958
 2686TIP3    H2 8065   5.432   1.493   1.824 -0.6203 -1.2964  0.3557
 2687TIP3   OH2 8066   2.090   3.997   3.789  0.1771  0.0507  0.0982
 2687TIP3    H1 8067   2.013   4.051   3.802  1.5107  2.2308 -0.6492
 2687TIP3    H2 8068   2.056   3.908   3.777 -2.2898  1.1395 -1.5195
 2688TIP3   OH2 8069   0.470   3.258   4.086 -0.4140 -0.0954  0.4506
 2688TIP3    H1 8070   0.535   3.218   4.028 -0.0370 -0.7045  1.2707
 2688TIP3    H2 8071   0.417   3.313   4.028 -0.1194 -0.7641 -0.4855
 2689TIP3   OH2 8072   6.219   4.731   4.156  0.3339 -0.3452  0.9332
 2689TIP3    H1 8073   6.310   4.761   4.166 -0.2057  1.3751  1.0626
 2689TIP3    H2 8074   6.190   4.714   4.245  1.0133 -2.6032  0.7888
 2690TIP3   OH2 8075   2.468   4.207   1.332 -0.6957  0.2739 -0.4667
 2690TIP3    H1 8076   2.490   4.161   1.251  2.2245 -1.1052  0.9464
 2690TIP3    H2 8077   2.404   4.151   1.374 -1.2500  0.3261 -1.2239
 2691TIP3   OH2 8078   3.321   5.000   1.293 -0.3387 -0.1384  0.0657
 2691TIP3    H1 8079   3.337   5.039   1.208  0.5034  2.7439  1.4124
 2691TIP3    H2 8080   3.234   5.030   1.318 -0.1078  0.0224  0.7054
 2692TIP3   OH2 8081   4.375   1.217   4.256  0.1485 -0.3921 -0.1279
 2692TIP3    H1 8082   4.419   1.299   4.276  0.9394 -0.6666 -0.6967
 2692TIP3    H2 8083   4.343   1.228   4.166  1.6744 -1.2670 -0.8305
 2693TIP3   OH2 8084   0.449   0.759   3.894  0.2528 -0.3924 -0.4071
 2693TIP3    H1 8085   0.419   0.848   3.912  0.3542 -0.1135 -1.5323
 2693TIP3    H2 8086   0.370   0.710   3.875  0.2697 -0.3192 -0.6726
 2694TIP3   OH2 8087   4.971   2.128   2.929  0.1364 -0.3499  0.6286
 2694TIP3    H1 8088   4.929   2.044   2.947  0.2674 -0.7652 -0.9191
 2694TIP3    H2 8089   4.979   2.132   2.834  0.5459  1.2224  0.6965
 2695TIP3   OH2 8090   0.144   0.307   1.367 -0.6902 -0.0955  0.5485
 2695TIP3    H1 8091   0.103   0.385   1.403 -2.1450 -1.5315  2.2125
 2695TIP3    H2 8092   0.077   0.268   1.311  0.5067  0.5057 -1.4179
 2696TIP3   OH2 8093   5.730   2.385   2.116 -0.3187 -0.4424 -0.0835
 2696TIP3    H1 8094   5.748   2.301   2.157  0.4997 -0.1923  0.0874
 2696TIP3    H2 8095   5.816   2.423   2.100 -0.6658  1.3132  1.8426
 2697TIP3   OH2 8096   5.865   4.737   2.299  0.0093 -0.3726  0.0471
 2697TIP3    H1 8097   5.837   4.738   2.207 -0.1973  1.0976  0.1099
 2697TIP3    H2 8098   5.860   4.828   2.327  0.7664 -0.6974  1.3196
 2698TIP3   OH2 8099   1.927   5.548   1.664  0.2272 -0.3640 -0.1248
 2698TIP3    H1 8100   2.015   5.513   1.654 -0.0889 -0.9486 -1.1076
 2698TIP3    H2 8101   1.886   5.532   1.579 -0.1488  1.8524 -0.4149
 2699TIP3   OH2 8102   4.228   5.032   3.336  0.1554  0.4336  0.1632
 2699TIP3    H1 8103   4.200   5.102   3.277 -2.5128 -0.0202  0.7813
 2699TIP3    H2 8104   4.285   5.076   3.399 -0.8857  1.9382  0.1179
 2700TIP3   OH2 8105   3.270   3.788   4.505  0.1240 -0.1199 -0.0560
 2700TIP3    H1 8106   3.331   3.793   4.431 -1.5535 -2.2382 -1.7211
 2700TIP3    H2 8107   3.308   3.845   4.571  3.8044 -1.1194 -1.0507
 2701TIP3   OH2 8108   4.806   4.002   2.690 -0.8200 -0.0761  0.0059
 2701TIP3    H1 8109   4.730   4.054   2.715  0.2626  1.2839  0.5555
 2701TIP3    H2 8110   4.778   3.911   2.704 -2.9726  0.2611 -1.6412
 2702TIP3   OH2 8111   2.814   0.903   5.039 -0.3165  0.0268 -0.3082
 2702TIP3    H1 8112   2.865   0.839   4.988  0.0928  0.0599  0.0602
 2702TIP3    H2 8113   2.819   0.983   4.987  1.4388  0.5177  0.5212
 2703TIP3   OH2 8114   5.433   0.918   1.032  0.0174 -0.3642  0.1606
 2703TIP3    H1 8115   5.495   0.991   1.041  1.4383 -1.4011 -0.8192
 2703TIP3    H2 8116   5.361   0.954   0.981  2.1606 -0.3677 -3.1848
 2704TIP3   OH2 8117   4.206   4.827   0.704 -0.4622 -0.4378 -0.9573
 2704TIP3    H1 8118   4.149   4.791   0.636 -0.3386 -0.7917 -0.8798
 2704TIP3    H2 8119   4.263   4.753   0.728  1.1008  0.3141 -2.1557
 2705TIP3   OH2 8120   5.249   5.598   1.645 -0.0342 -0.2834 -0.0301
 2705TIP3    H1 8121   5.342   5.599   1.668 -0.0216 -0.7706 -0.0456
 2705TIP3    H2 8122   5.245   5.545   1.565 -0.0249  1.6957 -1.4032
 2706TIP3   OH2 8123   5.865   2.358   4.326 -0.8700 -0.9297 -0.1755
 2706TIP3    H1 8124   5.818   2.384   4.247  1.2380 -0.4246 -1.3149
 2706TIP3    H2 8125   5.907   2.275   4.303 -2.7148 -2.4448  1.4914
 2707TIP3   OH2 8126   1.803   3.110   4.453  0.3023  0.3581  0.5905
 2707TIP3    H1 8127   1.860   3.165   4.400 -0.0304  1.1301  1.0249
 2707TIP3    H2 8128   1.717   3.152   4.448 -0.7661 -1.8079 -1.6422
 2708TIP3   OH2 8129   2.309   5.816   3.719 -0.7186 -0.5402  0.2294
 2708TIP3    H1 8130   2.329   5.772   3.636  1.2417 -0.8266  0.8044
 2708TIP3    H2 8131   2.258   5.751   3.768 -1.6595 -0.4690 -0.6140
 2709TIP3   OH2 8132   5.349   0.748   2.132 -0.2643 -0.3610 -0.4844
 2709TIP3    H1 8133   5.291   0.803   2.080  0.3721 -0.6434 -1.5266
 2709TIP3    H2 8134   5.317   0.659   2.116 -0.8648 -0.3739  0.6531
 2710TIP3   OH2 8135   3.792   3.584   4.912  0.6020 -0.4322  0.1264
 2710TIP3    H1 8136   3.777   3.599   4.819 -0.3830 -0.3759  0.2838
 2710TIP3    H2 8137   3.725   3.638   4.956  2.1762  0.9708  0.9247
 2711TIP3   OH2 8138   1.087   3.766   1.302  0.0872  0.2471 -0.1209
 2711TIP3    H1 8139   1.180   3.743   1.299 -0.0129 -0.3361  0.7278
 2711TIP3    H2 8140   1.057   3.757   1.212  1.0484  1.3082 -0.5557
 2712TIP3   OH2 8141   2.411   1.957   1.093 -0.2318  0.3082 -0.0969
 2712TIP3    H1 8142   2.421   1.992   1.004  1.2509 -0.7358 -0.3824
 2712TIP3    H2 8143   2.500   1.934   1.119 -0.6513  0.5939  1.6812
 2713TIP3   OH2 8144   1.546   0.700   4.300 -0.0342  0.4753  0.4757
 2713TIP3    H1 8145   1.564   0.760   4.228  0.5152 -0.1073  0.1055
 2713TIP3    H2 8146   1.624   0.644   4.304 -1.6677 -2.1295 -1.1207
 2714TIP3   OH2 8147   2.895   2.095   4.960  0.2741  0.2768  0.5282
 2714TIP3    H1 8148   2.927   2.184   4.971  0.4708  0.1541  1.0003
 2714TIP3    H2 8149   2.848   2.095   4.876 -0.5417  1.0507  0.9776
 2715TIP3   OH2 8150   5.852   3.399   0.111 -0.7488  0.0615  0.4451
 2715TIP3    H1 8151   5.884   3.312   0.086 -0.5784  0.3740 -0.4641
 2715TIP3    H2 8152   5.804   3.429   0.035  1.3614  1.8307 -0.3067
 2716TIP3   OH2 8153   4.487   5.962   4.498  0.3737  0.0663 -0.4285
 2716TIP3    H1 8154   4.483   5.867   4.487  0.2612  0.0286 -0.0654
 2716TIP3    H2 8155   4.473   5.997   4.410 -0.2895 -0.2329 -0.4436
 2717TIP3   OH2 8156   2.463   0.799   2.996  0.1012  0.7176  0.6110
 2717TIP3    H1 8157   2.519   0.849   3.055  0.0088  2.2293 -0.5160
 2717TIP3    H2 8158   2.519   0.777   2.922  0.8149 -2.9373  1.9968
 2718TIP3   OH2 8159   2.799   3.247   0.888 -0.0458 -0.4545  0.5840
 2718TIP3    H1 8160   2.757   3.228   0.804  0.3084 -0.9663  0.5183
 2718TIP3    H2 8161   2.750   3.195   0.952 -0.3075 -0.0744  0.6946
 2719TIP3   OH2 8162   3.435   4.223   2.187  0.6142  0.1148  0.5285
 2719TIP3    H1 8163   3.365   4.271   2.144  0.4265 -2.1338 -1.9010
 2719TIP3    H2 8164   3.417   4.234   2.281 -0.9575  2.3701  0.0499
 2720TIP3   OH2 8165   5.418   5.177   3.993  0.6672 -0.1996 -0.1936
 2720TIP3    H1 8166   5.397   5.255   3.941 -0.4800  0.5589  1.3278
 2720TIP3    H2 8167   5.476   5.126   3.936  2.0724  2.0763 -0.9757
 2721TIP3   OH2 8168   0.718   4.495   2.919  0.2972  0.4518 -0.1398
 2721TIP3    H1 8169   0.709   4.469   3.010  1.2048  0.0225 -0.1546
 2721TIP3    H2 8170   0.804   4.461   2.893  0.0295  0.5197 -1.1683
 2722TIP3   OH2 8171   1.463   2.279   1.530 -0.0723  0.6664  0.4667
 2722TIP3    H1 8172   1.390   2.236   1.575  0.1661  1.1092  1.3056
 2722TIP3    H2 8173   1.469   2.234   1.446  0.5400 -1.3409  1.5217
 2723TIP3   OH2 8174   2.887   3.425   4.227  0.2709 -0.3624 -0.1040
 2723TIP3    H1 8175   2.918   3.497   4.172  2.6018 -1.4466 -0.3291
 2723TIP3    H2 8176   2.875   3.352   4.166 -0.8120 -0.5528  0.3102
 2724TIP3   OH2 8177   3.773   3.717   2.853 -0.7035  0.4472 -0.4541
 2724TIP3    H1 8178   3.769   3.640   2.909  1.6365  0.5537 -0.0317
 2724TIP3    H2 8179   3.697   3.770   2.879 -0.7620 -0.3998  1.2478
 2725TIP3   OH2 8180   2.818   0.251   4.540 -0.3923 -0.0307 -0.4102
 2725TIP3    H1 8181   2.754   0.185   4.569  0.9103 -0.5071  1.5560
 2725TIP3    H2 8182   2.819   0.243   4.444 -2.0958 -1.1060 -0.3749
 2726TIP3   OH2 8183   3.237   0.334   4.827 -0.0411 -0.2784 -0.1209
 2726TIP3    H1 8184   3.316   0.321   4.774 -2.0366 -0.8903 -3.1800
 2726TIP3    H2 8185   3.195   0.248   4.830 -1.2994  0.3249  0.2462
 2727TIP3   OH2 8186   4.318   5.159   0.237 -0.5172 -0.0282 -0.6794
 2727TIP3    H1 8187   4.275   5.073   0.235 -1.6775  0.5434 -0.6970
 2727TIP3    H2 8188   4.391   5.147   0.298  1.0463 -1.7912 -2.6964
 2728TIP3   OH2 8189   2.960   5.379   2.089 -0.0520 -0.1494  0.0702
 2728TIP3    H1 8190   2.891   5.390   2.154 -0.0804 -1.4996  0.2963
 2728TIP3    H2 8191   2.917   5.393   2.005  0.3084  3.1899  0.3276
 2729TIP3   OH2 8192   2.009   3.648   1.376  0.1480 -0.7259 -0.3770
 2729TIP3    H1 8193   1.969   3.605   1.451 -0.7400 -0.7080 -0.8295
 2729TIP3    H2 8194   1.936   3.690   1.330  0.8281  0.2153 -0.6279
 2730TIP3   OH2 8195   4.992   0.288   4.350  0.3132 -0.6048 -0.0329
 2730TIP3    H1 8196   4.992   0.260   4.258 -0.0083  0.0323 -0.2392
 2730TIP3    H2 8197   4.991   0.207   4.400 -3.1146 -1.0604 -0.6020
 2731TIP3   OH2 8198   4.670   4.836   1.914 -0.0933 -0.0406 -0.0556
 2731TIP3    H1 8199   4.689   4.837   2.008  0.8745  0.5855 -0.2413
 2731TIP3    H2 8200   4.751   4.803   1.874 -0.6296 -0.6563 -0.6426
 2732TIP3   OH2 8201   0.735   3.323   1.767 -0.2036  0.2300 -0.1462
 2732TIP3    H1 8202   0.688   3.331   1.850  0.1834  0.3790  0.0613
 2732TIP3    H2 8203   0.804   3.258   1.785 -1.0611 -0.8903 -0.7850
 2733TIP3   OH2 8204   5.113   1.213   2.479 -0.2056  0.2937 -0.5216
 2733TIP3    H1 8205   5.079   1.136   2.525 -2.1148 -0.0402 -2.3487
 2733TIP3    H2 8206   5.112   1.282   2.545  0.2745 -0.9122  0.7922
 2734TIP3   OH2 8207   5.476   0.643   0.978 -0.3086 -0.2179  0.2365
 2734TIP3    H1 8208   5.435   0.596   1.051 -1.1650 -0.1217 -0.1714
 2734TIP3    H2 8209   5.452   0.735   0.993  4.4907  0.8994  3.2199
 2735TIP3   OH2 8210   1.336   2.884   0.039  0.1390  0.2835 -0.2308
 2735TIP3    H1 8211   1.402   2.816   0.054  1.1421  1.0217 -1.1849
 2735TIP3    H2 8212   1.376   2.943  -0.024 -1.1517  1.1732 -0.2525
 2736TIP3   OH2 8213   1.155   3.708   4.615 -0.3308  0.3924  0.2052
 2736TIP3    H1 8214   1.160   3.637   4.551  1.6603  1.2343 -0.6588
 2736TIP3    H2 8215   1.133   3.664   4.697  1.0415 -1.2920 -0.2591
 2737TIP3   OH2 8216   5.124   3.442   3.605 -0.1712 -0.0418 -0.3343
 2737TIP3    H1 8217   5.093   3.521   3.649 -1.5281 -1.2616  1.0731
 2737TIP3    H2 8218   5.051   3.415   3.549 -0.8154 -1.6296  1.1550
 2738TIP3   OH2 8219   2.849   2.413   1.370  0.2363 -0.7471  0.3215
 2738TIP3    H1 8220   2.903   2.361   1.310 -2.8498 -2.9978 -0.7436
 2738TIP3    H2 8221   2.819   2.487   1.318 -0.0437 -1.0973 -0.0239
 2739TIP3   OH2 8222   6.049   3.984   3.314 -0.2710  0.1890 -0.6854
 2739TIP3    H1 8223   6.061   3.901   3.268 -1.7207  0.3329 -1.3470
 2739TIP3    H2 8224   6.107   3.976   3.390  1.5779 -0.3632 -2.0781
 2740TIP3   OH2 8225   3.064   4.491   3.069 -0.2996  0.2507 -0.0967
 2740TIP3    H1 8226   3.142   4.460   3.115  0.1136 -0.0076 -0.9640
 2740TIP3    H2 8227   3.097   4.540   2.994 -0.8251 -3.1843 -2.8624
 2741TIP3   OH2 8228   4.452   2.668   3.888 -0.5312  0.2217  0.6136
 2741TIP3    H1 8229   4.438   2.643   3.979 -1.1854 -0.5790  0.3089
 2741TIP3    H2 8230   4.381   2.624   3.840 -0.6188  1.2092 -0.1922
 2742TIP3   OH2 8231   4.390   2.336   2.315 -0.0967  0.1110 -0.2613
 2742TIP3    H1 8232   4.365   2.407   2.256 -1.4202 -0.1474 -0.0463
 2742TIP3    H2 8233   4.357   2.256   2.273  0.5538 -0.2740 -0.0519
 2743TIP3   OH2 8234   5.784   4.889   3.001  0.0287 -0.2619  0.5756
 2743TIP3    H1 8235   5.827   4.815   2.958  0.9001  0.7133 -0.2922
 2743TIP3    H2 8236   5.851   4.927   3.057 -0.4494 -0.1793  1.1069
 2744TIP3   OH2 8237   3.726   3.481   2.962  0.7519  0.0112  0.3034
 2744TIP3    H1 8238   3.666   3.479   2.887  1.2708 -1.5497 -0.1131
 2744TIP3    H2 8239   3.687   3.419   3.024  2.3453 -1.7619 -0.3598
 2745TIP3   OH2 8240   4.571   1.773   2.606  0.3007  0.6803 -0.2573
 2745TIP3    H1 8241   4.498   1.713   2.586 -0.5693  0.7819  2.2696
 2745TIP3    H2 8242   4.594   1.811   2.521 -0.0837 -2.0988 -1.7413
 2746TIP3   OH2 8243   1.831   0.837   0.142 -0.1372 -0.2530 -0.4170
 2746TIP3    H1 8244   1.768   0.837   0.070  0.2466  1.0915 -0.7957
 2746TIP3    H2 8245   1.809   0.759   0.193 -1.2070 -0.5688 -1.2980
 2747TIP3   OH2 8246   0.317   0.914   0.929 -0.1744  0.0384 -0.2497
 2747TIP3    H1 8247   0.249   0.931   0.865  0.3429  1.6471 -0.4178
 2747TIP3    H2 8248   0.379   0.856   0.884 -1.4721 -1.5803 -0.0309
 2748TIP3   OH2 8249   0.532   0.238   2.248 -0.8940  0.1073  0.1720
 2748TIP3    H1 8250   0.501   0.303   2.184  0.2219  2.4463  1.8723
 2748TIP3    H2 8251   0.455   0.217   2.300 -0.6553  2.8415  1.8227
 2749TIP3   OH2 8252   0.093   0.821   0.383 -0.6945 -0.6114 -0.2506
 2749TIP3    H1 8253   0.032   0.794   0.314 -1.7009  0.2942  0.2639
 2749TIP3    H2 8254   0.056   0.786   0.464 -2.2944  2.4623  0.5168
 2750TIP3   OH2 8255   1.460   2.126   0.953  0.4204 -0.0912  0.3868
 2750TIP3    H1 8256   1.390   2.061   0.964  0.9808 -0.8736 -0.4874
 2750TIP3    H2 8257   1.505   2.098   0.874  1.8450  0.2885  1.0386
 2751TIP3   OH2 8258   4.150   2.197   0.592  0.7882 -0.2755  0.4041
 2751TIP3    H1 8259   4.216   2.164   0.532  0.9598  0.2013  0.3215
 2751TIP3    H2 8260   4.201   2.245   0.659  0.6127 -0.9167  1.0086
 2752TIP3   OH2 8261   0.703   5.442   1.344  0.0908  0.2589 -0.3495
 2752TIP3    H1 8262   0.726   5.375   1.280  0.4279  0.2330 -0.2004
 2752TIP3    H2 8263   0.774   5.441   1.408 -0.7152 -0.3889  0.5690
 2753TIP3   OH2 8264   0.382   2.695   0.996  0.5061 -1.0311 -0.2192
 2753TIP3    H1 8265   0.428   2.697   1.080 -0.3420  2.6820  0.3663
 2753TIP3    H2 8266   0.449   2.670   0.932  2.5338  0.8553  1.0224
 2754TIP3   OH2 8267   4.770   2.678   2.940  0.1098  0.5271  0.2177
 2754TIP3    H1 8268   4.714   2.610   2.978  0.3290  0.4939  0.4803
 2754TIP3    H2 8269   4.853   2.634   2.921 -0.0805  0.4800 -0.5403
 2755TIP3   OH2 8270   5.010   2.620   2.820 -0.2856 -0.2143 -0.8114
 2755TIP3    H1 8271   5.080   2.585   2.876  0.9260  2.2193 -0.6710
 2755TIP3    H2 8272   5.031   2.713   2.810 -1.3750 -0.1919 -4.0085
 2756TIP3   OH2 8273   6.201   3.288   3.345  0.0165  0.3197  0.0746
 2756TIP3    H1 8274   6.195   3.194   3.361  1.2293  0.1559 -0.2960
 2756TIP3    H2 8275   6.246   3.295   3.261 -0.2980  1.2344 -0.0269
 2757TIP3   OH2 8276   2.344   6.006   3.937 -0.2555  0.3407 -0.4061
 2757TIP3    H1 8277   2.323   5.963   3.854  1.4837 -1.2278 -0.0877
 2757TIP3    H2 8278   2.342   5.936   4.002 -1.9818  1.6032  1.0223
 2758TIP3   OH2 8279   3.683   5.852   1.649  0.3246  0.3730 -0.2169
 2758TIP3    H1 8280   3.698   5.945   1.636 -0.1377  0.7435  1.6088
 2758TIP3    H2 8281   3.759   5.822   1.700  0.9609 -0.4967 -1.5992
 2759TIP3   OH2 8282   0.711   2.895   2.300 -0.2143  0.0369  0.3261
 2759TIP3    H1 8283   0.699   2.929   2.211  1.0569  0.8090  0.4294
 2759TIP3    H2 8284   0.746   2.807   2.287 -1.9793 -0.6738  0.0742
 2760TIP3   OH2 8285   4.238   0.811   0.718  0.2463 -0.4145 -0.4282
 2760TIP3    H1 8286   4.230   0.717   0.705 -0.8305 -0.4332  0.2980
 2760TIP3    H2 8287   4.159   0.836   0.766  0.1271  0.9913 -1.3013
 2761TIP3   OH2 8288   4.546   3.863   0.328 -0.1645 -0.5911  0.2245
 2761TIP3    H1 8289   4.624   3.919   0.325 -1.5200  1.3713 -0.8707
 2761TIP3    H2 8290   4.561   3.806   0.403  1.9077  0.3303  0.6058
 2762TIP3   OH2 8291   4.802   4.908   0.347 -0.8085 -0.2175 -0.1455
 2762TIP3    H1 8292   4.755   4.840   0.298 -0.3949 -0.4851 -0.1792
 2762TIP3    H2 8293   4.842   4.963   0.280 -0.3205 -0.5283 -0.1112
 2763TIP3   OH2 8294   4.313   1.786   4.385 -0.5800 -0.0111 -0.1795
 2763TIP3    H1 8295   4.399   1.744   4.397 -1.0163 -0.4607  1.6425
 2763TIP3    H2 8296   4.320   1.869   4.431 -1.3736 -0.4357  0.7503
 2764TIP3   OH2 8297   1.737   0.416   0.826  0.0746  0.1360 -0.1245
 2764TIP3    H1 8298   1.786   0.420   0.908  1.7505 -1.6491 -0.9610
 2764TIP3    H2 8299   1.793   0.462   0.763  0.2110 -1.0169 -0.8741
 2765TIP3   OH2 8300   0.576   1.798   2.315  0.3082 -0.1763  0.5242
 2765TIP3    H1 8301   0.560   1.806   2.409 -0.1718  1.2968  0.3431
 2765TIP3    H2 8302   0.637   1.869   2.294  0.0737 -0.2138 -0.3459
 2766TIP3   OH2 8303   4.789   4.817   2.163  0.2126 -0.1285  0.1395
 2766TIP3    H1 8304   4.845   4.750   2.203  0.5037  0.8642  1.4564
 2766TIP3    H2 8305   4.721   4.833   2.228 -1.4498 -1.0517 -1.2859
 2767TIP3   OH2 8306   0.760   0.293   0.734  0.1157  0.1872  0.5170
 2767TIP3    H1 8307   0.779   0.336   0.817 -1.0990  1.2497  0.2930
 2767TIP3    H2 8308   0.813   0.340   0.670  1.0542 -0.6336  0.6656
 2768TIP3   OH2 8309   0.534   3.001   0.081  0.0737  0.4174  0.1895
 2768TIP3    H1 8310   0.582   3.067   0.130  0.1152  0.6854 -0.2069
 2768TIP3    H2 8311   0.445   3.035   0.075  0.0046  0.2592  0.3073
 2769TIP3   OH2 8312   0.497   2.931   0.458  0.9975  0.5412  0.0904
 2769TIP3    H1 8313   0.503   2.857   0.397  0.0015  0.9483 -0.5249
 2769TIP3    H2 8314   0.536   2.899   0.539  0.0179 -0.8741  0.0245
 2770TIP3   OH2 8315   1.606   2.502   3.791  0.0562 -0.2067  0.0411
 2770TIP3    H1 8316   1.656   2.579   3.820  0.8536 -0.6573 -0.1031
 2770TIP3    H2 8317   1.646   2.478   3.707 -1.5351  0.4404 -0.9362
 2771TIP3   OH2 8318   0.232   1.877   1.197 -0.7190  0.1891  0.1244
 2771TIP3    H1 8319   0.262   1.855   1.286 -0.1424  0.6459  0.0556
 2771TIP3    H2 8320   0.167   1.946   1.211  1.2049  2.1223  0.1052
 2772TIP3   OH2 8321   3.560   0.263   2.041 -0.5554 -0.4004 -0.5867
 2772TIP3    H1 8322   3.468   0.280   2.020 -0.1127  1.0904 -1.4581
 2772TIP3    H2 8323   3.564   0.263   2.137 -1.5895 -1.3650 -0.5223
 2773TIP3   OH2 8324   1.620   3.958   2.998 -0.2136  0.3188 -0.2346
 2773TIP3    H1 8325   1.680   4.002   3.058 -0.0222 -2.1878  1.5525
 2773TIP3    H2 8326   1.626   4.009   2.917  2.5820  1.5185  0.5956
 2774TIP3   OH2 8327   1.329   1.094   0.965 -0.0503  0.3667 -0.2163
 2774TIP3    H1 8328   1.374   1.043   1.032 -0.2277  2.0751  1.2665
 2774TIP3    H2 8329   1.239   1.062   0.966  0.2307 -0.4726 -0.5603
 2775TIP3   OH2 8330   4.094   0.317   0.634  0.2191  0.0049 -0.1604
 2775TIP3    H1 8331   4.024   0.373   0.600  1.0366  1.4318  0.4226
 2775TIP3    H2 8332   4.143   0.291   0.556  0.2342  0.6725 -0.3818
 2776TIP3   OH2 8333   2.533   3.394   2.298 -0.2547 -0.0758  0.1437
 2776TIP3    H1 8334   2.471   3.323   2.313  0.7571 -1.3484 -1.3559
 2776TIP3    H2 8335   2.512   3.459   2.365 -0.6321 -2.1662  2.1675
 2777TIP3   OH2 8336   3.506   2.764   5.034  0.1395  0.1423 -0.5137
 2777TIP3    H1 8337   3.488   2.671   5.018  0.9078  0.2480 -2.2954
 2777TIP3    H2 8338   3.471   2.808   4.956 -1.7530  1.5930  1.0281
 2778TIP3   OH2 8339   2.367   2.937   3.141 -0.3259  0.0190 -0.3427
 2778TIP3    H1 8340   2.456   2.943   3.106  0.5493 -0.4119  1.6614
 2778TIP3    H2 8341   2.350   2.843   3.147  0.5148 -0.0668  2.4377
 2779TIP3   OH2 8342   1.408   5.235   1.789 -0.3576 -0.0232 -1.1667
 2779TIP3    H1 8343   1.389   5.234   1.882  1.7906  1.0419 -0.6437
 2779TIP3    H2 8344   1.450   5.150   1.772 -0.9166 -0.2933 -1.2260
 2780TIP3   OH2 8345   2.085   2.798   0.165 -0.2041  0.6903 -0.0199
 2780TIP3    H1 8346   2.010   2.842   0.127  0.6116  2.0978 -0.0575
 2780TIP3    H2 8347   2.142   2.777   0.091 -1.0128 -1.3822 -0.1287
 2781TIP3   OH2 8348   4.518   0.696   3.652  0.1629 -0.0519 -0.2339
 2781TIP3    H1 8349   4.527   0.752   3.730  1.5653  0.6586 -0.8710
 2781TIP3    H2 8350   4.604   0.655   3.642  0.1364  0.2029 -1.6632
 2782TIP3   OH2 8351   1.171   5.294   3.069  0.1494 -0.1264  0.1593
 2782TIP3    H1 8352   1.086   5.337   3.057  0.0570 -0.2616  0.3225
 2782TIP3    H2 8353   1.232   5.347   3.017  0.5619  1.8015  2.4094
 2783TIP3   OH2 8354   0.173   1.378   0.001 -0.2169  0.0857 -0.9040
 2783TIP3    H1 8355   0.248   1.418  -0.043  0.4938 -0.7364 -0.4899
 2783TIP3    H2 8356   0.164   1.426   0.083  0.0955 -0.0492 -0.7889
 2784TIP3   OH2 8357   1.593   5.208   0.642 -0.9642 -0.6844  0.2246
 2784TIP3    H1 8358   1.546   5.204   0.726 -1.1311 -0.8426  0.1241
 2784TIP3    H2 8359   1.653   5.134   0.644  2.7366  2.0460  2.3828
 2785TIP3   OH2 8360   2.460   4.442   2.478 -0.4114 -0.0074 -0.1273
 2785TIP3    H1 8361   2.410   4.461   2.398 -2.4056 -0.1781  1.0200
 2785TIP3    H2 8362   2.417   4.494   2.546  1.6296  0.6199  0.7581
 2786TIP3   OH2 8363   2.933   4.078   2.770  0.2415 -0.3617  0.0279
 2786TIP3    H1 8364   2.971   4.049   2.853  3.9640  0.6751 -1.1044
 2786TIP3    H2 8365   2.940   4.173   2.772  2.7815 -0.3571 -2.2637
 2787TIP3   OH2 8366   0.941   2.164   1.868 -0.6419  0.3133  0.6457
 2787TIP3    H1 8367   1.032   2.158   1.841 -0.3337  2.1330  1.1245
 2787TIP3    H2 8368   0.928   2.089   1.926  0.3377 -0.3470  0.0425
 2788TIP3   OH2 8369   6.101   3.720   3.072 -1.0066  0.4219 -0.0928
 2788TIP3    H1 8370   6.042   3.735   3.146 -0.8766 -2.4565  0.7146
 2788TIP3    H2 8371   6.057   3.653   3.020  0.0127  0.7089 -1.3850
 2789TIP3   OH2 8372   5.271   4.610   4.421  0.3130 -0.7619  0.2157
 2789TIP3    H1 8373   5.180   4.640   4.418  0.2247 -1.0290  0.1892
 2789TIP3    H2 8374   5.298   4.625   4.511 -0.2772 -2.1800  0.6601
 2790TIP3   OH2 8375   5.442   3.673   3.073 -0.2429 -0.4411  0.1133
 2790TIP3    H1 8376   5.489   3.592   3.094  0.6205 -0.2826 -1.1237
 2790TIP3    H2 8377   5.445   3.724   3.154  0.4990 -1.0393  0.4770
 2791TIP3   OH2 8378   6.001   2.420   2.098  0.6742 -0.0797 -0.1964
 2791TIP3    H1 8379   6.050   2.361   2.155  0.7984 -1.2066 -1.4274
 2791TIP3    H2 8380   6.056   2.430   2.020 -0.2926 -0.0449 -0.8980
 2792TIP3   OH2 8381   5.170   1.228   3.214  0.1233  0.5127  0.3473
 2792TIP3    H1 8382   5.139   1.203   3.127 -0.7320  4.0281 -0.5179
 2792TIP3    H2 8383   5.121   1.172   3.274 -1.8411  0.3366 -1.3152
 2793TIP3   OH2 8384   2.892   1.033   4.110 -0.0192 -0.1577 -0.5774
 2793TIP3    H1 8385   2.986   1.052   4.115  0.0853 -0.5363 -1.0421
 2793TIP3    H2 8386   2.852   1.115   4.080 -0.1684  0.8534  2.0890
 2794TIP3   OH2 8387   2.132   5.701   2.928 -0.0420  0.0669  0.7015
 2794TIP3    H1 8388   2.092   5.776   2.884  2.4610  1.2914  0.3729
 2794TIP3    H2 8389   2.077   5.626   2.903  0.5552  0.8154 -3.7127
 2795TIP3   OH2 8390   5.183   3.237   3.007  0.3004 -0.3390 -0.9607
 2795TIP3    H1 8391   5.277   3.252   3.002  0.7301 -1.9636  0.8932
 2795TIP3    H2 8392   5.157   3.216   2.917  1.4616  1.1736 -1.6977
 2796TIP3   OH2 8393   1.371   1.273   4.445 -0.2029  0.2948  0.3717
 2796TIP3    H1 8394   1.337   1.291   4.533 -1.5704  0.2641 -0.1324
 2796TIP3    H2 8395   1.303   1.305   4.386  0.2434 -0.6205 -0.6656
 2797TIP3   OH2 8396   4.837   0.567   3.629  0.8285 -0.6240  0.5958
 2797TIP3    H1 8397   4.785   0.564   3.549 -0.3586  0.5170  1.2725
 2797TIP3    H2 8398   4.927   0.580   3.599  0.3214  0.4870 -0.5506
 2798TIP3   OH2 8399   4.961   2.512   1.380 -0.3148 -0.1259  0.1455
 2798TIP3    H1 8400   4.959   2.606   1.398  1.5204  0.2590 -1.3976
 2798TIP3    H2 8401   4.907   2.502   1.301 -0.6507 -0.4127  0.4064
 2799TIP3   OH2 8402   1.349   5.110   2.767 -0.1075 -0.0066 -0.1019
 2799TIP3    H1 8403   1.385   5.194   2.796 -1.7650  0.7261 -0.0934
 2799TIP3    H2 8404   1.424   5.065   2.727  0.5288  2.0549 -1.4040
 2800TIP3   OH2 8405   0.112   1.041   2.749  0.6729 -0.1797 -0.2850
 2800TIP3    H1 8406   0.155   1.125   2.732 -1.0561  0.9882  0.7442
 2800TIP3    H2 8407   0.059   1.025   2.671  1.4044 -0.5903 -0.7018
 2801TIP3   OH2 8408   4.864   5.875   0.838  0.1614  0.2268 -0.0070
 2801TIP3    H1 8409   4.778   5.833   0.843  0.6157 -0.5659  3.2686
 2801TIP3    H2 8410   4.925   5.803   0.823  0.3846  0.6831 -1.4555
 2802TIP3   OH2 8411   4.148   3.433   4.076  0.2430 -0.3705  0.2479
 2802TIP3    H1 8412   4.086   3.477   4.017  0.1845 -0.1824  0.4485
 2802TIP3    H2 8413   4.140   3.480   4.159  1.1128  0.0711  0.0970
 2803TIP3   OH2 8414   2.521   1.746   2.036 -0.4158 -0.3397 -0.1103
 2803TIP3    H1 8415   2.568   1.676   2.081 -1.9088 -0.7304  0.9082
 2803TIP3    H2 8416   2.588   1.812   2.018  0.5360 -0.8651  1.3018
 2804TIP3   OH2 8417   4.133   4.066   1.671 -0.0900  0.3272 -0.1980
 2804TIP3    H1 8418   4.215   4.113   1.680  0.5571 -0.6366 -0.8230
 2804TIP3    H2 8419   4.075   4.103   1.738  0.7667  1.1899  0.0699
 2805TIP3   OH2 8420   1.351   3.031   1.426  0.1214  0.8361 -0.2731
 2805TIP3    H1 8421   1.305   3.114   1.413 -0.1732  1.0112  1.7079
 2805TIP3    H2 8422   1.302   2.987   1.495  0.6948 -0.7013 -0.8020
 2806TIP3   OH2 8423   1.193   5.695   2.462  0.4518  0.2068 -0.1667
 2806TIP3    H1 8424   1.211   5.695   2.368 -0.2302  1.7271 -0.3391
 2806TIP3    H2 8425   1.098   5.694   2.468  0.4952 -0.3182  0.5245
 2807TIP3   OH2 8426   1.652   0.662   0.259  0.4689  0.5610  0.4892
 2807TIP3    H1 8427   1.570   0.644   0.213  1.3494 -0.5640 -0.7300
 2807TIP3    H2 8428   1.654   0.598   0.330  0.0347  0.9502  0.8496
 2808TIP3   OH2 8429   5.988   0.586   3.430  0.1346  0.3146  0.0440
 2808TIP3    H1 8430   5.947   0.507   3.394 -0.6604  0.3691  0.7921
 2808TIP3    H2 8431   6.029   0.556   3.512  2.1036  0.1455 -0.9577
 2809TIP3   OH2 8432   2.557   3.665   0.513 -0.3382 -0.1617  0.0501
 2809TIP3    H1 8433   2.620   3.650   0.584  1.0794 -0.7267 -1.2708
 2809TIP3    H2 8434   2.531   3.757   0.523 -0.4290 -0.3282  1.4946
 2810TIP3   OH2 8435   5.329   1.861   2.453  0.2646  0.3047 -0.4511
 2810TIP3    H1 8436   5.332   1.952   2.484  5.0318  1.1392 -2.4441
 2810TIP3    H2 8437   5.268   1.862   2.380 -1.5747  1.2071  1.0029
 2811TIP3   OH2 8438   5.149   3.900   1.368  0.1940 -0.0357 -0.6445
 2811TIP3    H1 8439   5.168   3.901   1.462 -0.0699  2.3444 -0.5585
 2811TIP3    H2 8440   5.082   3.968   1.356  0.1971 -0.3034 -2.5488
 2812TIP3   OH2 8441   2.162   4.858   3.797  0.4793 -0.3999 -0.3527
 2812TIP3    H1 8442   2.208   4.805   3.862 -0.5928 -2.4180 -1.1635
 2812TIP3    H2 8443   2.075   4.872   3.834 -0.1804 -1.6702 -1.3407
 2813TIP3   OH2 8444   3.690   0.531   3.373  0.1736  0.2949  0.1005
 2813TIP3    H1 8445   3.618   0.503   3.316  1.4195 -0.1813 -1.3232
 2813TIP3    H2 8446   3.769   0.505   3.325  1.3204 -1.4501  2.7044
 2814TIP3   OH2 8447   1.485   0.344   3.135  0.4015  0.6214  0.2812
 2814TIP3    H1 8448   1.466   0.423   3.084  2.2498  1.8138  1.3104
 2814TIP3    H2 8449   1.579   0.351   3.156  0.3368 -1.2480  1.4246
 2815TIP3   OH2 8450   0.186   1.961   3.543  0.3621  0.1214  0.1554
 2815TIP3    H1 8451   0.177   1.886   3.602 -0.5408  1.4717  1.8180
 2815TIP3    H2 8452   0.280   1.970   3.530  0.4699 -1.9629 -1.0375
 2816TIP3   OH2 8453   4.643   1.223   4.011  0.8269  0.3268 -0.6064
 2816TIP3    H1 8454   4.688   1.280   4.073  0.0788 -1.8894  2.2206
 2816TIP3    H2 8455   4.688   1.237   3.928  2.8025  2.4909  0.6966
 2817TIP3   OH2 8456   5.794   2.011   2.604  0.1989  0.0058 -0.3451
 2817TIP3    H1 8457   5.698   2.019   2.602 -0.1762 -3.1862 -2.4650
 2817TIP3    H2 8458   5.813   1.972   2.689 -0.3642  0.5341  0.0379
 2818TIP3   OH2 8459   3.473   0.424   1.748  0.7368 -0.8081  0.5955
 2818TIP3    H1 8460   3.395   0.367   1.752  0.2121 -0.0787  0.9808
 2818TIP3    H2 8461   3.462   0.485   1.821  0.1602  1.2158 -1.0808
 2819TIP3   OH2 8462   4.874   2.406   4.714 -0.1822  0.3904  0.2879
 2819TIP3    H1 8463   4.953   2.368   4.676  0.3439  0.9813  0.7749
 2819TIP3    H2 8464   4.903   2.445   4.797 -1.0368  0.3691  0.6052
 2820TIP3   OH2 8465   5.770   1.645   2.628  0.0634  0.3013  0.0658
 2820TIP3    H1 8466   5.745   1.710   2.694 -1.3080  0.3383 -0.4635
 2820TIP3    H2 8467   5.818   1.578   2.678  0.4669  1.1209  0.8127
 2821TIP3   OH2 8468   5.860   0.125   1.030 -0.1227  0.2984 -0.2619
 2821TIP3    H1 8469   5.845   0.147   0.938 -0.0455  0.9159 -0.1291
 2821TIP3    H2 8470   5.923   0.191   1.060  0.7282 -0.5833 -0.0723
 2822TIP3   OH2 8471   2.510   2.273   2.612 -0.0625  0.8868 -0.0806
 2822TIP3    H1 8472   2.592   2.251   2.569  0.9549  2.1397  1.1380
 2822TIP3    H2 8473   2.500   2.206   2.680 -0.8838 -0.1807 -1.2068
 2823TIP3   OH2 8474   0.791   1.611   3.693 -0.4155  0.0113  0.3621
 2823TIP3    H1 8475   0.809   1.642   3.604 -0.5968 -0.8475  0.0196
 2823TIP3    H2 8476   0.868   1.639   3.744  0.2317 -0.4933 -0.3162
 2824TIP3   OH2 8477   3.006   0.814   3.436 -0.1407 -0.1549 -0.2060
 2824TIP3    H1 8478   3.003   0.803   3.531  0.9010 -0.1412 -0.1546
 2824TIP3    H2 8479   2.961   0.896   3.419  0.3783  0.2569  0.3661
 2825TIP3   OH2 8480   6.122   4.011   3.835  0.4861  0.4174 -0.5060
 2825TIP3    H1 8481   6.171   4.043   3.910 -0.5176 -1.5061  1.0474
 2825TIP3    H2 8482   6.031   4.034   3.853 -0.1254 -2.2788  0.1880
 2826TIP3   OH2 8483   4.675   2.272   3.437  0.0449  0.4322 -0.1409
 2826TIP3    H1 8484   4.705   2.362   3.445  2.0216 -0.2039  0.2098
 2826TIP3    H2 8485   4.745   2.228   3.389 -0.0896 -1.2513  1.1081
 2827TIP3   OH2 8486   2.906   1.933   4.317  0.0219 -0.0368 -0.4576
 2827TIP3    H1 8487   2.967   1.890   4.257  0.6834 -1.4080  1.1174
 2827TIP3    H2 8488   2.821   1.928   4.273  0.3920 -1.4795 -1.0574
 2828TIP3   OH2 8489   0.256   2.534   1.415  0.7844  0.1686 -0.1314
 2828TIP3    H1 8490   0.238   2.508   1.324  1.5939  0.7251 -0.4598
 2828TIP3    H2 8491   0.171   2.527   1.459  0.2466  0.5099 -1.0808
 2829TIP3   OH2 8492   4.951   0.352   2.145  0.4401  0.2978  0.2989
 2829TIP3    H1 8493   4.959   0.414   2.072 -1.6140  1.1553  0.7473
 2829TIP3    H2 8494   4.931   0.268   2.104 -3.0570  1.2149 -0.1553
 2830TIP3   OH2 8495   3.476   5.775   1.346  0.1880 -0.1225 -0.0445
 2830TIP3    H1 8496   3.454   5.697   1.399 -0.6011 -0.3583 -0.6984
 2830TIP3    H2 8497   3.532   5.827   1.404 -0.5707 -0.4194  1.0015
 2831TIP3   OH2 8498   2.837   5.486   3.162  0.2186 -0.2944  0.3829
 2831TIP3    H1 8499   2.834   5.453   3.073  1.3274 -2.3625  1.0503
 2831TIP3    H2 8500   2.839   5.582   3.152  0.1593 -0.4693 -1.7762
 2832TIP3   OH2 8501   3.425   3.174   0.135  0.1793  0.0540  0.7013
 2832TIP3    H1 8502   3.331   3.166   0.121 -0.2606  2.0727  2.1638
 2832TIP3    H2 8503   3.452   3.087   0.166 -1.6193  0.0183  2.3524
 2833TIP3   OH2 8504   2.480   2.307   4.937  0.4383  0.1914 -0.3715
 2833TIP3    H1 8505   2.412   2.375   4.944 -1.6724 -1.7925 -0.1918
 2833TIP3    H2 8506   2.496   2.299   4.843  0.9949  1.1633 -0.3730
 2834TIP3   OH2 8507   2.721   5.787   0.930  0.2951 -0.2156  0.0699
 2834TIP3    H1 8508   2.670   5.826   0.859 -1.0099 -0.3640  0.8943
 2834TIP3    H2 8509   2.726   5.694   0.909  0.5128 -0.1544 -0.1644
 2835TIP3   OH2 8510   1.967   3.036   1.485 -0.2700 -0.5297  0.0177
 2835TIP3    H1 8511   2.046   2.984   1.503 -0.3127 -0.5093  0.2609
 2835TIP3    H2 8512   1.939   3.007   1.398 -0.9451 -1.7382  0.6111
 2836TIP3   OH2 8513   4.206   4.489   0.070 -0.1446  0.0902 -0.1576
 2836TIP3    H1 8514   4.199   4.394   0.081 -0.6158  0.2630  1.3205
 2836TIP3    H2 8515   4.181   4.505  -0.021  1.2354 -1.3076 -0.8169
 2837TIP3   OH2 8516   5.015   3.403   4.936 -0.0216  0.9282  0.2319
 2837TIP3    H1 8517   5.063   3.326   4.906 -1.7721  0.4091 -1.3449
 2837TIP3    H2 8518   4.986   3.379   5.024 -0.8175 -0.3695 -0.3532
 2838TIP3   OH2 8519   0.432   2.548   0.456  0.0777  0.0688  0.2119
 2838TIP3    H1 8520   0.511   2.505   0.425  0.1009  1.4795 -1.8390
 2838TIP3    H2 8521   0.462   2.633   0.489 -0.6936  1.3595 -2.2062
 2839TIP3   OH2 8522   3.878   1.171   3.682 -0.3713  0.5777 -0.2971
 2839TIP3    H1 8523   3.790   1.197   3.655  0.9679  4.3338 -1.7169
 2839TIP3    H2 8524   3.874   1.165   3.777 -2.0421  1.1868 -0.3061
 2840TIP3   OH2 8525   1.260   5.354   4.466 -0.0538  0.0463 -0.2412
 2840TIP3    H1 8526   1.202   5.295   4.514 -0.4106 -1.8531 -2.8006
 2840TIP3    H2 8527   1.210   5.381   4.389  2.1058 -1.2169 -2.2566
 2841TIP3   OH2 8528   2.764   4.249   0.551  0.4832  0.2820 -0.2641
 2841TIP3    H1 8529   2.709   4.311   0.503  0.8168 -0.2563 -1.3737
 2841TIP3    H2 8530   2.843   4.240   0.497  0.7427 -0.5570  0.2368
 2842TIP3   OH2 8531   3.083   1.201   4.483  0.3550  1.0151  0.2976
 2842TIP3    H1 8532   3.048   1.207   4.394  1.0440  1.6241  0.0616
 2842TIP3    H2 8533   3.007   1.216   4.539  0.1297  1.8251 -0.2067
 2843TIP3   OH2 8534   0.173   5.064   2.599 -0.0600  0.1080 -0.2822
 2843TIP3    H1 8535   0.231   5.019   2.660  0.8875  0.0852 -1.1705
 2843TIP3    H2 8536   0.087   5.061   2.641  0.7494  1.1059  1.5908
 2844TIP3   OH2 8537   4.704   0.202   1.151  0.3149 -0.5862  0.0684
 2844TIP3    H1 8538   4.795   0.223   1.168  0.3928  0.7107 -1.6567
 2844TIP3    H2 8539   4.705   0.157   1.067 -0.5423 -1.7220  0.6286
 2845TIP3   OH2 8540   5.661   2.124   1.846 -0.3241  0.0302  0.6201
 2845TIP3    H1 8541   5.710   2.136   1.928 -0.6551  2.3277  0.5351
 2845TIP3    H2 8542   5.619   2.039   1.857  0.9091 -0.4512  2.1512
 2846TIP3   OH2 8543   4.502   3.855   3.700 -0.0070 -0.0622  0.1169
 2846TIP3    H1 8544   4.451   3.814   3.770  0.0170  0.2056  0.2913
 2846TIP3    H2 8545   4.533   3.937   3.738  0.3922 -0.1321 -0.0535
 2847TIP3   OH2 8546   5.065   4.584   0.226 -0.1195  0.6946  0.0114
 2847TIP3    H1 8547   5.010   4.648   0.181 -2.6135 -1.2300  0.1225
 2847TIP3    H2 8548   5.004   4.521   0.264  2.1570 -2.4960 -1.1579
 2848TIP3   OH2 8549   1.235   2.709   3.432  0.0935  0.1247  0.2641
 2848TIP3    H1 8550   1.177   2.632   3.434  0.9357 -0.5169  1.0881
 2848TIP3    H2 8551   1.269   2.715   3.521  0.0436  1.4783  0.2132
 2849TIP3   OH2 8552   3.656   4.233   2.558  0.1759  0.4368 -0.2591
 2849TIP3    H1 8553   3.576   4.261   2.513 -0.5251 -0.3311  0.4888
 2849TIP3    H2 8554   3.635   4.147   2.594  0.5108  1.2480  2.0196
 2850TIP3   OH2 8555   1.841   5.157   1.278 -0.5999 -0.1107 -0.3616
 2850TIP3    H1 8556   1.895   5.205   1.215 -2.2696  0.1420 -1.7077
 2850TIP3    H2 8557   1.877   5.069   1.278  0.1229  0.1758 -0.8303
 2851TIP3   OH2 8558   2.562   2.846   4.735 -0.0822  0.5145 -0.4632
 2851TIP3    H1 8559   2.632   2.783   4.751 -0.7195  0.1969  1.3897
 2851TIP3    H2 8560   2.507   2.806   4.668 -0.7449 -1.2016  1.0156
 2852TIP3   OH2 8561   5.939   1.950   1.251  0.1828  0.4998  0.4711
 2852TIP3    H1 8562   6.027   1.916   1.236  0.5342  2.0759 -1.3138
 2852TIP3    H2 8563   5.924   1.936   1.345  0.0731 -4.8718 -0.0267
 2853TIP3   OH2 8564   2.130   1.054   3.280 -0.2262 -0.0886 -0.6069
 2853TIP3    H1 8565   2.165   1.143   3.286  0.0746 -0.2477  0.1172
 2853TIP3    H2 8566   2.092   1.049   3.192  1.8015 -0.0028 -1.5432
 2854TIP3   OH2 8567   3.830   5.267   0.009 -0.0531 -0.0190 -0.2697
 2854TIP3    H1 8568   3.839   5.192   0.068  0.0058  0.9009  0.9466
 2854TIP3    H2 8569   3.794   5.230  -0.072 -2.2862 -1.0403  1.0750
 2855TIP3   OH2 8570   4.102   2.497   3.469 -0.2066  0.5757 -0.5021
 2855TIP3    H1 8571   4.094   2.591   3.483  1.1491  0.5597  0.6387
 2855TIP3    H2 8572   4.093   2.486   3.374  0.1094  1.9133 -0.7050
 2856TIP3   OH2 8573   0.561   0.614   1.012  0.2464  0.0367 -0.3751
 2856TIP3    H1 8574   0.481   0.567   1.036  0.7782  0.7859  3.6537
 2856TIP3    H2 8575   0.531   0.683   0.953 -1.6267 -1.2153 -0.9809
 2857TIP3   OH2 8576   5.587   1.354   2.637  0.3271  0.0766 -0.1412
 2857TIP3    H1 8577   5.613   1.399   2.557  3.3994  0.6194  1.0335
 2857TIP3    H2 8578   5.504   1.394   2.661  0.1232  1.0062 -2.2000
 2858TIP3   OH2 8579   2.458   0.802   0.634 -0.1174  0.2244 -0.0265
 2858TIP3    H1 8580   2.497   0.851   0.706  0.0253 -0.0060  0.0521
 2858TIP3    H2 8581   2.533   0.762   0.588 -0.3052 -0.8941  0.6084
 2859TIP3   OH2 8582   2.530   1.021   3.192 -0.1196 -0.5331 -0.1323
 2859TIP3    H1 8583   2.623   1.004   3.207 -0.0883 -0.7597 -0.5657
 2859TIP3    H2 8584   2.509   1.094   3.250  0.6032  0.2603 -0.8299
 2860TIP3   OH2 8585   2.118   5.471   0.401 -0.4623  0.3029  0.2198
 2860TIP3    H1 8586   2.037   5.509   0.369 -0.5590  2.1692  2.4740
 2860TIP3    H2 8587   2.185   5.536   0.378  0.1299 -0.3729  0.0018
 2861TIP3   OH2 8588   1.799   2.570   4.221 -0.1019 -0.0782  0.0903
 2861TIP3    H1 8589   1.851   2.649   4.237 -0.9021  0.4676  0.0566
 2861TIP3    H2 8590   1.808   2.555   4.127  0.1989 -0.1393  0.1268
 2862TIP3   OH2 8591   1.135   3.404   0.445 -0.1880  0.7619 -0.6989
 2862TIP3    H1 8592   1.120   3.312   0.465 -0.0322  1.2510  2.2150
 2862TIP3    H2 8593   1.127   3.410   0.350 -0.8056 -2.1161 -0.9279
 2863TIP3   OH2 8594   2.400   1.552   4.236  0.0386 -0.3193  0.6222
 2863TIP3    H1 8595   2.490   1.583   4.240 -0.4962  1.3727  0.4931
 2863TIP3    H2 8596   2.347   1.632   4.233 -1.5192 -1.2589  1.5547
 2864TIP3   OH2 8597   1.760   4.970   0.699 -0.2233 -0.1666  0.0932
 2864TIP3    H1 8598   1.810   5.040   0.741  0.5194 -0.0133 -1.0186
 2864TIP3    H2 8599   1.706   4.934   0.770 -0.3236  1.2495  0.7792
 2865TIP3   OH2 8600   3.177   5.336   0.497 -0.2527  0.1773  0.1652
 2865TIP3    H1 8601   3.259   5.322   0.545 -0.5596 -0.6213  0.4740
 2865TIP3    H2 8602   3.164   5.255   0.447 -0.5113  0.5644 -0.4110
 2866TIP3   OH2 8603   5.871   1.254   4.094  0.4280 -0.2189 -0.1787
 2866TIP3    H1 8604   5.959   1.244   4.056  1.3752  0.8945  1.5700
 2866TIP3    H2 8605   5.865   1.347   4.116 -1.0814 -0.3389 -0.0103
 2867TIP3   OH2 8606   0.632   1.903   3.884  0.7988  0.3149 -0.4059
 2867TIP3    H1 8607   0.712   1.897   3.832  0.9217 -2.5927 -0.0185
 2867TIP3    H2 8608   0.625   1.819   3.929 -2.4811  0.4272 -0.4119
 2868TIP3   OH2 8609   4.319   5.578   1.974 -0.1767  0.0866 -0.4759
 2868TIP3    H1 8610   4.340   5.667   2.002 -2.9902  0.9955 -0.9155
 2868TIP3    H2 8611   4.298   5.532   2.056  0.6570 -0.0112 -0.3081
 2869TIP3   OH2 8612   0.853   5.032   1.841  0.3345 -0.1890  0.1183
 2869TIP3    H1 8613   0.889   5.098   1.899 -0.4696  0.2754  0.1033
 2869TIP3    H2 8614   0.926   5.009   1.783  0.6690  0.5761  0.2184
 2870TIP3   OH2 8615   0.960   2.075   4.184 -0.6902  0.2271 -0.1882
 2870TIP3    H1 8616   0.953   2.133   4.260 -1.6943 -0.0060 -0.0850
 2870TIP3    H2 8617   0.887   2.100   4.128  0.3032  0.6974 -1.3143
 2871TIP3   OH2 8618   0.268   4.150   3.577  0.4283 -0.1701  0.2875
 2871TIP3    H1 8619   0.272   4.071   3.631  1.6092  0.7337  1.5853
 2871TIP3    H2 8620   0.246   4.220   3.639  1.0016  0.7741 -0.5523
 2872TIP3   OH2 8621   3.556   5.098   2.485  0.0248  0.5482  0.1167
 2872TIP3    H1 8622   3.516   5.041   2.419  0.6204 -1.1398  1.1546
 2872TIP3    H2 8623   3.537   5.055   2.568  0.0651  2.1588  0.9898
 2873TIP3   OH2 8624   0.403   3.016   0.931 -0.1616  0.0394  0.3349
 2873TIP3    H1 8625   0.375   2.933   0.970  2.1148 -1.2869 -0.6577
 2873TIP3    H2 8626   0.395   3.080   1.002 -0.5052 -1.3255  1.5792
 2874TIP3   OH2 8627   0.508   2.463   1.581  0.0777  0.0558  0.1400
 2874TIP3    H1 8628   0.420   2.492   1.558 -0.0858 -0.2555  0.3795
 2874TIP3    H2 8629   0.503   2.442   1.674  0.9335  2.0887  0.7000
 2875TIP3   OH2 8630   4.941   0.447   1.881  0.2628 -0.5230 -0.3201
 2875TIP3    H1 8631   4.915   0.392   1.807 -1.0195 -1.4895  0.7893
 2875TIP3    H2 8632   4.948   0.535   1.844 -0.7251 -0.9160 -1.5223
 2876TIP3   OH2 8633   4.660   0.692   5.019 -0.3823  0.2491  0.0490
 2876TIP3    H1 8634   4.741   0.659   4.980 -0.8580 -0.7679 -0.1117
 2876TIP3    H2 8635   4.602   0.616   5.024 -1.2536  0.9040  0.3726
 2877TIP3   OH2 8636   2.085   3.217   4.523 -0.7569  0.1644 -0.1439
 2877TIP3    H1 8637   2.039   3.211   4.607  0.1686  0.7999  0.4288
 2877TIP3    H2 8638   2.016   3.211   4.457 -1.4776 -0.5882  0.6512
 2878TIP3   OH2 8639   4.837   5.585   0.528  0.0053  0.7201 -0.0169
 2878TIP3    H1 8640   4.797   5.535   0.457 -2.1946 -0.4048  1.8762
 2878TIP3    H2 8641   4.887   5.520   0.578  0.2036  1.1657  0.3722
 2879TIP3   OH2 8642   5.473   0.692   0.709  0.7302 -0.2792 -0.0966
 2879TIP3    H1 8643   5.492   0.668   0.800  1.7884 -2.4312 -0.8157
 2879TIP3    H2 8644   5.396   0.641   0.686  1.0285 -0.4670 -0.6857
 2880TIP3   OH2 8645   4.513   3.515   0.938 -0.1958 -0.1694  0.1936
 2880TIP3    H1 8646   4.472   3.451   0.880  1.7256 -0.8743 -0.4544
 2880TIP3    H2 8647   4.604   3.488   0.944  0.6056  2.2997  0.2160
 2881TIP3   OH2 8648   3.978   5.458   1.204  0.1645 -1.3128  0.0539
 2881TIP3    H1 8649   3.895   5.417   1.181  0.7441 -2.2842 -0.3875
 2881TIP3    H2 8650   4.032   5.447   1.125  0.1880  0.7729 -0.2705
 2882TIP3   OH2 8651   0.712   2.463   1.985 -0.5008 -0.5666 -0.4010
 2882TIP3    H1 8652   0.748   2.438   1.900  0.1386 -2.5021  0.3545
 2882TIP3    H2 8653   0.661   2.386   2.013  1.8968 -1.3950  2.2838
 2883TIP3   OH2 8654   4.352   4.412   2.450 -0.7420  0.2918  0.2124
 2883TIP3    H1 8655   4.264   4.379   2.432 -0.8466  2.0139 -3.3415
 2883TIP3    H2 8656   4.341   4.472   2.524 -2.1445 -0.9431  1.0484
 2884TIP3   OH2 8657   5.872   4.406   4.391  1.0289 -0.3251 -0.0164
 2884TIP3    H1 8658   5.873   4.488   4.440  0.0012  0.8866 -1.9039
 2884TIP3    H2 8659   5.962   4.397   4.358  1.1390  0.0637  0.1710
 2885TIP3   OH2 8660   6.294   1.274   2.858  0.3283 -0.1846 -0.0737
 2885TIP3    H1 8661   6.213   1.268   2.806  0.2953 -0.8733  0.0509
 2885TIP3    H2 8662   6.356   1.319   2.800 -0.7564  2.4178  0.6072
 2886TIP3   OH2 8663   3.388   5.619   0.377  0.2068  0.2618  0.1778
 2886TIP3    H1 8664   3.409   5.531   0.348  1.3730  0.9513 -1.2580
 2886TIP3    H2 8665   3.444   5.676   0.323  0.1950  1.8266  1.7145
 2887TIP3   OH2 8666   1.585   5.408   3.062  1.0149  0.5123  0.3057
 2887TIP3    H1 8667   1.624   5.494   3.079  0.0284  1.2512 -0.9852
 2887TIP3    H2 8668   1.493   5.427   3.046  0.7382 -0.8267  0.2544
 2888TIP3   OH2 8669   5.072   3.724   2.532  0.0444 -0.0139 -0.1821
 2888TIP3    H1 8670   5.095   3.656   2.470 -1.1446 -1.5303  0.9557
 2888TIP3    H2 8671   4.976   3.723   2.535 -0.0061  1.5953  0.0133
 2889TIP3   OH2 8672   5.570   1.435   5.005  0.7267 -0.4543  0.8859
 2889TIP3    H1 8673   5.529   1.520   4.992  1.7534 -0.1182 -0.3447
 2889TIP3    H2 8674   5.535   1.381   4.934 -2.1176 -2.0143  3.2098
 2890TIP3   OH2 8675   6.096   1.683   0.148 -0.9584  0.5158 -0.9229
 2890TIP3    H1 8676   6.180   1.640   0.133 -1.5745 -2.1168  2.2103
 2890TIP3    H2 8677   6.033   1.631   0.099 -1.1545  0.6314 -0.7961
 2891TIP3   OH2 8678   5.385   5.538   0.778  0.1051 -0.4563  0.0195
 2891TIP3    H1 8679   5.352   5.513   0.692  0.8088 -1.7442  0.0920
 2891TIP3    H2 8680   5.449   5.607   0.760 -0.5253  0.0363 -0.3748
 2892TIP3   OH2 8681   0.267   1.829   2.904 -0.6076  0.2785  0.4220
 2892TIP3    H1 8682   0.329   1.763   2.935 -0.4747 -0.4933 -1.3812
 2892TIP3    H2 8683   0.322   1.896   2.863 -0.8267  0.9032  1.1253
 2893TIP3   OH2 8684   2.468   5.174   0.230  0.1085  0.7820  0.6483
 2893TIP3    H1 8685   2.446   5.155   0.321 -0.3767 -1.4439  0.1337
 2893TIP3    H2 8686   2.389   5.153   0.181  0.7654  0.7060 -0.4211
 2894TIP3   OH2 8687   4.206   5.716   4.734 -0.7030 -0.4842  0.0939
 2894TIP3    H1 8688   4.140   5.686   4.672  1.5161 -0.1135 -2.7017
 2894TIP3    H2 8689   4.271   5.645   4.736  0.4122  0.4951  0.1190
 2895TIP3   OH2 8690   3.354   4.952   0.184  0.4161 -0.4102 -0.0035
 2895TIP3    H1 8691   3.383   4.861   0.190 -0.7842 -0.7777  0.4715
 2895TIP3    H2 8692   3.304   4.956   0.102 -0.8563 -0.5875  0.7416
 2896TIP3   OH2 8693   3.932   4.988   3.615  1.0024 -0.1239  0.1611
 2896TIP3    H1 8694   4.006   4.943   3.575  2.6667  2.9664 -0.5969
 2896TIP3    H2 8695   3.861   4.980   3.551  1.2320 -1.5486  0.0526
 2897TIP3   OH2 8696   4.009   3.743   1.088 -0.1825  0.1823 -0.2731
 2897TIP3    H1 8697   4.002   3.741   0.993 -0.8573  0.5260 -0.2311
 2897TIP3    H2 8698   3.945   3.679   1.119  2.5101 -2.7004 -0.1340
 2898TIP3   OH2 8699   0.386   3.057   2.972 -0.1013  0.4162 -0.2177
 2898TIP3    H1 8700   0.378   3.148   3.002 -2.2392  0.9688 -2.1001
 2898TIP3    H2 8701   0.298   3.021   2.984  0.1058 -0.6460 -1.6572
 2899TIP3   OH2 8702   0.008   2.813   2.850  0.3668 -0.4584 -0.2112
 2899TIP3    H1 8703   0.070   2.829   2.779 -0.3748 -0.3379 -0.8441
 2899TIP3    H2 8704  -0.054   2.750   2.813  0.8648 -1.6193  0.8599
 2900TIP3   OH2 8705   5.240   0.565   2.540 -0.3098  1.0932  0.5582
 2900TIP3    H1 8706   5.283   0.612   2.468 -0.4562  1.6206  0.8169
 2900TIP3    H2 8707   5.308   0.555   2.606  0.2404 -0.6383 -0.2042
 2901TIP3   OH2 8708   5.199   0.204   4.676 -0.0026  0.0193 -0.3292
 2901TIP3    H1 8709   5.172   0.128   4.727  0.4800 -0.3022 -0.5471
 2901TIP3    H2 8710   5.157   0.192   4.591  2.0637 -1.3239 -1.2287
 2902TIP3   OH2 8711   1.928   1.943   3.488  0.2850  0.0377  0.3371
 2902TIP3    H1 8712   1.902   2.033   3.467  1.1572  0.3262  0.4550
 2902TIP3    H2 8713   1.883   1.889   3.423  2.4616  0.8572 -2.0558
 2903TIP3   OH2 8714   1.254   4.807   1.353  0.4796 -0.2898 -0.7742
 2903TIP3    H1 8715   1.210   4.725   1.375 -0.4580  0.1165 -1.0973
 2903TIP3    H2 8716   1.325   4.781   1.294  0.8783 -0.9830 -0.0193
 2904TIP3   OH2 8717   0.322   5.520   4.497  0.0217 -0.0985  0.1205
 2904TIP3    H1 8718   0.295   5.554   4.582  0.4166  0.2888  0.1005
 2904TIP3    H2 8719   0.411   5.487   4.511  0.1558  0.1249 -0.1729
 2905TIP3   OH2 8720   3.080   1.979   2.082  0.3289 -0.2236  0.2148
 2905TIP3    H1 8721   3.094   1.885   2.069  1.7977  0.2283 -1.9244
 2905TIP3    H2 8722   3.150   2.006   2.140  0.0523 -0.3856  0.6310
 2906TIP3   OH2 8723   4.161   0.753   4.398 -0.1703  0.0084  0.4450
 2906TIP3    H1 8724   4.075   0.792   4.381 -0.4517  0.0122  1.7605
 2906TIP3    H2 8725   4.221   0.804   4.344 -1.0342 -0.2688 -0.8303
 2907TIP3   OH2 8726   4.296   2.542   0.953  0.5485 -0.1462  0.2550
 2907TIP3    H1 8727   4.373   2.588   0.986  0.4504 -0.9368  1.6607
 2907TIP3    H2 8728   4.259   2.498   1.030 -0.0359 -1.6012 -0.8137
 2908TIP3   OH2 8729   0.470   1.648   2.128 -0.3070 -0.1132 -0.3995
 2908TIP3    H1 8730   0.504   1.703   2.199 -2.2381  0.0725  0.4275
 2908TIP3    H2 8731   0.494   1.559   2.153  0.5718  0.0965 -0.4453
 2909TIP3   OH2 8732   5.116   1.562   5.057 -0.6231  0.5527  0.0460
 2909TIP3    H1 8733   5.160   1.646   5.068  1.2410 -0.2946 -0.5346
 2909TIP3    H2 8734   5.131   1.516   5.140 -1.1260  0.5566  0.1433
 2910TIP3   OH2 8735   0.104   1.303   2.429  0.4974  0.2407  0.1958
 2910TIP3    H1 8736   0.154   1.350   2.495  1.3885  0.2071 -0.4361
 2910TIP3    H2 8737   0.168   1.249   2.383 -0.3901 -1.0969  0.4548
 2911TIP3   OH2 8738   6.199   5.726   3.933  0.2056 -0.2638  0.2583
 2911TIP3    H1 8739   6.260   5.799   3.927  0.1303 -0.2761 -0.8195
 2911TIP3    H2 8740   6.218   5.673   3.856 -1.6250  0.0972 -0.4927
 2912TIP3   OH2 8741   1.876   3.314   1.917 -0.1201 -0.2947  0.0087
 2912TIP3    H1 8742   1.873   3.268   1.833 -0.3794 -1.5041  0.6719
 2912TIP3    H2 8743   1.923   3.256   1.976 -1.8977 -0.4994  1.3192
 2913TIP3   OH2 8744   4.113   1.831   0.036  0.3049 -0.2467  0.1003
 2913TIP3    H1 8745   4.190   1.885   0.056 -0.1068  1.0314 -1.5082
 2913TIP3    H2 8746   4.147   1.742   0.028  1.9414  0.4958 -2.1114
 2914TIP3   OH2 8747   5.707   2.578   2.787 -0.1481 -0.1028 -0.0714
 2914TIP3    H1 8748   5.681   2.549   2.875  0.1700  0.1077  0.0923
 2914TIP3    H2 8749   5.735   2.497   2.744  0.6620 -0.0609  0.3613
 2915TIP3   OH2 8750   4.396   0.115   1.353 -0.1805  0.3488 -0.4452
 2915TIP3    H1 8751   4.483   0.149   1.376 -0.2354  0.7504 -0.8219
 2915TIP3    H2 8752   4.388   0.035   1.404 -0.1080  0.9743  0.5733
 2916TIP3   OH2 8753   2.535   3.654   3.902 -0.0070  0.2770 -0.5339
 2916TIP3    H1 8754   2.620   3.698   3.911  0.9089 -1.4940  0.1902
 2916TIP3    H2 8755   2.556   3.561   3.911 -2.0459 -0.2179 -0.4030
 2917TIP3   OH2 8756   2.930   4.967   2.916 -0.3915  0.1095  0.3867
 2917TIP3    H1 8757   2.928   4.908   2.991 -0.2311 -0.8808 -0.3559
 2917TIP3    H2 8758   3.002   4.934   2.862  0.0688  1.3411  0.2151
 2918TIP3   OH2 8759   0.643   5.270   5.043  0.0260  0.5878 -0.0827
 2918TIP3    H1 8760   0.645   5.223   5.126  0.7765  1.4573  0.4098
 2918TIP3    H2 8761   0.563   5.240   5.000  1.0833 -2.0755 -0.3729
 2919TIP3   OH2 8762   3.415   1.821   0.025  0.0167 -0.0268 -0.2582
 2919TIP3    H1 8763   3.425   1.772   0.106  0.2373 -0.4819 -0.5538
 2919TIP3    H2 8764   3.504   1.848   0.002  0.4167 -2.3686 -1.8405
 2920TIP3   OH2 8765   6.297   5.400   4.431  0.4852  0.5623  0.3758
 2920TIP3    H1 8766   6.219   5.441   4.395 -0.1170  1.1602  2.2173
 2920TIP3    H2 8767   6.341   5.360   4.356 -1.8193 -0.2117 -0.6476
 2921TIP3   OH2 8768   5.061   4.228   3.563  0.3009 -0.3448  0.3822
 2921TIP3    H1 8769   4.990   4.164   3.570 -1.3247  1.2477 -0.6642
 2921TIP3    H2 8770   5.022   4.310   3.593  2.5778  0.0813  2.5538
 2922TIP3   OH2 8771   2.146   3.670   0.451 -0.1205  1.0186  0.1370
 2922TIP3    H1 8772   2.151   3.608   0.523  0.8686 -1.0031 -1.5679
 2922TIP3    H2 8773   2.193   3.748   0.483  0.9518 -0.1040  1.4063
 2923TIP3   OH2 8774   4.341   1.446   0.858  0.0363 -0.3076 -0.5582
 2923TIP3    H1 8775   4.279   1.445   0.786 -0.5390 -1.2110 -0.0641
 2923TIP3    H2 8776   4.419   1.403   0.824 -0.5819 -1.6155 -0.3513
 2924TIP3   OH2 8777   5.339   5.067   1.386 -0.1804  0.2490  0.1381
 2924TIP3    H1 8778   5.377   4.987   1.424 -0.4936 -0.2342 -0.5324
 2924TIP3    H2 8779   5.356   5.059   1.292 -1.7980  0.0790 -0.1705
 2925TIP3   OH2 8780   5.963   3.588   4.035 -0.2560  0.8032 -0.0059
 2925TIP3    H1 8781   5.938   3.659   4.094  1.8918  0.7258  1.1022
 2925TIP3    H2 8782   5.989   3.632   3.955 -0.8366  1.1019 -0.0385
 2926TIP3   OH2 8783   4.650   5.594   2.667 -0.4432  0.1701  0.7147
 2926TIP3    H1 8784   4.555   5.600   2.675 -0.4294 -1.4844  3.1288
 2926TIP3    H2 8785   4.666   5.578   2.574 -2.4567  0.9812  0.1792
 2927TIP3   OH2 8786   5.440   0.344   3.007  0.5553 -0.0430  0.0029
 2927TIP3    H1 8787   5.457   0.432   2.975 -1.4419  1.2978  2.2640
 2927TIP3    H2 8788   5.526   0.302   3.010  2.3563  3.3438  2.9400
 2928TIP3   OH2 8789   4.564   0.645   0.667  0.2254 -0.0444  0.3369
 2928TIP3    H1 8790   4.588   0.614   0.580  1.4348 -0.3586  0.7688
 2928TIP3    H2 8791   4.597   0.578   0.726 -2.0643 -0.6985  0.9786
 2929TIP3   OH2 8792   1.979   0.369   2.386 -0.0577 -0.3931 -0.7680
 2929TIP3    H1 8793   1.893   0.327   2.390 -1.0932  1.5384 -1.1074
 2929TIP3    H2 8794   1.979   0.415   2.302  1.5761 -0.8403 -1.0429
 2930TIP3   OH2 8795   4.623   2.701   1.554  0.5967 -0.1889 -0.2841
 2930TIP3    H1 8796   4.537   2.743   1.560  0.0650 -1.4549  1.8523
 2930TIP3    H2 8797   4.683   2.772   1.531 -0.5821  1.3366  1.1186
 2931TIP3   OH2 8798   6.038   2.764   2.540  0.0359  0.1694  0.6950
 2931TIP3    H1 8799   5.986   2.755   2.620 -0.0507  3.5564  1.1906
 2931TIP3    H2 8800   5.994   2.832   2.490  0.0864 -1.8547 -2.3700
 2932TIP3   OH2 8801   5.017   0.945   0.681  0.6996 -0.0689  0.2796
 2932TIP3    H1 8802   5.037   0.889   0.606  2.6701 -0.1841  0.8117
 2932TIP3    H2 8803   4.956   0.893   0.733 -0.8951  0.1206 -1.3219
 2933TIP3   OH2 8804   1.976   4.524   3.402 -0.1087 -0.3404 -0.2224
 2933TIP3    H1 8805   2.027   4.470   3.463 -0.6740 -1.4812 -0.7088
 2933TIP3    H2 8806   2.006   4.613   3.416  0.4647 -0.7152  1.0274
 2934TIP3   OH2 8807   0.736   2.765   2.708  0.0906 -0.2125  0.1857
 2934TIP3    H1 8808   0.663   2.758   2.769 -0.1381  0.3772 -0.0107
 2934TIP3    H2 8809   0.730   2.686   2.654 -1.0377  0.3225 -0.5083
 2935TIP3   OH2 8810   3.311   4.092   2.424  0.1185  0.6347  0.3882
 2935TIP3    H1 8811   3.339   4.178   2.453  3.0444 -0.1118  0.1129
 2935TIP3    H2 8812   3.310   4.039   2.503 -1.8026  0.8971  0.5784
 2936TIP3   OH2 8813   6.202   1.826   1.252 -0.0072  0.5668 -0.2521
 2936TIP3    H1 8814   6.196   1.805   1.346 -1.5742 -2.1089 -0.8370
 2936TIP3    H2 8815   6.261   1.901   1.248  0.3438  0.5967  2.8417
 2937TIP3   OH2 8816   2.684   4.850   0.417  0.0472  0.3496 -0.3730
 2937TIP3    H1 8817   2.773   4.879   0.437 -0.5439  1.8903  0.1152
 2937TIP3    H2 8818   2.690   4.814   0.328  1.2272  0.0838 -0.1961
 2938TIP3   OH2 8819   0.823   2.310   3.083 -0.2767  0.6254 -0.7168
 2938TIP3    H1 8820   0.751   2.248   3.072  1.0007 -0.7097 -2.0828
 2938TIP3    H2 8821   0.793   2.371   3.151 -1.6487 -1.3980  0.5950
 2939TIP3   OH2 8822   1.083   1.523   0.052 -0.1545 -0.1744 -0.3649
 2939TIP3    H1 8823   1.021   1.454   0.029 -0.4158  0.4701 -1.6862
 2939TIP3    H2 8824   1.035   1.605   0.039  0.0561  0.3034  1.4466
 2940TIP3   OH2 8825   2.772   0.953   1.136  0.1383 -0.1870  0.6596
 2940TIP3    H1 8826   2.739   1.027   1.187  0.5326  0.0762  0.5395
 2940TIP3    H2 8827   2.804   0.992   1.055  2.2707 -0.1851  1.4369
 2941TIP3   OH2 8828   3.965   2.851   3.329  0.1596  0.2806 -0.2990
 2941TIP3    H1 8829   4.049   2.825   3.292 -0.0486 -0.0263 -0.5694
 2941TIP3    H2 8830   3.906   2.779   3.306 -0.1401  0.4204  0.0217
 2942TIP3   OH2 8831   0.132   5.551   2.881  0.1361 -0.7687 -0.0368
 2942TIP3    H1 8832   0.122   5.590   2.794  1.2313 -0.9499 -0.2629
 2942TIP3    H2 8833   0.042   5.538   2.912 -0.3505  2.3287  0.2549
 2943TIP3   OH2 8834   0.544   1.140   3.198  0.5470 -0.3076 -0.0635
 2943TIP3    H1 8835   0.540   1.066   3.138  1.2057  0.4966 -1.1359
 2943TIP3    H2 8836   0.519   1.104   3.283  0.3559 -1.6345 -0.6643
 2944TIP3   OH2 8837   3.758   3.427   5.136 -0.4916 -0.0917  0.9163
 2944TIP3    H1 8838   3.748   3.489   5.064 -2.2015 -0.9830  0.3265
 2944TIP3    H2 8839   3.756   3.341   5.093  1.5767 -0.6031  1.7355
 2945TIP3   OH2 8840   0.848   5.327   3.273 -0.8239  0.4197 -0.6497
 2945TIP3    H1 8841   0.896   5.280   3.205 -1.5535 -0.6912 -0.4141
 2945TIP3    H2 8842   0.917   5.373   3.322 -0.0228 -0.8224 -0.5621
 2946TIP3   OH2 8843   4.909   5.087   4.347  0.4026 -0.8271 -0.2803
 2946TIP3    H1 8844   4.938   5.156   4.406  1.1768 -1.2110 -0.2055
 2946TIP3    H2 8845   4.820   5.067   4.377  0.9585 -1.3781  1.1155
 2947TIP3   OH2 8846   5.484   5.384   3.193  0.0489  0.1128 -0.0134
 2947TIP3    H1 8847   5.420   5.428   3.138 -1.3454 -0.8880  0.7351
 2947TIP3    H2 8848   5.433   5.347   3.265  1.3551 -1.3323  0.2434
 2948TIP3   OH2 8849   3.482   1.708   3.695 -0.6175 -0.3287 -0.3110
 2948TIP3    H1 8850   3.443   1.638   3.643  0.4653 -0.8287 -0.4583
 2948TIP3    H2 8851   3.536   1.663   3.760 -1.3368  0.3084  0.7740
 2949TIP3   OH2 8852   5.616   3.469   3.732  0.4962  0.3385 -0.0298
 2949TIP3    H1 8853   5.659   3.539   3.780 -0.1185  0.1006  0.8953
 2949TIP3    H2 8854   5.675   3.394   3.740  0.3074  0.2443  0.5349
 2950TIP3   OH2 8855   6.087   2.805   3.917  0.2690  0.5920  0.5858
 2950TIP3    H1 8856   6.049   2.805   4.005 -0.0793  1.9769  0.4461
 2950TIP3    H2 8857   6.014   2.781   3.860  0.6559 -1.0175  0.7019
 2951TIP3   OH2 8858   0.872   3.318   2.623 -0.0146  0.1601 -0.3902
 2951TIP3    H1 8859   0.960   3.358   2.629  0.2259 -0.5098  0.6479
 2951TIP3    H2 8860   0.820   3.364   2.688 -0.6935  1.1328 -1.5708
 2952TIP3   OH2 8861   3.951   4.449   0.523  0.1817 -0.3609  0.4576
 2952TIP3    H1 8862   4.015   4.379   0.511 -0.3064 -1.1977  2.3895
 2952TIP3    H2 8863   3.987   4.502   0.594 -0.4837  0.0967  0.4601
 2953TIP3   OH2 8864   1.616   0.875   0.422 -0.8714 -0.1296  0.5558
 2953TIP3    H1 8865   1.644   0.797   0.373 -0.0225  0.9032 -0.6889
 2953TIP3    H2 8866   1.530   0.897   0.385 -0.1401  0.7699 -0.6935
 2954TIP3   OH2 8867   0.106   2.249   2.453  0.6264 -0.1820 -0.2730
 2954TIP3    H1 8868   0.069   2.330   2.417  1.6034  1.7519  2.7192
 2954TIP3    H2 8869   0.031   2.199   2.482  0.0688  0.2106 -1.0014
 2955TIP3   OH2 8870   1.377   4.755   0.164 -0.1635 -0.1531  0.2449
 2955TIP3    H1 8871   1.301   4.808   0.138  0.7810  0.9738 -0.3427
 2955TIP3    H2 8872   1.450   4.795   0.118  0.8970 -0.8107  1.3042
 2956TIP3   OH2 8873   4.767   0.902   1.496 -0.3361  0.0639 -0.6351
 2956TIP3    H1 8874   4.715   0.827   1.468  1.6762 -1.1547 -1.3008
 2956TIP3    H2 8875   4.769   0.895   1.592  0.6716 -1.3483 -0.7369
 2957TIP3   OH2 8876   5.976   0.684   0.414  0.2241  0.5118  0.1319
 2957TIP3    H1 8877   5.889   0.648   0.398  0.1452 -0.9964  3.2638
 2957TIP3    H2 8878   6.034   0.608   0.415  1.0977  1.1644  0.9470
 2958TIP3   OH2 8879   0.186   2.134   2.204  0.4177 -0.1448 -0.5822
 2958TIP3    H1 8880   0.177   2.162   2.296 -0.5622  2.4188 -1.3656
 2958TIP3    H2 8881   0.178   2.039   2.207 -2.9098  0.0218  1.7032
 2959TIP3   OH2 8882   4.155   4.133   0.747 -0.2142 -0.1880 -0.1794
 2959TIP3    H1 8883   4.065   4.157   0.769  0.0499 -0.5515  1.3384
 2959TIP3    H2 8884   4.171   4.177   0.663 -0.9299  2.0817  0.7848
 2960TIP3   OH2 8885   0.662   5.931   0.978 -0.3598  0.3776 -0.1597
 2960TIP3    H1 8886   0.623   5.845   0.969  1.4640 -0.7676  1.9453
 2960TIP3    H2 8887   0.609   5.988   0.922 -2.1597 -1.9020 -0.8992
 2961TIP3   OH2 8888   5.517   1.445   3.672 -0.6437 -0.0850 -0.4752
 2961TIP3    H1 8889   5.451   1.376   3.677 -1.4259  0.7155  1.0636
 2961TIP3    H2 8890   5.557   1.445   3.759 -1.2915  1.9806 -0.1453
 2962TIP3   OH2 8891   3.874   3.097   3.013 -0.1069  0.1361  0.5171
 2962TIP3    H1 8892   3.886   3.023   2.953 -0.7314  0.0430  0.5023
 2962TIP3    H2 8893   3.781   3.119   3.006 -0.0431  0.5564  0.9494
 2963TIP3   OH2 8894   1.716   1.855   4.309 -0.4136  0.2178  0.9808
 2963TIP3    H1 8895   1.793   1.808   4.277 -0.0808  1.4649 -0.1469
 2963TIP3    H2 8896   1.748   1.908   4.382 -0.0108  1.2546  0.0833
 2964TIP3   OH2 8897   3.483   5.898   2.372 -0.5380  1.1773 -0.3502
 2964TIP3    H1 8898   3.578   5.900   2.367 -0.5355  1.0093 -0.3535
 2964TIP3    H2 8899   3.460   5.982   2.412 -0.1085 -0.6704  4.3917
 2965TIP3   OH2 8900   0.027   4.944   4.590 -0.0166 -0.2604  0.0324
 2965TIP3    H1 8901  -0.033   4.995   4.645 -0.4442  0.5088 -1.1214
 2965TIP3    H2 8902   0.110   4.944   4.639  0.0868  1.7786 -0.0445
 2966TIP3   OH2 8903   5.007   5.529   2.951 -0.2759 -0.0622  0.2427
 2966TIP3    H1 8904   4.990   5.622   2.942 -0.4309 -0.0121  0.9835
 2966TIP3    H2 8905   4.990   5.492   2.864 -1.3997  0.4075  0.2512
 2967TIP3   OH2 8906   1.358   5.463   5.089  0.0801  0.4709 -0.5829
 2967TIP3    H1 8907   1.385   5.535   5.031 -1.3616  1.0099 -0.6231
 2967TIP3    H2 8908   1.291   5.417   5.039 -0.7037  0.5436  0.3813
 2968TIP3   OH2 8909   3.904   0.648   3.523 -0.0682  0.2313 -0.3777
 2968TIP3    H1 8910   3.814   0.675   3.504 -0.7219 -0.6472  1.1968
 2968TIP3    H2 8911   3.940   0.721   3.574 -0.9218 -0.5730  1.5113
 2969TIP3   OH2 8912   5.394   1.702   2.681 -0.0150  0.0206 -0.0020
 2969TIP3    H1 8913   5.374   1.750   2.601 -0.3758 -0.8955 -0.4713
 2969TIP3    H2 8914   5.489   1.705   2.687  0.0012  0.2904 -0.3421
 2970TIP3   OH2 8915   4.835   0.805   3.788  0.5843 -0.6593  0.8118
 2970TIP3    H1 8916   4.822   0.716   3.757 -1.2828 -0.9118  2.1878
 2970TIP3    H2 8917   4.759   0.854   3.756  1.4090  0.3689  0.3623
 2971TIP3   OH2 8918   5.934   0.425   0.643  0.2243  0.1758  0.3172
 2971TIP3    H1 8919   5.954   0.481   0.718 -1.5048  1.6246 -0.2176
 2971TIP3    H2 8920   5.854   0.463   0.605 -0.6805 -2.2963 -0.4799
 2972TIP3   OH2 8921   5.585   5.723   0.758  0.2735  0.0414  1.0043
 2972TIP3    H1 8922   5.660   5.772   0.791  0.6810 -0.1342  0.3633
 2972TIP3    H2 8923   5.594   5.727   0.662  1.0476 -2.3509  0.9083
 2973TIP3   OH2 8924   1.330   3.680   1.512  0.0312 -0.0241 -0.6567
 2973TIP3    H1 8925   1.302   3.768   1.537  2.0202  0.2316  0.9168
 2973TIP3    H2 8926   1.419   3.693   1.478  0.5075 -1.4700  0.0015
 2974TIP3   OH2 8927   2.748   5.046   1.314  0.3597  0.5959  0.0336
 2974TIP3    H1 8928   2.765   5.119   1.374  1.5683 -0.1774  0.6732
 2974TIP3    H2 8929   2.803   5.064   1.238  2.2704 -0.6318  1.0480
 2975TIP3   OH2 8930   2.206   5.070   0.813 -0.0181 -0.1206  0.0640
 2975TIP3    H1 8931   2.208   5.138   0.745  1.2757 -0.4409 -0.2411
 2975TIP3    H2 8932   2.264   5.103   0.882  0.2977 -0.7355  0.0950
 2976TIP3   OH2 8933   3.059   1.450   0.841 -0.4092  0.4779 -0.2737
 2976TIP3    H1 8934   3.093   1.366   0.812 -0.5748  0.8275 -1.5234
 2976TIP3    H2 8935   3.123   1.481   0.906  0.4656  0.0950 -0.9383
 2977TIP3   OH2 8936   3.673   0.099   0.613 -0.2253 -0.2831 -0.8139
 2977TIP3    H1 8937   3.630   0.169   0.563  1.4748  0.8412 -0.7529
 2977TIP3    H2 8938   3.639   0.108   0.702  1.1851  1.5744 -0.4076
 2978TIP3   OH2 8939   1.349   1.589   3.937  0.7872  0.1810  0.3382
 2978TIP3    H1 8940   1.374   1.583   4.030  0.9751 -0.7681  0.2391
 2978TIP3    H2 8941   1.425   1.630   3.895  0.6710  0.6847  0.6133
 2979TIP3   OH2 8942   3.026   1.352   1.623 -0.0811  0.1141  0.6926
 2979TIP3    H1 8943   3.076   1.308   1.692  0.0978 -0.1686  0.3845
 2979TIP3    H2 8944   3.003   1.437   1.661 -0.3041 -0.1869  1.2338
 2980TIP3   OH2 8945   5.164   5.420   3.951  0.4333 -0.6071  0.0633
 2980TIP3    H1 8946   5.233   5.401   3.886  0.7278  0.0379  0.1687
 2980TIP3    H2 8947   5.133   5.508   3.926  3.4090  1.5966  3.1595
 2981TIP3   OH2 8948   2.314   1.830   0.246 -0.2549 -0.5071 -0.1174
 2981TIP3    H1 8949   2.271   1.913   0.267  0.7965  0.2537 -0.8723
 2981TIP3    H2 8950   2.408   1.848   0.254 -0.0002 -1.5565 -0.5309
 2982TIP3   OH2 8951   6.190   0.583   3.997 -0.0457 -0.5464  0.1835
 2982TIP3    H1 8952   6.193   0.673   4.030  1.1687 -1.2206  2.0582
 2982TIP3    H2 8953   6.281   0.562   3.976  0.2358 -2.3175  2.7285
 2983TIP3   OH2 8954   2.494   5.803   1.629  0.5553 -0.0080 -0.4455
 2983TIP3    H1 8955   2.474   5.893   1.656  0.7881 -0.0131 -0.2519
 2983TIP3    H2 8956   2.423   5.751   1.667 -0.7793  0.3453 -2.3350
 2984TIP3   OH2 8957   5.616   3.822   4.091  0.2229  0.1892  0.6285
 2984TIP3    H1 8958   5.625   3.870   4.008 -1.8953 -1.7473 -0.8417
 2984TIP3    H2 8959   5.705   3.821   4.127  0.8225  2.8994 -0.5113
 2985TIP3   OH2 8960   3.678   4.602   0.106 -0.6541 -0.2322 -0.0696
 2985TIP3    H1 8961   3.619   4.633   0.175  0.7027 -0.6085  1.3096
 2985TIP3    H2 8962   3.741   4.547   0.152  2.4368  2.2634 -0.9742
 2986TIP3   OH2 8963   1.800   5.818   2.141  0.5319 -0.4041  0.1162
 2986TIP3    H1 8964   1.762   5.792   2.225  1.1402  1.5432  1.0485
 2986TIP3    H2 8965   1.829   5.908   2.154  2.0884 -0.5682 -1.7162
 2987TIP3   OH2 8966   0.432   3.825   2.918 -0.4603  0.1582  0.1663
 2987TIP3    H1 8967   0.380   3.884   2.863  0.2081 -0.2891 -0.9965
 2987TIP3    H2 8968   0.441   3.745   2.865 -1.3328 -0.9948  1.7039
 2988TIP3   OH2 8969   2.688   1.830   1.741 -0.3105 -0.7187 -0.2567
 2988TIP3    H1 8970   2.716   1.872   1.659  2.4393 -2.8540 -0.5767
 2988TIP3    H2 8971   2.594   1.818   1.731 -0.4310  1.1072 -2.0763
 2989TIP3   OH2 8972   2.217   5.472   2.795 -0.0678  0.3975  0.6547
 2989TIP3    H1 8973   2.266   5.531   2.853 -0.5543  0.9951  0.4708
 2989TIP3    H2 8974   2.140   5.446   2.847  0.3807 -0.4721  0.9129
 2990TIP3   OH2 8975   5.636   3.270   1.909  0.1797  0.4095 -0.4118
 2990TIP3    H1 8976   5.559   3.246   1.961  1.4994  0.0122  1.4661
 2990TIP3    H2 8977   5.651   3.362   1.930 -0.4553  0.8296 -1.7176
 2991TIP3   OH2 8978   2.576   5.367   1.164  0.1069  0.5137  0.0180
 2991TIP3    H1 8979   2.553   5.433   1.099  1.7884 -0.4959 -1.7184
 2991TIP3    H2 8980   2.633   5.413   1.226 -0.7904  1.2780  0.2908
 2992TIP3   OH2 8981   3.736   2.600   5.122  0.8241  0.3120  0.2110
 2992TIP3    H1 8982   3.681   2.522   5.131  2.7609 -1.0288  1.2393
 2992TIP3    H2 8983   3.677   2.668   5.091 -1.6527 -0.7428  2.2334
 2993TIP3   OH2 8984   3.015   1.420   2.724  0.4494  0.4190  0.1092
 2993TIP3    H1 8985   3.022   1.345   2.665  0.9476  1.2848 -0.9792
 2993TIP3    H2 8986   2.982   1.491   2.668  3.0877  1.9019  0.2789
 2994TIP3   OH2 8987   1.350   1.976   2.260  0.4993 -0.0097  0.2519
 2994TIP3    H1 8988   1.394   1.891   2.249  1.2019  0.4427 -0.5580
 2994TIP3    H2 8989   1.283   1.960   2.327 -0.8449 -1.7720 -1.4082
 2995TIP3   OH2 8990   5.362   0.672   1.811 -0.3000 -0.3295  0.3608
 2995TIP3    H1 8991   5.315   0.724   1.877 -0.9920  0.8608 -1.0143
 2995TIP3    H2 8992   5.302   0.667   1.737  1.0393 -0.3125 -0.7730
 2996TIP3   OH2 8993   3.654   0.151   1.048  0.0534 -0.0091  0.2791
 2996TIP3    H1 8994   3.593   0.132   1.120  1.1409 -0.5217  1.0935
 2996TIP3    H2 8995   3.610   0.115   0.971  0.4612 -2.8232  1.2480
 2997TIP3   OH2 8996   6.360   2.711   1.714  0.2361 -0.0308 -0.4844
 2997TIP3    H1 8997   6.285   2.665   1.675 -1.3381  0.8110  1.3970
 2997TIP3    H2 8998   6.372   2.788   1.658  0.4685 -0.7600 -1.4648
 2998TIP3   OH2 8999   0.850   1.907   0.755  0.0634  0.3511  0.0716
 2998TIP3    H1 9000   0.860   1.813   0.742  1.4385  0.5963 -0.9091
 2998TIP3    H2 9001   0.782   1.933   0.692 -1.8400 -0.2615  1.7876
 2999TIP3   OH2 9002   5.574   5.628   3.724  0.7351  0.2183  0.6813
 2999TIP3    H1 9003   5.549   5.719   3.734  2.2534  0.5927  1.3549
 2999TIP3    H2 9004   5.574   5.612   3.630  0.3125  0.8577  0.5732
 3000TIP3   OH2 9005   3.241   0.525   2.983  0.7793  0.0965  0.2076
 3000TIP3    H1 9006   3.320   0.483   3.016  0.7720  0.2282  0.3920
 3000TIP3    H2 9007   3.186   0.452   2.952 -0.0546 -0.2188  2.2482
 3001TIP3   OH2 9008   0.786   5.391   4.853 -0.6338  0.3338 -0.2822
 3001TIP3    H1 9009   0.770   5.348   4.937 -1.3754  0.9826 -0.0749
 3001TIP3    H2 9010   0.703   5.436   4.834 -0.2454  0.7426 -1.0303
 3002TIP3   OH2 9011   4.179   5.899   2.588 -0.1605 -0.0374  0.3264
 3002TIP3    H1 9012   4.182   5.806   2.567  0.8900  0.2031 -0.6682
 3002TIP3    H2 9013   4.189   5.902   2.683  0.4811 -0.9109  0.2971
 3003TIP3   OH2 9014   3.683   3.517   4.678  0.0402 -0.5734 -0.8324
 3003TIP3    H1 9015   3.676   3.467   4.597 -1.3841 -0.1156 -1.0313
 3003TIP3    H2 9016   3.665   3.454   4.747  1.8324 -1.0925 -0.8044
 3004TIP3   OH2 9017   0.342   1.556   0.410 -0.3395 -0.1907  0.0546
 3004TIP3    H1 9018   0.293   1.492   0.462 -1.4052  1.2190  0.8480
 3004TIP3    H2 9019   0.312   1.641   0.443  2.1691  0.7423  0.1419
 3005TIP3   OH2 9020   0.244   5.281   3.644 -0.2661  0.9205  0.2181
 3005TIP3    H1 9021   0.229   5.352   3.707 -2.3503  0.9339 -0.2141
 3005TIP3    H2 9022   0.307   5.318   3.582 -0.7170  2.1289  0.4410
 3006TIP3   OH2 9023   1.092   2.000   0.640 -0.0757 -0.5170  0.0429
 3006TIP3    H1 9024   1.006   1.970   0.670 -0.3258 -0.5418 -0.6856
 3006TIP3    H2 9025   1.154   1.955   0.697 -0.5665  0.6315  1.5908
 3007TIP3   OH2 9026   1.604   0.662   4.606  0.3524  0.5487 -0.2769
 3007TIP3    H1 9027   1.613   0.633   4.515 -0.9940 -3.2829  0.6128
 3007TIP3    H2 9028   1.510   0.667   4.620  0.5141 -0.3369  1.2696
 3008TIP3   OH2 9029   3.078   0.382   4.380 -0.3181  0.0688 -0.1995
 3008TIP3    H1 9030   3.034   0.436   4.314  2.4197  1.3281 -1.1676
 3008TIP3    H2 9031   3.042   0.294   4.368 -1.4332  0.7151 -1.8975
 3009TIP3   OH2 9032   4.314   2.376   3.238  0.1907  0.4093 -0.0171
 3009TIP3    H1 9033   4.333   2.462   3.275 -1.8382  1.1715 -0.6399
 3009TIP3    H2 9034   4.385   2.361   3.176  1.1695  1.1115  0.8852
 3010TIP3   OH2 9035   4.282   2.896   0.527  0.1252  0.2302 -0.1378
 3010TIP3    H1 9036   4.256   2.977   0.483  0.1035  1.0627  1.3694
 3010TIP3    H2 9037   4.373   2.882   0.499  0.6017  1.5457  0.6421
 3011TIP3   OH2 9038   6.017   4.477   1.042  0.4175 -0.6057  0.6060
 3011TIP3    H1 9039   6.089   4.432   1.087 -1.1998 -0.5037  3.5474
 3011TIP3    H2 9040   5.951   4.410   1.028  1.6922 -1.2145 -4.0545
 3012TIP3   OH2 9041   1.143   3.156   3.369  0.9157  0.4468 -0.0519
 3012TIP3    H1 9042   1.204   3.208   3.317  1.3501  0.7741  0.7684
 3012TIP3    H2 9043   1.066   3.213   3.379 -0.0047 -0.3722 -1.9980
 3013TIP3   OH2 9044   6.296   3.039   2.517  0.9354 -0.7112 -0.1507
 3013TIP3    H1 9045   6.209   3.078   2.508  0.0823 -2.2207  1.1031
 3013TIP3    H2 9046   6.351   3.112   2.546  0.0319  0.2078 -0.6711
 3014TIP3   OH2 9047   1.330   2.924   1.139 -0.1477  0.0361 -0.0561
 3014TIP3    H1 9048   1.292   2.839   1.163  1.7570 -1.0605 -0.7512
 3014TIP3    H2 9049   1.334   2.973   1.221 -0.7892 -0.7264  0.4470
 3015TIP3   OH2 9050   0.545   2.166   4.383 -0.2971  0.2896 -0.0570
 3015TIP3    H1 9051   0.536   2.072   4.398  0.6908  0.0333 -0.8875
 3015TIP3    H2 9052   0.593   2.198   4.459  1.5137 -0.3519 -0.8411
 3016TIP3   OH2 9053   4.650   2.866   1.147 -0.6043  0.2802  0.2611
 3016TIP3    H1 9054   4.734   2.866   1.101  0.0081 -0.9142  1.2878
 3016TIP3    H2 9055   4.602   2.793   1.109 -0.8375  0.4354  0.2577
 3017TIP3   OH2 9056   1.451   4.030   2.362  0.5759  0.4422 -0.5051
 3017TIP3    H1 9057   1.507   3.970   2.410  0.7911  0.1006 -1.1599
 3017TIP3    H2 9058   1.377   3.977   2.333 -0.2172  0.9444  0.5506
 3018TIP3   OH2 9059   2.739   0.282   1.686  0.2811 -0.0340  0.3446
 3018TIP3    H1 9060   2.713   0.365   1.726 -0.6941 -0.0958 -0.1303
 3018TIP3    H2 9061   2.816   0.255   1.735 -0.5392  0.1694  1.8206
 3019TIP3   OH2 9062   0.135   2.364   0.510 -0.0206  0.3285 -0.0312
 3019TIP3    H1 9063   0.151   2.270   0.504  0.1466  0.3987 -0.7596
 3019TIP3    H2 9064   0.070   2.372   0.579 -1.9389 -0.5668 -1.6157
 3020TIP3   OH2 9065   1.486   0.616   3.035  0.1296 -0.6609 -0.3369
 3020TIP3    H1 9066   1.480   0.704   3.072  0.9092 -0.3916 -0.8197
 3020TIP3    H2 9067   1.409   0.608   2.978  1.1659  0.5442 -1.9912
 3021TIP3   OH2 9068   3.670   1.881   4.223 -0.1845 -0.1152  0.4468
 3021TIP3    H1 9069   3.579   1.893   4.196 -0.4137 -2.1336  0.2007
 3021TIP3    H2 9070   3.711   1.832   4.152  0.3598 -1.6105  1.7176
 3022TIP3   OH2 9071   2.079   3.392   1.285 -0.2924  0.4044 -0.1250
 3022TIP3    H1 9072   2.080   3.477   1.328 -0.9621  0.3286  0.0603
 3022TIP3    H2 9073   1.988   3.381   1.257  0.0626  0.3068 -1.2790
 3023TIP3   OH2 9074   1.266   2.177   1.705 -0.1539 -0.3018 -0.2433
 3023TIP3    H1 9075   1.357   2.181   1.734 -0.5677  1.6869  0.9534
 3023TIP3    H2 9076   1.232   2.096   1.743  0.9198 -0.7162 -0.1336
 3024TIP3   OH2 9077   3.723   0.244   4.835 -0.4516 -0.1961  0.0477
 3024TIP3    H1 9078   3.748   0.316   4.893 -1.8354  1.8760 -1.7661
 3024TIP3    H2 9079   3.795   0.182   4.841  1.5146  2.0067  0.6579
 3025TIP3   OH2 9080   3.993   4.598   0.782 -0.4152  0.1620 -0.0364
 3025TIP3    H1 9081   3.942   4.648   0.846  1.6387 -0.1879  2.0069
 3025TIP3    H2 9082   4.050   4.542   0.835  0.5536 -1.0459 -2.2126
 3026TIP3   OH2 9083   2.783   1.357   0.608 -0.1960 -0.0247  0.6209
 3026TIP3    H1 9084   2.836   1.427   0.570  0.5444 -0.3138  1.0973
 3026TIP3    H2 9085   2.707   1.351   0.550 -0.5447  1.5230  0.8837
 3027TIP3   OH2 9086   5.375   2.319   2.424  0.3507 -0.3373 -0.3344
 3027TIP3    H1 9087   5.406   2.401   2.465  3.0958 -0.9462 -0.9799
 3027TIP3    H2 9088   5.331   2.348   2.344  1.4000  0.5405 -0.6271
 3028TIP3   OH2 9089   5.559   2.989   4.361 -0.0423  0.1471  0.1760
 3028TIP3    H1 9090   5.599   3.064   4.316 -0.7365  0.4528  0.0529
 3028TIP3    H2 9091   5.465   2.998   4.343 -0.3239  0.2075  1.5680
 3029TIP3   OH2 9092   1.505   1.246   4.153 -0.2127  0.2917 -0.7357
 3029TIP3    H1 9093   1.463   1.203   4.227 -0.0824 -0.2735 -0.9839
 3029TIP3    H2 9094   1.509   1.339   4.177 -0.6843  0.1943 -0.2839
 3030TIP3   OH2 9095   5.274   2.216   0.201  0.5401 -0.8649 -0.2565
 3030TIP3    H1 9096   5.217   2.139   0.207  0.1170 -0.5297  0.0809
 3030TIP3    H2 9097   5.227   2.277   0.144 -0.0163 -0.1110  0.9574
 3031TIP3   OH2 9098   0.026   3.194   3.992 -0.3695  0.6206  0.0029
 3031TIP3    H1 9099   0.076   3.242   4.058  0.5177  0.6061 -0.6320
 3031TIP3    H2 9100   0.092   3.144   3.944 -1.0438  0.3069 -0.6193
 3032TIP3   OH2 9101   3.551   0.918   0.190 -0.7253  0.3087  0.1528
 3032TIP3    H1 9102   3.646   0.926   0.183 -0.4083 -2.0765  0.9672
 3032TIP3    H2 9103   3.520   0.933   0.101  0.6200 -1.0500 -0.5857
 3033TIP3   OH2 9104   2.364   4.861   0.679 -0.5336  0.3403  0.0247
 3033TIP3    H1 9105   2.441   4.901   0.718  0.1836 -0.3486 -0.6488
 3033TIP3    H2 9106   2.382   4.860   0.585 -0.9367 -0.7130 -0.0516
 3034TIP3   OH2 9107   3.541   1.482   1.554 -0.8458 -0.2199  0.6617
 3034TIP3    H1 9108   3.599   1.552   1.582 -0.1276 -0.2771 -0.6178
 3034TIP3    H2 9109   3.458   1.525   1.533 -0.2626  0.3240 -0.5740
 3035TIP3   OH2 9110   1.361   3.229   3.208 -0.6172  0.2021 -0.7354
 3035TIP3    H1 9111   1.329   3.312   3.171 -0.6295 -0.0110 -1.2098
 3035TIP3    H2 9112   1.429   3.201   3.146  0.1287  0.3868 -0.0188
 3036TIP3   OH2 9113   4.456   5.396   2.524  0.5800  0.4097 -0.0394
 3036TIP3    H1 9114   4.435   5.366   2.436  1.6170 -0.3065 -0.0630
 3036TIP3    H2 9115   4.378   5.375   2.576  0.4545 -0.3805 -0.5219
 3037TIP3   OH2 9116   1.903   3.209   0.997 -0.4529  0.4454 -0.2193
 3037TIP3    H1 9117   1.992   3.177   1.011  0.0333  1.2124 -1.4390
 3037TIP3    H2 9118   1.856   3.133   0.963  0.5355  0.7891 -2.5097
 3038TIP3   OH2 9119   2.179   3.856   4.384 -0.3206  0.2798  0.2821
 3038TIP3    H1 9120   2.115   3.785   4.394 -0.9521  0.7498 -0.3828
 3038TIP3    H2 9121   2.253   3.828   4.438 -0.6689 -0.7568  0.2470
 3039TIP3   OH2 9122   3.666   0.619   0.802 -0.3661 -0.0670  0.0445
 3039TIP3    H1 9123   3.656   0.598   0.710  0.6412 -0.7154  0.0789
 3039TIP3    H2 9124   3.645   0.713   0.807  1.4901  0.4622 -1.1768
 3040TIP3   OH2 9125   4.821   3.611   2.216 -0.1020 -0.0691 -0.3875
 3040TIP3    H1 9126   4.817   3.706   2.229  0.8284 -0.1923  0.9979
 3040TIP3    H2 9127   4.733   3.580   2.238  0.0127  0.3214  0.6699
 3041TIP3   OH2 9128   1.073   1.719   1.141  0.0165  0.6155  0.3647
 3041TIP3    H1 9129   1.090   1.675   1.225 -1.5886 -1.8789 -0.5021
 3041TIP3    H2 9130   0.982   1.748   1.147 -0.2452  0.0530 -0.6290
 3042TIP3   OH2 9131   2.738   2.066   4.731  0.3620 -0.0015 -0.4512
 3042TIP3    H1 9132   2.645   2.071   4.752  0.3983  2.4462 -0.5577
 3042TIP3    H2 9133   2.746   2.109   4.646  1.5600 -0.4168 -0.5731
 3043TIP3   OH2 9134   1.047   0.697   2.463  0.0537 -0.0017  0.3749
 3043TIP3    H1 9135   1.065   0.619   2.516 -0.1584  0.0613  0.5407
 3043TIP3    H2 9136   1.128   0.712   2.415  0.6247  0.5558  1.4688
 3044TIP3   OH2 9137   2.022   2.061   4.274 -0.4772 -0.5326  0.1905
 3044TIP3    H1 9138   2.046   2.002   4.203  0.6342 -2.4076  1.9977
 3044TIP3    H2 9139   2.091   2.127   4.275 -1.9848  1.2501 -2.1585
 3045TIP3   OH2 9140   5.289   2.857   0.589  0.5035  0.3126 -0.3075
 3045TIP3    H1 9141   5.325   2.813   0.666  0.5931  1.7689  0.5327
 3045TIP3    H2 9142   5.267   2.787   0.528 -0.8207 -0.9727  1.5708
 3046TIP3   OH2 9143   3.665   0.582   0.258  0.2902  0.0173  0.5191
 3046TIP3    H1 9144   3.606   0.608   0.187  2.0163  0.2602 -0.9262
 3046TIP3    H2 9145   3.737   0.645   0.253  1.3970 -1.1470  1.2221
 3047TIP3   OH2 9146   4.598   1.218   1.901  0.1059  0.0039 -0.1503
 3047TIP3    H1 9147   4.511   1.238   1.867 -0.9025 -0.3111  2.0576
 3047TIP3    H2 9148   4.658   1.245   1.832 -1.7406  0.0519 -1.8079
 3048TIP3   OH2 9149   3.977   4.176   3.816  0.1537 -0.2045 -0.2676
 3048TIP3    H1 9150   3.936   4.232   3.882 -0.7343 -0.3012 -0.7224
 3048TIP3    H2 9151   4.066   4.210   3.808 -0.8014  2.2383 -1.6921
 3049TIP3   OH2 9152   2.957   1.875   4.762 -0.1714  0.0507  0.1402
 3049TIP3    H1 9153   2.910   1.802   4.722  1.8246 -1.3651  0.2089
 3049TIP3    H2 9154   2.890   1.940   4.780 -1.6426 -0.5801 -2.5261
 3050TIP3   OH2 9155   1.160   5.942   3.736  0.3143  0.4869 -0.3075
 3050TIP3    H1 9156   1.111   6.022   3.715 -0.2441  0.2498  0.0592
 3050TIP3    H2 9157   1.121   5.875   3.680 -0.6739  0.0158  0.8781
 3051TIP3   OH2 9158   0.599   1.611   5.105  0.3198 -0.0962  0.0833
 3051TIP3    H1 9159   0.505   1.616   5.088  0.5336  1.2733 -0.8241
 3051TIP3    H2 9160   0.634   1.559   5.033  0.3216 -0.1876  0.1500
 3052TIP3   OH2 9161   1.229   1.182   2.380 -0.2323  0.0616  0.3432
 3052TIP3    H1 9162   1.134   1.169   2.385 -0.5364  1.7103 -0.3905
 3052TIP3    H2 9163   1.259   1.174   2.470 -1.2179  0.5499  0.7280
 3053TIP3   OH2 9164   5.425   3.269   3.938 -1.2474 -0.6846 -0.4629
 3053TIP3    H1 9165   5.384   3.255   4.023 -1.2456  0.3992 -0.2737
 3053TIP3    H2 9166   5.473   3.352   3.947  1.0773 -1.9269 -0.6575
 3054TIP3   OH2 9167   3.899   3.292   4.893 -0.5521 -0.2513  0.4077
 3054TIP3    H1 9168   3.909   3.283   4.798 -0.0423  0.4985  0.3837
 3054TIP3    H2 9169   3.805   3.278   4.908 -0.7053  0.0116 -0.2524
 3055TIP3   OH2 9170   3.622   1.255   3.594  0.7846 -0.2661 -0.9020
 3055TIP3    H1 9171   3.539   1.286   3.629  0.0198 -0.4653 -2.4514
 3055TIP3    H2 9172   3.600   1.218   3.508  2.8053  1.8979 -2.4894
 3056TIP3   OH2 9173   5.780   0.174   1.862  0.1795  0.0218 -0.3355
 3056TIP3    H1 9174   5.800   0.102   1.922  1.0554  1.2024  0.8345
 3056TIP3    H2 9175   5.814   0.144   1.778  0.0077 -1.1654 -0.0114
 3057TIP3   OH2 9176   3.870   3.386   0.035 -0.6431  0.3508 -0.5333
 3057TIP3    H1 9177   3.896   3.329  -0.038 -0.8121 -1.0919  0.4815
 3057TIP3    H2 9178   3.776   3.374   0.041 -0.6840  0.7834 -0.3384
 3058TIP3   OH2 9179   1.625   4.633   3.160 -0.1701  0.1564 -0.0689
 3058TIP3    H1 9180   1.619   4.644   3.255  2.0368  2.7425 -0.1437
 3058TIP3    H2 9181   1.533   4.627   3.131 -0.9733  1.4764  2.0098
 3059TIP3   OH2 9182   2.240   4.015   3.317  0.6863  0.1281  0.1167
 3059TIP3    H1 9183   2.264   3.935   3.365  0.5024  0.0593  0.0965
 3059TIP3    H2 9184   2.321   4.065   3.311  1.0568 -0.5453 -0.8094
 3060TIP3   OH2 9185   1.579   2.254   2.123  0.3552  0.0102 -0.0485
 3060TIP3    H1 9186   1.610   2.313   2.054  0.7402  0.7540  0.7450
 3060TIP3    H2 9187   1.509   2.203   2.081 -1.9562  2.9256 -0.0458
 3061TIP3   OH2 9188   1.955   4.051   4.965  0.5596  0.1715 -0.4524
 3061TIP3    H1 9189   1.884   4.109   4.991  0.7135 -0.2190  0.8881
 3061TIP3    H2 9190   2.035   4.102   4.978  0.5872  0.3310 -1.1866
 3062TIP3   OH2 9191   1.206   2.207   4.721  0.1566  0.2205  0.5797
 3062TIP3    H1 9192   1.248   2.290   4.741  1.0752  0.3009 -1.5194
 3062TIP3    H2 9193   1.265   2.163   4.660 -2.0140 -0.3508 -1.2390
 3063TIP3   OH2 9194   6.063   0.548   0.869  0.3839  0.5868  0.0648
 3063TIP3    H1 9195   6.059   0.544   0.965 -1.0018 -1.9451 -0.0071
 3063TIP3    H2 9196   6.145   0.503   0.847  0.0216 -0.0566  0.0283
 3064TIP3   OH2 9197   0.396   3.420   1.588 -0.0893  0.5488  0.2007
 3064TIP3    H1 9198   0.332   3.434   1.657 -0.2242 -0.6708  0.3563
 3064TIP3    H2 9199   0.384   3.493   1.528 -2.2462 -0.0948 -0.2349
 3065TIP3   OH2 9200   5.138   0.832   1.954 -0.8780  0.1861 -0.1388
 3065TIP3    H1 9201   5.099   0.919   1.957 -0.9362  0.1574 -0.0867
 3065TIP3    H2 9202   5.072   0.774   1.990 -1.3730 -0.0760 -1.4352
 3066TIP3   OH2 9203   5.549   3.932   5.119 -0.2682  0.5965 -0.0574
 3066TIP3    H1 9204   5.564   3.933   5.024  0.0413 -1.5075 -0.0739
 3066TIP3    H2 9205   5.501   4.013   5.136  0.7414  1.6344 -1.8159
 3067TIP3   OH2 9206   4.308   5.217   4.746 -0.2088  0.0402  0.3868
 3067TIP3    H1 9207   4.215   5.196   4.732 -0.4590  0.6032  1.1531
 3067TIP3    H2 9208   4.343   5.230   4.657 -0.9505  0.1786  0.1083
 3068TIP3   OH2 9209   2.532   2.553   1.402 -0.4142  0.7669  0.4794
 3068TIP3    H1 9210   2.589   2.512   1.467 -1.2534  0.0434  0.7766
 3068TIP3    H2 9211   2.445   2.521   1.423 -0.8470  1.3572 -0.3626
 3069TIP3   OH2 9212   2.648   0.262   2.348 -0.4222 -0.6403 -0.4656
 3069TIP3    H1 9213   2.571   0.311   2.320 -0.1827 -0.4750 -0.8335
 3069TIP3    H2 9214   2.630   0.240   2.440 -0.2220  0.7249 -0.0895
 3070TIP3   OH2 9215   5.302   0.280   2.510  0.2264 -0.1073 -0.7253
 3070TIP3    H1 9216   5.238   0.225   2.465 -0.0788 -0.3125 -0.0434
 3070TIP3    H2 9217   5.251   0.351   2.549  0.3484 -0.5144  0.1969
 3071TIP3   OH2 9218   5.795   0.669   1.985 -0.5458 -0.6020  0.4598
 3071TIP3    H1 9219   5.750   0.679   2.070 -1.2270  0.7276 -0.0281
 3071TIP3    H2 9220   5.867   0.609   2.003 -0.6134 -0.2643  2.0252
 3072TIP3   OH2 9221   2.909   2.526   0.419 -0.1282 -0.1786 -0.0054
 3072TIP3    H1 9222   2.995   2.531   0.377  0.3087 -0.8739  0.7767
 3072TIP3    H2 9223   2.918   2.576   0.500 -1.0668  1.4480 -0.8338
 3073TIP3   OH2 9224   2.234   2.227   4.681 -0.2203  0.0281  0.3765
 3073TIP3    H1 9225   2.241   2.279   4.601 -1.2223  1.4494  1.1646
 3073TIP3    H2 9226   2.143   2.198   4.683  0.2541 -1.6127  0.0876
 3074TIP3   OH2 9227   4.069   3.775   3.499  0.0051 -0.0506 -0.1146
 3074TIP3    H1 9228   4.148   3.790   3.446  0.7607  1.2168  1.2894
 3074TIP3    H2 9229   4.075   3.839   3.569 -2.2244 -0.0489  0.1402
 3075TIP3   OH2 9230   5.766   5.370   4.186 -0.4598 -0.3847  0.2675
 3075TIP3    H1 9231   5.781   5.379   4.280  1.9517  0.0511 -0.0823
 3075TIP3    H2 9232   5.777   5.276   4.169 -1.3625 -0.5363  0.4541
 3076TIP3   OH2 9233   4.573   4.311   3.039  0.1048 -0.0339 -0.1349
 3076TIP3    H1 9234   4.506   4.358   2.989 -0.9147 -1.2618  0.0309
 3076TIP3    H2 9235   4.569   4.350   3.126  0.9440  1.1748 -0.6012
 3077TIP3   OH2 9236   0.704   5.781   0.440  0.1677  0.4180  0.1791
 3077TIP3    H1 9237   0.697   5.849   0.372 -0.9882  1.5781  1.3995
 3077TIP3    H2 9238   0.766   5.817   0.503 -0.0970  0.1337  0.6030
 3078TIP3   OH2 9239   1.451   4.232   1.960 -0.8372  0.8287  0.1657
 3078TIP3    H1 9240   1.478   4.300   2.021 -1.8611  0.9710  0.4690
 3078TIP3    H2 9241   1.357   4.243   1.951 -0.7262  0.8041 -1.4368
 3079TIP3   OH2 9242   2.065   0.327   4.808 -0.1015  0.2581 -0.5987
 3079TIP3    H1 9243   2.028   0.309   4.721  0.4750  2.5951 -1.4010
 3079TIP3    H2 9244   2.150   0.283   4.806  0.0624  0.5742 -1.3889
 3080TIP3   OH2 9245   5.064   4.641   3.487  0.5674 -0.3008  0.5645
 3080TIP3    H1 9246   5.075   4.730   3.519 -0.5065 -0.1121  0.4472
 3080TIP3    H2 9247   5.064   4.587   3.565 -2.5778  0.2071  1.0326
 3081TIP3   OH2 9248   5.816   1.301   4.750  0.3104 -0.0151 -0.0310
 3081TIP3    H1 9249   5.729   1.277   4.783  0.1344  0.8494  0.1615
 3081TIP3    H2 9250   5.844   1.225   4.700 -0.6838 -0.1959 -0.3418
 3082TIP3   OH2 9251   6.013   5.287   0.189  0.1488 -0.5152  0.1190
 3082TIP3    H1 9252   6.013   5.192   0.199 -1.0627 -0.5775 -0.2536
 3082TIP3    H2 9253   6.038   5.320   0.276  0.1329 -1.1762  0.3811
 3083TIP3   OH2 9254   4.341   3.233   2.647  0.5544  0.0727  0.0905
 3083TIP3    H1 9255   4.397   3.164   2.611  0.1019  0.7951 -2.1311
 3083TIP3    H2 9256   4.393   3.273   2.717  2.2946 -0.1266 -1.0494
 3084TIP3   OH2 9257   3.269   4.074   4.936 -0.4382 -0.7990 -0.2222
 3084TIP3    H1 9258   3.204   4.127   4.982 -0.0693  1.5866 -2.2378
 3084TIP3    H2 9259   3.352   4.096   4.976 -0.5571 -2.0121  0.7486
 3085TIP3   OH2 9260   2.404   4.630   5.087  0.0539 -0.3060 -0.2255
 3085TIP3    H1 9261   2.390   4.693   5.158 -0.7946  2.3707 -2.5748
 3085TIP3    H2 9262   2.499   4.625   5.077  0.1782  3.0563 -1.8571
 3086TIP3   OH2 9263   2.014   0.550   4.235  0.0321 -0.2854 -0.8008
 3086TIP3    H1 9264   2.024   0.457   4.215  0.9246 -0.1843 -0.8556
 3086TIP3    H2 9265   2.103   0.583   4.241 -0.2432  0.2932  0.5408
 3087TIP3   OH2 9266   2.270   1.588   3.467 -0.0354  0.4690 -0.0779
 3087TIP3    H1 9267   2.308   1.647   3.402  1.1591 -0.4689 -0.2802
 3087TIP3    H2 9268   2.325   1.600   3.545  0.5073 -0.6416 -0.2566
 3088TIP3   OH2 9269   5.358   2.113   2.592 -0.3230 -0.1625  0.3345
 3088TIP3    H1 9270   5.272   2.106   2.634 -0.0934  1.4802  1.1473
 3088TIP3    H2 9271   5.352   2.191   2.537  0.0360 -1.1533 -1.1852
 3089TIP3   OH2 9272   4.477   4.745   2.200  0.5145  0.4820  0.2070
 3089TIP3    H1 9273   4.391   4.737   2.243  0.7677  0.2802  0.6755
 3089TIP3    H2 9274   4.483   4.838   2.177  0.3042  0.5583  0.4511
 3090TIP3   OH2 9275   5.317   3.622   1.014 -0.7117 -0.3195  0.0856
 3090TIP3    H1 9276   5.245   3.677   1.045 -1.3278  0.6373 -2.7188
 3090TIP3    H2 9277   5.273   3.547   0.972 -0.0117 -0.7379  0.0857
 3091TIP3   OH2 9278   5.847   5.390   4.500  0.3595  0.0925  0.0242
 3091TIP3    H1 9279   5.828   5.484   4.507 -0.3203 -0.0803  0.7358
 3091TIP3    H2 9280   5.761   5.348   4.508  0.6485 -0.5908 -0.3789
 3092TIP3   OH2 9281   0.812   1.947   3.211  0.6993 -0.4980 -0.1158
 3092TIP3    H1 9282   0.816   1.859   3.247  1.6940 -0.8758 -1.1007
 3092TIP3    H2 9283   0.857   1.941   3.127 -1.2479  0.4463 -1.2804
 3093TIP3   OH2 9284   4.572   3.304   3.202  0.2360  0.4176 -0.0019
 3093TIP3    H1 9285   4.499   3.366   3.211  0.9191  1.2791 -0.2834
 3093TIP3    H2 9286   4.532   3.218   3.215 -0.6822  0.9293  0.7143
 3094TIP3   OH2 9287   1.105   3.371   2.352  0.3262  0.4075  0.4054
 3094TIP3    H1 9288   1.146   3.298   2.397  0.1056  0.5924  0.9091
 3094TIP3    H2 9289   1.153   3.449   2.382 -0.8865  0.7149  1.6186
 3095TIP3   OH2 9290   3.080   2.868   0.072  0.1881 -0.2463 -0.0017
 3095TIP3    H1 9291   3.116   2.799   0.016 -0.9676  0.0096 -1.0971
 3095TIP3    H2 9292   3.127   2.858   0.155  3.3375  0.5213 -1.5236
 3096TIP3   OH2 9293   5.798   1.515   3.267  0.2788 -0.2944  0.0593
 3096TIP3    H1 9294   5.793   1.502   3.172 -1.8244 -1.0495  0.2087
 3096TIP3    H2 9295   5.872   1.574   3.279  1.7769 -1.6529 -1.8759
 3097TIP3   OH2 9296   1.943   1.193   1.156 -0.0316 -0.5319  0.3364
 3097TIP3    H1 9297   1.905   1.155   1.077 -1.7656  0.2984  0.7252
 3097TIP3    H2 9298   1.868   1.215   1.210  0.7215  3.8057 -0.0264
 3098TIP3   OH2 9299   0.532   5.794   5.004 -0.0557 -0.1610 -0.5557
 3098TIP3    H1 9300   0.622   5.811   4.978  0.1529 -0.2291  0.1146
 3098TIP3    H2 9301   0.539   5.746   5.086 -0.7153  1.6125  0.6036
 3099TIP3   OH2 9302   2.077   1.402   0.008 -0.2961  0.2213  0.2606
 3099TIP3    H1 9303   2.092   1.410   0.102  0.5414  0.1465  0.1385
 3099TIP3    H2 9304   2.154   1.356  -0.025 -0.8229 -0.2140 -0.3886
 3100TIP3   OH2 9305   3.265   4.052   4.184 -0.5561  0.2832 -0.2213
 3100TIP3    H1 9306   3.319   4.069   4.261 -0.9278  0.7902 -0.0729
 3100TIP3    H2 9307   3.192   4.113   4.190 -0.4987  0.4554 -1.0690
 3101TIP3   OH2 9308   4.240   4.672   4.040  0.2005  0.0977  0.1457
 3101TIP3    H1 9309   4.194   4.748   4.074  0.7902  1.2858 -1.5866
 3101TIP3    H2 9310   4.182   4.638   3.971  0.5473 -0.2249  0.0076
 3102TIP3   OH2 9311   1.357   4.203   5.000 -0.7151 -0.4447 -0.0700
 3102TIP3    H1 9312   1.265   4.175   4.996 -0.5667 -0.7756 -2.4644
 3102TIP3    H2 9313   1.370   4.228   5.091 -2.7495 -1.8567  0.6870
 3103TIP3   OH2 9314   6.127   1.655   4.434 -0.5181 -0.4222 -0.6726
 3103TIP3    H1 9315   6.171   1.573   4.412  0.5638  0.2008 -0.9207
 3103TIP3    H2 9316   6.096   1.642   4.524 -0.4312 -1.1282 -0.7415
 3104TIP3   OH2 9317   4.620   2.044   2.723  0.5919 -0.2584  0.4570
 3104TIP3    H1 9318   4.537   2.060   2.679  0.6801  1.0290  0.6919
 3104TIP3    H2 9319   4.618   1.951   2.746 -0.3054 -0.4940 -0.4862
 3105TIP3   OH2 9320   2.218   4.898   3.300  0.3260  0.2750 -0.2849
 3105TIP3    H1 9321   2.267   4.819   3.276  0.1258 -0.0003  0.2069
 3105TIP3    H2 9322   2.165   4.918   3.223 -1.0283 -1.1508  0.2339
 3106TIP3   OH2 9323   3.497   1.994   2.030  0.1735  0.2429 -0.5798
 3106TIP3    H1 9324   3.521   1.924   1.970  0.3414  0.0018 -0.2337
 3106TIP3    H2 9325   3.551   1.978   2.108  0.4413  0.9299 -0.6183
 3107TIP3   OH2 9326   0.173   5.283   0.778  0.1804  0.3703  0.4668
 3107TIP3    H1 9327   0.096   5.330   0.745  0.0738  0.7614  1.2589
 3107TIP3    H2 9328   0.246   5.340   0.755  0.1885  0.2316  0.1467
 3108TIP3   OH2 9329   6.040   4.147   2.630  0.3302 -0.1287 -0.2421
 3108TIP3    H1 9330   6.032   4.196   2.711 -1.6633  0.0638 -0.5196
 3108TIP3    H2 9331   5.972   4.080   2.635 -0.6502  0.6420 -2.2585
 3109TIP3   OH2 9332   2.625   1.544   1.573 -0.1535 -0.7468  0.0187
 3109TIP3    H1 9333   2.697   1.598   1.540 -2.0164  1.8077 -0.1773
 3109TIP3    H2 9334   2.559   1.546   1.504 -1.3890 -0.9985  1.1495
 3110TIP3   OH2 9335   0.672   5.576   4.288 -0.7492  0.5193  0.2283
 3110TIP3    H1 9336   0.680   5.658   4.336 -1.3349  1.0138 -0.4844
 3110TIP3    H2 9337   0.749   5.574   4.231 -1.5409  1.4062 -0.9375
 3111TIP3   OH2 9338   2.367   2.978   4.360  0.4307  0.0373 -0.4559
 3111TIP3    H1 9339   2.461   2.965   4.348  0.6879 -0.3518  1.7324
 3111TIP3    H2 9340   2.357   3.072   4.376  0.4234  0.0797 -0.6955
 3112TIP3   OH2 9341   1.887   2.571   1.357 -0.2801 -0.4117  0.3179
 3112TIP3    H1 9342   1.867   2.598   1.447 -0.6034 -1.4578  0.5719
 3112TIP3    H2 9343   1.973   2.609   1.340 -1.0193  1.4224  0.3669
 3113TIP3   OH2 9344   4.756   0.572   2.906 -0.0266 -0.1821 -0.5047
 3113TIP3    H1 9345   4.702   0.583   2.984 -0.2175 -1.7112 -0.4031
 3113TIP3    H2 9346   4.711   0.624   2.839  0.0543  1.0186  0.3232
 3114TIP3   OH2 9347   2.342   3.724   3.680 -0.0902 -0.2290 -0.0561
 3114TIP3    H1 9348   2.406   3.733   3.750 -1.9060 -1.2890  1.8574
 3114TIP3    H2 9349   2.261   3.699   3.724 -1.4205 -0.6421 -2.5242
 3115TIP3   OH2 9350   5.708   4.178   4.349  0.3561 -0.0334 -1.0274
 3115TIP3    H1 9351   5.760   4.249   4.387 -1.4607  0.3896  0.8030
 3115TIP3    H2 9352   5.640   4.223   4.298  0.2605 -0.5128 -1.3256
 3116TIP3   OH2 9353   4.620   3.203   0.996  0.1461  0.4909  0.2020
 3116TIP3    H1 9354   4.648   3.247   0.916  1.6746 -1.8906 -0.6798
 3116TIP3    H2 9355   4.532   3.170   0.977 -0.1317  1.2540  0.1125
 3117TIP3   OH2 9356   2.483   1.723   5.110  0.4031  0.2651  0.5861
 3117TIP3    H1 9357   2.440   1.732   5.196  1.1344  1.9679  0.8200
 3117TIP3    H2 9358   2.466   1.633   5.084  0.0069 -0.2396  2.4470
 3118TIP3   OH2 9359   2.318   5.206   4.128 -0.0903 -0.5474  0.1880
 3118TIP3    H1 9360   2.381   5.179   4.062  2.8190  0.4719  2.3347
 3118TIP3    H2 9361   2.311   5.301   4.116 -1.7795 -0.7040 -0.3833
 3119TIP3   OH2 9362   0.451   1.996   0.536  0.6416 -0.3114  0.8596
 3119TIP3    H1 9363   0.541   1.973   0.510  0.0987  0.5955 -2.2927
 3119TIP3    H2 9364   0.459   2.083   0.574  1.0657  0.0886 -0.0987
 3120TIP3   OH2 9365   5.113   1.976   0.181  0.1378  0.5470 -0.5866
 3120TIP3    H1 9366   5.133   1.985   0.087 -2.4908 -2.1704 -1.5736
 3120TIP3    H2 9367   5.184   1.923   0.215  0.4399  0.4451 -1.3462
 3121TIP3   OH2 9368   5.266   1.487   1.110  0.5809 -0.1012 -0.0451
 3121TIP3    H1 9369   5.208   1.442   1.049  2.0699 -1.1671 -0.7542
 3121TIP3    H2 9370   5.208   1.538   1.166 -0.9477 -0.4002 -1.2924
 3122TIP3   OH2 9371   5.128   4.300   2.715 -0.6212  0.0423 -0.3267
 3122TIP3    H1 9372   5.201   4.360   2.701  0.5401 -1.4348 -0.8822
 3122TIP3    H2 9373   5.089   4.289   2.628 -0.7953 -0.0507 -0.2364
 3123TIP3   OH2 9374   2.662   2.959   0.794  0.1697 -0.4560  0.4727
 3123TIP3    H1 9375   2.757   2.967   0.796  0.0407  2.2018 -0.1095
 3123TIP3    H2 9376   2.632   3.034   0.742 -2.2006 -1.8128 -0.2914
 3124TIP3   OH2 9377   0.967   3.347   3.029 -0.0286  0.6303  0.7853
 3124TIP3    H1 9378   0.989   3.387   3.114 -1.3433  1.2835  0.8582
 3124TIP3    H2 9379   0.999   3.409   2.964  0.5669  0.3543  0.8108
 3125TIP3   OH2 9380   1.707   2.314   0.536  0.4019 -0.4276  0.2406
 3125TIP3    H1 9381   1.667   2.400   0.547  0.5518 -0.5482  2.0097
 3125TIP3    H2 9382   1.799   2.332   0.518  0.8162 -0.1678  2.3046
 3126TIP3   OH2 9383   5.248   2.981   1.285 -0.0244 -0.2208  0.1129
 3126TIP3    H1 9384   5.254   3.059   1.340  0.2962 -0.2626  0.1358
 3126TIP3    H2 9385   5.154   2.971   1.269  0.0141  0.9773 -1.0319
 3127TIP3   OH2 9386   1.971   2.496   3.637  0.7878 -0.0579 -0.4609
 3127TIP3    H1 9387   1.902   2.543   3.591  1.1865  1.2287  0.2112
 3127TIP3    H2 9388   2.024   2.564   3.678 -0.5709 -1.0371  3.4418
 3128TIP3   OH2 9389   0.989   2.406   2.455 -1.1850  0.3885  0.0570
 3128TIP3    H1 9390   0.930   2.477   2.430  1.1736  2.2184 -0.6184
 3128TIP3    H2 9391   0.975   2.339   2.388 -1.3904  1.4601 -0.9962
 3129TIP3   OH2 9392   5.996   1.126   2.811  0.3636 -0.0032 -0.0277
 3129TIP3    H1 9393   5.928   1.154   2.872 -1.0508  0.9281 -1.9612
 3129TIP3    H2 9394   6.052   1.069   2.864 -0.9568  0.4995  2.0521
 3130TIP3   OH2 9395   1.872   2.650   3.217 -0.1708  0.3833 -0.0183
 3130TIP3    H1 9396   1.945   2.590   3.203 -1.0498 -0.5296 -0.8768
 3130TIP3    H2 9397   1.887   2.721   3.155  0.7890  1.0165  0.8912
 3131TIP3   OH2 9398   0.305   2.324   4.422  0.1853 -0.6353  0.3745
 3131TIP3    H1 9399   0.378   2.261   4.423  0.1034 -0.7578 -0.7877
 3131TIP3    H2 9400   0.261   2.309   4.339  0.4060  1.2441 -0.1272
 3132TIP3   OH2 9401   2.119   2.200   5.020 -0.6604 -1.0037 -0.3919
 3132TIP3    H1 9402   2.183   2.140   4.982  0.3907 -0.3328  0.2896
 3132TIP3    H2 9403   2.057   2.217   4.949  0.1190 -1.3718 -1.1779
 3133TIP3   OH2 9404   5.452   5.071   2.919  0.6992  0.5529  0.5318
 3133TIP3    H1 9405   5.475   4.997   2.975  0.3681 -0.9954 -1.2652
 3133TIP3    H2 9406   5.371   5.045   2.876  1.2466  1.3971 -1.1086
 3134TIP3   OH2 9407   0.180   4.501   2.525  0.3035  0.2285 -0.4853
 3134TIP3    H1 9408   0.087   4.522   2.536  0.1999 -0.5096  0.1891
 3134TIP3    H2 9409   0.203   4.452   2.604  1.3158  0.5362 -0.5671
 3135TIP3   OH2 9410   2.388   3.984   0.992 -0.0914  0.1384  0.6160
 3135TIP3    H1 9411   2.403   3.915   0.927  2.0570  1.3773 -0.3286
 3135TIP3    H2 9412   2.314   4.034   0.959  0.2783  0.0827 -0.3249
 3136TIP3   OH2 9413   3.807   3.969   3.279  0.8586  0.0878  0.3669
 3136TIP3    H1 9414   3.719   3.962   3.241  0.3904 -0.1425  1.4722
 3136TIP3    H2 9415   3.840   4.053   3.247  1.0830 -0.7352 -1.7469
 3137TIP3   OH2 9416   1.670   3.704   4.142 -0.4578  0.1832  0.2767
 3137TIP3    H1 9417   1.624   3.743   4.216 -0.9907  1.4082 -0.6589
 3137TIP3    H2 9418   1.624   3.737   4.065 -2.0650 -3.6764 -0.6620
 3138TIP3   OH2 9419   4.049   1.308   3.259 -0.5483  0.0258 -0.4854
 3138TIP3    H1 9420   4.089   1.384   3.300  0.6916 -0.1517 -1.3190
 3138TIP3    H2 9421   4.117   1.273   3.202 -1.7555 -0.5529 -1.6192
 3139TIP3   OH2 9422   5.566   5.557   4.084  0.7782  0.0454 -0.0076
 3139TIP3    H1 9423   5.488   5.533   4.034 -0.0438  1.4693  0.5201
 3139TIP3    H2 9424   5.606   5.473   4.107 -0.9207 -0.7521  0.2176
 3140TIP3   OH2 9425   0.495   0.194   4.315  0.2187  0.2652 -0.2009
 3140TIP3    H1 9426   0.512   0.169   4.224 -0.7904  0.1912 -0.3878
 3140TIP3    H2 9427   0.409   0.155   4.334  1.4605 -1.7828  1.5790
 3141TIP3   OH2 9428   6.091   1.240   1.908 -0.2649  0.0318  0.0472
 3141TIP3    H1 9429   6.005   1.271   1.880 -0.1573 -0.3942 -0.7985
 3141TIP3    H2 9430   6.097   1.151   1.872 -0.8868 -1.3479  3.0221
 3142TIP3   OH2 9431   3.953   5.489   2.045 -0.0486 -0.1553 -0.3908
 3142TIP3    H1 9432   3.859   5.478   2.029  0.0511  0.1890 -1.2964
 3142TIP3    H2 9433   3.977   5.415   2.100 -0.5745 -1.0512 -1.3300
 3143TIP3   OH2 9434   3.384   0.315   3.701  0.2653 -0.4212  0.1933
 3143TIP3    H1 9435   3.422   0.402   3.690  1.4132 -1.0694 -1.4104
 3143TIP3    H2 9436   3.460   0.257   3.707 -0.4811 -1.3935  0.3793
 3144TIP3   OH2 9437   5.380   2.559   5.010  0.2991  0.0448 -0.6466
 3144TIP3    H1 9438   5.342   2.514   4.935  0.1901  0.3624 -0.7842
 3144TIP3    H2 9439   5.427   2.633   4.972  0.1318  0.2835 -0.3926
 3145TIP3   OH2 9440   1.779   4.454   3.901  0.1545  0.2288 -0.3352
 3145TIP3    H1 9441   1.776   4.531   3.956 -0.3274  0.5317 -0.7715
 3145TIP3    H2 9442   1.848   4.472   3.837  0.8438 -0.2033  0.2764
 3146TIP3   OH2 9443   3.898   2.387   0.771  0.2645  0.4569 -0.1448
 3146TIP3    H1 9444   3.925   2.410   0.682  1.4669  1.7144  0.4982
 3146TIP3    H2 9445   3.857   2.302   0.762  0.0942  0.6809 -1.9469
 3147TIP3   OH2 9446   6.213   3.715   4.611 -0.0894 -0.7150  0.2567
 3147TIP3    H1 9447   6.147   3.653   4.579  0.3263 -1.0038 -0.0475
 3147TIP3    H2 9448   6.271   3.729   4.536  1.7176 -2.4497  1.2403
 3148TIP3   OH2 9449   2.269   3.615   1.517 -0.3329 -0.1267  0.9260
 3148TIP3    H1 9450   2.331   3.597   1.447 -0.0485 -0.3205  1.2235
 3148TIP3    H2 9451   2.291   3.552   1.586  0.4532  1.0904  1.8457
 3149TIP3   OH2 9452   5.437   0.468   2.252  0.1706 -0.0659 -0.0525
 3149TIP3    H1 9453   5.451   0.435   2.164 -0.2505 -0.4106  0.0055
 3149TIP3    H2 9454   5.368   0.412   2.288 -0.1292  0.5015  0.2587
 3150TIP3   OH2 9455   1.035   0.977   3.210 -0.0765 -0.1247  0.3771
 3150TIP3    H1 9456   1.029   0.888   3.243 -0.7335  0.0732  0.8051
 3150TIP3    H2 9457   1.083   1.025   3.277  0.3519 -0.1664  0.1087
 3151TIP3   OH2 9458   3.695   0.763   5.014  0.7305  0.3942  0.2583
 3151TIP3    H1 9459   3.609   0.735   4.983  0.2592 -0.3010  2.0829
 3151TIP3    H2 9460   3.732   0.813   4.941 -1.7447  1.7948 -0.1300
 3152TIP3   OH2 9461   1.928   5.253   0.290  0.0559  0.6294 -0.2915
 3152TIP3    H1 9462   2.000   5.302   0.331 -0.3605  0.6296  0.4557
 3152TIP3    H2 9463   1.913   5.297   0.207  1.5196  0.0862 -0.8866
 3153TIP3   OH2 9464   4.604   4.163   1.232  0.0531  0.1845  0.0280
 3153TIP3    H1 9465   4.510   4.162   1.210 -0.0393 -1.5707  0.3581
 3153TIP3    H2 9466   4.648   4.162   1.147 -0.2459 -0.3978 -0.1265
 3154TIP3   OH2 9467   1.569   3.364   2.719 -0.5136 -0.1481 -0.3151
 3154TIP3    H1 9468   1.528   3.293   2.768 -0.8814  0.1379 -0.2112
 3154TIP3    H2 9469   1.633   3.320   2.663 -0.7408 -0.5607 -0.2527
 3155TIP3   OH2 9470   4.574   5.789   0.622 -0.3600 -0.4816  0.6239
 3155TIP3    H1 9471   4.669   5.797   0.617 -0.0199 -3.1258  1.0760
 3155TIP3    H2 9472   4.554   5.798   0.715 -0.9923  2.9839  0.2588
 3156TIP3   OH2 9473   2.870   4.892   3.603 -0.2731  0.1176 -0.3960
 3156TIP3    H1 9474   2.913   4.878   3.519  0.1991 -1.0659  0.0144
 3156TIP3    H2 9475   2.788   4.842   3.597 -0.3986  0.3075 -0.2767
 3157TIP3   OH2 9476   5.399   3.960   4.193  0.0788  0.5322 -0.0843
 3157TIP3    H1 9477   5.376   3.906   4.269 -1.1885  1.5232  0.2868
 3157TIP3    H2 9478   5.472   3.914   4.151 -1.3805 -1.8644 -0.2073
 3158TIP3   OH2 9479   0.605   3.105   3.299 -0.2589  0.1264  0.1010
 3158TIP3    H1 9480   0.677   3.056   3.340  0.5749  1.5368  0.3897
 3158TIP3    H2 9481   0.552   3.038   3.256 -0.0229 -1.1885  1.7589
 3159TIP3   OH2 9482   4.606   3.630   0.147  0.6973  0.1984 -0.1165
 3159TIP3    H1 9483   4.635   3.571   0.217  0.8076  0.9923  0.5221
 3159TIP3    H2 9484   4.602   3.716   0.189 -0.3821  0.4867 -0.7871
 3160TIP3   OH2 9485   3.789   0.426   0.953  0.3865  0.2516  0.0398
 3160TIP3    H1 9486   3.743   0.345   0.972  0.5391  0.1888  0.1422
 3160TIP3    H2 9487   3.734   0.471   0.889  0.5419 -0.1596 -0.3886
 3161TIP3   OH2 9488   2.128   2.339   0.070  0.1121  0.3505 -0.0582
 3161TIP3    H1 9489   2.111   2.334   0.164 -0.0861  1.6672 -0.0051
 3161TIP3    H2 9490   2.204   2.281   0.057  1.4681  1.7214  1.2830
 3162TIP3   OH2 9491   1.714   4.530   0.981 -0.2916  0.1393  0.2703
 3162TIP3    H1 9492   1.672   4.471   1.045  0.5449 -0.6965  0.0662
 3162TIP3    H2 9493   1.641   4.565   0.930 -0.7662 -1.4621 -0.2206
 3163TIP3   OH2 9494   5.949   1.391   3.052 -0.6825  0.1574  0.4923
 3163TIP3    H1 9495   5.885   1.332   3.091 -0.2580 -0.2454  0.5833
 3163TIP3    H2 9496   6.023   1.390   3.112 -0.3844  0.2246  0.1295
 3164TIP3   OH2 9497   2.267   6.009   4.479 -0.2430  0.7663  0.1955
 3164TIP3    H1 9498   2.344   5.965   4.516 -0.2850 -0.9163 -1.5335
 3164TIP3    H2 9499   2.230   5.944   4.419 -2.9848  1.5662  0.9062
 3165TIP3   OH2 9500   5.989   0.620   5.130  0.0157 -0.0377 -0.0420
 3165TIP3    H1 9501   6.043   0.659   5.199  0.7892 -2.5440  0.8821
 3165TIP3    H2 9502   5.943   0.548   5.174  1.0202 -2.1584 -2.2124
 3166TIP3   OH2 9503   0.984   0.771   2.781 -0.1438  0.0383  0.0684
 3166TIP3    H1 9504   0.945   0.743   2.864 -0.0028 -2.3180 -0.5986
 3166TIP3    H2 9505   0.910   0.773   2.720  0.0103  0.2179 -0.1134
 3167TIP3   OH2 9506   2.772   3.738   1.865  0.7906  0.3041 -0.0263
 3167TIP3    H1 9507   2.756   3.686   1.944  0.1350  0.0108 -0.3449
 3167TIP3    H2 9508   2.688   3.781   1.847  1.2773  1.3758  0.1512
 3168TIP3   OH2 9509   2.212   3.077   4.079  0.5165  0.1268 -0.0868
 3168TIP3    H1 9510   2.197   3.114   3.992  0.5947 -0.3181 -0.2940
 3168TIP3    H2 9511   2.197   2.983   4.067  2.3855 -0.2061 -0.0536
 3169TIP3   OH2 9512   4.444   4.383   5.035  0.5785 -0.2591 -0.5193
 3169TIP3    H1 9513   4.462   4.440   4.960  0.9083  0.2762 -0.0463
 3169TIP3    H2 9514   4.530   4.361   5.070  0.4125  1.4202  1.0955
 3170TIP3   OH2 9515   2.351   0.586   0.777  0.0715  0.2669  0.4317
 3170TIP3    H1 9516   2.390   0.500   0.788 -0.7419 -0.4824 -1.9461
 3170TIP3    H2 9517   2.423   0.641   0.745 -0.1815 -0.4797 -1.5318
 3171TIP3   OH2 9518   2.351   1.317   4.564 -0.2937  0.3956  0.2340
 3171TIP3    H1 9519   2.372   1.232   4.603  0.2207  0.1582 -0.5290
 3171TIP3    H2 9520   2.360   1.380   4.636  0.2620 -0.0790  0.5852
 3172TIP3   OH2 9521   1.164   4.626   0.618 -0.0139  0.3309 -0.0779
 3172TIP3    H1 9522   1.092   4.665   0.570  1.1012  1.6160 -0.7654
 3172TIP3    H2 9523   1.222   4.590   0.550  0.1415 -0.4251  0.4442
 3173TIP3   OH2 9524   1.456   0.441   4.000 -0.1634  0.3591 -0.2297
 3173TIP3    H1 9525   1.532   0.427   4.055  0.0145  1.4034 -0.1821
 3173TIP3    H2 9526   1.481   0.514   3.943 -1.1771  0.8193 -0.1091
 3174TIP3   OH2 9527   3.377   1.439   1.906  0.0062 -0.2406  0.0107
 3174TIP3    H1 9528   3.347   1.395   1.827 -0.3564  0.2315 -0.1225
 3174TIP3    H2 9529   3.335   1.525   1.903 -0.1771 -0.2882  0.8113
 3175TIP3   OH2 9530   4.847   5.637   5.115  0.5142 -0.2666  0.1751
 3175TIP3    H1 9531   4.767   5.658   5.163 -0.2806 -0.1285 -1.1608
 3175TIP3    H2 9532   4.874   5.719   5.074  0.7654 -0.5326 -0.2112
 3176TIP3   OH2 9533   6.019   3.372   0.556 -0.0389  0.0168  0.1876
 3176TIP3    H1 9534   6.087   3.431   0.523 -1.1900  0.3247 -1.8209
 3176TIP3    H2 9535   6.067   3.296   0.589  1.3518  1.0222  0.5594
 3177TIP3   OH2 9536   3.715   2.882   4.651  0.1866 -0.0025 -0.4533
 3177TIP3    H1 9537   3.724   2.849   4.562  2.0333  0.7781 -0.6091
 3177TIP3    H2 9538   3.739   2.808   4.707 -0.7379 -0.4203 -0.5943
 3178TIP3   OH2 9539   1.492   5.465   1.324  0.1980 -0.6931  0.0199
 3178TIP3    H1 9540   1.452   5.552   1.319  1.8353  0.1091  0.2516
 3178TIP3    H2 9541   1.465   5.431   1.409  0.0126 -0.1750  0.1694
 3179TIP3   OH2 9542   1.166   2.478   0.249 -0.1311 -0.0486 -0.7289
 3179TIP3    H1 9543   1.096   2.419   0.276  0.4631  0.0086  1.0578
 3179TIP3    H2 9544   1.168   2.546   0.316  1.0312  0.4715 -1.2456
 3180TIP3   OH2 9545   3.782   2.348   4.715  0.1725  0.2530 -0.4100
 3180TIP3    H1 9546   3.754   2.283   4.649 -1.4442  1.3194 -0.8396
 3180TIP3    H2 9547   3.774   2.301   4.798 -2.8111  0.3361 -0.5213
 3181TIP3   OH2 9548   0.389   5.914   3.356  0.0606 -0.1669  0.1470
 3181TIP3    H1 9549   0.316   5.960   3.397  1.8075  2.4136  0.6259
 3181TIP3    H2 9550   0.373   5.923   3.262 -1.1474 -1.2762  0.2237
 3182TIP3   OH2 9551   2.710   1.888   2.863  0.4543  0.2939 -0.1651
 3182TIP3    H1 9552   2.726   1.869   2.955  0.0050  1.4312  0.1634
 3182TIP3    H2 9553   2.697   1.802   2.822  1.2280 -0.2621  0.7072
 3183TIP3   OH2 9554   4.994   5.676   0.239 -0.3573  0.1553  0.0248
 3183TIP3    H1 9555   4.967   5.766   0.225  0.2529  0.3385 -0.0037
 3183TIP3    H2 9556   5.067   5.681   0.301  2.2664  0.0819 -2.7991
 3184TIP3   OH2 9557   5.082   2.490   0.773 -0.5763 -0.4032  0.1347
 3184TIP3    H1 9558   5.010   2.458   0.719  0.1220 -2.0100  0.0886
 3184TIP3    H2 9559   5.045   2.495   0.861 -1.6555  2.0104 -0.3876
 3185TIP3   OH2 9560   5.821   2.575   4.863 -0.4459 -0.4574 -0.3887
 3185TIP3    H1 9561   5.852   2.628   4.937  0.7494 -2.0563  0.3127
 3185TIP3    H2 9562   5.863   2.615   4.786 -1.4551  1.0321 -0.2020
 3186TIP3   OH2 9563   4.957   4.148   5.123  0.4982 -0.7096 -0.2033
 3186TIP3    H1 9564   5.014   4.097   5.066  0.8014 -1.2378  0.5625
 3186TIP3    H2 9565   4.931   4.224   5.070  0.5636 -1.3244 -1.1254
 3187TIP3   OH2 9566   3.188   3.338   3.163 -0.5999 -0.7262 -0.4650
 3187TIP3    H1 9567   3.249   3.337   3.236 -0.6545 -0.6254 -0.4181
 3187TIP3    H2 9568   3.236   3.297   3.091  0.3132  1.2571 -1.0714
 3188TIP3   OH2 9569   5.553   4.994   1.682 -0.0027 -0.0166  0.0539
 3188TIP3    H1 9570   5.606   5.057   1.732  0.2306 -1.0474  1.1599
 3188TIP3    H2 9571   5.590   4.997   1.594  1.0324  0.2737  0.4776
 3189TIP3   OH2 9572   5.850   4.463   5.174  0.6197 -0.3696  0.7004
 3189TIP3    H1 9573   5.777   4.508   5.130  2.1946  1.3831 -0.2678
 3189TIP3    H2 9574   5.918   4.456   5.107  2.4130  0.6552  2.3123
 3190TIP3   OH2 9575   0.699   5.231   4.025 -0.2513 -0.0133  0.2867
 3190TIP3    H1 9576   0.721   5.180   3.948  1.2934  0.0424  0.6528
 3190TIP3    H2 9577   0.647   5.305   3.992 -1.0643 -0.8898 -0.4506
 3191TIP3   OH2 9578   3.525   0.039   0.267 -0.1602 -0.2424  0.6663
 3191TIP3    H1 9579   3.459  -0.006   0.214 -0.6485  0.9363  0.2410
 3191TIP3    H2 9580   3.478   0.113   0.306  0.7184  0.1568  0.9834
 3192TIP3   OH2 9581   3.135   3.457   2.356 -0.3705  0.5633  0.1663
 3192TIP3    H1 9582   3.142   3.520   2.284 -1.1538 -0.7035 -1.0488
 3192TIP3    H2 9583   3.217   3.408   2.353 -0.0071  1.1110  0.7522
 3193TIP3   OH2 9584   1.266   0.862   0.704  0.4185 -0.3618  0.0407
 3193TIP3    H1 9585   1.303   0.881   0.790 -0.4411 -0.5686  0.4708
 3193TIP3    H2 9586   1.196   0.927   0.693 -1.1225 -1.8423  0.5894
 3194TIP3   OH2 9587   3.701   5.898   3.740 -0.4957  0.1905 -0.3629
 3194TIP3    H1 9588   3.773   5.868   3.797 -2.6416 -2.1959  1.3509
 3194TIP3    H2 9589   3.638   5.938   3.801 -1.9709 -0.6067 -1.3093
 3195TIP3   OH2 9590   3.505   5.795   4.093 -0.2655  0.1291 -0.4495
 3195TIP3    H1 9591   3.514   5.872   4.037  0.7011  1.1992  1.0842
 3195TIP3    H2 9592   3.593   5.757   4.097 -0.7844 -1.2255 -1.3830
 3196TIP3   OH2 9593   3.304  -0.011   2.251  0.3205 -0.1490  0.3426
 3196TIP3    H1 9594   3.253  -0.001   2.332 -0.8002  0.0682 -0.3579
 3196TIP3    H2 9595   3.246   0.022   2.183  0.9583 -1.0115 -0.6469
 3197TIP3   OH2 9596   2.738   5.848   4.712  0.4354  0.2445 -0.4987
 3197TIP3    H1 9597   2.720   5.864   4.805  0.3981  0.0213 -0.4665
 3197TIP3    H2 9598   2.793   5.770   4.711 -0.9897 -0.8064 -0.7481
 3198TIP3   OH2 9599   1.317   5.047   1.472  0.4671  0.0296  0.1573
 3198TIP3    H1 9600   1.351   5.097   1.398 -1.7753  0.4137 -0.7137
 3198TIP3    H2 9601   1.322   4.956   1.444  0.4191  0.1149 -0.1329
 3199TIP3   OH2 9602   5.529   1.259   2.162 -0.0428  0.0318 -0.3301
 3199TIP3    H1 9603   5.542   1.170   2.130  0.5206 -0.0044 -0.0079
 3199TIP3    H2 9604   5.447   1.254   2.212  0.7909 -0.6760  1.0126
 3200TIP3   OH2 9605   2.056   2.056   0.615  0.1040 -0.0135  0.3987
 3200TIP3    H1 9606   2.071   1.973   0.568 -0.7874 -0.6084  1.1353
 3200TIP3    H2 9607   1.973   2.043   0.661 -0.9829  1.9437 -0.8670
 3201TIP3   OH2 9608   3.615   1.902   4.497 -0.0040  0.2933  0.0775
 3201TIP3    H1 9609   3.650   1.886   4.409  0.0160 -0.5633  0.2317
 3201TIP3    H2 9610   3.521   1.913   4.484  0.1416  1.3590 -0.1867
 3202TIP3   OH2 9611   3.408   3.977   0.863  0.3987  0.4994  0.4175
 3202TIP3    H1 9612   3.374   3.937   0.943  0.3727  1.0213  0.6761
 3202TIP3    H2 9613   3.434   4.066   0.890 -1.6687  1.4794 -0.6244
 3203TIP3   OH2 9614   1.983   3.932   1.355  0.0903  0.0056 -0.2357
 3203TIP3    H1 9615   1.984   4.027   1.364  0.5376  0.0522 -0.7647
 3203TIP3    H2 9616   1.964   3.917   1.262 -1.4746 -0.4409  0.1230
 3204TIP3   OH2 9617   1.968   4.654   1.089 -0.0961  0.0967  0.2606
 3204TIP3    H1 9618   1.955   4.743   1.057  0.6230  0.8043  1.8283
 3204TIP3    H2 9619   1.882   4.613   1.082  0.2469 -0.4593 -4.1359
 3205TIP3   OH2 9620   6.150   3.293   0.956  0.1362  0.0227  0.6055
 3205TIP3    H1 9621   6.120   3.220   1.010  1.1660 -0.6276  0.3236
 3205TIP3    H2 9622   6.130   3.266   0.866 -0.8791  0.7703  0.5931
 3206TIP3   OH2 9623   5.611   1.208   0.100 -0.3223  0.0479 -0.4771
 3206TIP3    H1 9624   5.700   1.205   0.136 -0.1791  4.4164  0.0803
 3206TIP3    H2 9625   5.560   1.153   0.158  1.8249 -2.0059 -0.3732
 3207TIP3   OH2 9626   5.388   2.837   3.313 -0.0991 -0.0007 -0.0581
 3207TIP3    H1 9627   5.458   2.824   3.377  1.6970 -1.0797 -2.1460
 3207TIP3    H2 9628   5.377   2.932   3.310 -0.4773  0.0812  2.0322
 3208TIP3   OH2 9629   1.981   4.145   2.634  0.3232  0.5890 -0.5097
 3208TIP3    H1 9630   2.051   4.178   2.689 -0.1953  0.3815  0.3077
 3208TIP3    H2 9631   2.021   4.074   2.583  0.2866 -0.8801  1.3828
 3209TIP3   OH2 9632   2.927   0.449   3.169  0.0055 -0.0510 -0.2210
 3209TIP3    H1 9633   2.940   0.445   3.074  1.1214 -0.1726 -0.0709
 3209TIP3    H2 9634   2.951   0.538   3.193  0.0374 -0.1179 -0.0049
 3210TIP3   OH2 9635   5.279   3.291   4.575 -0.2525  0.7281  0.0066
 3210TIP3    H1 9636   5.198   3.244   4.596 -0.3744  0.9887  0.1141
 3210TIP3    H2 9637   5.261   3.333   4.491  0.4101 -0.7416 -0.9174
 3211TIP3   OH2 9638   4.710   5.844   4.132 -0.5518  0.2405 -0.7219
 3211TIP3    H1 9639   4.621   5.809   4.143  0.2121 -1.3932  0.6536
 3211TIP3    H2 9640   4.701   5.937   4.154 -1.8142 -0.0180  0.0033
 3212TIP3   OH2 9641   1.127   1.645   4.137  0.1769  0.1076 -0.0243
 3212TIP3    H1 9642   1.137   1.644   4.042  1.7567 -1.8856  0.0935
 3212TIP3    H2 9643   1.168   1.728   4.164  0.5748  0.2503 -1.0035
 3213TIP3   OH2 9644   3.038   2.052   3.250 -0.1074 -0.2241 -0.2672
 3213TIP3    H1 9645   3.127   2.026   3.226  1.2698  1.1205  2.8692
 3213TIP3    H2 9646   3.002   1.976   3.296 -0.6082 -0.7316 -1.4495
 3214TIP3   OH2 9647   3.562   3.787   3.921  0.3270 -0.3539  0.0935
 3214TIP3    H1 9648   3.591   3.811   4.009  0.5196 -0.6214  0.1041
 3214TIP3    H2 9649   3.637   3.809   3.865  0.1831 -0.1296 -0.0114
 3215TIP3   OH2 9650   3.074   4.714   4.250 -0.1015 -0.7929 -0.5440
 3215TIP3    H1 9651   3.052   4.743   4.161  1.4859  0.7197 -0.4776
 3215TIP3    H2 9652   3.148   4.655   4.239  1.4338  0.9766 -0.1189
 3216TIP3   OH2 9653   0.811   5.277   4.484 -0.5185 -0.7785 -0.2848
 3216TIP3    H1 9654   0.886   5.218   4.475 -0.2531 -0.5263  0.2075
 3216TIP3    H2 9655   0.753   5.254   4.412  1.3969  1.0405 -2.5958
 3217TIP3   OH2 9656   0.763   1.614   0.193  0.0324 -0.2992 -0.3941
 3217TIP3    H1 9657   0.753   1.547   0.261 -0.3423 -1.3087 -1.4221
 3217TIP3    H2 9658   0.678   1.658   0.191  0.9199  1.7849  1.8155
 3218TIP3   OH2 9659   3.304   3.271   4.232 -0.0489 -0.8653 -0.6879
 3218TIP3    H1 9660   3.286   3.363   4.252 -2.3066 -1.3261 -0.3036
 3218TIP3    H2 9661   3.393   3.271   4.196  0.9645  1.1196  1.5479
 3219TIP3   OH2 9662   0.845   3.021   4.250  0.2999 -0.1158  0.2642
 3219TIP3    H1 9663   0.773   2.972   4.290 -0.4275  0.5334 -0.2411
 3219TIP3    H2 9664   0.917   3.012   4.313 -0.7731  0.7669  1.6667
 3220TIP3   OH2 9665   5.959   3.326   4.387 -0.3965 -0.1392  0.3795
 3220TIP3    H1 9666   5.996   3.409   4.416  0.0125 -0.4812  0.8516
 3220TIP3    H2 9667   6.007   3.304   4.307 -0.5927  0.1405  0.1856
 3221TIP3   OH2 9668   2.034   4.471   1.816  0.0140  0.0033  0.5280
 3221TIP3    H1 9669   1.957   4.414   1.813 -0.0514  0.1048  0.2548
 3221TIP3    H2 9670   2.090   4.440   1.745  0.7720 -0.8348  1.4719
 3222TIP3   OH2 9671   1.165   2.990   1.665  0.5960  0.2110 -0.2071
 3222TIP3    H1 9672   1.181   2.902   1.630 -0.5838 -0.0353 -0.1726
 3222TIP3    H2 9673   1.091   2.978   1.724  2.5215  0.6063  2.4555
 3223TIP3   OH2 9674   5.683   3.135   4.174  0.8088  0.5852  0.3283
 3223TIP3    H1 9675   5.723   3.080   4.107  0.6429 -0.2368  0.8844
 3223TIP3    H2 9676   5.720   3.222   4.160  3.3710 -0.2581  1.2546
 3224TIP3   OH2 9677   4.414   3.591   3.121  0.5430 -0.0823 -0.1674
 3224TIP3    H1 9678   4.405   3.552   3.208  1.2809 -0.5596 -0.2895
 3224TIP3    H2 9679   4.351   3.544   3.067  0.0609  0.2350  0.1127
 3225TIP3   OH2 9680   2.520   1.127   2.082  0.6608 -0.2770 -0.4520
 3225TIP3    H1 9681   2.479   1.201   2.127  0.7301 -0.5544  0.0731
 3225TIP3    H2 9682   2.609   1.157   2.063  1.0273 -0.5930  0.6973
 3226TIP3   OH2 9683   2.289   4.632   1.472  0.1656  0.2553 -0.2320
 3226TIP3    H1 9684   2.348   4.603   1.542 -1.7038 -1.1330  0.8874
 3226TIP3    H2 9685   2.268   4.552   1.424 -2.7860  0.1120  1.0563
 3227TIP3   OH2 9686   4.417   1.152   1.529 -0.0187  0.0283  0.0713
 3227TIP3    H1 9687   4.343   1.105   1.567 -0.8752  1.3477  0.0716
 3227TIP3    H2 9688   4.399   1.244   1.545  0.7722  0.4902 -1.4400
 3228TIP3   OH2 9689   4.563   0.882   3.415 -0.3518  0.2162 -0.2959
 3228TIP3    H1 9690   4.552   0.976   3.423  1.9991  0.4477  1.3043
 3228TIP3    H2 9691   4.582   0.853   3.504 -0.8160 -1.7577 -0.7918
 3229TIP3   OH2 9692   5.944   1.293   2.256 -0.2699 -0.6507  0.0880
 3229TIP3    H1 9693   5.930   1.199   2.264 -0.0133 -0.6859  0.1462
 3229TIP3    H2 9694   6.022   1.310   2.310 -0.9273 -0.2392  0.9371
 3230TIP3   OH2 9695   4.305   3.771   5.150  0.9868  0.1020  0.0744
 3230TIP3    H1 9696   4.252   3.847   5.127  0.9383 -0.0631 -0.3778
 3230TIP3    H2 9697   4.388   3.785   5.103  1.7475  0.8644  1.5789
 3231TIP3   OH2 9698   1.629   2.523   3.216 -0.2063  0.6251 -0.0074
 3231TIP3    H1 9699   1.697   2.589   3.231 -1.4636  1.7045  1.2227
 3231TIP3    H2 9700   1.549   2.574   3.204 -0.8407 -0.6218 -1.3002
 3232TIP3   OH2 9701   2.555   0.111   1.842 -0.1287  0.4975 -0.8561
 3232TIP3    H1 9702   2.620   0.161   1.792 -0.6702  0.9449 -1.1201
 3232TIP3    H2 9703   2.555   0.025   1.801  0.6023  0.3565 -0.5828
 3233TIP3   OH2 9704   5.927   0.486   4.102 -0.0683 -0.2331  0.7126
 3233TIP3    H1 9705   5.969   0.531   4.028 -0.3696 -1.1314 -0.0296
 3233TIP3    H2 9706   5.944   0.543   4.177  0.5748  0.5192  0.0263
 3234TIP3   OH2 9707   2.211   5.352   2.352 -0.2835 -0.0618  0.4370
 3234TIP3    H1 9708   2.246   5.439   2.332  2.0959 -1.1574 -0.4952
 3234TIP3    H2 9709   2.254   5.328   2.434 -0.5338 -0.5830  0.4146
 3235TIP3   OH2 9710   6.178   1.810   3.495 -0.0203  0.2520 -0.4249
 3235TIP3    H1 9711   6.231   1.796   3.574  0.6437  0.9971 -0.7266
 3235TIP3    H2 9712   6.156   1.903   3.498 -1.9452 -0.1790  0.0706
 3236TIP3   OH2 9713   5.239   5.322   3.344  0.3004 -0.4339 -0.0051
 3236TIP3    H1 9714   5.154   5.326   3.387  0.0395  0.4066 -0.5739
 3236TIP3    H2 9715   5.220   5.283   3.258  0.5989 -0.8824  0.1319
 3237TIP3   OH2 9716   1.606   2.631   2.425 -0.3059  0.0305  0.0773
 3237TIP3    H1 9717   1.700   2.629   2.443 -0.2071  0.1080 -0.4264
 3237TIP3    H2 9718   1.596   2.701   2.360 -0.6488 -0.3198 -0.2469
 3238TIP3   OH2 9719   3.677   4.134   4.171 -0.0944  0.1232 -0.3595
 3238TIP3    H1 9720   3.654   4.170   4.257  0.5448 -0.4324  0.0536
 3238TIP3    H2 9721   3.595   4.135   4.121 -0.3115  1.1860 -0.0188
 3239TIP3   OH2 9722   2.098   4.306   2.078 -0.6219 -0.6692  0.4470
 3239TIP3    H1 9723   2.048   4.344   2.006 -0.3018 -0.1929  0.4801
 3239TIP3    H2 9724   2.036   4.303   2.151 -1.3426 -2.3187 -0.1813
 3240TIP3   OH2 9725   4.488   4.862   3.684  0.0210 -0.1249 -0.0951
 3240TIP3    H1 9726   4.520   4.915   3.757  1.5779  0.1663 -0.9459
 3240TIP3    H2 9727   4.560   4.802   3.665  0.1877  0.6803 -2.2265
 3241TIP3   OH2 9728   3.624   1.669   4.982  0.5945  0.3506  0.4478
 3241TIP3    H1 9729   3.597   1.578   4.970  0.1480  0.5345 -0.0064
 3241TIP3    H2 9730   3.663   1.693   4.897  1.3308  0.3764  0.7884
 3242TIP3   OH2 9731   5.432   3.206   4.780  0.0500 -0.6504 -0.6165
 3242TIP3    H1 9732   5.476   3.142   4.724 -0.6855 -1.6667 -0.0662
 3242TIP3    H2 9733   5.359   3.238   4.727 -0.1210 -0.9477 -0.5601
 3243TIP3   OH2 9734   0.577   0.831   4.545 -0.3011 -0.2475  0.2859
 3243TIP3    H1 9735   0.563   0.832   4.640  0.0345  0.3631  0.3305
 3243TIP3    H2 9736   0.491   0.809   4.508 -1.1692  2.3181  0.6025
 3244TIP3   OH2 9737   3.625   3.382   4.439 -0.6303 -0.0268 -0.3415
 3244TIP3    H1 9738   3.621   3.292   4.407 -2.9431  0.4795 -1.6926
 3244TIP3    H2 9739   3.670   3.431   4.370 -2.4566  0.4249 -1.2670
 3245TIP3   OH2 9740   4.418   1.110   2.829  1.4002  0.1525 -0.0133
 3245TIP3    H1 9741   4.352   1.175   2.805  0.5002 -0.8716 -0.3799
 3245TIP3    H2 9742   4.378   1.026   2.808  2.8954 -0.4904 -0.3975
 3246TIP3   OH2 9743   1.759   0.747   2.123  0.1866 -0.7699  0.0898
 3246TIP3    H1 9744   1.726   0.682   2.061 -0.2770 -0.1489 -0.3270
 3246TIP3    H2 9745   1.703   0.824   2.110  1.5285  0.1720 -0.3586
 3247TIP3   OH2 9746   0.589   4.285   3.247 -0.1882  0.1537  0.5398
 3247TIP3    H1 9747   0.514   4.236   3.213  0.3343 -0.3441  0.0897
 3247TIP3    H2 9748   0.549   4.357   3.296 -0.9891 -0.9310  1.5691
 3248TIP3   OH2 9749   3.027   4.354   3.622  0.5713  0.2901  0.3927
 3248TIP3    H1 9750   3.122   4.358   3.630  0.5961  0.5621 -0.0226
 3248TIP3    H2 9751   3.006   4.261   3.625  0.9419  0.1721 -0.5185
 3249TIP3   OH2 9752   1.134   5.610   4.377  0.4590  0.4353 -0.4744
 3249TIP3    H1 9753   1.202   5.636   4.315 -1.0380  0.3372 -2.2607
 3249TIP3    H2 9754   1.096   5.530   4.340  0.1205 -0.1680  1.0851
 3250TIP3   OH2 9755   4.114   0.864   2.155 -0.5957  0.3443 -0.4710
 3250TIP3    H1 9756   4.099   0.832   2.066  0.4667  1.7830 -1.2125
 3250TIP3    H2 9757   4.040   0.921   2.172 -1.0838 -0.3547 -0.2006
 3251TIP3   OH2 9758   3.175   2.350   3.178  0.2539 -0.4699 -0.4221
 3251TIP3    H1 9759   3.104   2.412   3.167  0.9283  1.0608  2.7610
 3251TIP3    H2 9760   3.141   2.285   3.240  0.6374 -1.4620 -1.2278
 3252TIP3   OH2 9761   0.349   0.599   1.274 -0.2873  0.0459  0.4249
 3252TIP3    H1 9762   0.335   0.549   1.194  1.5201 -0.9597  0.6749
 3252TIP3    H2 9763   0.335   0.690   1.249 -2.4817 -0.4499 -0.3307
 3253TIP3   OH2 9764   0.964   4.275   5.094  0.5480  0.3396  0.1717
 3253TIP3    H1 9765   0.991   4.184   5.081 -1.1960  0.1318 -3.2778
 3253TIP3    H2 9766   1.020   4.325   5.036 -0.3853  1.0626 -0.1314
 3254TIP3   OH2 9767   3.941   0.382   1.466 -0.5879 -0.2916 -0.3073
 3254TIP3    H1 9768   3.980   0.296   1.448 -1.0268 -0.4782 -0.3830
 3254TIP3    H2 9769   3.959   0.433   1.388 -1.0685 -0.5872 -0.6165
 3255TIP3   OH2 9770   0.568   3.233   0.219 -0.2869 -0.5803  0.0014
 3255TIP3    H1 9771   0.556   3.294   0.147 -1.7866  0.6387  1.1894
 3255TIP3    H2 9772   0.642   3.268   0.269 -1.1764  0.3705  0.7095
 3256TIP3   OH2 9773   4.799   3.934   0.349 -0.3625 -0.7841 -0.1871
 3256TIP3    H1 9774   4.878   3.883   0.362  0.5001  0.4303 -0.4745
 3256TIP3    H2 9775   4.829   4.025   0.346 -1.8460 -0.2362  0.4017
 3257TIP3   OH2 9776   5.759   4.085   4.068  0.0923  0.5868 -0.0973
 3257TIP3    H1 9777   5.675   4.104   4.025 -0.0499 -0.5264 -0.3442
 3257TIP3    H2 9778   5.744   4.107   4.160 -1.0506 -1.1867  0.1989
 3258TIP3   OH2 9779   1.338   3.412   1.516  0.8030 -0.2264  0.4322
 3258TIP3    H1 9780   1.283   3.371   1.583 -0.7275  0.3177 -0.4322
 3258TIP3    H2 9781   1.327   3.506   1.531  0.7839 -0.1072 -0.2957
 3259TIP3   OH2 9782   4.246   0.871   1.318 -0.1424  0.6835  0.6692
 3259TIP3    H1 9783   4.166   0.834   1.280 -0.5004  0.9632  1.1490
 3259TIP3    H2 9784   4.310   0.868   1.247 -0.2868 -0.4725  0.5748
 3260TIP3   OH2 9785   2.302   5.709   3.446 -0.7314 -0.0161  0.1964
 3260TIP3    H1 9786   2.315   5.755   3.363 -0.3174  1.3188  0.9731
 3260TIP3    H2 9787   2.282   5.619   3.421 -1.8510  0.6340 -1.3776
 3261TIP3   OH2 9788   2.190   5.790   4.981 -0.1027  0.4135 -0.4795
 3261TIP3    H1 9789   2.253   5.719   4.964 -0.2104  0.3100 -0.4506
 3261TIP3    H2 9790   2.224   5.864   4.932  1.3462  1.0763  1.4245
 3262TIP3   OH2 9791   1.899   1.766   4.859 -0.2160 -0.4517 -0.6688
 3262TIP3    H1 9792   1.980   1.793   4.816 -0.0330  0.6375  0.2988
 3262TIP3    H2 9793   1.877   1.840   4.916 -2.2948 -0.3936 -1.4563
 3263TIP3   OH2 9794   5.348   2.299   1.545  0.3952  0.0076 -0.0316
 3263TIP3    H1 9795   5.258   2.324   1.525  0.4764  0.1358 -0.2356
 3263TIP3    H2 9796   5.356   2.313   1.639  0.1782 -0.0797  0.0010
 3264TIP3   OH2 9797   5.113   1.833   1.589  0.0408 -0.1304 -0.2154
 3264TIP3    H1 9798   5.024   1.867   1.586  0.9471  2.4450 -0.7695
 3264TIP3    H2 9799   5.168   1.912   1.593  2.2307 -1.6282  2.2953
 3265TIP3   OH2 9800   4.091   0.716   0.400  0.1823 -0.1612  0.0902
 3265TIP3    H1 9801   4.169   0.671   0.432 -0.2132 -0.4894  0.5972
 3265TIP3    H2 9802   4.125   0.795   0.357  0.6867  0.9795  2.4231
 3266TIP3   OH2 9803   4.308   5.301   1.540  0.0522  0.0360 -0.0608
 3266TIP3    H1 9804   4.385   5.248   1.561 -0.8035 -1.5641 -0.7914
 3266TIP3    H2 9805   4.281   5.337   1.624  1.2823  0.2140  0.2856
 3267TIP3   OH2 9806   2.003   1.510   3.430 -0.6983  0.3433  0.7256
 3267TIP3    H1 9807   2.093   1.541   3.441  0.6693 -2.8163 -0.4004
 3267TIP3    H2 9808   1.983   1.464   3.511  0.0725 -1.8347 -0.2422
 3268TIP3   OH2 9809   4.223   3.753   3.267  0.3089 -0.1791  0.4519
 3268TIP3    H1 9810   4.274   3.680   3.302 -0.2974 -0.0802  1.5841
 3268TIP3    H2 9811   4.191   3.722   3.183  0.9521 -0.8131  0.4289
 3269TIP3   OH2 9812   0.968   1.877   3.979 -0.4480 -0.1768  0.1820
 3269TIP3    H1 9813   1.000   1.905   4.065 -2.2194 -0.4957  0.9875
 3269TIP3    H2 9814   0.876   1.857   3.993 -0.8953  0.1903 -1.9136
 3270TIP3   OH2 9815   2.331   4.100   1.674  0.1296 -0.2721  0.1373
 3270TIP3    H1 9816   2.377   4.146   1.744 -1.0445  2.1521 -0.5844
 3270TIP3    H2 9817   2.250   4.069   1.714 -0.1664  0.3998  0.0713
 3271TIP3   OH2 9818   0.366   3.575   4.625  0.1152  0.3933 -0.1998
 3271TIP3    H1 9819   0.282   3.551   4.665 -0.3370 -0.6044 -1.6604
 3271TIP3    H2 9820   0.401   3.492   4.592  2.1482  0.6369  1.1845
 3272TIP3   OH2 9821   1.091   5.243   1.414 -0.0793  0.3554  0.1996
 3272TIP3    H1 9822   1.112   5.255   1.321  0.5805 -0.0386  0.2916
 3272TIP3    H2 9823   1.172   5.210   1.453 -0.3807  0.4215  0.9003
 3273TIP3   OH2 9824   0.263   0.680   4.679  0.2303 -0.0406  0.3867
 3273TIP3    H1 9825   0.171   0.680   4.652  0.5410  0.8292 -0.7544
 3273TIP3    H2 9826   0.311   0.669   4.598  1.1301 -2.6949  1.1862
 3274TIP3   OH2 9827   2.479   1.229   0.523  0.2675  0.4145  0.0380
 3274TIP3    H1 9828   2.529   1.164   0.573  0.7998 -1.2945 -2.4949
 3274TIP3    H2 9829   2.521   1.230   0.437 -2.3208  1.0214 -1.3197
 3275TIP3   OH2 9830   2.429   1.835   1.689 -0.1386  0.0860  0.4231
 3275TIP3    H1 9831   2.396   1.903   1.630 -0.5370  0.4149  1.0155
 3275TIP3    H2 9832   2.389   1.754   1.657  0.3735  0.1094 -0.3136
 3276TIP3   OH2 9833   0.198   4.011   1.242  0.0145  0.6020  0.0765
 3276TIP3    H1 9834   0.178   3.981   1.331  2.5314 -1.3748  0.1138
 3276TIP3    H2 9835   0.162   3.942   1.186  2.0051 -0.3812 -0.1040
 3277TIP3   OH2 9836   0.812   4.488   3.425  0.7109  0.2974  0.3873
 3277TIP3    H1 9837   0.872   4.448   3.488  1.3796  0.0616 -0.3833
 3277TIP3    H2 9838   0.846   4.462   3.340 -0.2303  0.5449 -0.0783
 3278TIP3   OH2 9839   0.897   0.371   3.737  0.3253 -0.0484 -0.4837
 3278TIP3    H1 9840   0.810   0.351   3.770 -0.7071  0.3067 -2.7567
 3278TIP3    H2 9841   0.939   0.421   3.807 -1.2964 -0.2076  0.6524
 3279TIP3   OH2 9842   2.853   3.919   0.486  0.1239 -0.0462  0.4562
 3279TIP3    H1 9843   2.777   3.870   0.519 -0.3427  1.8635  2.4889
 3279TIP3    H2 9844   2.815   4.000   0.452  1.0007 -0.4501 -1.6014
 3280TIP3   OH2 9845   3.184   5.279   4.068  0.6983  0.2903  0.5512
 3280TIP3    H1 9846   3.247   5.337   4.024  0.9628 -0.1270  0.3670
 3280TIP3    H2 9847   3.200   5.292   4.161  1.4799 -0.2497  0.5042
 3281TIP3   OH2 9848   6.318   1.609   3.354  0.1021  0.0094 -0.5166
 3281TIP3    H1 9849   6.268   1.668   3.410 -0.2345 -1.4171  0.7382
 3281TIP3    H2 9850   6.407   1.613   3.388 -0.2065 -1.2469  0.4820
 3282TIP3   OH2 9851   0.767   5.012   4.926 -0.2500  0.2983  0.0572
 3282TIP3    H1 9852   0.787   4.921   4.949  0.7226  0.1652 -1.2121
 3282TIP3    H2 9853   0.688   5.032   4.976  0.1909 -0.8487  1.2774
 3283TIP3   OH2 9854   4.858   0.976   4.653 -0.3735  0.1060  0.2140
 3283TIP3    H1 9855   4.934   0.921   4.637 -0.9977 -0.9117  0.6625
 3283TIP3    H2 9856   4.788   0.915   4.678 -1.3401  1.0068 -0.1840
 3284TIP3   OH2 9857   2.946   0.860   3.732 -0.7180  0.1208 -0.6139
 3284TIP3    H1 9858   2.855   0.845   3.758 -0.8649  0.1300 -1.1103
 3284TIP3    H2 9859   2.975   0.932   3.789 -0.3933 -1.1662  0.9088
 3285TIP3   OH2 9860   4.101   1.939   2.304 -0.3248 -0.0632  0.3113
 3285TIP3    H1 9861   4.095   1.845   2.287 -0.7118  0.2088 -1.1890
 3285TIP3    H2 9862   4.061   1.980   2.228  0.8641  1.3493  0.4033
 3286TIP3   OH2 9863   0.580   3.680   0.797  0.3592 -0.3633 -0.4310
 3286TIP3    H1 9864   0.611   3.748   0.857 -2.0692 -0.3829  0.9711
 3286TIP3    H2 9865   0.589   3.598   0.846 -0.6593 -0.5093 -0.4662
 3287TIP3   OH2 9866   3.640   1.372   1.962  0.1000 -0.1806 -0.6248
 3287TIP3    H1 9867   3.548   1.397   1.949 -0.1224 -0.2342  0.7005
 3287TIP3    H2 9868   3.658   1.309   1.892 -1.3391 -1.3498  0.0068
 3288TIP3   OH2 9869   4.797   4.344   0.875  0.3435 -0.3480  0.2926
 3288TIP3    H1 9870   4.765   4.259   0.903  0.8549 -0.1405  1.6002
 3288TIP3    H2 9871   4.820   4.333   0.783  0.7308 -1.7173  0.5413
 3289TIP3   OH2 9872   3.831   4.955   4.431 -0.1493  0.0454  0.1415
 3289TIP3    H1 9873   3.796   5.031   4.384  2.0011  0.7659 -0.4064
 3289TIP3    H2 9874   3.790   4.960   4.518 -1.1946  0.9379 -0.3736
 3290TIP3   OH2 9875   1.480   0.322   0.905  0.4652 -0.1087  0.4236
 3290TIP3    H1 9876   1.439   0.245   0.865  1.8074 -1.2186  1.0513
 3290TIP3    H2 9877   1.566   0.328   0.862  0.9577  0.1328  1.4049
 3291TIP3   OH2 9878   0.289   2.654   3.788 -0.1977  0.1873  0.3413
 3291TIP3    H1 9879   0.328   2.667   3.875 -0.8641  0.2533  0.6383
 3291TIP3    H2 9880   0.308   2.736   3.741 -1.3413  0.8620  1.0204
 3292TIP3   OH2 9881   1.118   1.755   2.478  0.1818  0.0452 -0.2639
 3292TIP3    H1 9882   1.091   1.718   2.562 -0.4314 -0.8801 -0.8511
 3292TIP3    H2 9883   1.191   1.700   2.450  0.2694  0.2398 -0.4188
 3293TIP3   OH2 9884   1.697   3.175   0.696  0.3273 -0.4619 -0.1757
 3293TIP3    H1 9885   1.693   3.270   0.704  0.7420 -0.4399 -0.2098
 3293TIP3    H2 9886   1.612   3.150   0.659  0.3857 -0.0614 -0.5871
 3294TIP3   OH2 9887   5.017   3.677   1.815  0.2365 -0.1202  0.1595
 3294TIP3    H1 9888   4.974   3.762   1.823  1.0872  0.4325 -0.9505
 3294TIP3    H2 9889   4.944   3.615   1.801 -0.2856  0.6563 -0.6873
 3295TIP3   OH2 9890   2.877   0.548   3.454  0.5470  0.6601 -0.0032
 3295TIP3    H1 9891   2.795   0.587   3.425  1.0492  0.7485 -1.4129
 3295TIP3    H2 9892   2.886   0.469   3.400  1.2791  0.5387  0.2849
 3296TIP3   OH2 9893   3.855   1.932   4.881  0.4382  0.2949 -0.1319
 3296TIP3    H1 9894   3.895   1.863   4.934  1.0237 -0.5363 -1.6044
 3296TIP3    H2 9895   3.786   1.888   4.832 -1.5878  1.4857  1.5077
 3297TIP3   OH2 9896   5.636   1.128   1.035  0.8979  0.1417 -0.4763
 3297TIP3    H1 9897   5.702   1.141   0.968  0.4241 -0.0692 -0.9888
 3297TIP3    H2 9898   5.684   1.137   1.118  1.5817 -0.1304 -0.8367
 3298TIP3   OH2 9899   0.511   4.652   3.101 -0.2655 -0.1919  0.2004
 3298TIP3    H1 9900   0.477   4.741   3.087 -0.4390 -0.1362  0.9407
 3298TIP3    H2 9901   0.603   4.665   3.123 -0.1469 -0.2368 -0.2645
 3299TIP3   OH2 9902   3.446   3.995   1.317  0.3496  0.7865 -0.8823
 3299TIP3    H1 9903   3.488   4.043   1.389  0.3765  0.4211 -0.6553
 3299TIP3    H2 9904   3.355   3.985   1.345  0.4221  0.4093 -0.7789
 3300TIP3   OH2 9905   6.019   2.191   4.162 -0.2293 -0.1584 -0.2822
 3300TIP3    H1 9906   5.949   2.130   4.139 -0.6717 -0.1690  1.0251
 3300TIP3    H2 9907   6.092   2.165   4.107 -0.7493 -1.2033 -0.5001
 3301TIP3   OH2 9908   4.446   0.638   0.056 -0.3396 -0.4003 -0.0208
 3301TIP3    H1 9909   4.425   0.706   0.120  2.9239 -1.0676  2.0088
 3301TIP3    H2 9910   4.523   0.672   0.009 -0.5087 -1.4356 -1.0943
 3302TIP3   OH2 9911   5.566   2.771   0.067  0.0792  0.7466 -0.7405
 3302TIP3    H1 9912   5.619   2.848   0.087 -0.5620  0.9771  0.1215
 3302TIP3    H2 9913   5.536   2.786  -0.023  0.9998  0.8741 -1.0396
 3303TIP3   OH2 9914   3.815   1.233   4.336  0.1403 -0.5664 -0.3114
 3303TIP3    H1 9915   3.786   1.194   4.254 -0.1480  0.3275 -0.6399
 3303TIP3    H2 9916   3.737   1.273   4.373  0.5554  0.2389 -0.2864
 3304TIP3   OH2 9917   0.810   3.045   2.083 -0.4138 -0.1485 -0.1149
 3304TIP3    H1 9918   0.850   3.130   2.066 -0.0188 -0.3261 -0.0801
 3304TIP3    H2 9919   0.750   3.031   2.010  0.1137 -0.2022 -0.5374
 3305TIP3   OH2 9920   0.176   0.940   2.117  0.6177  0.3094 -0.2563
 3305TIP3    H1 9921   0.233   1.016   2.101  0.8857  0.4165  1.0885
 3305TIP3    H2 9922   0.093   0.978   2.147  0.3522  0.0977 -0.7107
 3306TIP3   OH2 9923   1.787   1.830   3.709 -0.3323 -0.5496 -0.2236
 3306TIP3    H1 9924   1.818   1.905   3.660 -0.6254  0.0434  0.4773
 3306TIP3    H2 9925   1.852   1.817   3.778 -1.1436  0.1486  0.7117
 3307TIP3   OH2 9926   1.442   2.594   4.977  0.3334  0.0402  0.0833
 3307TIP3    H1 9927   1.447   2.539   4.898 -0.6334 -1.3344  0.9433
 3307TIP3    H2 9928   1.531   2.595   5.011  0.8379  0.9026 -1.1463
 3308TIP3   OH2 9929   3.400   1.897   0.470 -0.3053  0.2053  0.9360
 3308TIP3    H1 9930   3.363   1.879   0.557 -1.2054  0.3176  0.5944
 3308TIP3    H2 9931   3.336   1.955   0.429  0.4396  0.6801  0.4370
 3309TIP3   OH2 9932   5.921   3.961   5.138 -0.4880 -0.0797 -0.7970
 3309TIP3    H1 9933   5.953   3.890   5.082 -0.5183  0.3086 -1.3178
 3309TIP3    H2 9934   5.882   4.023   5.077  0.4638  0.8797 -0.4437
 3310TIP3   OH2 9935   2.128   0.383   0.184 -0.1754  0.2096  0.0311
 3310TIP3    H1 9936   2.127   0.478   0.186 -1.4250  0.3165  4.1852
 3310TIP3    H2 9937   2.041   0.358   0.154 -0.4134  0.4610  0.4984
 3311TIP3   OH2 9938   4.126   1.704   4.197 -0.4110 -0.8943 -0.1225
 3311TIP3    H1 9939   4.188   1.722   4.268 -1.4465  1.5349  0.2484
 3311TIP3    H2 9940   4.104   1.611   4.207  0.2949 -0.8770  2.0591
 3312TIP3   OH2 9941   2.949   2.886   4.332 -0.3576  0.1721  0.2783
 3312TIP3    H1 9942   3.000   2.914   4.256  0.0516 -1.6242 -0.1509
 3312TIP3    H2 9943   3.010   2.895   4.405  0.2747 -0.9719 -0.0814
 3313TIP3   OH2 9944   0.317   4.481   0.517  0.0325 -0.1370 -0.5406
 3313TIP3    H1 9945   0.412   4.495   0.523 -0.2973  2.6506 -0.7181
 3313TIP3    H2 9946   0.281   4.568   0.502 -2.7638 -0.7285  1.8548
 3314TIP3   OH2 9947   0.946   3.188   1.869 -0.4176  0.7324 -0.0588
 3314TIP3    H1 9948   0.937   3.238   1.950 -0.6443  1.1773 -0.3590
 3314TIP3    H2 9949   1.030   3.217   1.832 -0.4159  0.6844 -0.0928
 3315TIP3   OH2 9950   0.727   2.714   0.371 -0.7405 -0.3173  0.7073
 3315TIP3    H1 9951   0.764   2.628   0.351 -0.6877 -0.4296  1.2674
 3315TIP3    H2 9952   0.657   2.725   0.307 -0.5767 -0.6635  0.4620
 3316TIP3   OH2 9953   0.051   4.428   3.389 -0.4794 -0.3877 -0.1561
 3316TIP3    H1 9954   0.005   4.375   3.454  0.8559  0.8135  1.9071
 3316TIP3    H2 9955   0.103   4.365   3.339 -2.3700 -1.4627 -0.8654
 3317TIP3   OH2 9956   0.225   2.293   2.819 -0.0152  0.2399  0.1057
 3317TIP3    H1 9957   0.285   2.260   2.886  0.8643  2.4588  0.4796
 3317TIP3    H2 9958   0.234   2.232   2.746 -0.0179 -1.4854  1.4856
 3318TIP3   OH2 9959   5.996   2.863   1.228  0.5548 -0.2630  0.1174
 3318TIP3    H1 9960   5.997   2.865   1.324  1.7577 -0.9986  0.1394
 3318TIP3    H2 9961   6.065   2.924   1.202  0.7548 -0.6408 -0.2535
 3319TIP3   OH2 9962   1.992   1.331   3.659 -0.2420 -0.2920  0.4315
 3319TIP3    H1 9963   1.897   1.337   3.658 -0.2261  0.2243  1.2200
 3319TIP3    H2 9964   2.010   1.242   3.630 -0.7869  0.7235 -3.5672
 3320TIP3   OH2 9965   5.533   5.303   1.238  0.4306  0.0240 -0.2767
 3320TIP3    H1 9966   5.622   5.286   1.207  0.1999  2.7165 -2.9062
 3320TIP3    H2 9967   5.540   5.386   1.285 -0.6714  0.3271 -0.6170
 3321TIP3   OH2 9968   4.201   4.230   0.486 -0.6948 -0.1003  0.1444
 3321TIP3    H1 9969   4.239   4.174   0.419 -0.1658  0.2640  0.1404
 3321TIP3    H2 9970   4.273   4.285   0.516 -1.0816  0.1976  0.5412
 3322TIP3   OH2 9971   4.817   1.166   3.227 -0.0511  0.3754  0.0812
 3322TIP3    H1 9972   4.742   1.127   3.271 -1.1760  0.7195 -1.4666
 3322TIP3    H2 9973   4.893   1.124   3.268 -1.1229 -1.2647  0.4820
 3323TIP3   OH2 9974   5.800   5.408   2.483  0.1774 -0.9156 -0.4529
 3323TIP3    H1 9975   5.812   5.503   2.474  0.7854 -0.6957  1.9439
 3323TIP3    H2 9976   5.705   5.396   2.481  0.1195 -0.5378 -2.6028
 3324TIP3   OH2 9977   1.446   2.547   0.469  0.2172  0.1240 -0.3821
 3324TIP3    H1 9978   1.434   2.514   0.380 -0.2779 -2.4396  0.5685
 3324TIP3    H2 9979   1.534   2.584   0.469  0.1438  0.3746 -1.9817
 3325TIP3   OH2 9980   5.573   2.780   4.788  1.2201 -0.3066  0.0179
 3325TIP3    H1 9981   5.599   2.869   4.766 -0.0967  0.4069  1.1563
 3325TIP3    H2 9982   5.607   2.766   4.877 -0.9112  0.1523  0.9843
 3326TIP3   OH2 9983   0.813   5.872   1.543 -0.1888 -0.2144  0.6577
 3326TIP3    H1 9984   0.801   5.882   1.448 -0.5375 -2.6329  0.3926
 3326TIP3    H2 9985   0.890   5.925   1.563  0.7427 -0.7588 -1.2379
 3327TIP3   OH2 9986   4.784   4.506   4.791  0.0715 -0.2847 -0.1200
 3327TIP3    H1 9987   4.691   4.482   4.792  0.3388 -1.4132  1.0340
 3327TIP3    H2 9988   4.822   4.452   4.721  0.0788 -0.8254  0.2908
 3328TIP3   OH2 9989   5.250   4.166   4.951 -0.4422 -0.2542 -0.1516
 3328TIP3    H1 9990   5.234   4.242   4.895  1.9715 -1.8568 -3.3407
 3328TIP3    H2 9991   5.329   4.189   5.000  0.6564 -0.8190 -1.5767
 3329TIP3   OH2 9992   4.902   5.876   3.179 -0.0408 -0.0006  0.2928
 3329TIP3    H1 9993   4.829   5.856   3.238 -0.5405  2.6112  0.7081
 3329TIP3    H2 9994   4.958   5.935   3.229  1.8120 -1.0987 -0.4153
 3330TIP3   OH2 9995   0.828   0.435   2.340 -0.6935 -0.1384 -0.0632
 3330TIP3    H1 9996   0.886   0.500   2.302  0.4137 -1.5430 -0.8686
 3330TIP3    H2 9997   0.780   0.398   2.266 -1.8959  0.2859  0.4735
 3331TIP3   OH2 9998   3.721   1.417   3.212 -0.2279 -0.1828 -0.5005
 3331TIP3    H1 9999   3.777   1.344   3.186 -1.4706 -0.8312 -1.4797
 3331TIP3    H210000   3.640   1.403   3.163 -1.0805  0.9776  0.5309
 3332TIP3   OH210001   6.340   5.747   0.218 -0.4093 -0.6346  0.2985
 3332TIP3    H110002   6.250   5.741   0.185 -0.7415  2.2192  0.5035
 3332TIP3    H210003   6.336   5.811   0.289  1.7866 -0.4182  0.2958
 3333TIP3   OH210004   1.662   5.550   3.487 -0.3312 -0.2984  0.3147
 3333TIP3    H110005   1.742   5.499   3.501  1.0465  1.5166 -0.5391
 3333TIP3    H210006   1.615   5.544   3.570 -0.3165 -3.0075  0.2062
 3334TIP3   OH210007   2.578   3.955   3.692  0.2716 -0.5277  0.2843
 3334TIP3    H110008   2.635   3.998   3.755 -0.0081  0.5587 -0.1872
 3334TIP3    H210009   2.490   3.967   3.727  0.1862 -0.6528  0.1126
 3335TIP3   OH210010   2.737   0.107   2.095 -0.2339  0.3670  0.3704
 3335TIP3    H110011   2.710   0.148   2.013 -0.0449 -1.3374 -0.6079
 3335TIP3    H210012   2.717   0.171   2.163 -0.7887  1.6520 -0.9687
 3336TIP3   OH210013   3.801   0.192   4.411  0.2498 -0.2035  0.1127
 3336TIP3    H110014   3.717   0.148   4.425  0.4028 -0.0365  1.6848
 3336TIP3    H210015   3.778   0.282   4.387 -0.0642  0.2851  2.0528
 3337TIP3   OH210016   4.476   0.425   2.722 -0.0610  0.2618  0.1344
 3337TIP3    H110017   4.510   0.363   2.787  0.1527  1.0069  0.7376
 3337TIP3    H210018   4.490   0.380   2.638 -0.3076 -0.6947  0.5869
 3338TIP3   OH210019   3.651   0.858   1.816 -0.2781 -0.3811  0.7218
 3338TIP3    H110020   3.741   0.869   1.845 -0.5100  1.5769  0.8699
 3338TIP3    H210021   3.635   0.932   1.758 -2.0542 -0.1508  1.4094
 3339TIP3   OH210022   4.847   3.947   4.592  0.4127 -0.2936  0.5342
 3339TIP3    H110023   4.796   3.975   4.667 -0.8951 -2.3016  0.4911
 3339TIP3    H210024   4.921   3.899   4.629  1.5235  1.3484  0.5559
 3340TIP3   OH210025   0.194   1.690   0.673  0.7435 -0.0245 -0.5702
 3340TIP3    H110026   0.256   1.725   0.737 -1.1249  1.3518  0.5737
 3340TIP3    H210027   0.140   1.629   0.723  0.9492 -0.9850 -1.4841
 3341TIP3   OH210028   0.034   3.831   2.662  0.2433  0.3522  0.5469
 3341TIP3    H110029  -0.027   3.797   2.597  1.6266 -1.9503  0.3567
 3341TIP3    H210030   0.002   3.796   2.746  1.1444 -0.6785  0.4730
 3342TIP3   OH210031   3.662   1.335   1.333 -0.3893 -0.1869  0.0927
 3342TIP3    H110032   3.711   1.395   1.278  0.7165 -1.1194  0.0214
 3342TIP3    H210033   3.610   1.391   1.391  2.1171  0.9015  1.4145
 3343TIP3   OH210034   1.813   2.815   4.470 -0.5485 -0.3111  0.2723
 3343TIP3    H110035   1.876   2.810   4.397 -0.0926  0.3993  0.6015
 3343TIP3    H210036   1.774   2.901   4.461 -1.0742 -0.5365  0.4056
 3344TIP3   OH210037   2.047   1.088   0.294 -0.6737 -0.4552 -0.1329
 3344TIP3    H110038   2.141   1.076   0.282 -0.8893 -1.6050 -0.9426
 3344TIP3    H210039   2.032   1.182   0.284  0.3798 -0.2688 -0.0196
 3345TIP3   OH210040   2.176   5.436   3.440 -0.0501 -0.4213  0.5460
 3345TIP3    H110041   2.177   5.373   3.512  0.5580 -0.2340  0.7039
 3345TIP3    H210042   2.133   5.390   3.368  3.3783 -2.2742 -0.4905
 3346TIP3   OH210043   1.132   3.389   2.641 -0.9272 -0.3068  0.6643
 3346TIP3    H110044   1.190   3.326   2.685 -0.2809 -0.9561 -1.0425
 3346TIP3    H210045   1.140   3.469   2.693  2.3098 -0.0515 -0.0008
 3347TIP3   OH210046   4.321   0.084   1.794 -0.1461 -0.4577 -0.0389
 3347TIP3    H110047   4.294  -0.002   1.828 -2.3693  0.7359  1.4425
 3347TIP3    H210048   4.340   0.136   1.872  3.2055 -0.0926 -0.9444
 3348TIP3   OH210049   5.438   5.022   1.144  0.4760 -0.0061  0.4769
 3348TIP3    H110050   5.350   5.037   1.110 -0.5179 -0.3080  2.7594
 3348TIP3    H210051   5.485   4.982   1.071 -0.9800  1.0278 -1.0916
 3349TIP3   OH210052   4.083   5.921   1.990  0.2800 -0.5299 -0.1561
 3349TIP3    H110053   4.177   5.938   1.994  0.1270  0.2191  1.8329
 3349TIP3    H210054   4.066   5.862   2.063 -0.9059  0.0866  0.0986
 3350TIP3   OH210055   2.694   3.788   3.293  0.3884 -0.5178  0.0125
 3350TIP3    H110056   2.761   3.738   3.246 -0.2228 -2.2140  0.8623
 3350TIP3    H210057   2.672   3.860   3.235  0.8917 -1.5712 -1.5427
 3351TIP3   OH210058   1.091   5.706   1.481 -0.6882  0.0675  0.2195
 3351TIP3    H110059   1.015   5.712   1.423  0.0765  1.5406 -0.7164
 3351TIP3    H210060   1.163   5.680   1.423 -0.4435 -1.2815  1.0848
 3352TIP3   OH210061   1.618   0.554   0.509 -0.6437  0.7710 -0.7585
 3352TIP3    H110062   1.558   0.590   0.574 -1.4422 -0.3589 -0.8429
 3352TIP3    H210063   1.705   0.581   0.540 -1.1160  1.5865 -0.0971
 3353TIP3   OH210064   3.934   2.235   0.343  0.0639  0.2340 -0.2954
 3353TIP3    H110065   3.981   2.152   0.334  0.1143  0.1531  0.6847
 3353TIP3    H210066   3.893   2.247   0.257  1.1895 -0.0980 -0.9183
 3354TIP3   OH210067   6.019   1.119   3.668 -0.4134 -0.2815 -0.2267
 3354TIP3    H110068   6.070   1.044   3.639 -0.0947  0.3662 -1.4036
 3354TIP3    H210069   6.025   1.182   3.595  1.5757  2.0228  1.7319
 3355TIP3   OH210070   4.793   4.408   2.819  0.0355  0.1751  0.1065
 3355TIP3    H110071   4.729   4.377   2.884 -2.8606 -0.1973 -2.6744
 3355TIP3    H210072   4.790   4.342   2.750  0.7918  1.9704 -1.7095
 3356TIP3   OH210073   1.716   4.223   4.873  0.2710 -0.1310 -0.5516
 3356TIP3    H110074   1.639   4.259   4.829  0.3193  0.4001 -0.2149
 3356TIP3    H210075   1.736   4.287   4.942 -0.1676 -1.2163  0.6376
 3357TIP3   OH210076   0.662   2.748   1.929  0.0033 -0.2917  0.1517
 3357TIP3    H110077   0.682   2.654   1.930 -0.3138 -0.3641 -0.1935
 3357TIP3    H210078   0.589   2.757   1.991 -0.3580 -0.3647 -0.2594
 3358TIP3   OH210079   0.913   4.756   1.939 -0.7246  0.0308 -0.6240
 3358TIP3    H110080   0.847   4.794   1.881 -0.0464  2.2309 -0.0695
 3358TIP3    H210081   0.914   4.815   2.015  0.6236 -0.9767  0.1811
 3359TIP3   OH210082   2.333   3.036   2.874 -0.6846  0.1666 -0.2174
 3359TIP3    H110083   2.270   3.002   2.937  0.7829  0.9772  1.8184
 3359TIP3    H210084   2.362   3.119   2.912  1.5557 -0.1611 -1.0513
 3360TIP3   OH210085   1.179   3.848   4.016 -0.1802 -0.4637  0.0308
 3360TIP3    H110086   1.154   3.771   3.964  2.4835 -2.0753  0.9199
 3360TIP3    H210087   1.130   3.838   4.098 -3.1725  1.2357 -1.4168
 3361TIP3   OH210088   4.919   4.788   0.977 -0.4861 -0.1644 -0.3972
 3361TIP3    H110089   4.875   4.802   1.061 -1.9818  1.6003 -1.4017
 3361TIP3    H210090   5.003   4.748   1.000 -1.5821 -1.3818  1.7918
 3362TIP3   OH210091   5.144   1.219   1.540  0.0220 -0.0179 -0.8124
 3362TIP3    H110092   5.073   1.239   1.479  0.0082 -1.9430 -1.5016
 3362TIP3    H210093   5.224   1.242   1.492 -0.0323 -0.3603 -1.0650
 3363TIP3   OH210094   4.300   5.425   2.199  0.3396 -0.0692  0.1157
 3363TIP3    H110095   4.383   5.381   2.180  0.3145 -0.3433  0.6151
 3363TIP3    H210096   4.239   5.354   2.218 -0.2433  0.0880 -1.0949
 3364TIP3   OH210097   0.265   4.583   2.972 -0.1154 -0.1198  0.0556
 3364TIP3    H110098   0.348   4.593   3.019  0.6090 -3.3038 -0.3144
 3364TIP3    H210099   0.199   4.571   3.040 -0.3384  2.2272  0.3435
 3365TIP3   OH210100   5.827   4.182   1.438  0.1179 -0.5027 -0.3925
 3365TIP3    H110101   5.816   4.098   1.393 -0.0242 -1.7691  1.8844
 3365TIP3    H210102   5.916   4.178   1.473  0.1979  0.4103 -0.4831
 3366TIP3   OH210103   2.226   1.309   3.249 -0.0705 -0.6483  0.6666
 3366TIP3    H110104   2.186   1.395   3.240 -0.6402 -1.0306 -0.6043
 3366TIP3    H210105   2.320   1.326   3.239 -0.3481 -0.5177 -2.9516
 3367TIP3   OH210106   2.553   5.470   4.232  0.0762 -0.1816 -0.1611
 3367TIP3    H110107   2.573   5.515   4.150 -1.2758 -0.0432 -0.4369
 3367TIP3    H210108   2.457   5.461   4.232 -0.1436  1.2754  2.1121
 3368TIP3   OH210109   1.310   3.445   3.032  0.5034  0.4842  0.3530
 3368TIP3    H110110   1.404   3.462   3.027 -0.0255  3.6483 -1.0154
 3368TIP3    H210111   1.293   3.385   2.958  1.3079  0.6398  0.0335
 3369TIP3   OH210112   1.376   4.691   4.846 -0.1913 -0.3151  0.1973
 3369TIP3    H110113   1.400   4.776   4.809 -0.5242 -0.5972 -0.7046
 3369TIP3    H210114   1.433   4.681   4.922 -0.3777  0.8615  0.5190
 3370TIP3   OH210115   2.042   5.029   3.107 -0.3973  0.1245 -0.5564
 3370TIP3    H110116   2.091   5.056   3.030  0.5044 -0.9604 -0.3854
 3370TIP3    H210117   1.989   4.955   3.078 -0.5678  0.1413 -0.2972
 3371TIP3   OH210118   4.179   5.000   2.967  0.2752  0.1719  0.2352
 3371TIP3    H110119   4.242   4.939   3.003 -0.0432 -0.4666 -0.2697
 3371TIP3    H210120   4.191   5.080   3.018  0.8366 -0.2413  0.7626
 3372TIP3   OH210121   2.253   4.915   1.878 -0.1515 -0.7902  0.1475
 3372TIP3    H110122   2.252   4.897   1.784 -1.5784  0.8793 -0.2106
 3372TIP3    H210123   2.202   4.995   1.888  0.7091 -0.4180  2.2624
 3373TIP3   OH210124   4.630   4.768   4.972 -0.4078  0.4000  0.2751
 3373TIP3    H110125   4.690   4.743   5.042  2.0246  1.1686 -1.3730
 3373TIP3    H210126   4.599   4.685   4.936 -0.1995 -0.0296  1.0632
 3374TIP3   OH210127   1.361   2.203   2.650  0.1832  0.1745 -0.7655
 3374TIP3    H110128   1.329   2.292   2.663 -1.9583 -0.2745 -2.5591
 3374TIP3    H210129   1.347   2.185   2.557  3.1312 -1.1130 -1.0740
 3375TIP3   OH210130   0.714   2.104   4.051 -0.0070  0.1779  0.1099
 3375TIP3    H110131   0.633   2.132   4.095  0.7935 -0.2065  1.9241
 3375TIP3    H210132   0.685   2.036   3.990 -1.1490  0.6154  0.1309
 3376TIP3   OH210133   2.100   1.193   0.660  0.2217  0.2294  0.2202
 3376TIP3    H110134   2.124   1.105   0.688 -0.7602 -0.3822 -0.7711
 3376TIP3    H210135   2.005   1.189   0.647  0.0919  1.5778  0.6407
 3377TIP3   OH210136   1.562   2.919   2.319 -0.5160 -0.1389 -0.2683
 3377TIP3    H110137   1.646   2.959   2.297 -0.2998 -0.1089  0.5755
 3377TIP3    H210138   1.503   2.947   2.249  0.5585 -1.5311 -1.8211
 3378TIP3   OH210139   1.114   3.611   3.859 -0.0015 -0.4290 -0.4393
 3378TIP3    H110140   1.068   3.533   3.888 -0.1631  0.4012  1.6771
 3378TIP3    H210141   1.149   3.587   3.773 -0.2549 -2.7271  0.0324
 3379TIP3   OH210142   0.132   5.100   2.315  0.4017 -0.3655 -0.2991
 3379TIP3    H110143   0.047   5.142   2.323 -0.0238 -1.4775  1.8315
 3379TIP3    H210144   0.160   5.086   2.406  2.3089 -1.1022 -0.9485
 3380TIP3   OH210145   0.557   0.407   1.801  0.0377 -0.4746  0.1109
 3380TIP3    H110146   0.475   0.401   1.850 -0.3986 -1.4520 -0.6835
 3380TIP3    H210147   0.536   0.464   1.727 -0.0689 -1.0513 -0.3181
 3381TIP3   OH210148   5.253   4.439   1.396 -0.1094 -0.1539 -0.8594
 3381TIP3    H110149   5.172   4.431   1.446  0.0378 -0.7091 -0.6975
 3381TIP3    H210150   5.225   4.437   1.304 -0.2509 -0.7236 -0.8077
 3382TIP3   OH210151   5.975   1.459   0.795  0.1881 -0.8099  0.7486
 3382TIP3    H110152   6.008   1.547   0.774 -0.1773 -0.5697  1.1626
 3382TIP3    H210153   5.907   1.442   0.730  0.7739 -1.1036  0.1983
 3383TIP3   OH210154   6.296   1.191   3.128 -0.1199  0.7096  0.7158
 3383TIP3    H110155   6.296   1.187   3.033 -0.8163 -0.3978  0.7475
 3383TIP3    H210156   6.366   1.131   3.154  0.8668  1.8958  0.8976
 3384TIP3   OH210157   1.614   3.312   0.161 -0.2379 -0.2746  0.1467
 3384TIP3    H110158   1.647   3.399   0.187  0.1765  0.4114 -2.3879
 3384TIP3    H210159   1.568   3.280   0.238  0.2735  1.8641  1.4322
 3385TIP3   OH210160   1.240   2.366   4.398  0.2940  0.2360  0.4492
 3385TIP3    H110161   1.236   2.441   4.458  0.8095 -1.1865  2.3758
 3385TIP3    H210162   1.311   2.387   4.337 -0.2896  1.7663  0.2669
 3386TIP3   OH210163   5.723   3.487   4.320  0.3295  0.5484 -0.6200
 3386TIP3    H110164   5.650   3.450   4.370 -0.0428  1.5350 -0.4022
 3386TIP3    H210165   5.800   3.443   4.354 -0.2925 -2.0934 -2.3101
 3387TIP3   OH210166   1.018   5.264   1.803 -0.4088  0.1085  0.1485
 3387TIP3    H110167   0.923   5.275   1.807 -0.3789  0.2348  0.5722
 3387TIP3    H210168   1.049   5.342   1.758 -0.5756 -0.3382 -0.7648
 3388TIP3   OH210169   0.909   3.577   2.338 -0.7969  0.2918 -0.5432
 3388TIP3    H110170   0.838   3.567   2.275 -2.4134 -0.5278  1.2817
 3388TIP3    H210171   0.949   3.490   2.343 -0.3904  0.4655 -0.7446
 3389TIP3   OH210172   2.082   3.830   1.640 -0.1161  0.2699 -0.3003
 3389TIP3    H110173   2.097   3.739   1.665  0.3947  0.5733  0.4999
 3389TIP3    H210174   2.048   3.872   1.719  0.4628  0.9734 -0.4178
 3390TIP3   OH210175   6.295   4.904   2.444 -0.3803 -0.5857  0.2904
 3390TIP3    H110176   6.385   4.878   2.423 -0.3590 -0.9420  0.8086
 3390TIP3    H210177   6.265   4.839   2.508 -1.0171 -0.4871  0.1083
 3391TIP3   OH210178   2.306   4.826   4.840  0.0329 -0.2270 -0.0687
 3391TIP3    H110179   2.318   4.917   4.813 -1.7762  0.5026  1.4012
 3391TIP3    H210180   2.232   4.794   4.788 -0.0761 -0.4940  0.2443
 3392TIP3   OH210181   4.176   3.053   1.782  0.2407  0.0376  0.1920
 3392TIP3    H110182   4.155   2.961   1.766  0.1552 -0.2552  1.8086
 3392TIP3    H210183   4.242   3.074   1.716 -0.4003 -0.9031 -0.7890
 3393TIP3   OH210184   4.892   0.052   0.039  0.2768 -0.8303  0.6730
 3393TIP3    H110185   4.976   0.075   0.079  0.4956  0.0958 -0.2698
 3393TIP3    H210186   4.828   0.072   0.107  0.8005 -1.4653  1.3736
 3394TIP3   OH210187   4.588   4.096   0.589  0.3082  0.4133 -0.2199
 3394TIP3    H110188   4.554   4.024   0.642 -0.5687  0.6629 -0.4264
 3394TIP3    H210189   4.536   4.171   0.614  0.9042  0.8782 -0.3513
 3395TIP3   OH210190   2.130   2.210   3.664 -0.1918 -0.0311 -0.6728
 3395TIP3    H110191   2.149   2.264   3.740  0.1602  2.2386 -2.2756
 3395TIP3    H210192   2.037   2.225   3.647  0.0023  0.4529 -1.3673
 3396TIP3   OH210193   5.891   5.212   4.912 -0.5460 -0.1315  0.2871
 3396TIP3    H110194   5.919   5.138   4.858 -0.9421 -1.1214  1.3816
 3396TIP3    H210195   5.952   5.282   4.889  0.4994 -1.1071 -0.0495
 3397TIP3   OH210196   5.878   4.666   0.293  0.8400 -0.0781  0.1077
 3397TIP3    H110197   5.877   4.571   0.297 -3.5085 -0.2231  0.2674
 3397TIP3    H210198   5.865   4.686   0.200 -0.4789  0.2492  0.3455
 3398TIP3   OH210199   3.184   0.253   2.399  0.7371 -0.0960 -0.6546
 3398TIP3    H110200   3.151   0.164   2.387 -0.8399  0.2847  0.5467
 3398TIP3    H210201   3.105   0.306   2.412  1.6870  1.3641 -0.6170
 3399TIP3   OH210202   1.218   5.749   4.977  0.1102  0.0369  0.0592
 3399TIP3    H110203   1.138   5.695   4.980  0.9869 -1.3774 -0.6105
 3399TIP3    H210204   1.196   5.821   4.918 -1.2306  0.6855  1.2902
 3400TIP3   OH210205   5.500   3.467   2.496 -0.0688 -0.6490  0.0082
 3400TIP3    H110206   5.488   3.519   2.417  1.2616 -0.3592 -0.0245
 3400TIP3    H210207   5.540   3.528   2.558 -0.4705 -1.0644  0.6909
 3401TIP3   OH210208   0.976   2.263   3.617 -0.0375 -0.0223 -0.3047
 3401TIP3    H110209   0.920   2.328   3.660 -0.4085  0.2480 -1.1851
 3401TIP3    H210210   0.921   2.224   3.550  0.9548  0.6136 -1.5393
 3402TIP3   OH210211   1.867   4.183   3.853 -0.0935 -0.6703  0.1038
 3402TIP3    H110212   1.852   4.274   3.876  0.0871 -0.4664 -0.5583
 3402TIP3    H210213   1.780   4.145   3.842 -0.4024 -1.6935  4.3844
 3403TIP3   OH210214   3.196   5.195   1.856 -0.0973 -0.6492  0.1015
 3403TIP3    H110215   3.128   5.170   1.918  1.1218  2.0563  2.8238
 3403TIP3    H210216   3.153   5.254   1.795 -0.2669  1.3348  2.0144
 3404TIP3   OH210217   1.402   2.716   2.096  0.6478 -0.2160  0.3435
 3404TIP3    H110218   1.488   2.673   2.105  0.8836  0.1289 -0.1962
 3404TIP3    H210219   1.361   2.671   2.022  0.7685  0.2717 -0.0244
 3405TIP3   OH210220   0.438   2.115   3.486 -0.0369 -0.0499 -0.3480
 3405TIP3    H110221   0.391   2.068   3.417  0.3232 -1.8555  0.5748
 3405TIP3    H210222   0.520   2.066   3.496  0.7193  1.2659  0.1372
 3406TIP3   OH210223   6.052   5.768   5.038 -0.1480  0.5434 -0.3046
 3406TIP3    H110224   6.142   5.797   5.019 -0.6271  1.7307 -0.8328
 3406TIP3    H210225   6.064   5.684   5.082  1.1923  0.1641 -1.2965
 3407TIP3   OH210226   6.059   2.791   0.336 -0.0763 -0.3550 -0.2475
 3407TIP3    H110227   6.073   2.701   0.366 -0.6253 -0.4907 -0.3864
 3407TIP3    H210228   5.964   2.802   0.338  0.0298  0.5050  0.5670
 3408TIP3   OH210229   3.985   4.896   3.356 -0.1308  0.5882 -0.0278
 3408TIP3    H110230   3.938   4.930   3.280 -1.0921  1.2782  0.8372
 3408TIP3    H210231   4.074   4.929   3.345 -0.8623  2.9869  0.4515
 3409TIP3   OH210232   4.678   5.108   2.254 -0.2800  0.5020  0.2292
 3409TIP3    H110233   4.659   5.021   2.288 -2.8688  0.8467 -0.0886
 3409TIP3    H210234   4.650   5.167   2.324 -3.8565  1.1554 -1.4893
 3410TIP3   OH210235   4.032   0.719   3.926 -0.4555 -0.0834  0.4439
 3410TIP3    H110236   4.013   0.628   3.904 -0.8001  0.0168  0.3142
 3410TIP3    H210237   3.946   0.759   3.937 -0.3549  0.5993 -1.0244
 3411TIP3   OH210238   2.801   3.254   2.954  0.4718 -0.0191 -0.6436
 3411TIP3    H110239   2.829   3.299   3.034 -0.0198 -0.7428 -0.0414
 3411TIP3    H210240   2.871   3.192   2.936  1.0742  0.8491 -1.3828
 3412TIP3   OH210241   1.204   2.743   1.547  0.3509  0.1931  0.6318
 3412TIP3    H110242   1.132   2.681   1.559 -0.1239  0.8279  1.1540
 3412TIP3    H210243   1.222   2.741   1.453  0.2645 -0.6449  0.6308
 3413TIP3   OH210244   3.513   1.225   1.069 -0.0495 -0.5421  0.0576
 3413TIP3    H110245   3.436   1.170   1.061 -0.3382 -0.4696  1.8285
 3413TIP3    H210246   3.498   1.276   1.149  1.9545 -0.7462  0.6324
 3414TIP3   OH210247   2.428   5.797   4.076 -0.1840 -0.1458  0.5659
 3414TIP3    H110248   2.502   5.741   4.057  0.3619 -0.2449  2.6781
 3414TIP3    H210249   2.393   5.763   4.159 -1.8163  0.6627  0.2489
 3415TIP3   OH210250   4.552   1.189   3.431  0.1864 -0.2542  0.0807
 3415TIP3    H110251   4.469   1.227   3.460  0.3917  0.8741 -0.7382
 3415TIP3    H210252   4.618   1.239   3.478  0.4031 -1.3688  0.9771
 3416TIP3   OH210253   4.755   2.426   4.469  0.1171  0.3402  0.3644
 3416TIP3    H110254   4.798   2.429   4.554 -0.6374  0.0818  0.7632
 3416TIP3    H210255   4.820   2.461   4.408  1.8227 -2.1832  0.5607
 3417TIP3   OH210256   3.394   2.684   1.372  0.0152 -0.1665  0.4601
 3417TIP3    H110257   3.398   2.706   1.465 -0.5521  0.3008  0.3753
 3417TIP3    H210258   3.457   2.744   1.331 -0.1316 -0.0036  0.4727
 3418TIP3   OH210259   1.714   1.367   2.302 -0.2705  0.3305 -0.3144
 3418TIP3    H110260   1.711   1.280   2.340  1.8849  0.8482  1.2480
 3418TIP3    H210261   1.780   1.361   2.233 -0.8314  0.5224 -0.8840
 3419TIP3   OH210262   3.514   0.555   3.599 -0.9614  0.4700 -0.0356
 3419TIP3    H110263   3.600   0.554   3.557 -0.5672  1.0211  0.7320
 3419TIP3    H210264   3.455   0.588   3.532 -0.9300 -1.5786 -1.1681
 3420TIP3   OH210265   0.140   1.366   0.476 -0.4027 -0.0582 -0.0402
 3420TIP3    H110266   0.104   1.285   0.440 -0.0442 -0.3967  0.3456
 3420TIP3    H210267   0.064   1.414   0.508 -0.7289  0.2648 -1.2558
 3421TIP3   OH210268   4.618   3.686   0.541 -0.5946 -0.2602  0.1453
 3421TIP3    H110269   4.622   3.601   0.584 -0.5393  0.0811  0.8288
 3421TIP3    H210270   4.699   3.731   0.568 -0.3986 -0.1660 -0.5855
 3422TIP3   OH210271   4.264   3.350   3.103  0.2227  0.4140 -0.5285
 3422TIP3    H110272   4.222   3.358   3.189  1.8565 -0.0085  0.3578
 3422TIP3    H210273   4.217   3.278   3.061  0.4760 -0.5180  0.7093
 3423TIP3   OH210274   0.211   4.006   4.542  0.3362  0.4146  0.0236
 3423TIP3    H110275   0.257   3.928   4.512 -0.9980  0.0717 -1.2268
 3423TIP3    H210276   0.228   4.008   4.637  2.4534  0.0466 -0.2982
 3424TIP3   OH210277   2.139   4.362   1.571 -0.1077 -0.1528  0.0578
 3424TIP3    H110278   2.089   4.412   1.507 -0.2018 -1.5570 -1.0042
 3424TIP3    H210279   2.230   4.378   1.549  0.0284  2.2361  1.8632
 3425TIP3   OH210280   3.197   1.480   4.488 -0.5968 -0.5836 -0.3259
 3425TIP3    H110281   3.116   1.430   4.499 -2.1351  2.0618  1.5628
 3425TIP3    H210282   3.230   1.492   4.576  1.3296 -0.7119 -0.9961
 3426TIP3   OH210283   2.731   3.212   0.620 -0.0654  0.2744 -0.2854
 3426TIP3    H110284   2.759   3.267   0.547 -0.5168  1.1928  0.2251
 3426TIP3    H210285   2.701   3.131   0.579  1.5763 -0.0318 -0.9736
 3427TIP3   OH210286   2.601   4.639   4.117 -0.0201 -0.1382 -0.1284
 3427TIP3    H110287   2.636   4.594   4.040  1.1380 -2.0556  1.4307
 3427TIP3    H210288   2.520   4.592   4.138 -0.9829  1.1464 -0.8280
 3428TIP3   OH210289   2.510   2.134   3.128  0.3674 -0.3762 -0.6330
 3428TIP3    H110290   2.475   2.102   3.211 -0.7545  3.6955  0.6848
 3428TIP3    H210291   2.602   2.106   3.128  0.0095 -1.7828  1.1834
 3429TIP3   OH210292   1.844   2.127   2.434 -0.4678  0.5846  0.0309
 3429TIP3    H110293   1.858   2.213   2.472 -2.6582 -0.1019  2.6800
 3429TIP3    H210294   1.749   2.114   2.438 -0.0584 -3.0259  2.4805
 3430TIP3   OH210295   2.331   4.704   2.027 -0.1524  0.5721 -0.2084
 3430TIP3    H110296   2.401   4.671   1.971  0.2465  1.4060 -0.2281
 3430TIP3    H210297   2.312   4.791   1.991  0.2955  1.2336  1.1117
 3431TIP3   OH210298   5.009   4.055   2.854 -0.1986  0.0090 -0.1368
 3431TIP3    H110299   5.068   4.129   2.840  0.7091 -0.8653 -1.2610
 3431TIP3    H210300   4.954   4.053   2.775 -2.4400  1.3763  1.3110
 3432TIP3   OH210301   4.950   4.797   4.942  0.3727  0.3188  0.0423
 3432TIP3    H110302   4.858   4.818   4.958  0.1364  0.6933 -1.6240
 3432TIP3    H210303   4.998   4.869   4.983 -0.1410  0.7160 -0.0378
 3433TIP3   OH210304   3.854   4.746   0.988 -0.2497  0.4378 -0.4347
 3433TIP3    H110305   3.903   4.728   1.068 -0.7228 -1.6095 -0.5538
 3433TIP3    H210306   3.894   4.826   0.953  0.7003  0.7428  1.2306
 3434TIP3   OH210307   3.702   4.958   1.245 -0.2565 -0.4129 -0.1051
 3434TIP3    H110308   3.667   4.876   1.279  0.1521 -0.5966 -0.1183
 3434TIP3    H210309   3.677   4.960   1.153  0.0274 -0.6854 -0.1879
 3435TIP3   OH210310   1.163   3.253   4.592 -0.1258 -0.3147 -0.7698
 3435TIP3    H110311   1.083   3.245   4.644  0.3330 -0.9833 -0.1433
 3435TIP3    H210312   1.232   3.268   4.657  0.1623  0.9865 -1.3604
 3436TIP3   OH210313   1.670   3.055   0.071  0.1059 -0.7298 -0.1890
 3436TIP3    H110314   1.610   3.034  -0.001 -2.1972 -0.2363  1.4530
 3436TIP3    H210315   1.659   3.149   0.084  2.3081 -0.3584 -0.6724
 3437TIP3   OH210316   6.082   5.828   3.020  0.0844  0.1126 -0.2652
 3437TIP3    H110317   6.138   5.867   2.953  2.0378 -0.3388  1.0274
 3437TIP3    H210318   6.082   5.890   3.092 -0.9810  0.0182 -0.1554
 3438TIP3   OH210319   1.370   5.770   3.770 -0.0372 -0.2556 -0.2414
 3438TIP3    H110320   1.286   5.815   3.774  0.4155  0.5181  1.4540
 3438TIP3    H210321   1.431   5.828   3.817  1.8745  0.0444 -2.7977
 3439TIP3   OH210322   4.772   4.250   4.428  0.1680  0.5428  0.0220
 3439TIP3    H110323   4.750   4.217   4.514  0.2683  1.1956  0.3073
 3439TIP3    H210324   4.760   4.345   4.435  2.4073  0.8926  0.0301
 3440TIP3   OH210325   6.261   4.435   1.581 -0.2950 -0.1196  0.3601
 3440TIP3    H110326   6.351   4.448   1.609 -0.2023 -0.9573  0.4852
 3440TIP3    H210327   6.243   4.343   1.599 -1.6188  0.3274  1.5871
 3441TIP3   OH210328   2.795   1.932   3.722 -0.2187 -0.2108 -0.3026
 3441TIP3    H110329   2.832   1.967   3.803 -0.1498  0.2794 -0.5414
 3441TIP3    H210330   2.870   1.920   3.664 -0.4046  0.7013 -0.7569
 3442TIP3   OH210331   1.385   0.498   2.660 -0.0675 -1.1758 -0.1488
 3442TIP3    H110332   1.400   0.450   2.579 -2.8770 -0.5984 -1.1328
 3442TIP3    H210333   1.417   0.440   2.729  0.6675 -2.5021 -1.5377
 3443TIP3   OH210334   5.722   3.008   0.061 -0.0913 -0.0984  0.3561
 3443TIP3    H110335   5.717   3.050   0.147 -1.2303 -0.1548  0.3247
 3443TIP3    H210336   5.707   3.079  -0.001 -2.0681 -0.5190  0.3043
 3444TIP3   OH210337   6.123   2.519   0.414 -0.4251  0.1567 -0.3157
 3444TIP3    H110338   6.217   2.537   0.409 -0.3374 -0.2708 -0.2569
 3444TIP3    H210339   6.112   2.434   0.371 -0.5134 -0.7080  1.3629
 3445TIP3   OH210340   4.866   2.971   5.100 -0.1018 -0.2503 -0.0537
 3445TIP3    H110341   4.943   2.917   5.082  0.3768  0.6516 -0.7756
 3445TIP3    H210342   4.838   2.945   5.188  0.1106 -1.6629 -0.3818
 3446TIP3   OH210343   0.720   2.803   5.082  0.3838  0.5296 -0.1577
 3446TIP3    H110344   0.724   2.862   5.157  2.4401 -0.6688  0.7724
 3446TIP3    H210345   0.627   2.796   5.061 -0.1871  1.4503  1.8344
 3447TIP3   OH210346   0.409   5.652   3.488 -0.0532 -0.0701 -0.2082
 3447TIP3    H110347   0.408   5.720   3.420 -0.3301 -1.4649 -1.6478
 3447TIP3    H210348   0.317   5.642   3.512 -0.4888 -2.1899 -2.4066
 3448TIP3   OH210349   5.169   5.086   1.039 -0.0255 -0.0003 -0.2465
 3448TIP3    H110350   5.249   5.135   1.022  0.3522 -0.5243 -0.0136
 3448TIP3    H210351   5.113   5.104   0.964 -0.4489  1.8607  0.4470
 3449TIP3   OH210352   2.818   5.274   1.043  0.3435  0.0371 -0.1547
 3449TIP3    H110353   2.816   5.181   1.020  0.4574 -0.5204  1.8829
 3449TIP3    H210354   2.727   5.296   1.062  0.6523 -0.5479  2.3774
 3450TIP3   OH210355   6.199   0.975   1.147  0.1516  0.0769  0.3989
 3450TIP3    H110356   6.271   1.012   1.198  0.6734 -0.9790  0.4481
 3450TIP3    H210357   6.172   1.047   1.089  1.0723  0.5723  0.5541
 3451TIP3   OH210358   2.469   5.291   3.373 -0.4610 -0.1696  0.3913
 3451TIP3    H110359   2.490   5.211   3.325 -0.9580  0.0087 -0.1349
 3451TIP3    H210360   2.374   5.298   3.369 -0.3254  1.4618 -1.2717
 3452TIP3   OH210361   0.056   1.011   1.741 -0.0685 -0.4158  0.4408
 3452TIP3    H110362   0.079   0.946   1.674  1.4847 -1.1610  1.6463
 3452TIP3    H210363  -0.001   0.963   1.801 -1.6731  0.3234 -0.4238
 3453TIP3   OH210364   4.323   0.183   0.959 -0.0556 -0.0743 -0.0121
 3453TIP3    H110365   4.386   0.205   0.891  0.4840  1.0045  0.8068
 3453TIP3    H210366   4.238   0.197   0.918  0.1270 -2.6596 -1.5055
 3454TIP3   OH210367   6.154   1.404   3.216 -0.3792  0.1637  0.5244
 3454TIP3    H110368   6.205   1.328   3.189  0.7764  1.2981 -0.6461
 3454TIP3    H210369   6.217   1.463   3.256 -0.8784  1.2652 -0.2398
 3455TIP3   OH210370   0.922   4.222   1.714 -0.2129 -0.2023 -0.0266
 3455TIP3    H110371   0.906   4.280   1.789  0.5586  0.1777 -0.1440
 3455TIP3    H210372   0.850   4.240   1.654 -0.2322  0.3087  0.1418
 3456TIP3   OH210373   6.142   3.578   4.879 -0.2735  0.4154  0.0279
 3456TIP3    H110374   6.153   3.489   4.911 -0.3336  0.4552  0.1616
 3456TIP3    H210375   6.202   3.585   4.805  0.2470  0.4760  0.4435
 3457TIP3   OH210376   4.671   3.077   0.125  0.2649 -0.1385 -0.1590
 3457TIP3    H110377   4.694   3.093   0.034 -1.6773  1.0174 -0.4967
 3457TIP3    H210378   4.607   3.005   0.122  0.3252 -0.2190  0.3011
 3458TIP3   OH210379   6.245   2.305   1.601  0.2265  0.7098  0.3240
 3458TIP3    H110380   6.336   2.309   1.629 -0.3126  1.6993  2.0536
 3458TIP3    H210381   6.250   2.279   1.509  2.1984 -0.1565  0.6147
 3459TIP3   OH210382   2.442   5.660   4.919  0.1612 -0.2187  0.4843
 3459TIP3    H110383   2.478   5.632   4.835 -0.7909  1.7161 -0.6413
 3459TIP3    H210384   2.513   5.646   4.982  1.7976  0.6306 -1.0931
 3460TIP3   OH210385   3.295   3.133   1.246  0.0915 -0.3135  0.4051
 3460TIP3    H110386   3.371   3.150   1.190  0.2352 -1.5873  0.1747
 3460TIP3    H210387   3.332   3.121   1.333  0.3088 -2.0341  0.1031
 3461TIP3   OH210388   2.738   0.746   2.212 -0.1956 -0.2241  0.3526
 3461TIP3    H110389   2.797   0.672   2.200  1.3704  0.9348  0.5185
 3461TIP3    H210390   2.728   0.783   2.124  0.2789  0.2548  0.4930
 3462TIP3   OH210391   4.214   5.432   1.745 -0.1720 -0.0562 -0.2778
 3462TIP3    H110392   4.131   5.479   1.740 -1.7115 -2.4956  0.5795
 3462TIP3    H210393   4.262   5.475   1.816 -0.5235  1.5715 -0.9805
 3463TIP3   OH210394   1.450   5.152   4.467 -0.0305 -0.2807 -0.3856
 3463TIP3    H110395   1.394   5.229   4.459  1.1685  0.5405 -1.1540
 3463TIP3    H210396   1.536   5.186   4.491  0.2237 -1.4911  0.5071
 3464TIP3   OH210397   1.444   3.674   0.519 -0.2324  0.1332  0.6902
 3464TIP3    H110398   1.434   3.656   0.425 -1.1056 -0.7484  0.9372
 3464TIP3    H210399   1.514   3.740   0.523 -1.4981  1.6532 -0.7093
 3465TIP3   OH210400   2.958   5.882   3.579  0.0370 -0.4256  0.1504
 3465TIP3    H110401   2.899   5.839   3.641  0.9073 -0.3910  1.0152
 3465TIP3    H210402   2.931   5.974   3.580  0.4310 -0.3107  0.9454
 3466TIP3   OH210403   5.932   2.139   3.218  0.3520 -0.4078 -0.0132
 3466TIP3    H110404   5.960   2.048   3.216  1.6370 -0.1245  2.0338
 3466TIP3    H210405   5.862   2.142   3.282  2.4654  0.4626  2.4382
 3467TIP3   OH210406   3.177   0.200   1.092  0.1900 -0.0747  0.8663
 3467TIP3    H110407   3.115   0.247   1.148 -0.6121  3.3069 -2.4257
 3467TIP3    H210408   3.122   0.151   1.031  0.8367  0.0738  0.1496
 3468TIP3   OH210409   5.331   0.135   4.409 -0.1516 -0.0891  0.2285
 3468TIP3    H110410   5.406   0.122   4.467  1.0140  0.9358 -0.9718
 3468TIP3    H210411   5.348   0.219   4.366 -1.0344 -0.7054 -1.4343
 3469TIP3   OH210412   1.957   2.621   1.846  0.1016 -0.2423  0.2819
 3469TIP3    H110413   2.028   2.686   1.845 -0.2383  0.1287 -0.1768
 3469TIP3    H210414   1.894   2.654   1.783 -0.1261 -0.9738  0.1221
 3470TIP3   OH210415   0.578   0.336   1.452  0.1433  0.1578  0.6634
 3470TIP3    H110416   0.488   0.348   1.484  0.0846  0.1442  0.5037
 3470TIP3    H210417   0.620   0.420   1.466  0.0234  0.2486  0.4763
 3471TIP3   OH210418   2.590   1.058   2.739  0.0318 -0.1941 -0.3634
 3471TIP3    H110419   2.676   1.021   2.760  0.0140  0.9282  2.1161
 3471TIP3    H210420   2.564   1.015   2.658  1.8248 -2.4271  0.1370
 3472TIP3   OH210421   0.515   1.465   2.826  0.5669  0.4993 -0.1534
 3472TIP3    H110422   0.548   1.391   2.776 -1.7088 -0.5437 -0.2723
 3472TIP3    H210423   0.494   1.531   2.760  0.6727  0.4376 -0.2493
 3473TIP3   OH210424   2.963   4.472   4.793  0.2256  0.1785 -0.7721
 3473TIP3    H110425   2.906   4.463   4.717 -0.2840  3.9179 -1.0192
 3473TIP3    H210426   2.913   4.437   4.866  0.2541 -2.3810 -1.8678
 3474TIP3   OH210427   6.106   2.716   0.079 -0.1919 -0.3805  0.0425
 3474TIP3    H110428   6.198   2.700   0.098  0.3422  1.0899 -1.1609
 3474TIP3    H210429   6.072   2.759   0.158 -0.3317 -2.4281  1.1770
 3475TIP3   OH210430   3.437   4.613  -0.002  0.2229  0.5495 -0.1809
 3475TIP3    H110431   3.531   4.594   0.001 -0.0292 -1.1340 -1.2742
 3475TIP3    H210432   3.410   4.616   0.090  0.9571 -1.3208  0.1514
 3476TIP3   OH210433   1.525   1.556   4.716  0.0741 -0.4108 -0.3571
 3476TIP3    H110434   1.545   1.639   4.759 -0.6751 -0.1752 -0.4525
 3476TIP3    H210435   1.610   1.515   4.702  0.3376 -0.7121  1.7448
 3477TIP3   OH210436   1.739   0.524   4.854 -0.2583  0.1754 -0.8798
 3477TIP3    H110437   1.764   0.463   4.923 -0.8257  1.7614  0.7933
 3477TIP3    H210438   1.789   0.603   4.872  0.6416  0.1840 -3.1550
 3478TIP3   OH210439   2.009   0.837   0.382 -0.4809  0.0533 -0.1706
 3478TIP3    H110440   2.016   0.918   0.332  1.8675 -0.5686 -0.9792
 3478TIP3    H210441   2.013   0.768   0.316  0.7424 -0.7536  0.6902
 3479TIP3   OH210442   5.610   0.926   4.274  1.2085  0.7273 -0.0201
 3479TIP3    H110443   5.584   0.984   4.345 -0.5104  0.2952 -0.2525
 3479TIP3    H210444   5.560   0.956   4.198  0.5102 -0.8172 -0.2151
 3480TIP3   OH210445   1.768   4.321   2.539  0.1057  0.3980 -0.1850
 3480TIP3    H110446   1.821   4.246   2.565  0.6097  0.8295  0.0513
 3480TIP3    H210447   1.681   4.285   2.524 -0.1187  0.0777  1.7389
 3481TIP3   OH210448   3.167   1.326   3.346 -0.1553 -0.0958  0.1694
 3481TIP3    H110449   3.109   1.389   3.304  0.9610  0.1984 -1.0120
 3481TIP3    H210450   3.180   1.258   3.279  2.5249  0.9278 -0.4768
 3482TIP3   OH210451   2.801   4.977   0.703 -0.6057 -0.5958 -0.0046
 3482TIP3    H110452   2.787   5.054   0.647 -2.0789 -0.7748  0.0673
 3482TIP3    H210453   2.713   4.942   0.717  0.0309 -2.2461  0.0544
 3483TIP3   OH210454   2.636   4.672   2.723  0.3642  0.0028  0.4300
 3483TIP3    H110455   2.706   4.630   2.772  3.3844  2.0695 -1.7471
 3483TIP3    H210456   2.645   4.765   2.743  0.2540  0.6548 -2.1788
 3484TIP3   OH210457   0.647   3.115   1.333 -0.6835  0.1967 -0.0071
 3484TIP3    H110458   0.584   3.157   1.274 -1.1513 -0.3068  0.1345
 3484TIP3    H210459   0.659   3.179   1.403  0.0931  0.9271 -0.7751
 3485TIP3   OH210460   2.611   4.403   2.159 -0.5132  0.1416  0.1711
 3485TIP3    H110461   2.646   4.333   2.215 -0.3809 -0.1656 -0.2847
 3485TIP3    H210462   2.523   4.418   2.192  0.2679  1.4231  1.7992
 3486TIP3   OH210463   5.276   5.377   1.474 -0.2104  0.4243 -0.2174
 3486TIP3    H110464   5.231   5.293   1.469 -0.2571  0.3945  0.4826
 3486TIP3    H210465   5.369   5.356   1.469 -0.2544  0.4763 -1.5634
 3487TIP3   OH210466   5.139   1.470   3.125 -0.0990 -0.5830  0.4370
 3487TIP3    H110467   5.146   1.388   3.173  0.1657  0.5154  2.3698
 3487TIP3    H210468   5.177   1.535   3.184 -0.6396  0.9866 -0.8952
 3488TIP3   OH210469   1.852   5.843   4.497  0.8624 -0.1552  0.2302
 3488TIP3    H110470   1.766   5.800   4.500  1.0750 -0.5523  0.9756
 3488TIP3    H210471   1.910   5.783   4.544  1.1381  1.0020  1.4293
 3489TIP3   OH210472   1.516   0.360   1.184 -0.0165  0.1380 -0.0950
 3489TIP3    H110473   1.482   0.340   1.097 -2.6151 -0.6591  0.9930
 3489TIP3    H210474   1.548   0.276   1.218 -2.9817 -0.5996  1.2252
 3490TIP3   OH210475   4.829   4.633   4.070 -0.2826 -0.0339  0.6075
 3490TIP3    H110476   4.862   4.572   4.004 -1.0185 -0.5529  0.7025
 3490TIP3    H210477   4.734   4.618   4.071 -0.5872  1.7052  0.0483
 3491TIP3   OH210478   2.336   5.279   0.985  1.1741 -0.0104  0.1246
 3491TIP3    H110479   2.324   5.264   1.079  4.1254 -1.2346  0.4176
 3491TIP3    H210480   2.305   5.368   0.971 -0.6881 -0.2899  1.9240
 3492TIP3   OH210481   5.817   5.625   3.877  0.3019  0.6010  0.4747
 3492TIP3    H110482   5.726   5.632   3.847  0.6701  3.0684 -0.3636
 3492TIP3    H210483   5.810   5.601   3.969 -1.2712  1.5506  0.6472
 3493TIP3   OH210484   4.336   5.073   3.987 -0.2360  0.1535  0.1241
 3493TIP3    H110485   4.328   5.038   4.076 -0.6171 -2.7035 -0.9238
 3493TIP3    H210486   4.422   5.043   3.957  0.9016  3.0170  0.2040
 3494TIP3   OH210487   3.236   5.248   0.055 -0.6353 -1.0493 -0.1729
 3494TIP3    H110488   3.224   5.263   0.149  1.5722 -1.2083  0.1773
 3494TIP3    H210489   3.254   5.154   0.048 -0.9197 -1.0622 -0.7735
 3495TIP3   OH210490   4.574   4.071   1.881 -0.2256 -0.1199 -0.3349
 3495TIP3    H110491   4.611   3.997   1.832 -1.3101 -1.0685  0.2101
 3495TIP3    H210492   4.520   4.030   1.949 -2.4741  1.1581 -1.2491
 3496TIP3   OH210493   2.573   3.701   4.870 -0.0808 -0.3761 -0.0237
 3496TIP3    H110494   2.537   3.614   4.888  0.6863 -0.7849 -0.4314
 3496TIP3    H210495   2.512   3.740   4.807 -1.1220 -0.1122  1.1141
 3497TIP3   OH210496   3.935   1.238   1.094 -0.4622 -0.2607 -0.2420
 3497TIP3    H110497   3.877   1.177   1.048  1.1248 -1.1838 -1.1098
 3497TIP3    H210498   3.906   1.234   1.185 -0.7030 -2.0044 -0.3523
 3498TIP3   OH210499   1.862   3.356   3.144  0.2702  0.1665 -0.2552
 3498TIP3    H110500   1.926   3.428   3.151 -1.5285  2.0177 -1.7189
 3498TIP3    H210501   1.808   3.365   3.222  0.9150 -0.5485  0.2917
 3499TIP3   OH210502   5.388   3.216   2.595 -0.7602 -0.2224 -0.4116
 3499TIP3    H110503   5.306   3.236   2.641  0.0685  1.4965  0.4016
 3499TIP3    H210504   5.412   3.298   2.552  0.9924 -0.4525  0.0743
 3500TIP3   OH210505   0.990   0.645   0.081 -0.5767 -0.1977 -0.4571
 3500TIP3    H110506   0.964   0.663  -0.010  1.0216  0.1314 -0.8814
 3500TIP3    H210507   1.048   0.718   0.104 -1.7185  0.2506  1.1929
 3501TIP3   OH210508   3.964   4.522   2.576  0.5555 -0.0866  0.2607
 3501TIP3    H110509   3.984   4.460   2.505  0.9273  0.3852 -0.0510
 3501TIP3    H210510   4.047   4.535   2.621  0.3559 -0.2529  0.6875
 3502TIP3   OH210511   0.398   0.275   2.825  0.2583 -0.4853  0.8475
 3502TIP3    H110512   0.447   0.351   2.795  0.6588 -0.9008  0.4372
 3502TIP3    H210513   0.453   0.236   2.894 -0.8623  0.7274  2.5205
 3503TIP3   OH210514   5.483   4.840   4.154 -0.6179  0.4441  0.0860
 3503TIP3    H110515   5.453   4.927   4.179 -1.4721  0.0780  0.3907
 3503TIP3    H210516   5.404   4.796   4.123 -0.6478 -0.9214  1.9504
 3504TIP3   OH210517   2.134   1.037   2.018  0.0918  0.1146  0.2430
 3504TIP3    H110518   2.172   1.011   2.101 -0.4688 -1.5966  0.0211
 3504TIP3    H210519   2.067   0.970   2.001 -0.0807  0.6496 -1.3732
 3505TIP3   OH210520   1.422   3.682   3.881  0.2639  0.0411 -0.6198
 3505TIP3    H110521   1.386   3.759   3.925  1.8823  0.6971 -0.3561
 3505TIP3    H210522   1.361   3.665   3.809 -0.3147  1.3591 -0.4730
 3506TIP3   OH210523   4.358   0.745   5.099 -0.4102  0.1977  0.4309
 3506TIP3    H110524   4.451   0.740   5.121 -0.1728  0.3685 -0.4792
 3506TIP3    H210525   4.317   0.677   5.153  0.2806 -0.0496  0.6562
 3507TIP3   OH210526   1.710   0.842   3.555 -0.5383 -0.2230  0.0673
 3507TIP3    H110527   1.625   0.810   3.524 -0.7958 -0.3353  0.8758
 3507TIP3    H210528   1.692   0.931   3.585 -0.4910 -0.4347  0.7392
 3508TIP3   OH210529   0.645   0.134   4.087 -0.2642 -0.1769 -0.1284
 3508TIP3    H110530   0.702   0.065   4.052 -1.0343 -0.9738  0.1447
 3508TIP3    H210531   0.634   0.195   4.013 -0.3451 -0.8459 -0.6815
 3509TIP3   OH210532   0.533   4.905   1.391  0.0074  0.0188 -0.1395
 3509TIP3    H110533   0.526   5.001   1.391  1.8572  0.2103  0.9615
 3509TIP3    H210534   0.615   4.887   1.344 -0.0154 -0.9779  0.1775
 3510TIP3   OH210535   5.702   4.800   4.842  0.1178 -0.0841  0.0564
 3510TIP3    H110536   5.710   4.867   4.773 -0.0234  0.1556  0.2684
 3510TIP3    H210537   5.695   4.851   4.923  1.1433 -0.3825  0.3443
 3511TIP3   OH210538   4.824   3.697   3.430  0.2796 -0.2948 -0.1244
 3511TIP3    H110539   4.875   3.747   3.366  1.0161 -1.7192 -0.6915
 3511TIP3    H210540   4.737   3.738   3.429  0.2447 -0.3227 -2.0818
 3512TIP3   OH210541   2.079   0.315   2.681 -0.1257 -0.2199  0.5876
 3512TIP3    H110542   2.047   0.255   2.613  0.8587  1.1203 -1.1533
 3512TIP3    H210543   2.068   0.402   2.642 -0.6804  0.7089  2.6814
 3513TIP3   OH210544   6.110   3.558   1.638 -0.0244  0.0392 -0.1547
 3513TIP3    H110545   6.161   3.515   1.570 -0.5951  0.7903 -1.0771
 3513TIP3    H210546   6.020   3.530   1.622  0.0514 -1.2328  1.4262
 3514TIP3   OH210547   2.159   4.155   4.614 -0.2828 -0.0221  0.0162
 3514TIP3    H110548   2.201   4.106   4.685 -0.7487  1.1191  1.1271
 3514TIP3    H210549   2.094   4.210   4.658 -3.7455 -2.3615 -1.6366
 3515TIP3   OH210550   6.014   5.001   2.036 -0.5809  0.3792 -0.3273
 3515TIP3    H110551   6.023   5.019   1.942 -0.0348  1.2104 -0.1317
 3515TIP3    H210552   6.093   4.951   2.059 -1.7142 -1.6963 -0.7066
 3516TIP3   OH210553   3.372   0.044   3.197 -0.2832  0.0684 -0.1219
 3516TIP3    H110554   3.373  -0.044   3.234 -0.0228 -0.4325 -1.2617
 3516TIP3    H210555   3.409   0.100   3.266 -0.3814 -0.7224  0.5821
 3517TIP3   OH210556   3.696   5.601   3.670 -0.3666  0.1379 -0.0922
 3517TIP3    H110557   3.668   5.692   3.679 -1.0062  0.1295 -1.7806
 3517TIP3    H210558   3.624   5.557   3.626  0.3164 -0.9798 -0.1420
 3518TIP3   OH210559   4.369   3.310   0.009 -0.2230 -0.0424  0.0321
 3518TIP3    H110560   4.373   3.349   0.096 -0.8539 -0.3397  0.2001
 3518TIP3    H210561   4.415   3.372  -0.047 -0.0947  0.3101  0.5159
 3519TIP3   OH210562   5.205   2.715   0.122  0.3761 -0.0281 -0.2163
 3519TIP3    H110563   5.200   2.685   0.213  1.3303 -0.7781 -0.3925
 3519TIP3    H210564   5.261   2.792   0.125  0.2816  0.0385 -0.1523
 3520TIP3   OH210565   1.801   1.455   2.979  0.3885 -0.1122 -0.3888
 3520TIP3    H110566   1.790   1.548   3.002 -0.3735  0.0585 -1.3792
 3520TIP3    H210567   1.887   1.451   2.935  0.6327  0.0351  0.0712
 3521TIP3   OH210568   1.218   1.431   0.277  0.4501 -0.0334  0.1861
 3521TIP3    H110569   1.144   1.403   0.331  0.8227  0.0607  0.7562
 3521TIP3    H210570   1.178   1.471   0.200 -0.0975  0.2905  0.6343
 3522TIP3   OH210571   5.972   4.528   2.423 -0.1465 -0.1611  0.0136
 3522TIP3    H110572   5.940   4.604   2.374 -0.7570  0.2333  0.9946
 3522TIP3    H210573   6.039   4.490   2.367  1.2287  1.9498  0.1117
 3523TIP3   OH210574   3.923   1.486   4.318 -0.3180  0.2980  0.9336
 3523TIP3    H110575   3.901   1.393   4.317  1.1554 -0.0753  1.4354
 3523TIP3    H210576   3.926   1.509   4.411  1.3045  0.3349  0.8910
 3524TIP3   OH210577   3.414   3.337   3.399  0.6969  0.0535  0.8400
 3524TIP3    H110578   3.436   3.333   3.492 -3.0227  1.4605  1.9651
 3524TIP3    H210579   3.365   3.256   3.382  0.3590  0.3322  0.4464
 3525TIP3   OH210580   1.167   4.938   3.313  0.0809  0.1540  0.0749
 3525TIP3    H110581   1.106   4.864   3.311 -0.7246  0.8278 -0.6512
 3525TIP3    H210582   1.222   4.921   3.390 -0.7425 -0.6774  0.5029
 3526TIP3   OH210583   1.843   3.116   5.064  0.1752  0.0829  0.0882
 3526TIP3    H110584   1.795   3.194   5.090  1.4121  0.1370  2.4335
 3526TIP3    H210585   1.934   3.146   5.053  0.5759 -0.9171  0.5396
 3527TIP3   OH210586   0.242   2.349   0.028  0.0736  0.5184  0.0452
 3527TIP3    H110587   0.170   2.306   0.073  1.9186  0.5047  3.3112
 3527TIP3    H210588   0.275   2.413   0.090  3.0103  0.3733 -1.1592
 3528TIP3   OH210589   2.763   1.126   1.572  0.2709 -0.4145 -0.4379
 3528TIP3    H110590   2.695   1.174   1.620 -0.1413 -0.6710 -0.7591
 3528TIP3    H210591   2.794   1.188   1.506 -0.9990 -0.9078 -1.5494
 3529TIP3   OH210592   3.492   4.119   3.968  0.0560 -0.8194 -0.8549
 3529TIP3    H110593   3.552   4.070   3.912  0.4146 -0.4165 -0.8338
 3529TIP3    H210594   3.426   4.056   3.995  0.7436 -1.3917 -0.4857
 3530TIP3   OH210595   0.934   0.143   3.579  0.3842 -0.2547  0.5874
 3530TIP3    H110596   0.933   0.217   3.641  0.1946  0.8880 -0.7140
 3530TIP3    H210597   1.026   0.134   3.554  0.3386 -0.1160  0.3661
 3531TIP3   OH210598   6.235   4.768   3.063  0.6114 -0.0225  0.1169
 3531TIP3    H110599   6.295   4.698   3.088 -0.4939 -0.8718  0.4870
 3531TIP3    H210600   6.286   4.824   3.005  2.1290 -0.0075  1.4127
 3532TIP3   OH210601   0.702   1.858   1.957 -0.2607  0.0111 -0.2883
 3532TIP3    H110602   0.724   1.867   1.864 -1.2767 -1.0979 -0.6635
 3532TIP3    H210603   0.614   1.820   1.957 -0.2374 -0.0989  1.1363
 3533TIP3   OH210604   2.711   1.302   3.684  0.2712 -0.0572  0.5891
 3533TIP3    H110605   2.708   1.221   3.633  1.0726  0.4496 -0.2947
 3533TIP3    H210606   2.635   1.296   3.743 -1.3671 -0.1972 -1.4139
 3534TIP3   OH210607   3.299   0.586   3.423  0.1359 -0.5104  0.6288
 3534TIP3    H110608   3.242   0.590   3.500 -0.0119 -0.4299  0.5164
 3534TIP3    H210609   3.298   0.494   3.397  1.2215 -0.7914  1.4921
 3535TIP3   OH210610   5.556   3.925   3.808 -0.3650 -0.3054 -0.0165
 3535TIP3    H110611   5.567   3.999   3.748 -1.4738  0.4987  0.7252
 3535TIP3    H210612   5.468   3.892   3.789 -0.6423 -0.1798  0.9848
 3536TIP3   OH210613   2.230   0.949   3.013  0.5611 -0.2964  0.0262
 3536TIP3    H110614   2.253   1.042   3.009  0.5966 -0.2698  0.7230
 3536TIP3    H210615   2.315   0.904   3.011  0.5196 -0.3611 -1.1415
 3537TIP3   OH210616   0.928   3.330   2.096  0.1764  0.2039 -0.4780
 3537TIP3    H110617   0.902   3.421   2.111  0.6751 -0.0077  2.2502
 3537TIP3    H210618   1.024   3.332   2.099  0.2487 -0.2079 -1.9936
 3538TIP3   OH210619   0.804   3.576   4.291 -0.0673  0.0217 -0.0929
 3538TIP3    H110620   0.788   3.560   4.198  1.5246  0.6103 -0.5025
 3538TIP3    H210621   0.822   3.490   4.327 -2.5928 -0.4903  0.1279
 3539TIP3   OH210622   0.557   5.427   2.190  0.1493  0.1188 -0.4137
 3539TIP3    H110623   0.595   5.343   2.163 -0.5303 -1.0329  1.9450
 3539TIP3    H210624   0.463   5.416   2.177  0.1223  0.8588 -0.9033
 3540TIP3   OH210625   5.273   2.257   0.676 -0.3189  0.0015 -0.1537
 3540TIP3    H110626   5.201   2.307   0.714 -1.8985 -0.1500 -2.6937
 3540TIP3    H210627   5.300   2.309   0.600 -0.4337 -1.8445 -1.5074
 3541TIP3   OH210628   4.402   3.023   0.739  0.2657  0.0481  0.2547
 3541TIP3    H110629   4.343   2.972   0.683  0.1572  0.8506 -0.3896
 3541TIP3    H210630   4.398   2.980   0.824 -1.3887  0.1935  0.2759
 3542TIP3   OH210631   1.090   4.105   0.646  0.5553 -0.0120 -0.5879
 3542TIP3    H110632   1.102   4.011   0.632  3.3083  0.0407  0.7975
 3542TIP3    H210633   1.146   4.147   0.581 -1.4937  0.8075 -1.9489
 3543TIP3   OH210634   1.639   2.100   4.621  0.0626  0.4797 -0.0850
 3543TIP3    H110635   1.638   2.095   4.717 -0.9247  2.0727  0.0186
 3543TIP3    H210636   1.701   2.169   4.601 -0.8403  1.1904 -0.5088
 3544TIP3   OH210637   1.595   1.649   4.473  0.3313  0.2454  0.3495
 3544TIP3    H110638   1.650   1.698   4.412  0.1770 -0.5586 -0.4563
 3544TIP3    H210639   1.635   1.663   4.558  0.4631  1.5152  0.0907
 3545TIP3   OH210640   4.255   4.701   2.350 -0.1980 -0.2426 -0.1866
 3545TIP3    H110641   4.297   4.631   2.400  0.2843  0.1844  0.0212
 3545TIP3    H210642   4.209   4.754   2.415  0.8591  0.6125 -0.1020
 3546TIP3   OH210643   5.083   4.430   4.276 -0.2226 -0.1715 -0.2276
 3546TIP3    H110644   5.082   4.474   4.191 -1.1048  0.7721  0.2484
 3546TIP3    H210645   5.173   4.441   4.308 -1.1238  4.6953  1.5282
 3547TIP3   OH210646   4.773   0.928   1.139  0.1960  0.3273 -0.1417
 3547TIP3    H110647   4.729   0.865   1.196 -1.0272  0.7845 -0.5330
 3547TIP3    H210648   4.726   1.010   1.155  1.0788  0.8922 -0.4100
 3548TIP3   OH210649   6.285   4.004   4.803 -0.5278  0.2549 -0.4199
 3548TIP3    H110650   6.350   3.989   4.872  0.0028 -2.0401 -1.3456
 3548TIP3    H210651   6.214   3.942   4.823 -1.1068  0.7046 -1.0398
 3549TIP3   OH210652   5.208   0.475   1.599  0.4107  0.0485  0.1758
 3549TIP3    H110653   5.226   0.440   1.686 -0.2077 -0.6462  0.0384
 3549TIP3    H210654   5.172   0.562   1.615 -0.0727 -0.2309  0.6364
 3550TIP3   OH210655   5.254   4.030   2.344 -0.4113 -0.1154  0.0294
 3550TIP3    H110656   5.217   3.968   2.281 -0.8404  0.5356 -0.3736
 3550TIP3    H210657   5.199   4.021   2.422 -1.7606  1.1947 -0.7374
 3551TIP3   OH210658   4.616   1.538   3.063  0.2358  0.2983 -0.6807
 3551TIP3    H110659   4.676   1.472   3.030  0.3456  0.1266 -0.1416
 3551TIP3    H210660   4.635   1.616   3.009  2.7178  1.0304  1.0861
 3552TIP3   OH210661   1.090   5.708   4.654 -0.2827 -0.4297  0.1121
 3552TIP3    H110662   1.117   5.706   4.562 -0.3785 -1.0926  0.0939
 3552TIP3    H210663   1.031   5.633   4.663 -0.8695  0.0709  0.5309
 3553TIP3   OH210664   4.005   2.841   1.287 -0.5422 -0.0659  0.1197
 3553TIP3    H110665   4.039   2.837   1.197 -0.7080 -1.0731  0.0901
 3553TIP3    H210666   4.071   2.796   1.340 -0.7538 -0.0565  0.3955
 3554TIP3   OH210667   5.681   0.830   0.079 -0.1700 -0.0962 -0.5966
 3554TIP3    H110668   5.692   0.898   0.012 -0.2257  0.0365 -0.4705
 3554TIP3    H210669   5.604   0.781   0.050 -0.2458  0.0148 -0.5852
 3555TIP3   OH210670   0.289   1.429   1.977  0.2152  0.6099  0.2661
 3555TIP3    H110671   0.334   1.466   2.053  3.6497  2.3467 -2.2874
 3555TIP3    H210672   0.306   1.335   1.982 -0.8112  0.4821  2.2534
 3556TIP3   OH210673   0.285   2.050   4.603 -0.1271  0.3549  0.1341
 3556TIP3    H110674   0.195   2.049   4.635 -0.0366  0.7408  0.3992
 3556TIP3    H210675   0.307   2.143   4.595  0.3933  0.2683  0.4913
 3557TIP3   OH210676   3.986   0.876   0.861 -0.2675  0.1575 -0.0276
 3557TIP3    H110677   3.918   0.936   0.891  0.5461  2.1009 -1.8188
 3557TIP3    H210678   3.965   0.858   0.769  0.9003 -0.2844 -0.2351
 3558TIP3   OH210679   5.228   0.138   2.941  0.2049 -0.3420 -0.1351
 3558TIP3    H110680   5.173   0.165   2.868 -0.5131 -1.1892  0.0732
 3558TIP3    H210681   5.297   0.204   2.945 -1.5112  1.5108  0.4356
 3559TIP3   OH210682   4.158   4.419   1.501  0.2215  0.7396 -0.7164
 3559TIP3    H110683   4.152   4.407   1.596 -0.5505 -1.3828 -0.9828
 3559TIP3    H210684   4.105   4.497   1.484 -1.5867 -0.1660  0.3890
 3560TIP3   OH210685   0.880   2.530   0.796  0.1417  0.0734  0.0678
 3560TIP3    H110686   0.938   2.456   0.776  1.6245  1.6099 -1.8662
 3560TIP3    H210687   0.928   2.580   0.862  1.7399  1.8941 -2.2601
 3561TIP3   OH210688   3.922   0.400   3.199 -0.7252  0.2787 -0.0698
 3561TIP3    H110689   3.985   0.422   3.268 -0.6601  0.9010 -0.3197
 3561TIP3    H210690   3.940   0.308   3.178  1.6733  1.0516 -1.7402
 3562TIP3   OH210691   4.517   4.437   1.128 -0.4272  0.2527  0.6891
 3562TIP3    H110692   4.608   4.463   1.124  0.6321 -3.0696 -0.5002
 3562TIP3    H210693   4.506   4.396   1.214 -0.8408  0.7264  0.8682
 3563TIP3   OH210694   1.786   2.964   0.902 -0.2541  0.2300  0.2764
 3563TIP3    H110695   1.779   2.953   0.807  1.0669  1.9305 -0.0686
 3563TIP3    H210696   1.826   2.883   0.933  0.3379  0.1037 -0.7773
 3564TIP3   OH210697   5.685   5.746   3.151  0.2820  0.1097  0.1021
 3564TIP3    H110698   5.599   5.733   3.113  0.6720 -0.0040 -0.7660
 3564TIP3    H210699   5.740   5.772   3.077  0.6716  1.6107  0.8840
 3565TIP3   OH210700   4.337   4.022   1.429  0.0880 -0.1653 -0.2472
 3565TIP3    H110701   4.294   4.020   1.515  0.0809 -0.5284 -0.2574
 3565TIP3    H210702   4.298   3.949   1.382  0.7536 -0.5264 -0.2414
 3566TIP3   OH210703   5.575   0.200   2.436 -0.2605  0.0129  0.4756
 3566TIP3    H110704   5.481   0.208   2.450 -0.7020  0.0856 -2.1919
 3566TIP3    H210705   5.597   0.271   2.376  1.0166 -1.5487 -0.9888
 3567TIP3   OH210706   3.340   2.413   2.965 -0.0020  0.0781 -0.2149
 3567TIP3    H110707   3.395   2.482   3.003  0.9114 -0.7661  0.0612
 3567TIP3    H210708   3.282   2.386   3.037  1.3095 -1.0959  0.4675
 3568TIP3   OH210709   1.563   4.379   1.147 -0.8208  0.1609  0.1093
 3568TIP3    H110710   1.506   4.415   1.216  0.1111 -0.4764  1.2595
 3568TIP3    H210711   1.539   4.287   1.143  0.1443 -0.1270  0.6478
 3569TIP3   OH210712   5.069   0.203   2.398  0.6833  0.0681  0.7118
 3569TIP3    H110713   4.986   0.206   2.446 -1.0798 -1.6500 -1.9663
 3569TIP3    H210714   5.052   0.250   2.317  2.9569  1.2079  0.8096
 3570TIP3   OH210715   4.999   0.139   1.149 -0.4526 -0.1382 -0.0070
 3570TIP3    H110716   4.957   0.055   1.166 -0.9446  0.1698  0.3236
 3570TIP3    H210717   5.083   0.116   1.110 -0.9939 -0.7633 -0.8483
 3571TIP3   OH210718   5.924   5.423   3.703  0.1992 -0.3043 -0.4964
 3571TIP3    H110719   5.877   5.454   3.780  0.9218 -1.6644  0.5312
 3571TIP3    H210720   6.016   5.419   3.731  0.8112  1.1671 -2.0913
 3572TIP3   OH210721   4.955   4.743   3.754 -0.8894 -0.0836  0.2332
 3572TIP3    H110722   4.955   4.813   3.819 -0.3135 -0.8775  1.1079
 3572TIP3    H210723   4.866   4.706   3.758 -0.9989  0.1787  0.2228
 3573TIP3   OH210724   0.730   4.531   3.791 -0.0703  0.0055  0.4314
 3573TIP3    H110725   0.640   4.537   3.759  0.0324 -0.3281  0.0789
 3573TIP3    H210726   0.779   4.491   3.719  0.6131  1.3290  0.1303
 3574TIP3   OH210727   2.769   1.985   2.266  0.4974 -0.6225 -0.3630
 3574TIP3    H110728   2.758   1.929   2.189 -0.7394  0.4065 -0.9597
 3574TIP3    H210729   2.682   1.991   2.305  1.3559 -2.3551  2.0594
 3575TIP3   OH210730   2.050   3.692   5.053  0.2617  0.5001  0.4700
 3575TIP3    H110731   2.098   3.767   5.086  0.2539  1.0299 -0.6947
 3575TIP3    H210732   2.108   3.617   5.067  0.0321  0.6018  2.1785
 3576TIP3   OH210733   1.131   4.584   5.137  0.1137 -0.2976 -0.7399
 3576TIP3    H110734   1.118   4.534   5.057 -0.7873 -0.8133 -0.2823
 3576TIP3    H210735   1.051   4.635   5.147 -0.5691 -1.5634  0.7460
 3577TIP3   OH210736   0.583   5.380   3.363  0.3340 -0.1197 -0.1508
 3577TIP3    H110737   0.677   5.365   3.351  0.2051  0.0120 -1.5543
 3577TIP3    H210738   0.542   5.335   3.289 -0.5990  1.0065 -0.3446
 3578TIP3   OH210739   3.933   3.383   1.526 -0.0940  0.4340 -0.0520
 3578TIP3    H110740   3.916   3.294   1.496  0.2261 -0.4245  2.1252
 3578TIP3    H210741   3.846   3.419   1.544 -0.1943  0.3344 -0.3357
 3579TIP3   OH210742   2.790   0.137   2.777 -0.2061  0.1008 -0.1838
 3579TIP3    H110743   2.798   0.221   2.732 -0.9654  0.9749  1.2788
 3579TIP3    H210744   2.820   0.154   2.866 -0.7416 -1.0948  0.2436
 3580TIP3   OH210745   0.109   4.249   4.206  0.7817  0.0464 -0.6716
 3580TIP3    H110746   0.145   4.326   4.162  1.8769 -0.4633 -0.7001
 3580TIP3    H210747   0.143   4.254   4.295  1.7688 -0.9537 -0.9639
 3581TIP3   OH210748   0.776   5.857   4.947 -0.1631  0.4406 -0.2974
 3581TIP3    H110749   0.831   5.779   4.949 -0.0809  0.4817 -0.8562
 3581TIP3    H210750   0.817   5.916   5.010  1.3310  1.0598 -1.7860
 3582TIP3   OH210751   5.279   5.250   0.631  0.2610  0.8931 -0.0744
 3582TIP3    H110752   5.234   5.193   0.568 -1.4109  0.4552  1.4102
 3582TIP3    H210753   5.356   5.200   0.657  0.0861  0.3557 -0.5552
 3583TIP3   OH210754   3.133   2.605   1.324 -0.8537 -0.2294  0.1133
 3583TIP3    H110755   3.074   2.653   1.383 -0.0658  0.6356  0.2292
 3583TIP3    H210756   3.220   2.621   1.360 -0.3402  0.4057 -1.3253
 3584TIP3   OH210757   4.480   4.810   0.529  0.2269 -0.2868 -0.5577
 3584TIP3    H110758   4.519   4.875   0.587  0.6518 -0.2644 -0.8603
 3584TIP3    H210759   4.458   4.737   0.587 -1.1433  0.4821 -0.0555
 3585TIP3   OH210760   2.313   3.856   0.571  0.7159  0.6667  0.0490
 3585TIP3    H110761   2.383   3.859   0.637 -0.1861 -0.0112  1.0816
 3585TIP3    H210762   2.323   3.938   0.523  2.1295  0.6464  0.2564
 3586TIP3   OH210763   6.148   1.690   3.060  0.3172 -0.0769 -0.7933
 3586TIP3    H110764   6.130   1.596   3.053 -2.1922  0.3450 -1.0948
 3586TIP3    H210765   6.197   1.711   2.981 -2.3191 -0.5556 -2.6912
 3587TIP3   OH210766   1.927   4.759   4.373  0.1396  0.0013 -0.3295
 3587TIP3    H110767   1.961   4.698   4.308  1.4135 -1.4216  1.5726
 3587TIP3    H210768   1.831   4.751   4.366  0.2287  0.0496 -2.1046
 3588TIP3   OH210769   2.743   1.593   3.341 -0.1473  0.0938 -0.2087
 3588TIP3    H110770   2.764   1.523   3.280  1.4367 -0.1147  0.5247
 3588TIP3    H210771   2.700   1.550   3.414  0.9074 -0.1663  0.2832
 3589TIP3   OH210772   3.960   0.097   2.170 -0.2521 -0.0276  0.0178
 3589TIP3    H110773   3.947   0.137   2.256 -1.1956 -1.1810  0.4500
 3589TIP3    H210774   3.951   0.169   2.108 -3.3036  0.2928  0.6515
 3590TIP3   OH210775   1.801   5.816   4.218 -0.5120  0.4970  0.0179
 3590TIP3    H110776   1.811   5.815   4.313  0.7870  0.3072 -0.1051
 3590TIP3    H210777   1.879   5.860   4.186 -0.5909 -0.0816 -1.0056
 3591TIP3   OH210778   0.552   5.860   1.673  0.5862  0.7671 -0.5967
 3591TIP3    H110779   0.637   5.890   1.639  0.3643  1.6950 -0.3601
 3591TIP3    H210780   0.506   5.827   1.597  0.4858  1.9009 -1.0466
 3592TIP3   OH210781   4.327   2.218   1.979 -0.0628 -0.2191 -0.1880
 3592TIP3    H110782   4.346   2.302   1.936 -0.2223  0.2071  0.5534
 3592TIP3    H210783   4.238   2.196   1.949 -0.1534  0.0471 -0.1193
 3593TIP3   OH210784   4.494   5.268   2.098  0.4270  0.1431  0.4392
 3593TIP3    H110785   4.495   5.243   2.006  0.9276  1.3947  0.0948
 3593TIP3    H210786   4.565   5.216   2.137  1.0337  0.5310 -0.1329
 3594TIP3   OH210787   0.791   4.102   2.950  0.6579 -0.1104  0.1245
 3594TIP3    H110788   0.813   4.149   2.869 -0.5476  1.8326  0.8620
 3594TIP3    H210789   0.698   4.083   2.942  0.7339 -0.7404  0.6645
 3595TIP3   OH210790   5.563   4.589   0.107 -0.0398 -0.0252  0.4485
 3595TIP3    H110791   5.645   4.628   0.076 -0.5354  0.9185  0.2922
 3595TIP3    H210792   5.540   4.639   0.185 -1.3154  0.8464 -0.4340
 3596TIP3   OH210793   5.066   2.827   4.976  0.0015  0.0581 -1.4153
 3596TIP3    H110794   5.117   2.804   5.054 -1.9431 -2.6228 -0.7522
 3596TIP3    H210795   5.106   2.777   4.905 -0.3236 -0.2483 -1.3834
 3597TIP3   OH210796   2.913   1.980   1.084  0.1352  0.0238 -0.3043
 3597TIP3    H110797   2.926   1.920   1.011  0.3775  1.2407 -1.2825
 3597TIP3    H210798   2.999   1.986   1.126  0.9054  1.9949 -2.0399
 3598TIP3   OH210799   4.008   1.223   1.812 -0.1394  0.3388 -0.5531
 3598TIP3    H110800   3.959   1.278   1.751  0.9521  2.3978  0.3134
 3598TIP3    H210801   3.946   1.155   1.838 -1.0981  0.2609 -2.7727
 3599TIP3   OH210802   0.427   3.970   0.652  0.0369  0.2117 -0.4886
 3599TIP3    H110803   0.369   3.944   0.724 -0.3374  0.6257 -0.6366
 3599TIP3    H210804   0.387   4.049   0.616 -0.6300 -0.8375 -2.1573
 3600TIP3   OH210805   5.740   4.748   3.313 -1.0696 -0.1891 -0.0312
 3600TIP3    H110806   5.779   4.739   3.226  0.1125  0.3720  0.4244
 3600TIP3    H210807   5.794   4.814   3.357 -2.4284  0.4824  0.6873
 3601TIP3   OH210808   2.008   3.615   4.380 -0.6058 -0.2451 -0.2956
 3601TIP3    H110809   1.970   3.533   4.411  1.0761 -0.9060  0.1284
 3601TIP3    H210810   2.098   3.592   4.354 -0.2991  1.3359 -0.7554
 3602TIP3   OH210811   5.845   0.898   5.047  0.4633 -0.6227  0.6317
 3602TIP3    H110812   5.884   0.816   5.077  1.1118 -0.1319  1.1557
 3602TIP3    H210813   5.889   0.966   5.098  0.4301  0.1102 -0.2787
 3603TIP3   OH210814   1.320   1.848   0.242 -0.9611  0.1073  0.3489
 3603TIP3    H110815   1.261   1.784   0.281  0.4248  0.2228  2.8408
 3603TIP3    H210816   1.332   1.818   0.151 -1.8658 -2.0262  0.8766
 3604TIP3   OH210817   5.826   4.595   1.355 -0.1433  0.1102 -0.8035
 3604TIP3    H110818   5.778   4.530   1.304 -0.6663 -0.3251  0.2177
 3604TIP3    H210819   5.763   4.664   1.374  0.3771  0.8776 -1.7760
 3605TIP3   OH210820   5.826   3.981   2.741 -0.2005  0.2061 -0.1840
 3605TIP3    H110821   5.839   3.981   2.836 -0.7479  2.3657 -0.0562
 3605TIP3    H210822   5.740   4.021   2.728  0.0439  0.3417 -1.6028
 3606TIP3   OH210823   1.259   4.027   1.150  0.2714  0.3128  0.4934
 3606TIP3    H110824   1.178   4.029   1.100  0.2771  0.8723  0.4927
 3606TIP3    H210825   1.267   3.937   1.180  1.5596 -0.7593 -2.6019
 3607TIP3   OH210826   3.226   5.098   5.091 -0.1058 -0.2517  0.0470
 3607TIP3    H110827   3.310   5.092   5.136 -0.5153  1.8028  1.2291
 3607TIP3    H210828   3.232   5.035   5.019  2.6800  0.2854 -0.2969
 3608TIP3   OH210829   5.453   0.542   5.125  0.2178  0.4424 -0.0023
 3608TIP3    H110830   5.438   0.636   5.133 -0.9657  0.2985 -0.3124
 3608TIP3    H210831   5.549   0.533   5.121  0.3537  1.8806 -2.5865
 3609TIP3   OH210832   3.441   2.423   1.270 -0.2965 -0.2437 -0.0478
 3609TIP3    H110833   3.445   2.513   1.301 -1.8450 -0.1276 -0.0900
 3609TIP3    H210834   3.521   2.411   1.219 -0.3264  1.2912 -0.5116
 3610TIP3   OH210835   2.552   5.876   2.826  0.2314  0.0040 -0.2449
 3610TIP3    H110836   2.549   5.968   2.853  1.2257  0.5718 -1.8867
 3610TIP3    H210837   2.592   5.831   2.900  0.1824  0.9831  0.4015
 3611TIP3   OH210838   1.520   5.337   3.370  0.1698 -0.3001 -0.3230
 3611TIP3    H110839   1.468   5.336   3.451 -1.3371  1.1998 -1.1944
 3611TIP3    H210840   1.586   5.405   3.385  1.5352 -1.7456  0.5328
 3612TIP3   OH210841   1.119   5.117   4.031 -0.0372  0.5904 -0.0601
 3612TIP3    H110842   1.189   5.181   4.041  1.0823 -0.1798 -2.3275
 3612TIP3    H210843   1.054   5.161   3.976 -0.4437  0.6185  0.4324
 3613TIP3   OH210844   0.936   2.481   1.469  0.0169 -0.0370 -0.1540
 3613TIP3    H110845   0.849   2.472   1.429 -0.4511 -0.4228  0.9118
 3613TIP3    H210846   0.936   2.569   1.507 -0.5320 -0.6075  1.2336
 3614TIP3   OH210847   4.810   4.248   0.621 -0.2535  0.1415 -0.3026
 3614TIP3    H110848   4.762   4.167   0.605  1.2396 -0.6699 -0.8975
 3614TIP3    H210849   4.765   4.314   0.567 -0.3106 -0.7421 -1.3615
 3615TIP3   OH210850   3.978   2.873   4.075  0.6506 -0.7093 -0.4086
 3615TIP3    H110851   3.913   2.804   4.092 -1.8344  0.9834 -2.2180
 3615TIP3    H210852   4.060   2.839   4.110 -1.3870 -2.5557  3.1093
 3616TIP3   OH210853   5.669   0.751   4.677 -0.1832  0.6013 -0.2136
 3616TIP3    H110854   5.734   0.794   4.621  0.2728  2.1953  1.4570
 3616TIP3    H210855   5.597   0.813   4.682 -0.9082 -0.2215 -0.3083
 3617TIP3   OH210856   1.816   1.929   2.779 -0.1021 -0.4353 -0.0341
 3617TIP3    H110857   1.903   1.962   2.754  0.1752 -1.0586  0.0914
 3617TIP3    H210858   1.760   2.007   2.777  0.2793 -0.1583 -0.9228
 3618TIP3   OH210859   3.104   1.358   4.750 -0.4645 -0.2886  0.2132
 3618TIP3    H110860   3.068   1.432   4.798 -0.6128 -0.3946  0.2666
 3618TIP3    H210861   3.096   1.284   4.811  0.9995 -0.0676  0.7321
 3619TIP3   OH210862   5.514   2.096   0.639 -0.6336  0.0522 -0.1581
 3619TIP3    H110863   5.517   2.015   0.691 -0.9665  0.7645  1.0209
 3619TIP3    H210864   5.435   2.140   0.669  0.8521  2.0145  1.1246
 3620TIP3   OH210865   1.561   4.960   0.114 -0.4650 -0.1039 -0.7457
 3620TIP3    H110866   1.605   5.033   0.160  0.7861 -1.6939  0.7385
 3620TIP3    H210867   1.592   4.967   0.024  2.6998 -0.8912  0.1346
 3621TIP3   OH210868   5.236   2.496   1.286  0.0437 -0.1452  0.3829
 3621TIP3    H110869   5.146   2.503   1.319 -0.0650 -1.0487  0.2982
 3621TIP3    H210870   5.254   2.582   1.249 -1.2430 -0.3313 -0.7625
 3622TIP3   OH210871   2.557   5.522   0.937 -0.0668  0.4284  0.1087
 3622TIP3    H110872   2.626   5.505   0.873  0.6262 -0.4607  1.0652
 3622TIP3    H210873   2.476   5.516   0.886  0.5450  1.9401 -1.1114
 3623TIP3   OH210874   4.788   2.403   2.657  0.3616  0.2060  0.1394
 3623TIP3    H110875   4.816   2.320   2.618  0.4576  0.4452 -0.3099
 3623TIP3    H210876   4.869   2.443   2.689  0.3248  0.1624  0.2869
 3624TIP3   OH210877   3.973   1.747   5.032  0.0100  0.0805  0.3862
 3624TIP3    H110878   4.054   1.711   4.996  0.1715  0.4608  0.3589
 3624TIP3    H210879   3.952   1.691   5.107  1.6791  1.4368  1.9751
 3625TIP3   OH210880   2.460   4.808   4.511  0.0239 -0.4646  0.0484
 3625TIP3    H110881   2.471   4.724   4.555 -0.3087 -0.5221  0.0193
 3625TIP3    H210882   2.380   4.800   4.461  0.4654 -0.4380 -0.6758
 3626TIP3   OH210883   5.426   2.927   3.992 -0.2574 -0.4115  0.2193
 3626TIP3    H110884   5.467   3.001   4.039  0.1715 -0.3950 -0.1740
 3626TIP3    H210885   5.456   2.936   3.902  0.2243 -1.3737  0.2724
 3627TIP3   OH210886   2.170   3.601   3.424 -0.0099 -0.0058  0.0713
 3627TIP3    H110887   2.181   3.623   3.332  1.3009 -0.2895  0.1400
 3627TIP3    H210888   2.224   3.665   3.471 -1.2486  0.6024  0.7044
 3628TIP3   OH210889   4.698   3.680   4.807  0.2492  0.1549  0.1507
 3628TIP3    H110890   4.683   3.586   4.819  0.0049  0.3175  1.2499
 3628TIP3    H210891   4.773   3.685   4.748 -0.1909 -0.7184 -0.5087
 3629TIP3   OH210892   6.125   0.139   2.284  0.5585  0.4763  0.1987
 3629TIP3    H110893   6.213   0.116   2.315  0.1164  0.1765  1.2723
 3629TIP3    H210894   6.127   0.234   2.275  0.8674  0.5105  0.6191
 3630TIP3   OH210895   0.026   3.695   3.643  0.0294  0.0052 -0.2411
 3630TIP3    H110896   0.109   3.655   3.619  0.6223  2.6930 -3.3125
 3630TIP3    H210897  -0.037   3.623   3.642  1.5413 -1.3911 -2.3792
 3631TIP3   OH210898   2.000   5.243   1.075  0.4542  0.1832 -0.2913
 3631TIP3    H110899   2.013   5.336   1.095 -0.9334 -0.1430  2.7359
 3631TIP3    H210900   2.074   5.199   1.118 -0.5818 -0.2886  1.0747
 3632TIP3   OH210901   5.372   1.614   2.300  0.1138 -0.4250 -0.1204
 3632TIP3    H110902   5.345   1.694   2.345  1.3342 -0.4607  0.7324
 3632TIP3    H210903   5.457   1.636   2.262  0.8738 -1.5539  0.8580
 3633TIP3   OH210904   6.116   5.321   2.039 -0.0402  0.4100  0.4803
 3633TIP3    H110905   6.072   5.278   2.112  1.3978 -0.3567  0.9455
 3633TIP3    H210906   6.102   5.415   2.055 -2.1407  0.2006  0.1416
 3634TIP3   OH210907   5.881   0.195   0.365 -0.0169  0.1636 -0.1539
 3634TIP3    H110908   5.797   0.239   0.372 -0.7922 -1.0243 -1.5108
 3634TIP3    H210909   5.860   0.101   0.365  1.2639 -0.1525 -0.6397
 3635TIP3   OH210910   4.904   0.289   4.065 -0.1424  0.4053  0.2353
 3635TIP3    H110911   4.990   0.314   4.030 -0.6646  0.5293 -1.0022
 3635TIP3    H210912   4.846   0.288   3.988 -0.9488 -1.0266  0.8298
 3636TIP3   OH210913   2.052   3.473   4.789 -0.0001  0.1566  0.4631
 3636TIP3    H110914   2.122   3.532   4.760 -0.7722 -0.0564 -2.0546
 3636TIP3    H210915   2.098   3.406   4.840  1.4192  0.8282  0.1397
 3637TIP3   OH210916   4.425   0.534   1.466 -0.2839 -0.2024 -0.0759
 3637TIP3    H110917   4.357   0.526   1.399  0.3239 -0.0571 -0.7218
 3637TIP3    H210918   4.448   0.627   1.467 -0.0182 -0.2669  0.0507
 3638TIP3   OH210919   4.107   2.178   4.410 -0.0844 -0.0845  0.0659
 3638TIP3    H110920   4.038   2.115   4.393  1.6456 -1.8075 -0.9825
 3638TIP3    H210921   4.128   2.215   4.324  0.9665 -0.3395  0.1976
 3639TIP3   OH210922   3.658   1.998   0.392  0.1768  0.1381 -0.2477
 3639TIP3    H110923   3.571   1.981   0.429  0.9224 -1.2285  0.9461
 3639TIP3    H210924   3.703   2.049   0.460  0.4930  0.3795 -0.6356
 3640TIP3   OH210925   1.653   4.746   4.318 -0.1521 -0.2607  0.1971
 3640TIP3    H110926   1.581   4.684   4.332 -0.3227  0.0874  0.9179
 3640TIP3    H210927   1.628   4.794   4.239 -1.6834  1.1376  1.4369
 3641TIP3   OH210928   6.089   2.643   3.525 -0.0912  0.6616  0.2597
 3641TIP3    H110929   6.107   2.598   3.442 -1.3930  0.6286 -0.0351
 3641TIP3    H210930   6.165   2.698   3.540  0.4955  0.1044 -0.5759
 3642TIP3   OH210931   1.887   5.113   4.826 -0.1912  0.2706  0.2609
 3642TIP3    H110932   1.801   5.098   4.787 -0.2499  2.5922 -0.6820
 3642TIP3    H210933   1.943   5.046   4.787 -1.0852  0.1752 -0.9251
 3643TIP3   OH210934   5.501   5.921   0.079  0.0095 -0.0508  0.0732
 3643TIP3    H110935   5.590   5.943   0.052  0.5316 -0.6445  1.2133
 3643TIP3    H210936   5.489   5.831   0.050  1.2301 -1.3507  3.1116
 3644TIP3   OH210937   5.191   2.619   0.425  0.1270  0.3453 -0.2955
 3644TIP3    H110938   5.124   2.654   0.484  1.5740  1.7749  0.5597
 3644TIP3    H210939   5.205   2.529   0.457  0.4919  0.9107  1.2253
 3645TIP3   OH210940   5.544   4.140   1.595 -0.0332  0.6759 -0.1844
 3645TIP3    H110941   5.590   4.208   1.643 -2.3961  2.1325  0.1823
 3645TIP3    H210942   5.574   4.148   1.505  0.9498  1.0685  0.1740
 3646TIP3   OH210943   3.430   5.651   4.979  0.9526  0.4190 -0.2184
 3646TIP3    H110944   3.392   5.620   5.061  0.3915  1.2612 -0.1524
 3646TIP3    H210945   3.434   5.573   4.923  1.8918 -0.2966  0.7986
 3647TIP3   OH210946   5.797   0.924   4.507 -0.7137  0.1449 -0.2259
 3647TIP3    H110947   5.797   0.958   4.418  2.1671  1.5766  0.1997
 3647TIP3    H210948   5.843   0.990   4.558 -1.4514 -1.0680  2.1617
 3648TIP3   OH210949   2.620   3.969   0.296 -0.4413 -0.4255 -0.7101
 3648TIP3    H110950   2.711   3.974   0.266 -0.2454 -0.4573 -0.1326
 3648TIP3    H210951   2.585   3.891   0.253 -0.0642 -0.6673 -0.5844
 3649TIP3   OH210952   0.947   3.842   3.680  0.9067  0.9264  0.7630
 3649TIP3    H110953   0.869   3.875   3.635  2.1908  2.5638 -0.3650
 3649TIP3    H210954   0.925   3.752   3.701 -0.6370  0.7837 -1.1220
 3650TIP3   OH210955   3.373   0.777   0.942  0.0694  0.1905 -0.4535
 3650TIP3    H110956   3.282   0.782   0.974  1.2259  0.1688  3.2892
 3650TIP3    H210957   3.401   0.689   0.964  1.6225  0.8844  0.4939
 3651TIP3   OH210958   4.381   5.899   4.813  0.2546  0.2171 -0.1891
 3651TIP3    H110959   4.344   5.987   4.825  3.0179  1.7927 -1.9147
 3651TIP3    H210960   4.312   5.850   4.768 -0.9257  1.8891 -0.3058
 3652TIP3   OH210961   1.233   3.398   4.060  0.3233  0.3480 -0.8798
 3652TIP3    H110962   1.168   3.328   4.064  1.1169 -0.3477  0.8877
 3652TIP3    H210963   1.181   3.478   4.046 -0.8534 -0.2723 -0.2527
 3653TIP3   OH210964   0.935   2.231   0.223 -0.2125  0.2480 -0.4381
 3653TIP3    H110965   0.978   2.177   0.289 -0.4726  1.0014  0.3660
 3653TIP3    H210966   0.872   2.172   0.181  0.8656 -0.5800 -0.9134
 3654TIP3   OH210967   6.328   2.481   3.369  0.4134  0.5890  0.7312
 3654TIP3    H110968   6.298   2.402   3.414  1.0276  0.0790  0.2736
 3654TIP3    H210969   6.258   2.503   3.308  1.0869 -0.8504 -0.6562
 3655TIP3   OH210970   0.064   1.051   1.332  0.2010  0.1860  0.5483
 3655TIP3    H110971   0.068   1.133   1.381  2.7991  0.7064 -0.3802
 3655TIP3    H210972   0.063   0.982   1.398  0.2735  0.9240  1.3264
 3656TIP3   OH210973   2.431   4.113   4.500  0.5925  0.4545  0.3309
 3656TIP3    H110974   2.353   4.159   4.530  0.7097  0.3694  0.7622
 3656TIP3    H210975   2.418   4.023   4.528  1.9382  0.8886  2.5837
 3657TIP3   OH210976   1.496   0.665   0.717  0.4631 -0.0071  0.0951
 3657TIP3    H110977   1.404   0.646   0.731  0.7409 -1.0397  0.6384
 3657TIP3    H210978   1.537   0.652   0.803  0.9448  1.5877  0.1476
 3658TIP3   OH210979   3.213   1.632   5.148 -0.2720  0.3104 -0.2134
 3658TIP3    H110980   3.162   1.554   5.168 -1.1276  1.0240  0.4407
 3658TIP3    H210981   3.301   1.611   5.178 -0.0575 -1.0539 -1.6440
 3659TIP3   OH210982   2.275   1.112   0.085 -0.2296  0.3567  0.2647
 3659TIP3    H110983   2.349   1.073   0.038 -0.1278 -0.7456  1.2704
 3659TIP3    H210984   2.312   1.191   0.124  1.4778 -1.7560  3.4287
 3660TIP3   OH210985   2.137   5.695   1.376 -0.2789 -0.1511  0.3388
 3660TIP3    H110986   2.164   5.698   1.284  0.5046 -0.6833  0.5390
 3660TIP3    H210987   2.042   5.707   1.374 -0.0463  2.0251 -0.3736
 3661TIP3   OH210988   3.253   5.773   1.932  0.3542  0.2431  0.3646
 3661TIP3    H110989   3.219   5.861   1.945 -0.8411 -0.3646  1.5535
 3661TIP3    H210990   3.289   5.748   2.017  0.9199 -0.3424 -0.0287
 3662TIP3   OH210991   4.921   2.910   2.509 -0.4044  0.3413 -0.3963
 3662TIP3    H110992   4.891   2.995   2.477 -0.9422 -0.3503 -1.7930
 3662TIP3    H210993   5.004   2.895   2.465  0.5786  0.8963  1.1861
 3663TIP3   OH210994   5.144   5.222   3.096  0.1325  0.2161 -0.1885
 3663TIP3    H110995   5.116   5.132   3.076 -0.5242  0.5533 -0.8573
 3663TIP3    H210996   5.074   5.277   3.061 -1.1547  0.9040  3.1649
 3664TIP3   OH210997   2.256   2.738   4.895  0.8978 -0.2629  0.6011
 3664TIP3    H110998   2.219   2.650   4.905  0.2523 -0.0907 -0.1110
 3664TIP3    H210999   2.292   2.738   4.806 -0.1147  0.5377  0.1771
 3665TIP3   OH211000   1.208   2.867   2.967  0.1613 -0.2709 -0.5280
 3665TIP3    H111001   1.190   2.954   3.004  0.0548 -0.6834  0.4178
 3665TIP3    H211002   1.126   2.841   2.925 -1.1274 -1.5126  2.4848
 3666TIP3   OH211003   1.438   2.413   0.941  0.3541  0.2206 -0.5703
 3666TIP3    H111004   1.447   2.319   0.961 -1.2662 -0.2187 -1.7709
 3666TIP3    H211005   1.528   2.443   0.927  0.7835 -1.5976 -2.0475
 3667TIP3   OH211006   3.046   5.287   3.727 -0.0809  0.1764  0.0190
 3667TIP3    H111007   3.069   5.275   3.635  0.4503  0.8503  0.0577
 3667TIP3    H211008   3.048   5.382   3.740 -1.5257  0.1822  0.3742
 3668TIP3   OH211009   0.677   4.044   0.185 -0.0902 -0.1988  0.1081
 3668TIP3    H111010   0.760   4.027   0.230 -0.7836 -0.1306  1.4658
 3668TIP3    H211011   0.647   3.957   0.157  0.9745 -0.1063 -1.4265
 3669TIP3   OH211012   5.276   4.426   0.692  0.0164 -0.1834  0.5564
 3669TIP3    H111013   5.364   4.413   0.656  0.5611 -0.9832  2.0917
 3669TIP3    H211014   5.272   4.520   0.712  0.1021  0.0633 -0.5382
 3670TIP3   OH211015   4.539   2.860   0.421 -0.3305  0.2547  0.0800
 3670TIP3    H111016   4.624   2.819   0.403 -0.8283 -1.2231  0.8852
 3670TIP3    H211017   4.508   2.889   0.336  1.1840  1.2842 -0.1690
 3671TIP3   OH211018   1.167   4.667   3.675 -0.0306  0.3926  0.2072
 3671TIP3    H111019   1.238   4.670   3.611 -0.0223 -0.6374  0.1565
 3671TIP3    H211020   1.092   4.707   3.629 -0.3851 -1.4511 -0.9482
 3672TIP3   OH211021   1.821   1.096   0.581  0.0593 -0.9568  0.3052
 3672TIP3    H111022   1.747   1.037   0.601 -1.5113  0.4873 -0.9126
 3672TIP3    H211023   1.828   1.094   0.486  0.6543  0.0307  0.3153
 3673TIP3   OH211024   3.554   5.107   3.058  0.1547  0.2050  0.2937
 3673TIP3    H111025   3.542   5.201   3.052 -0.0263  0.2230  0.8482
 3673TIP3    H211026   3.531   5.073   2.972 -0.4483  0.5981  0.2998
 3674TIP3   OH211027   4.712   4.510   4.499  0.4210  0.5013  0.3504
 3674TIP3    H111028   4.757   4.593   4.483  0.4676  0.7884  1.8166
 3674TIP3    H211029   4.627   4.536   4.535 -0.5329 -0.0561 -1.4257
 3675TIP3   OH211030   2.545   3.337   4.472 -0.2279  0.2144 -0.5591
 3675TIP3    H111031   2.453   3.325   4.448 -0.7198  0.4302  1.0954
 3675TIP3    H211032   2.561   3.273   4.540  0.1873  1.6150  0.7249
 3676TIP3   OH211033   5.763   0.458   3.742 -0.0375  0.5354 -0.8703
 3676TIP3    H111034   5.679   0.419   3.767 -0.8119  1.3024 -2.1170
 3676TIP3    H211035   5.758   0.548   3.776  0.0603  0.7326 -1.3712
 3677TIP3   OH211036   6.209   3.090   1.234 -0.0068 -0.7684  0.3118
 3677TIP3    H111037   6.293   3.074   1.190  0.3654  0.0449  0.7259
 3677TIP3    H211038   6.232   3.131   1.317 -0.7271 -2.0480  1.1860
 3678TIP3   OH211039   3.466   0.919   3.885  0.3551  0.6496 -0.5303
 3678TIP3    H111040   3.541   0.978   3.879  0.4811  1.0532  3.0395
 3678TIP3    H211041   3.440   0.921   3.977 -3.4971 -0.1890 -1.3860
 3679TIP3   OH211042   4.319   0.417   3.462  0.5668 -0.4272  0.3516
 3679TIP3    H111043   4.284   0.461   3.385  0.1484 -1.0337  0.1889
 3679TIP3    H211044   4.407   0.388   3.435  0.1499 -1.2654 -0.1475
 3680TIP3   OH211045   4.869   1.119   4.346  0.3070  0.3742  0.2214
 3680TIP3    H111046   4.909   1.175   4.413 -0.8561  0.7596  0.6301
 3680TIP3    H211047   4.829   1.048   4.396  2.1725 -1.1325 -0.3254
 3681TIP3   OH211048   3.732   4.842   0.445 -0.0655  0.1280 -0.4370
 3681TIP3    H111049   3.681   4.903   0.393 -1.7302 -0.5202  0.3572
 3681TIP3    H211050   3.693   4.846   0.532  0.4421 -1.3144 -0.1127
 3682TIP3   OH211051   1.418   5.801   1.808  0.0613  0.0813  0.0398
 3682TIP3    H111052   1.405   5.837   1.720  0.4777 -2.6445 -1.2183
 3682TIP3    H211053   1.405   5.707   1.798 -1.3008 -0.1821  3.2103
 3683TIP3   OH211054   1.498   0.639   0.991  0.1834 -0.1302  0.2254
 3683TIP3    H111055   1.409   0.604   0.987  0.3544 -0.4464 -1.4184
 3683TIP3    H211056   1.552   0.565   1.017  0.5092 -1.1894 -2.9990
 3684TIP3   OH211057   3.300   4.434   3.620  0.0535 -0.2751 -0.1566
 3684TIP3    H111058   3.332   4.346   3.603  1.8030 -0.5580  3.4836
 3684TIP3    H211059   3.363   4.492   3.578  0.1024 -0.7637 -0.7647
 3685TIP3   OH211060   3.112   0.618   2.386 -0.1037 -0.0194 -0.0769
 3685TIP3    H111061   3.187   0.651   2.337 -0.3359  1.3644  0.4419
 3685TIP3    H211062   3.055   0.579   2.320  0.3876  0.2418 -0.6681
 3686TIP3   OH211063   2.090   5.129   2.200  0.1683 -0.0068  0.1681
 3686TIP3    H111064   2.137   5.051   2.232  1.4006 -0.1434 -1.7830
 3686TIP3    H211065   2.126   5.201   2.252  1.7776 -0.2680 -0.5106
 3687TIP3   OH211066   3.121   1.084   1.246  0.2452  0.3557 -0.3078
 3687TIP3    H111067   3.060   1.125   1.185 -0.4358 -0.5221 -0.2479
 3687TIP3    H211068   3.065   1.036   1.307  0.9938 -1.5925 -1.0529
 3688TIP3   OH211069   5.462   4.164   3.143  0.3718 -0.3786 -0.1509
 3688TIP3    H111070   5.403   4.239   3.140  0.9622  0.0986 -0.0427
 3688TIP3    H211071   5.527   4.187   3.209 -0.7841 -2.0171  1.6341
 3689TIP3   OH211072   2.476   1.510   2.878  0.1583  0.8615  0.2088
 3689TIP3    H111073   2.513   1.441   2.933 -0.7404  0.6669  0.5784
 3689TIP3    H211074   2.489   1.479   2.788 -1.1151 -0.2681  0.3859
 3690TIP3   OH211075   6.334   3.919   1.445  0.0480  0.3052 -0.1928
 3690TIP3    H111076   6.272   3.915   1.372 -1.9827  0.7969  1.4005
 3690TIP3    H211077   6.292   3.869   1.515  1.8051  0.0618  0.7406
 3691TIP3   OH211078   2.865   0.674   4.888  0.5522  0.3237 -0.4216
 3691TIP3    H111079   2.896   0.633   4.807  0.6551 -1.1464  0.3409
 3691TIP3    H211080   2.792   0.620   4.916  1.7084 -0.3637  1.4639
 3692TIP3   OH211081   2.769   3.461   2.451 -0.1127 -0.2775 -0.1458
 3692TIP3    H111082   2.705   3.532   2.452 -1.3590 -1.3388 -0.9021
 3692TIP3    H211083   2.806   3.462   2.363  0.7670  0.1916  0.2206
 3693TIP3   OH211084   3.716   4.043   3.782 -0.7175 -0.4861 -0.4448
 3693TIP3    H111085   3.716   4.045   3.686  1.2280 -1.7425 -0.5306
 3693TIP3    H211086   3.795   4.091   3.807 -1.0553 -0.4236  0.5206
 3694TIP3   OH211087   1.732   0.186   2.460 -0.1268  0.0891  0.0145
 3694TIP3    H111088   1.691   0.203   2.545 -1.4768 -1.1629 -0.3386
 3694TIP3    H211089   1.660   0.191   2.398  0.9603  1.6418 -1.1828
 3695TIP3   OH211090   2.094   4.760   3.524 -0.3732 -0.3838 -0.3097
 3695TIP3    H111091   2.130   4.792   3.607 -2.4634 -0.1067  0.5467
 3695TIP3    H211092   2.169   4.758   3.465  0.9238  0.6771  1.2075
 3696TIP3   OH211093   3.061   2.528   4.067  0.8696 -0.1429 -0.1920
 3696TIP3    H111094   3.034   2.573   3.987  2.9099  3.5429  0.9696
 3696TIP3    H211095   3.156   2.525   4.063  1.0684  0.5710  2.2483
 3697TIP3   OH211096   1.151   4.083   1.734 -0.5046  0.4188  0.3251
 3697TIP3    H111097   1.208   4.153   1.704  0.8973  0.1338  2.1334
 3697TIP3    H211098   1.066   4.125   1.748 -0.1087  1.3838 -0.1296
 3698TIP3   OH211099   2.967   4.346   2.857  0.1547 -0.2216 -0.3755
 3698TIP3    H111100   3.060   4.330   2.842 -0.1210 -1.5175 -0.8198
 3698TIP3    H211101   2.964   4.389   2.943  1.1935  0.4386 -0.6516
 3699TIP3   OH211102   0.933   4.850   0.853  0.5162  0.1149 -0.5549
 3699TIP3    H111103   0.848   4.844   0.897  0.2562 -1.7156 -1.2431
 3699TIP3    H211104   0.930   4.935   0.809 -0.5688  0.4993  0.1981
 3700TIP3   OH211105   4.094   0.195   4.019 -0.5087 -0.3673  0.1820
 3700TIP3    H111106   4.159   0.202   4.088  0.7309  0.5206 -1.0208
 3700TIP3    H211107   4.022   0.252   4.048  0.4339  0.8057  0.2886
 3701TIP3   OH211108   1.334   5.427   2.329 -0.3511 -0.0590  0.0956
 3701TIP3    H111109   1.258   5.387   2.372 -0.2358  1.0501  1.3838
 3701TIP3    H211110   1.393   5.449   2.400  0.2519  1.0157 -0.7082
 3702TIP3   OH211111   3.070   1.153   3.584  0.2274  0.1250  0.2405
 3702TIP3    H111112   3.000   1.137   3.520  0.4005 -0.4929  0.1964
 3702TIP3    H211113   3.135   1.205   3.537 -0.2909  0.8752  0.3404
 3703TIP3   OH211114   4.081   5.938   4.903  0.5787  0.2618 -0.0425
 3703TIP3    H111115   4.113   5.940   4.994  1.0124 -0.4675 -0.1753
 3703TIP3    H211116   4.071   5.845   4.883  1.4231  0.3737 -1.0730
 3704TIP3   OH211117   3.093   5.098   1.380  0.2738 -0.1642  0.2449
 3704TIP3    H111118   3.097   5.146   1.462  0.2993 -2.0315  1.4072
 3704TIP3    H211119   3.060   5.161   1.316  2.0263  1.8719  1.2330
 3705TIP3   OH211120   2.832   5.853   1.160  0.1419  0.1576 -0.1288
 3705TIP3    H111121   2.876   5.769   1.169 -1.2566 -0.5410  0.3930
 3705TIP3    H211122   2.780   5.844   1.080 -2.3240 -0.6149  1.4482
 3706TIP3   OH211123   4.244   4.554   3.639  0.5073 -0.3498 -0.5222
 3706TIP3    H111124   4.170   4.517   3.687  0.9490 -1.1407 -0.4374
 3706TIP3    H211125   4.238   4.648   3.655 -0.1501 -0.4644 -0.0559
 3707TIP3   OH211126   1.385   0.602   2.026 -0.2686 -0.2332  0.4395
 3707TIP3    H111127   1.471   0.594   1.985 -1.0809  0.3787 -1.4736
 3707TIP3    H211128   1.342   0.672   1.978 -2.6522 -2.0022 -0.1255
 3708TIP3   OH211129   2.420   4.471   1.696 -0.2789  0.2432  0.5495
 3708TIP3    H111130   2.493   4.516   1.739 -0.2909 -0.7017  1.5804
 3708TIP3    H211131   2.398   4.398   1.754 -0.9192 -0.5079 -0.5905
 3709TIP3   OH211132   2.740   1.304   4.178 -0.3786  1.4383  0.3478
 3709TIP3    H111133   2.672   1.306   4.245 -1.0418  1.5810 -0.3207
 3709TIP3    H211134   2.704   1.355   4.105 -0.2957  0.0656 -0.6998
 3710TIP3   OH211135   4.067   5.564   4.186 -0.2996  0.1050 -0.3172
 3710TIP3    H111136   4.011   5.490   4.207 -0.4379  0.6087  1.2332
 3710TIP3    H211137   4.116   5.537   4.109 -0.3715 -1.5762  0.2027
 3711TIP3   OH211138   0.970   4.488   4.559 -0.2050 -0.3987 -0.0855
 3711TIP3    H111139   0.990   4.557   4.622 -1.5105 -1.6157  1.7539
 3711TIP3    H211140   0.902   4.526   4.503  1.2910  0.8562 -1.1502
 3712TIP3   OH211141   1.862   5.248   3.410 -0.1770  0.2430  0.1337
 3712TIP3    H111142   1.786   5.213   3.364 -1.0538  0.8558  1.0664
 3712TIP3    H211143   1.921   5.173   3.420 -1.7552 -0.8931  1.5791
 3713TIP3   OH211144   5.829   0.831   2.606 -0.2095 -0.0429  0.1100
 3713TIP3    H111145   5.821   0.893   2.678 -1.1733 -0.2002  0.1551
 3713TIP3    H211146   5.742   0.830   2.565 -0.1032 -1.0479 -0.1325
 3714TIP3   OH211147   2.457   2.430   4.081  0.3247  0.0990 -0.3324
 3714TIP3    H111148   2.538   2.419   4.130 -0.0271 -0.7029  0.0971
 3714TIP3    H211149   2.449   2.524   4.067  0.1335  0.4300  1.7029
 3715TIP3   OH211150   6.246   0.977   5.149  1.0063 -0.3524  0.4864
 3715TIP3    H111151   6.251   1.073   5.148  0.3436 -0.3171 -0.4757
 3715TIP3    H211152   6.325   0.949   5.103 -0.1632 -0.1772 -1.7095
 3716TIP3   OH211153   3.662   5.525   2.658  0.0279  0.5168 -0.1618
 3716TIP3    H111154   3.674   5.483   2.743 -1.3280 -0.3601 -0.3686
 3716TIP3    H211155   3.584   5.580   2.669 -0.1014  0.4677 -0.8046
 3717TIP3   OH211156   1.016   5.034   5.110 -0.1209  0.1101  0.5104
 3717TIP3    H111157   0.977   4.958   5.067 -1.1550 -0.0509  1.6723
 3717TIP3    H211158   1.102   5.044   5.068 -0.5083 -0.8819 -0.5769
 3718TIP3   OH211159   4.306   4.841   4.771 -0.0497 -0.2971 -0.3855
 3718TIP3    H111160   4.254   4.920   4.756  1.6411  0.6135 -1.9447
 3718TIP3    H211161   4.317   4.837   4.866 -1.2012  0.6450 -0.1950
 3719TIP3   OH211162   5.231   1.339   3.632 -0.2853  0.1887  0.0590
 3719TIP3    H111163   5.248   1.287   3.554 -0.5433 -0.0510  0.1613
 3719TIP3    H211164   5.144   1.378   3.616 -0.5637 -0.2629  0.4417
 3720TIP3   OH211165   1.889   5.897   0.800  0.5002 -0.2629 -0.3168
 3720TIP3    H111166   1.901   5.986   0.835 -0.1826 -0.2027 -0.2159
 3720TIP3    H211167   1.832   5.909   0.725  1.3528 -0.4878 -1.0140
 3721TIP3   OH211168   1.868   0.863   2.354 -0.1062 -0.1158  0.3045
 3721TIP3    H111169   1.844   0.820   2.436  0.5666  0.2044  0.6814
 3721TIP3    H211170   1.826   0.811   2.286 -1.1973 -0.0182  0.8895
 3722TIP3   OH211171   1.319   0.093   0.859  0.0623  0.0968  0.0621
 3722TIP3    H111172   1.344   0.129   0.944 -2.8977 -0.5994  1.3226
 3722TIP3    H211173   1.312  -0.001   0.874  0.8096 -0.2056 -1.3430
 3723TIP3   OH211174   3.151   4.628   0.225 -0.1474  0.1982 -0.4536
 3723TIP3    H111175   3.175   4.538   0.207  3.4993  1.0015 -0.3540
 3723TIP3    H211176   3.164   4.638   0.319  1.3654  1.2390 -0.7349
 3724TIP3   OH211177   3.681   2.929   3.572 -0.1444  0.1582  0.0703
 3724TIP3    H111178   3.689   2.956   3.480  0.5282 -1.7582 -0.4837
 3724TIP3    H211179   3.616   2.859   3.571 -0.7169  0.6445  1.2051
 3725TIP3   OH211180   0.819   1.102   4.050 -0.1675 -0.0707 -0.5179
 3725TIP3    H111181   0.774   1.066   3.974 -2.9031 -0.9028  1.3088
 3725TIP3    H211182   0.899   1.050   4.057 -0.1112 -0.3269 -2.4767
 3726TIP3   OH211183   5.995   3.716   3.352 -0.8933 -0.0298 -0.2574
 3726TIP3    H111184   5.960   3.767   3.425  1.3251  2.0679 -0.5440
 3726TIP3    H211185   5.979   3.625   3.377 -1.5258  0.6635  2.1476
 3727TIP3   OH211186   3.566   5.552   0.712 -0.1711 -0.2785  0.4593
 3727TIP3    H111187   3.491   5.606   0.689  0.4191 -0.3594 -1.9145
 3727TIP3    H211188   3.613   5.539   0.629  3.1300  0.7972  1.9656
 3728TIP3   OH211189   1.287   1.261   3.131  0.9502  0.0897 -0.1331
 3728TIP3    H111190   1.378   1.235   3.144  0.8564 -0.1360  0.0805
 3728TIP3    H211191   1.255   1.204   3.062  0.7127 -0.4432  0.4105
 3729TIP3   OH211192   0.393   3.493   3.925  0.5374  0.1245 -0.4415
 3729TIP3    H111193   0.445   3.573   3.919 -0.7418  0.8653 -2.8401
 3729TIP3    H211194   0.429   3.436   3.857  1.5445 -1.4921  1.3422
 3730TIP3   OH211195   0.675   0.697   2.156 -0.6210 -0.8635  0.2825
 3730TIP3    H111196   0.770   0.691   2.161 -0.6231 -0.5002  0.9140
 3730TIP3    H211197   0.656   0.789   2.177 -1.1659 -1.1708  1.2165
 3731TIP3   OH211198   4.823   1.032   1.758  0.2218  0.8063 -0.0472
 3731TIP3    H111199   4.796   1.106   1.704 -0.0617  0.9966  0.3572
 3731TIP3    H211200   4.888   1.069   1.818 -0.2965  0.8392  0.4956
 3732TIP3   OH211201   6.318   4.749   1.614 -0.8610 -0.4186  0.0431
 3732TIP3    H111202   6.254   4.686   1.580 -2.0551  0.7460  0.0731
 3732TIP3    H211203   6.284   4.773   1.700 -1.3115  1.4622 -0.6223
 3733TIP3   OH211204   4.986   0.573   2.419 -0.6655 -0.2641  0.4569
 3733TIP3    H111205   5.068   0.554   2.465 -1.7425 -1.0800  2.1572
 3733TIP3    H211206   4.923   0.509   2.454 -1.8250 -0.2877 -1.4852
 3734TIP3   OH211207   1.905   4.463   5.032 -0.3067 -0.2467 -0.0335
 3734TIP3    H111208   1.890   4.387   5.088  1.1088 -2.1054 -2.0029
 3734TIP3    H211209   2.000   4.471   5.028 -0.4137  0.9433 -0.7837
 3735TIP3   OH211210   3.474   2.727   3.576 -0.5512 -0.0939  0.2719
 3735TIP3    H111211   3.502   2.672   3.503  0.8369 -2.9459  2.7376
 3735TIP3    H211212   3.401   2.679   3.616 -0.6533  0.8947  1.3202
 3736TIP3   OH211213   0.764   1.699   3.351 -0.2647  0.1713  0.1703
 3736TIP3    H111214   0.840   1.646   3.328 -1.0173 -0.3638 -1.2404
 3736TIP3    H211215   0.689   1.640   3.340 -1.1885  1.5940 -2.0492
 3737TIP3   OH211216   3.924   1.740   1.991  0.8930 -0.0762  0.0928
 3737TIP3    H111217   3.981   1.663   1.981  1.9677  0.5819  0.8467
 3737TIP3    H211218   3.937   1.789   1.910  1.3725  0.0434  0.2370
 3738TIP3   OH211219   3.112   2.618   2.614 -0.1658  0.6967 -0.4360
 3738TIP3    H111220   3.142   2.529   2.602 -0.1974  0.5267  0.6920
 3738TIP3    H211221   3.189   2.673   2.598  0.6558  0.3013  1.8088
 3739TIP3   OH211222   1.537   3.563   1.084  0.1661 -0.2474  0.5610
 3739TIP3    H111223   1.568   3.478   1.051  0.4377 -0.8870  2.3297
 3739TIP3    H211224   1.614   3.620   1.079  0.3099 -0.4482  0.4523
 3740TIP3   OH211225   2.317   4.455   2.161  0.5743 -0.0782 -0.5837
 3740TIP3    H111226   2.231   4.419   2.141  0.0731  1.2636 -0.9759
 3740TIP3    H211227   2.320   4.538   2.113  1.8413  0.1996 -0.0706
 3741TIP3   OH211228   3.346   5.653   3.354 -0.5398 -0.5907 -0.3608
 3741TIP3    H111229   3.311   5.727   3.403  0.0594  0.0935 -0.9380
 3741TIP3    H211230   3.390   5.693   3.279 -0.6076 -1.5624 -0.9306
 3742TIP3   OH211231   3.300   2.857   1.777 -0.7976  0.2738 -0.1175
 3742TIP3    H111232   3.226   2.894   1.730 -0.6550  0.1957 -0.4040
 3742TIP3    H211233   3.310   2.913   1.854  0.1275  1.5452 -1.1115
 3743TIP3   OH211234   1.233   3.027   2.388  0.4000  0.0561 -0.0912
 3743TIP3    H111235   1.256   3.024   2.295 -1.2978  0.3546 -0.5510
 3743TIP3    H211236   1.147   2.985   2.394 -0.2079  1.3361  1.0936
 3744TIP3   OH211237   0.528   4.238   0.319  0.8972  0.2082 -0.1005
 3744TIP3    H111238   0.513   4.304   0.251 -0.2713 -0.7379 -0.8107
 3744TIP3    H211239   0.565   4.163   0.271 -1.8458 -1.2443 -0.1423
 3745TIP3   OH211240   0.065   3.397   1.672  0.4970 -0.1619  0.2146
 3745TIP3    H111241   0.091   3.487   1.653  0.1740  0.1890  1.3840
 3745TIP3    H211242   0.119   3.371   1.746 -1.5291  0.1703  1.9058
 3746TIP3   OH211243   5.307   3.275   1.210  0.1395  0.3049 -0.2286
 3746TIP3    H111244   5.398   3.276   1.181  0.1925  0.7923 -0.0539
 3746TIP3    H211245   5.313   3.272   1.306 -0.0276 -1.6621 -0.2460
 3747TIP3   OH211246   6.208   0.600   2.006  0.1436 -0.4384 -0.2804
 3747TIP3    H111247   6.235   0.574   1.919 -0.5141  0.0743 -0.6521
 3747TIP3    H211248   6.259   0.679   2.025 -2.3804  1.7234 -1.8048
 3748TIP3   OH211249   2.053   2.932   1.109  0.1793 -0.0927  0.1441
 3748TIP3    H111250   1.975   2.938   1.164 -1.1935  2.4189 -1.8213
 3748TIP3    H211251   2.106   3.008   1.135 -0.9543  1.7314 -2.4381
 3749TIP3   OH211252   5.960   4.649   0.769  0.0015  0.1016  0.2230
 3749TIP3    H111253   6.002   4.605   0.695 -2.1215 -1.0742 -0.3773
 3749TIP3    H211254   5.928   4.578   0.825  2.5120  0.9366  2.9680
 3750TIP3   OH211255   2.784   2.086   3.122 -0.2195  0.2114 -0.3478
 3750TIP3    H111256   2.878   2.090   3.143 -0.7212  1.2192  2.0128
 3750TIP3    H211257   2.753   2.006   3.163 -0.9342  1.4452  1.6536
 3751TIP3   OH211258   5.959   2.696   4.154 -0.0686  0.1153  0.3144
 3751TIP3    H111259   6.036   2.721   4.205 -1.4502  0.7255  2.2489
 3751TIP3    H211260   5.893   2.760   4.178 -1.6062 -1.2181 -0.1666
 3752TIP3   OH211261   3.419   5.547   1.498  0.0309 -0.5289  0.2712
 3752TIP3    H111262   3.456   5.464   1.530  1.6323  0.4348  1.0450
 3752TIP3    H211263   3.395   5.595   1.577  0.4162  0.3083 -0.1118
 3753TIP3   OH211264   5.060   5.227   4.910 -0.0431 -0.3634 -0.7616
 3753TIP3    H111265   5.064   5.148   4.963 -2.0152 -0.0793 -0.1196
 3753TIP3    H211266   5.150   5.260   4.909  0.4067 -1.4591  0.7004
 3754TIP3   OH211267   0.274   3.892   0.870  0.2575  0.4289  0.0855
 3754TIP3    H111268   0.180   3.908   0.867  0.0814 -0.0444  1.8009
 3754TIP3    H211269   0.284   3.802   0.841 -0.1741 -0.4762  2.5260
 3755TIP3   OH211270   3.948   1.153   4.701  0.0512  0.1863  0.6809
 3755TIP3    H111271   4.027   1.147   4.754  0.2950  1.6620  0.5114
 3755TIP3    H211272   3.966   1.097   4.625  1.3113  1.1971  0.2041
 3756TIP3   OH211273   5.567   2.934   1.263  0.2310  0.1999  0.0292
 3756TIP3    H111274   5.543   3.024   1.241 -0.0419  0.4808  1.3929
 3756TIP3    H211275   5.545   2.925   1.355 -0.5477 -1.5378 -0.2804
 3757TIP3   OH211276   2.755   0.302   3.347 -0.6422 -0.1725  0.4996
 3757TIP3    H111277   2.810   0.320   3.271 -0.3930  0.8481  0.9077
 3757TIP3    H211278   2.668   0.332   3.321 -0.1072  2.4473  1.4057
 3758TIP3   OH211279   5.551   5.673   2.247  0.4318 -0.5065 -0.1484
 3758TIP3    H111280   5.547   5.693   2.154  0.4053 -0.1378 -0.0722
 3758TIP3    H211281   5.460   5.654   2.272 -0.1193  2.4016  0.4256
 3759TIP3   OH211282   1.845   1.065   0.918 -0.2121 -0.0256 -0.4119
 3759TIP3    H111283   1.786   0.990   0.918 -1.5513  0.9859 -0.2211
 3759TIP3    H211284   1.823   1.112   0.837 -1.2499  1.5072  0.6978
 3760TIP3   OH211285   0.837   3.559   0.202 -0.1171 -0.1903 -0.0865
 3760TIP3    H111286   0.777   3.596   0.267  1.7491  0.6424  1.2409
 3760TIP3    H211287   0.868   3.477   0.241 -0.8878 -0.9949 -1.0883
 3761TIP3   OH211288   3.462   1.323   2.352  0.3383  0.4230  0.4688
 3761TIP3    H111289   3.387   1.306   2.295 -1.0969  0.9221  2.1432
 3761TIP3    H211290   3.451   1.414   2.380  1.3286  0.3612  1.1139
 3762TIP3   OH211291   0.851   5.247   2.588  0.1396 -0.4287  0.1360
 3762TIP3    H111292   0.762   5.212   2.581 -0.3732  0.7230  0.6455
 3762TIP3    H211293   0.895   5.190   2.651 -0.3244 -0.8228  0.1058
 3763TIP3   OH211294   3.216   1.245   0.489 -0.0213 -0.2727 -0.4346
 3763TIP3    H111295   3.284   1.304   0.520 -0.9138  0.6449 -0.1911
 3763TIP3    H211296   3.178   1.289   0.413 -2.3556  0.7297  1.1843
 3764TIP3   OH211297   1.350   2.673   3.928 -0.2017  0.0158  0.7054
 3764TIP3    H111298   1.279   2.631   3.978  0.9792 -2.2136  0.6347
 3764TIP3    H211299   1.421   2.609   3.929  0.8446  1.0403 -1.5393
 3765TIP3   OH211300   4.865   5.016   2.569  0.0829 -0.8662 -0.8970
 3765TIP3    H111301   4.807   5.002   2.644  0.3076  1.1802 -0.2923
 3765TIP3    H211302   4.884   5.110   2.570  2.7259 -1.3163 -1.5929
 3766TIP3   OH211303   2.974   2.031   0.455 -0.4088  0.2593  0.3471
 3766TIP3    H111304   2.954   2.034   0.549  0.9531 -1.0327  0.7377
 3766TIP3    H211305   3.046   2.093   0.444  0.1682 -0.3736  0.4092
 3767TIP3   OH211306   1.145   1.088   1.222  0.1933  0.5019  0.4016
 3767TIP3    H111307   1.143   1.117   1.313 -0.9465 -0.8799  0.8707
 3767TIP3    H211308   1.062   1.120   1.185  0.5220  0.8149 -0.0723
 3768TIP3   OH211309   6.271   0.491   2.705 -0.4302 -0.1319  0.0385
 3768TIP3    H111310   6.184   0.531   2.712 -0.6119 -0.3647 -0.8457
 3768TIP3    H211311   6.255   0.397   2.718 -0.0537 -0.0112  1.7394
 3769TIP3   OH211312   0.983   3.825   2.828 -0.2128 -0.3832 -0.5614
 3769TIP3    H111313   0.982   3.920   2.820 -1.1338 -0.4905 -2.1096
 3769TIP3    H211314   1.056   3.806   2.886  1.2049  1.1682 -1.7676
 3770TIP3   OH211315   1.119   5.533   4.046 -0.1209 -0.0652  0.0021
 3770TIP3    H111316   1.050   5.563   3.987  1.0958 -0.2719 -1.5785
 3770TIP3    H211317   1.173   5.610   4.061 -1.3315  0.4293  2.2630
 3771TIP3   OH211318   4.166   3.452   0.618 -0.2353  0.2219 -0.2284
 3771TIP3    H111319   4.083   3.488   0.587  0.2004  1.0666 -0.4499
 3771TIP3    H211320   4.219   3.529   0.639  0.5971 -0.3019 -0.3685
 3772TIP3   OH211321   0.336   0.359   1.581  0.4097  0.4692  0.3950
 3772TIP3    H111322   0.338   0.299   1.655 -1.9840 -1.1332 -0.7249
 3772TIP3    H211323   0.262   0.330   1.528  0.3816  3.2082 -1.2616
 3773TIP3   OH211324   1.082   3.193   3.824  0.1093  0.4274  0.0992
 3773TIP3    H111325   1.170   3.221   3.801  1.1597 -2.8426 -0.4479
 3773TIP3    H211326   1.062   3.123   3.761 -3.1323  1.4069 -0.1434
 3774TIP3   OH211327   4.683   1.645   2.140  0.5218 -0.2316 -0.2522
 3774TIP3    H111328   4.637   1.663   2.059 -0.2179 -0.1936  0.1676
 3774TIP3    H211329   4.692   1.550   2.142 -0.9799 -0.3901  0.4144
 3775TIP3   OH211330   0.058   0.540   0.757  0.5515  1.1678 -0.5939
 3775TIP3    H111331   0.148   0.528   0.789 -0.0389  0.7787  0.9993
 3775TIP3    H211332   0.044   0.634   0.761 -0.0252  1.0355  1.9068
 3776TIP3   OH211333   2.591   1.303   1.689 -0.0286  0.3664 -0.1809
 3776TIP3    H111334   2.519   1.298   1.752 -1.0028  0.5982 -1.2467
 3776TIP3    H211335   2.605   1.396   1.676  0.0490  0.3180 -0.4470
 3777TIP3   OH211336   3.635   4.562   2.440  0.0378  0.0133  0.0801
 3777TIP3    H111337   3.663   4.610   2.518  0.6003  0.5373 -0.4288
 3777TIP3    H211338   3.570   4.500   2.472 -0.0434  0.5012  0.9001
 3778TIP3   OH211339   4.315   3.006   3.904 -0.3461  0.2668  0.1382
 3778TIP3    H111340   4.274   3.088   3.932  0.2497  0.6557 -0.0892
 3778TIP3    H211341   4.249   2.939   3.919 -0.3241  0.5662  1.7505
 3779TIP3   OH211342   2.971   4.013   3.979  0.2705 -0.4467 -0.5280
 3779TIP3    H111343   3.002   4.049   4.062 -0.7479 -0.1507 -0.2556
 3779TIP3    H211344   2.886   3.974   4.001  0.8955 -2.1775 -1.0162
 3780TIP3   OH211345   4.307   1.565   3.106 -0.4587  0.9229  0.1659
 3780TIP3    H111346   4.396   1.543   3.078 -1.0046 -0.8831 -0.2351
 3780TIP3    H211347   4.320   1.637   3.168  1.0228  2.8874 -2.2182
 3781TIP3   OH211348   5.655   4.912   3.663  1.2158  0.1699 -0.5541
 3781TIP3    H111349   5.684   4.859   3.588  0.7575 -0.0002 -0.6168
 3781TIP3    H211350   5.573   4.871   3.690  0.9738  0.7104 -0.4562
 3782TIP3   OH211351   2.893   5.893   2.563 -0.7864 -0.8018 -0.1423
 3782TIP3    H111352   2.818   5.840   2.587 -1.9078 -0.0893 -1.8792
 3782TIP3    H211353   2.922   5.858   2.479  0.7158 -0.9155  0.3859
 3783TIP3   OH211354   0.796   0.099   4.440  0.0069 -0.1082 -0.4271
 3783TIP3    H111355   0.775   0.192   4.445 -0.6594 -0.3206  1.5711
 3783TIP3    H211356   0.723   0.056   4.485  0.3425 -1.6041 -1.2481
 3784TIP3   OH211357   3.538   3.063   1.632  0.1914  0.1147  0.3535
 3784TIP3    H111358   3.596   3.032   1.702 -0.9089 -0.1818  1.1643
 3784TIP3    H211359   3.458   3.091   1.677  0.2525  1.9758 -0.5876
 3785TIP3   OH211360   5.661   4.087   0.756  0.4795 -0.1656  0.0461
 3785TIP3    H111361   5.672   4.136   0.674  2.2618  1.2238  1.0286
 3785TIP3    H211362   5.720   4.012   0.746  2.1626  1.0123  0.7357
 3786TIP3   OH211363   4.118   5.256   5.010 -0.4947  0.1883 -0.1018
 3786TIP3    H111364   4.156   5.286   5.093  0.6683  0.3683 -0.6699
 3786TIP3    H211365   4.102   5.162   5.024  1.2562 -0.1745 -0.1622
 3787TIP3   OH211366   1.016   3.770   2.496 -0.6278  0.0015 -1.0503
 3787TIP3    H111367   0.979   3.692   2.455 -1.5570 -0.0887 -0.1016
 3787TIP3    H211368   1.069   3.735   2.568 -1.6276  0.2460 -0.1712
 3788TIP3   OH211369   4.774   1.368   4.216  0.6597  0.0457  0.2413
 3788TIP3    H111370   4.695   1.320   4.239  0.3003  0.6919  0.3856
 3788TIP3    H211371   4.846   1.310   4.241  0.2364 -0.3545  0.5399
 3789TIP3   OH211372   3.049   4.373  -0.013 -0.5789  0.2876  0.8363
 3789TIP3    H111373   3.109   4.446  -0.030  0.0864 -0.6786 -1.1852
 3789TIP3    H211374   3.054   4.361   0.082  0.9543  1.4782  0.9547
 3790TIP3   OH211375   1.693   5.710   2.408  0.0379 -0.1036  0.0360
 3790TIP3    H111376   1.700   5.673   2.496 -1.3135  0.0852  0.2418
 3790TIP3    H211377   1.612   5.762   2.410  0.1122  0.0860 -1.2480
 3791TIP3   OH211378   0.965   0.499   3.973  0.2924 -0.2050 -0.3694
 3791TIP3    H111379   1.042   0.553   3.991  1.7587 -2.3809  0.4106
 3791TIP3    H211380   0.925   0.485   4.059  0.2040 -0.7068 -0.4882
 3792TIP3   OH211381   5.829   5.543   1.258 -0.5222  0.7266 -0.5698
 3792TIP3    H111382   5.912   5.591   1.255  0.5861 -1.0943 -1.1284
 3792TIP3    H211383   5.834   5.481   1.185 -1.6456 -0.5295  0.3488
 3793TIP3   OH211384   1.982   2.139   0.967 -0.2204  0.4133 -0.2894
 3793TIP3    H111385   2.019   2.189   0.894  0.4975 -0.5144 -0.5778
 3793TIP3    H211386   1.935   2.067   0.925  0.5091 -0.3367  0.1572
 3794TIP3   OH211387   3.592   4.619   4.527 -0.4633 -0.0253  0.3227
 3794TIP3    H111388   3.543   4.661   4.456  0.3158  1.2571  0.5155
 3794TIP3    H211389   3.564   4.528   4.524  0.3733 -0.2858 -2.3467
 3795TIP3   OH211390   0.385   5.831   0.473 -0.3987 -0.5214 -0.6475
 3795TIP3    H111391   0.376   5.926   0.479 -1.1333 -0.6511  0.5320
 3795TIP3    H211392   0.480   5.816   0.473 -0.2820  0.1805 -0.3438
 3796TIP3   OH211393   0.348   4.904   1.637 -0.1653  0.2729 -0.2517
 3796TIP3    H111394   0.424   4.900   1.695 -0.5804  0.1106  0.2929
 3796TIP3    H211395   0.382   4.937   1.554 -0.0175  3.1599  0.8543
 3797TIP3   OH211396   6.220   0.399   3.084  0.3595 -0.6437 -0.3414
 3797TIP3    H111397   6.308   0.431   3.065  0.3991 -0.2074  0.5452
 3797TIP3    H211398   6.222   0.377   3.177 -0.4986 -0.5461 -0.2937
 3798TIP3   OH211399   2.152   0.664   0.221 -0.0926  0.4297 -0.0740
 3798TIP3    H111400   2.231   0.688   0.269  1.4127 -0.9358 -1.7607
 3798TIP3    H211401   2.169   0.691   0.131 -1.0505 -0.9201 -0.6882
 3799TIP3   OH211402   2.436   3.122   0.680  0.3363  0.2263 -0.6563
 3799TIP3    H111403   2.400   3.180   0.612  3.1840  1.5733 -1.1971
 3799TIP3    H211404   2.473   3.049   0.630 -3.9496 -2.7927  0.0614
 3800TIP3   OH211405   3.546   3.759   5.146  0.1385 -0.7677  0.2529
 3800TIP3    H111406   3.522   3.731   5.058 -0.9441 -0.3170  0.3908
 3800TIP3    H211407   3.635   3.793   5.137 -1.1206  2.5097 -1.4289
 3801TIP3   OH211408   4.572   5.094   0.364 -0.5096  0.1005 -0.1058
 3801TIP3    H111409   4.662   5.065   0.381 -0.5238  0.5615  0.7914
 3801TIP3    H211410   4.537   5.115   0.450 -1.5698 -0.3129 -0.4192
 3802TIP3   OH211411   1.771   0.812   1.790  0.0465 -0.1937  0.3732
 3802TIP3    H111412   1.724   0.776   1.715 -0.0651  2.3400 -0.8839
 3802TIP3    H211413   1.734   0.766   1.865 -1.5369 -1.1676 -0.9215
 3803TIP3   OH211414   1.284   3.976   1.976 -0.7299  0.2405 -0.7561
 3803TIP3    H111415   1.241   3.987   1.891 -0.9201  0.8966 -0.5825
 3803TIP3    H211416   1.345   4.050   1.982 -1.1008  0.5020 -0.0979
 3804TIP3   OH211417   0.139   4.546   4.243 -0.2129  0.3658  0.3677
 3804TIP3    H111418   0.163   4.620   4.187  0.7372 -0.9082 -0.9998
 3804TIP3    H211419   0.134   4.583   4.332 -1.2717  2.3347 -0.4632
 3805TIP3   OH211420   1.454   0.941   4.762 -0.3196  0.4892 -0.1734
 3805TIP3    H111421   1.377   0.941   4.704  0.2737  0.2025 -0.9746
 3805TIP3    H211422   1.512   1.007   4.725  0.6199 -0.5946 -0.6740
 3806TIP3   OH211423   1.598   5.652   4.139 -0.5007 -0.9707 -0.6389
 3806TIP3    H111424   1.624   5.594   4.210  0.2839 -1.0575 -0.9851
 3806TIP3    H211425   1.658   5.726   4.145 -0.3883 -1.0085 -1.2406
 3807TIP3   OH211426   1.489   4.054   4.503  0.2692  0.6876  0.2282
 3807TIP3    H111427   1.546   3.988   4.463  0.9868  1.1039  0.5487
 3807TIP3    H211428   1.536   4.136   4.491 -1.6601  1.5626 -2.2560
 3808TIP3   OH211429   5.417   0.390   1.445  0.2270  1.0131  0.3919
 3808TIP3    H111430   5.446   0.321   1.504 -1.1753 -0.3031 -0.3859
 3808TIP3    H211431   5.351   0.438   1.496  0.7407  1.3946  0.7084
 3809TIP3   OH211432   3.077   3.552   3.568  0.3713  0.1118  0.2776
 3809TIP3    H111433   3.114   3.510   3.645  0.3081 -0.5254 -0.0349
 3809TIP3    H211434   2.984   3.528   3.569  0.2624  0.5129  0.2687
 3810TIP3   OH211435   5.882   1.552   0.041 -0.1264 -0.4479  0.1243
 3810TIP3    H111436   5.897   1.473  -0.011  0.5599  0.1452 -0.6092
 3810TIP3    H211437   5.815   1.600  -0.008  3.0642  1.9207 -2.4423
 3811TIP3   OH211438   4.884   5.117   0.150  0.0576 -0.4465 -0.0384
 3811TIP3    H111439   4.838   5.041   0.114  0.2483 -0.6642  0.1744
 3811TIP3    H211440   4.863   5.189   0.090 -0.8956 -0.4463  0.2718
 3812TIP3   OH211441   4.606   2.120   1.405  0.1301 -0.3781  0.4351
 3812TIP3    H111442   4.531   2.172   1.376  0.1816 -0.1644  0.6745
 3812TIP3    H211443   4.568   2.052   1.461  0.2080  0.4389  1.5283
 3813TIP3   OH211444   4.894   0.563   4.950  0.1728  0.6112 -0.3184
 3813TIP3    H111445   4.976   0.601   4.979  0.5500 -1.1128  1.0263
 3813TIP3    H211446   4.919   0.494   4.888 -0.1159 -0.9207  1.2111
 3814TIP3   OH211447   4.936   1.555   0.705 -0.8128  0.1534 -0.5368
 3814TIP3    H111448   4.898   1.468   0.696 -0.5830 -0.2107  1.4341
 3814TIP3    H211449   4.866   1.609   0.741 -0.2709  0.1530  0.5516
 3815TIP3   OH211450   5.540   3.005   0.509 -0.1537 -0.1135  0.0914
 3815TIP3    H111451   5.615   3.061   0.526 -0.9213  1.2637 -0.8871
 3815TIP3    H211452   5.575   2.935   0.453  0.5049  0.2008  0.1024
 3816TIP3   OH211453   4.577   2.035   0.980  0.8439 -0.0806  0.4683
 3816TIP3    H111454   4.624   2.051   1.062  2.5176  1.3993 -0.7119
 3816TIP3    H211455   4.645   2.024   0.914 -0.4545  0.2251 -0.9916
 3817TIP3   OH211456   0.984   4.921   2.409  0.2930  0.2602 -0.2113
 3817TIP3    H111457   1.033   4.894   2.486 -1.4309 -1.6820  0.3062
 3817TIP3    H211458   1.004   5.014   2.399  1.1760  0.3869  2.1171
 3818TIP3   OH211459   6.139   2.596   2.964 -0.0670  0.1463  0.1131
 3818TIP3    H111460   6.216   2.539   2.962 -0.0518  0.1714 -0.0768
 3818TIP3    H211461   6.065   2.536   2.964 -0.0874  0.1049 -1.5609
 3819TIP3   OH211462   3.439   2.717   4.186 -0.1354  0.2265 -0.0071
 3819TIP3    H111463   3.380   2.726   4.260  1.7339  0.4451  1.5415
 3819TIP3    H211464   3.476   2.804   4.174  2.1931 -0.5189  1.1723
 3820TIP3   OH211465   4.509   1.490   3.339 -0.5263  0.3237 -0.3920
 3820TIP3    H111466   4.582   1.541   3.374  1.2649 -2.0823 -0.3996
 3820TIP3    H211467   4.512   1.503   3.245  0.8778 -0.9023 -0.5469
 3821TIP3   OH211468   4.775   1.843   4.113 -0.3121 -0.0490  0.6358
 3821TIP3    H111469   4.788   1.764   4.165 -0.7046 -0.0433  0.7481
 3821TIP3    H211470   4.728   1.813   4.035 -3.5187  0.5071  2.1793
 3822TIP3   OH211471   1.791   5.848   1.135 -0.0842 -0.1369  0.7237
 3822TIP3    H111472   1.822   5.939   1.137 -0.5655  0.0240  1.3914
 3822TIP3    H211473   1.803   5.820   1.044  1.3895  0.1255  0.8066
 3823TIP3   OH211474   5.886   2.352   1.270  0.4771 -0.0903 -0.0072
 3823TIP3    H111475   5.832   2.296   1.215  0.2860  0.5057 -0.4271
 3823TIP3    H211476   5.881   2.311   1.357 -0.3680 -0.2330 -0.1115
 3824TIP3   OH211477   5.162   5.128   1.725 -0.5998 -0.6090  0.1366
 3824TIP3    H111478   5.185   5.106   1.635 -0.4721 -0.7957  0.2144
 3824TIP3    H211479   5.115   5.212   1.718 -0.8558 -0.7707 -0.1340
 3825TIP3   OH211480   3.421   5.573   1.129 -0.4409  0.2507  0.5053
 3825TIP3    H111481   3.493   5.539   1.077 -0.9924 -0.5972  0.2830
 3825TIP3    H211482   3.463   5.637   1.188  0.5477 -0.4798  0.6272
 3826TIP3   OH211483   3.712   2.541   2.313 -0.6926 -0.3072 -0.2359
 3826TIP3    H111484   3.773   2.499   2.373 -0.1128 -0.3965 -0.8769
 3826TIP3    H211485   3.722   2.493   2.231  0.5369  1.5106 -1.2237
 3827TIP3   OH211486   0.605   3.974   4.714 -0.6511  0.3035  0.4475
 3827TIP3    H111487   0.696   3.951   4.731 -0.3328  0.5106 -0.8627
 3827TIP3    H211488   0.608   4.063   4.681 -0.6557 -1.2341 -4.4834
 3828TIP3   OH211489   0.667   0.742   2.859  0.3772 -0.3388  0.3803
 3828TIP3    H111490   0.736   0.713   2.918 -1.9643 -0.7676  3.0962
 3828TIP3    H211491   0.713   0.765   2.778  3.5045 -1.8385  1.5716
 3829TIP3   OH211492   0.855   2.466   2.846  0.1605  0.7959 -0.6098
 3829TIP3    H111493   0.768   2.496   2.870  0.8847  2.3834  0.2404
 3829TIP3    H211494   0.879   2.404   2.915 -0.3190  0.2892 -0.8940
 3830TIP3   OH211495   0.272   5.935   4.447 -0.4428  0.3327 -0.7584
 3830TIP3    H111496   0.213   5.864   4.472  0.2881  0.5163  1.8081
 3830TIP3    H211497   0.216   5.999   4.404 -2.1335  0.3780  1.3419
 3831TIP3   OH211498   3.098   4.655   2.847 -0.6184  0.4356 -0.1607
 3831TIP3    H111499   3.043   4.654   2.768  1.3010 -4.3840 -1.8019
 3831TIP3    H211500   3.187   4.666   2.815  0.1416 -0.8213  1.3467
 3832TIP3   OH211501   4.251   0.083   0.504  0.4266 -0.3002  0.2114
 3832TIP3    H111502   4.206   0.072   0.588  0.2884 -0.4687  0.1173
 3832TIP3    H211503   4.343   0.063   0.523  0.5727  0.6422  0.5346
 3833TIP3   OH211504   4.718   1.277   1.675 -0.0308 -0.2153  0.3528
 3833TIP3    H111505   4.778   1.351   1.669 -0.0743 -0.0807  1.4105
 3833TIP3    H211506   4.703   1.250   1.584 -2.4308  2.9967 -0.3906
 3834TIP3   OH211507   4.559   2.652   0.986 -0.3866 -0.0041 -0.9939
 3834TIP3    H111508   4.628   2.598   1.024 -1.9305 -1.1928  0.2728
 3834TIP3    H211509   4.597   2.687   0.905  1.9591  0.0857  0.0530
 3835TIP3   OH211510   3.632   1.952   3.632  0.2446  0.3122  0.3204
 3835TIP3    H111511   3.621   1.974   3.725  0.4575 -0.3598  0.5074
 3835TIP3    H211512   3.609   1.860   3.626  1.1416  0.1029 -0.1238
 3836TIP3   OH211513   3.895   0.032   4.911  0.4042  0.1863  0.8310
 3836TIP3    H111514   3.961   0.002   4.849 -1.8745 -2.7938 -0.3555
 3836TIP3    H211515   3.898  -0.031   4.982 -0.5514  0.5479  1.2098
 3837TIP3   OH211516   5.883   3.251   3.467  0.0146 -0.0166  0.2453
 3837TIP3    H111517   5.919   3.315   3.405  0.8232 -0.1318  0.5804
 3837TIP3    H211518   5.791   3.244   3.443  0.6415 -1.3744 -2.1231
 3838TIP3   OH211519   1.450   5.772   3.040 -0.3097  0.0683  0.2410
 3838TIP3    H111520   1.486   5.861   3.047 -0.0120 -0.1225  1.3906
 3838TIP3    H211521   1.527   5.715   3.041 -0.4935 -0.2101 -0.6040
 3839TIP3   OH211522   1.948   0.478   2.988 -0.1366  0.0248  0.1102
 3839TIP3    H111523   1.906   0.536   3.052  0.9676  0.9047  0.0695
 3839TIP3    H211524   2.000   0.537   2.933 -1.4282 -0.6439 -1.9204
 3840TIP3   OH211525   3.158   4.869   3.709  0.4118 -0.0902  0.0534
 3840TIP3    H111526   3.064   4.879   3.723  0.1592 -2.4390  0.5489
 3840TIP3    H211527   3.173   4.900   3.620 -0.9382 -0.1599 -0.2258
 3841TIP3   OH211528   2.023   1.779   1.709 -1.0505  0.3823 -0.1638
 3841TIP3    H111529   2.092   1.713   1.714 -0.2223  1.2844  0.4769
 3841TIP3    H211530   1.995   1.777   1.617 -0.7329 -0.5371 -0.2538
 3842TIP3   OH211531   3.317   1.186   3.983 -0.0470 -0.0990  0.1894
 3842TIP3    H111532   3.261   1.140   3.921  1.0185 -1.4002  0.1355
 3842TIP3    H211533   3.318   1.277   3.952 -0.4093 -0.4899 -1.0413
 3843TIP3   OH211534   4.114   2.957   2.736 -0.2110  0.3792 -0.3847
 3843TIP3    H111535   4.158   2.906   2.668 -1.0245 -2.4352  1.0434
 3843TIP3    H211536   4.022   2.956   2.710 -0.3219  0.5456 -0.0048
 3844TIP3   OH211537   3.432   1.423   0.544  0.0425  0.2120 -0.1069
 3844TIP3    H111538   3.515   1.454   0.509  0.9442 -1.5131  0.3513
 3844TIP3    H211539   3.429   1.459   0.633 -0.0307  0.8464 -0.3675
 3845TIP3   OH211540   2.627   3.654   1.144  0.7522 -0.0617 -0.6858
 3845TIP3    H111541   2.670   3.572   1.119 -0.1264 -1.0895  1.0026
 3845TIP3    H211542   2.697   3.709   1.180  1.2417 -0.2796 -1.2824
 3846TIP3   OH211543   5.944   4.432   4.901 -0.3166 -0.2439 -0.0469
 3846TIP3    H111544   5.949   4.346   4.860 -0.2451 -0.3636  0.2134
 3846TIP3    H211545   6.027   4.475   4.877 -1.0357  0.3777 -1.5646
 3847TIP3   OH211546   4.592   5.980   3.588  0.1652 -0.0167 -0.2095
 3847TIP3    H111547   4.595   5.940   3.675  1.1887  0.0216 -0.2154
 3847TIP3    H211548   4.499   5.989   3.569 -0.0793 -1.3719  0.2674
 3848TIP3   OH211549   3.047   3.381   1.712  0.2310  0.0686  0.4423
 3848TIP3    H111550   3.049   3.295   1.672 -1.1068  1.0252 -1.8652
 3848TIP3    H211551   3.139   3.401   1.730  0.9309 -0.4835 -2.1452
 3849TIP3   OH211552   5.959   5.034   4.680 -0.0116 -0.2200 -0.3716
 3849TIP3    H111553   6.001   5.091   4.617  0.6676  0.1117  0.3601
 3849TIP3    H211554   5.878   5.005   4.637  0.4538 -0.0446 -1.3947
 3850TIP3   OH211555   5.980   1.271   0.446 -0.4008 -0.1938 -0.5532
 3850TIP3    H111556   6.038   1.195   0.448  1.1580  0.9547  1.2501
 3850TIP3    H211557   5.912   1.250   0.510 -1.6719 -1.2194 -2.1346
 3851TIP3   OH211558   0.735   2.055   2.318 -0.0399  0.3842 -0.4454
 3851TIP3    H111559   0.693   2.055   2.404  1.2092 -1.6195  0.2227
 3851TIP3    H211560   0.809   2.115   2.327  0.1466  0.1015 -0.1050
 3852TIP3   OH211561   3.888   0.709   1.562  0.4046  0.1393 -0.1673
 3852TIP3    H111562   3.901   0.635   1.621 -0.2001  1.5166  1.8106
 3852TIP3    H211563   3.803   0.691   1.520  0.3981 -0.4252  0.0821
 3853TIP3   OH211564   5.550   4.819   2.373 -0.3971  0.2963  0.3749
 3853TIP3    H111565   5.536   4.881   2.301  1.0282  0.1272 -0.0853
 3853TIP3    H211566   5.645   4.817   2.385 -0.4306 -1.5000  0.6423
 3854TIP3   OH211567   6.228   5.505   0.891 -0.6288  0.2487 -0.1435
 3854TIP3    H111568   6.261   5.419   0.920  1.9999  1.3243  0.3154
 3854TIP3    H211569   6.195   5.488   0.803  0.1785 -1.1930 -0.2178
 3855TIP3   OH211570   4.571   4.135   0.319 -0.3387 -0.3792  0.5126
 3855TIP3    H111571   4.479   4.108   0.312 -0.4600  0.0741  0.2974
 3855TIP3    H211572   4.589   4.136   0.413 -0.5156 -0.5975  0.5484
 3856TIP3   OH211573   1.629   4.633   1.982  0.3384 -0.5661 -0.0530
 3856TIP3    H111574   1.570   4.637   1.906 -0.7338  0.2681  0.7935
 3856TIP3    H211575   1.588   4.569   2.040 -0.3823  0.8444  1.0419
 3857TIP3   OH211576   5.813   4.764   0.038 -0.1490  0.6069 -0.1907
 3857TIP3    H111577   5.796   4.723  -0.046  0.6140 -1.4790  0.5893
 3857TIP3    H211578   5.750   4.835   0.044 -1.6389 -0.5206 -1.6239
 3858TIP3   OH211579   3.759   4.282   1.099  0.1143  0.4557  0.0668
 3858TIP3    H111580   3.806   4.313   1.176  1.8712 -0.1261 -0.7222
 3858TIP3    H211581   3.798   4.197   1.080  0.6978  1.1786 -2.2545
 3859TIP3   OH211582   2.299   3.324   0.518 -0.2613  0.3033 -0.3154
 3859TIP3    H111583   2.359   3.362   0.454 -1.2947 -1.0355 -2.1581
 3859TIP3    H211584   2.234   3.278   0.466 -1.7028 -0.0646  1.6903
 3860TIP3   OH211585   0.152   5.663   2.104  0.0231  0.1110  0.2924
 3860TIP3    H111586   0.112   5.604   2.167  0.5244 -2.8169 -1.9155
 3860TIP3    H211587   0.228   5.699   2.150 -0.0995 -1.2419  1.6388
 3861TIP3   OH211588   0.060   5.045   1.876  0.1646  0.2265 -0.1661
 3861TIP3    H111589   0.128   4.994   1.920 -0.1526 -0.8489 -0.8779
 3861TIP3    H211590  -0.021   5.022   1.922  0.1433  0.7838  0.0801
 3862TIP3   OH211591   1.126   4.670   0.909 -0.1534  0.0495 -0.1058
 3862TIP3    H111592   1.052   4.719   0.875 -0.2111 -0.7779 -1.2687
 3862TIP3    H211593   1.167   4.632   0.831 -0.4024 -2.1146  0.7263
 3863TIP3   OH211594   4.680   5.860   2.527  0.6982  0.1606  0.2573
 3863TIP3    H111595   4.657   5.953   2.522 -0.4717 -0.0947  0.5007
 3863TIP3    H211596   4.726   5.852   2.611 -1.1088  0.1787  1.3171
 3864TIP3   OH211597   2.823   4.499   4.558  0.3275 -0.2096 -0.5213
 3864TIP3    H111598   2.813   4.551   4.478 -0.7014  0.5742  0.0994
 3864TIP3    H211599   2.739   4.453   4.567 -0.2257  1.0149  1.0036
 3865TIP3   OH211600   4.970   0.990   2.584  0.2450 -0.3300  0.0716
 3865TIP3    H111601   4.991   0.926   2.515  1.2832 -0.6811  0.6816
 3865TIP3    H211602   4.953   0.937   2.662 -1.9654  0.0083 -0.1149
 3866TIP3   OH211603   4.264   2.735   4.895 -0.0621  0.5312  0.1905
 3866TIP3    H111604   4.274   2.828   4.875 -0.5146  0.1138 -2.3067
 3866TIP3    H211605   4.182   2.710   4.853  1.0250 -1.4035 -0.8951
 3867TIP3   OH211606   2.966   2.527   4.374  0.0610 -0.1933 -0.5794
 3867TIP3    H111607   2.986   2.518   4.281  0.9991  2.3414 -0.6864
 3867TIP3    H211608   3.021   2.462   4.417 -1.4326 -2.4207 -1.8165
 3868TIP3   OH211609   2.109   5.579   2.527  0.4706 -0.3826  1.0267
 3868TIP3    H111610   2.126   5.580   2.621  1.2155  0.4159  0.8959
 3868TIP3    H211611   2.112   5.671   2.501  0.5675 -0.6230  0.1710
 3869TIP3   OH211612   4.214   1.438   2.500  0.2284 -0.1996  0.3673
 3869TIP3    H111613   4.233   1.523   2.460  0.1850 -0.9098 -1.2263
 3869TIP3    H211614   4.126   1.447   2.536  0.4276  0.5840  0.6688
 3870TIP3   OH211615   3.905   0.486   3.869 -0.4154  0.5781  0.3842
 3870TIP3    H111616   3.917   0.463   3.777  0.9931  0.8356  0.4847
 3870TIP3    H211617   3.816   0.457   3.890 -0.4739 -0.1781 -0.8429
 3871TIP3   OH211618   3.349   2.538   4.005  0.3429 -0.0708  0.4840
 3871TIP3    H111619   3.399   2.565   3.928 -2.1359  3.0297 -0.2446
 3871TIP3    H211620   3.371   2.602   4.072 -1.2127  0.2470  0.7248
 3872TIP3   OH211621   2.871   1.205   2.554 -0.6011 -0.8353  0.1268
 3872TIP3    H111622   2.946   1.155   2.588 -0.3527 -0.4223  0.1912
 3872TIP3    H211623   2.830   1.242   2.632  0.4130  0.7412 -0.0583
 3873TIP3   OH211624   0.673   2.772   3.139  0.2498 -0.3992  0.5257
 3873TIP3    H111625   0.606   2.829   3.177  0.3818  0.0440  0.0977
 3873TIP3    H211626   0.704   2.818   3.061  0.2810 -1.1064  0.1074
 3874TIP3   OH211627   1.106   5.452   1.583  0.2409 -0.2111 -0.1697
 3874TIP3    H111628   1.077   5.379   1.528 -1.3422 -0.5893  1.0929
 3874TIP3    H211629   1.049   5.525   1.558  2.5512  1.0467 -2.2455
 3875TIP3   OH211630   0.543   0.804   0.792  0.6947  0.1200 -0.3833
 3875TIP3    H111631   0.550   0.732   0.730  1.4536 -1.6989  1.7041
 3875TIP3    H211632   0.581   0.879   0.746  0.5829 -0.9501 -2.3363
 3876TIP3   OH211633   1.619   3.889   0.573 -0.3235 -0.0134 -0.0519
 3876TIP3    H111634   1.585   3.978   0.556  1.0303  0.1965 -1.9642
 3876TIP3    H211635   1.687   3.902   0.639  1.0085  0.6869 -1.4851
 3877TIP3   OH211636   0.068   2.669   0.462 -0.8014  0.1220  0.4028
 3877TIP3    H111637   0.133   2.733   0.492 -0.5447  0.3514 -0.6172
 3877TIP3    H211638   0.090   2.588   0.509  0.1171  0.2497  0.2062
 3878TIP3   OH211639   4.020   5.289   3.817 -0.2917 -0.0579  0.0952
 3878TIP3    H111640   4.030   5.194   3.824  0.7459  0.1368  1.7895
 3878TIP3    H211641   4.109   5.323   3.819 -0.6874  1.0586  2.1619
 3879TIP3   OH211642   5.639   1.352   3.439  0.2045 -0.0717 -0.3400
 3879TIP3    H111643   5.581   1.408   3.491 -1.7062 -0.4252 -1.9796
 3879TIP3    H211644   5.682   1.413   3.379  0.3131 -0.0046 -0.1945
 3880TIP3   OH211645   1.093   1.006   2.068 -0.5362 -0.0449 -0.3249
 3880TIP3    H111646   1.066   1.080   2.122  1.0856 -0.8425  1.7129
 3880TIP3    H211647   1.017   0.948   2.066 -0.6139 -0.0242  1.2182
 3881TIP3   OH211648   5.458   1.904   0.808 -0.5526 -0.1573 -0.4144
 3881TIP3    H111649   5.544   1.863   0.800  0.0359  0.5804  1.4969
 3881TIP3    H211650   5.396   1.831   0.809  0.1411 -0.7638 -0.8191
 3882TIP3   OH211651   5.908   2.914   2.076 -0.5656  0.2236 -0.5614
 3882TIP3    H111652   5.995   2.920   2.117  0.4398  0.1994 -2.5797
 3882TIP3    H211653   5.850   2.887   2.147  1.2825 -0.9301  0.5894
 3883TIP3   OH211654   1.001   5.317   0.898 -0.1192 -0.0616  0.3851
 3883TIP3    H111655   0.905   5.327   0.901 -0.1567 -0.1724 -0.2971
 3883TIP3    H211656   1.026   5.356   0.815  0.5439  0.7894  0.9610
 3884TIP3   OH211657   2.440   5.386   0.042  1.0115 -0.0037 -0.2064
 3884TIP3    H111658   2.450   5.375  -0.052  0.9394 -0.2236 -0.1898
 3884TIP3    H211659   2.483   5.309   0.080 -0.6150 -0.9379 -0.1285
 3885TIP3   OH211660   2.696   3.479   0.162  0.0548  0.4533 -0.4501
 3885TIP3    H111661   2.693   3.390   0.126 -0.2380 -0.0933  0.8783
 3885TIP3    H211662   2.713   3.466   0.255 -2.0519  1.6928  0.1694
 3886TIP3   OH211663   4.023   1.776   4.564  0.8115 -0.0315 -0.2174
 3886TIP3    H111664   4.062   1.846   4.615  0.0642  0.6388 -0.5513
 3886TIP3    H211665   4.016   1.811   4.475 -0.3232 -0.2211 -0.2146
 3887TIP3   OH211666   1.976   0.799   3.525  0.5212 -0.1296 -0.0463
 3887TIP3    H111667   1.883   0.807   3.503  0.7646 -0.0567 -1.0813
 3887TIP3    H211668   1.976   0.757   3.611 -0.4597 -0.9898 -0.4337
 3888TIP3   OH211669   0.874   2.758   0.631  0.1875 -0.0191  0.6182
 3888TIP3    H111670   0.899   2.673   0.667  0.5892  0.4286  1.4120
 3888TIP3    H211671   0.809   2.737   0.563 -1.1050 -0.8583  2.0539
 3889TIP3   OH211672   2.271   0.477   2.005 -0.5361  0.6937 -0.0558
 3889TIP3    H111673   2.323   0.557   2.016 -0.0696  0.3410  0.3826
 3889TIP3    H211674   2.323   0.422   1.946  1.5243 -1.1987  3.1487
 3890TIP3   OH211675   3.355   4.813   3.870 -0.2364 -0.0241 -0.4670
 3890TIP3    H111676   3.397   4.895   3.896 -1.4483  0.6381 -0.5345
 3890TIP3    H211677   3.270   4.839   3.835 -1.0589 -1.3677  0.4062
 3891TIP3   OH211678   0.193   1.404   2.999  0.0951  0.1093  0.0082
 3891TIP3    H111679   0.183   1.310   3.019  1.2759 -0.7945 -3.1288
 3891TIP3    H211680   0.116   1.426   2.947 -0.0326  0.8504  0.4936
 3892TIP3   OH211681   4.192   1.930   1.684  0.0814 -0.2608 -0.2963
 3892TIP3    H111682   4.167   2.002   1.742 -2.5504 -1.7880  0.6303
 3892TIP3    H211683   4.219   1.860   1.744  1.2877 -0.5465 -1.1343
 3893TIP3   OH211684   5.279   2.165   4.765  0.5829  0.4139 -0.0476
 3893TIP3    H111685   5.267   2.072   4.746  0.6813  0.5644 -0.8801
 3893TIP3    H211686   5.190   2.196   4.783  0.0826  0.7603 -2.6813
 3894TIP3   OH211687   4.207   4.598   3.359  0.2905 -0.0307  0.0085
 3894TIP3    H111688   4.265   4.529   3.325  1.6434  1.0200  0.1040
 3894TIP3    H211689   4.200   4.579   3.452 -0.2966 -0.7022 -0.1641
 3895TIP3   OH211690   3.314   0.694   2.210 -0.4093 -0.0475 -0.2230
 3895TIP3    H111691   3.290   0.628   2.145 -0.0484 -0.0833 -0.3235
 3895TIP3    H211692   3.385   0.654   2.260  0.8153  0.7910 -1.2165
 3896TIP3   OH211693   6.030   1.718   3.931  0.1091  0.3744  0.1994
 3896TIP3    H111694   6.046   1.707   4.025 -0.1040  2.3652  0.4997
 3896TIP3    H211695   5.950   1.667   3.915  0.0542  0.1459  1.1293
 3897TIP3   OH211696   3.530   3.025   4.187  0.0495 -0.0106 -0.7960
 3897TIP3    H111697   3.455   3.005   4.242  1.6197  0.1711  1.5624
 3897TIP3    H211698   3.493   3.065   4.108 -2.3833 -1.4729 -0.4716
 3898TIP3   OH211699   1.489   4.680   0.579  0.7255  0.0073 -0.1586
 3898TIP3    H111700   1.408   4.715   0.540  0.1780 -1.0554  0.0046
 3898TIP3    H211701   1.557   4.702   0.515 -0.2957 -2.6114 -2.3520
 3899TIP3   OH211702   5.238   0.967   2.781 -0.2392 -0.1764  0.1079
 3899TIP3    H111703   5.254   1.002   2.694 -1.1636  0.1513  0.0599
 3899TIP3    H211704   5.317   0.917   2.802  0.3324  0.4236 -0.5748
 3900TIP3   OH211705   6.039   5.396   3.288  0.0001  0.3925 -0.2593
 3900TIP3    H111706   6.052   5.484   3.253 -0.0567  0.1200 -0.9814
 3900TIP3    H211707   6.066   5.337   3.217 -0.2595 -0.1726  0.0973
 3901TIP3   OH211708   3.967   1.427   1.329  0.1364  0.2187 -0.2267
 3901TIP3    H111709   3.939   1.440   1.420 -0.1020 -0.0523 -0.2636
 3901TIP3    H211710   4.059   1.399   1.337  0.2841  0.7201 -0.0945
 3902TIP3   OH211711   2.857   2.295   0.755  0.1891 -0.3326  0.3115
 3902TIP3    H111712   2.891   2.375   0.794  1.4317 -0.6916  0.0186
 3902TIP3    H211713   2.837   2.318   0.665  0.0961 -0.2367  0.3567
 3903TIP3   OH211714   1.830   1.740   3.028 -0.1241  1.1050  0.1550
 3903TIP3    H111715   1.801   1.809   2.968  1.3201  1.1570 -0.5324
 3903TIP3    H211716   1.925   1.742   3.022 -0.0432 -1.0188  0.0459
 3904TIP3   OH211717   2.018   4.900   0.993  0.4398 -1.0984 -0.4506
 3904TIP3    H111718   2.055   4.983   0.962  1.8264 -1.3870  0.3691
 3904TIP3    H211719   1.997   4.915   1.085  1.8361 -1.9738  0.0546
 3905TIP3   OH211720   3.742   5.354   1.730 -1.1501 -0.3875 -0.0339
 3905TIP3    H111721   3.809   5.323   1.668 -0.7190  0.3472  0.0578
 3905TIP3    H211722   3.696   5.423   1.683  0.4056  1.5050  1.0786
 3906TIP3   OH211723   5.650   5.463   0.211  0.2595 -0.4375  0.1530
 3906TIP3    H111724   5.702   5.440   0.134  0.7983 -1.3472  0.7758
 3906TIP3    H211725   5.690   5.413   0.283  0.3125  1.0539  1.1979
 3907TIP3   OH211726   4.019   4.091   4.618 -0.1863  0.0308 -0.3866
 3907TIP3    H111727   4.048   4.009   4.578  0.2143  0.0790 -0.1962
 3907TIP3    H211728   4.098   4.144   4.625 -0.1369 -0.1627  0.9003
 3908TIP3   OH211729   1.536   3.625   2.696 -0.1743  0.8334 -0.5701
 3908TIP3    H111730   1.584   3.665   2.768 -1.0271  2.2166 -0.7388
 3908TIP3    H211731   1.558   3.532   2.701  0.9860  1.1430  0.5185
 3909TIP3   OH211732   0.344   0.538   0.760  0.2739 -0.4487  0.4652
 3909TIP3    H111733   0.349   0.454   0.714  1.1430  0.0724 -0.4451
 3909TIP3    H211734   0.355   0.604   0.691 -0.0676  0.4032  1.2059
 3910TIP3   OH211735   1.807   4.813   2.636 -0.6643 -0.4502 -0.1900
 3910TIP3    H111736   1.892   4.830   2.596 -0.5355 -0.0212  0.2433
 3910TIP3    H211737   1.808   4.720   2.657  0.3076 -0.1788  1.1569
 3911TIP3   OH211738   5.624   4.573   5.054  0.3212  0.0755 -0.0585
 3911TIP3    H111739   5.669   4.624   4.986  1.5351  1.0333  1.3892
 3911TIP3    H211740   5.552   4.629   5.082 -0.1757 -0.3165 -0.5403
 3912TIP3   OH211741   5.656   5.872   4.768 -0.4643 -0.4075  0.5070
 3912TIP3    H111742   5.743   5.832   4.761 -1.8380 -3.7663  0.6070
 3912TIP3    H211743   5.625   5.877   4.678 -1.2253 -1.9968  0.6474
 3913TIP3   OH211744   5.104   4.402   4.861 -0.1330 -0.2679  0.6065
 3913TIP3    H111745   5.079   4.407   4.769  1.2122 -0.8196  0.1894
 3913TIP3    H211746   5.021   4.399   4.908 -0.8945 -2.0493 -0.7107
 3914TIP3   OH211747   2.047   1.074   3.562 -0.3036 -0.0402 -0.0789
 3914TIP3    H111748   2.011   0.985   3.562 -2.1978  0.6639 -0.2174
 3914TIP3    H211749   2.083   1.086   3.474  1.2884 -1.1301  0.3921
 3915TIP3   OH211750   6.053   2.271   3.865 -0.0837  0.1957  0.7043
 3915TIP3    H111751   6.070   2.365   3.862  0.4299  0.0951  0.1708
 3915TIP3    H211752   5.999   2.259   3.943  0.0066  0.9069  0.8874
 3916TIP3   OH211753   1.439   4.374   3.710  0.2364 -0.3554  0.2868
 3916TIP3    H111754   1.516   4.319   3.698  1.1702  0.9026  0.2717
 3916TIP3    H211755   1.474   4.456   3.745 -1.2503 -0.2068  1.5164
 3917TIP3   OH211756   1.459   5.333   0.423 -0.0760 -0.2081 -0.2730
 3917TIP3    H111757   1.477   5.421   0.390 -0.7546 -0.6659 -2.0161
 3917TIP3    H211758   1.515   5.323   0.499  0.7274  1.3857 -0.6214
 3918TIP3   OH211759   3.297   2.230   5.079 -0.1515  0.0402  0.1433
 3918TIP3    H111760   3.266   2.153   5.032  0.2305  0.4603 -0.8191
 3918TIP3    H211761   3.218   2.275   5.108 -0.3787 -0.5398  0.4210
 3919TIP3   OH211762   3.384   1.077   1.932 -0.5075 -0.4792  0.6901
 3919TIP3    H111763   3.443   1.004   1.915 -0.3345 -0.3389  0.6791
 3919TIP3    H211764   3.400   1.137   1.859 -0.3095 -0.2188  0.9429
 3920TIP3   OH211765   5.182   3.389   1.906  0.2885  0.0047  0.5415
 3920TIP3    H111766   5.263   3.338   1.920  0.2845 -0.7601 -1.7274
 3920TIP3    H211767   5.208   3.457   1.844 -0.2141  1.5435  1.9514
 3921TIP3   OH211768   5.354   2.777   0.918  0.0324  0.3690 -0.4760
 3921TIP3    H111769   5.309   2.748   0.997 -0.3075 -1.0247 -1.1604
 3921TIP3    H211770   5.339   2.708   0.854  1.0381  1.0546 -1.5053
 3922TIP3   OH211771   2.382   4.086   2.778 -0.0256 -0.0800  0.2285
 3922TIP3    H111772   2.465   4.124   2.749 -0.0459  0.6357  1.0565
 3922TIP3    H211773   2.399   4.058   2.868 -0.2758 -1.2488 -0.0758
 3923TIP3   OH211774   1.911   0.337   3.696 -0.1645 -0.5559 -0.3195
 3923TIP3    H111775   1.974   0.365   3.763 -0.6348  2.7789 -1.0851
 3923TIP3    H211776   1.830   0.381   3.719 -1.0524 -1.4413 -1.6242
 3924TIP3   OH211777   3.240   0.686   0.410  0.1651  0.0890  0.1064
 3924TIP3    H111778   3.222   0.698   0.317 -1.1745 -1.2098  0.1674
 3924TIP3    H211779   3.301   0.757   0.432 -0.0440  0.8339 -1.5853
 3925TIP3   OH211780   4.453   1.450   2.698  0.3061 -0.3782 -0.0457
 3925TIP3    H111781   4.537   1.412   2.674  0.9576  1.1212 -0.2584
 3925TIP3    H211782   4.428   1.505   2.623 -0.6715 -0.5003  0.1731
 3926TIP3   OH211783   3.640   5.793   4.871  0.3347 -0.0899  0.1178
 3926TIP3    H111784   3.677   5.715   4.829 -1.0332 -1.6294  1.6305
 3926TIP3    H211785   3.574   5.759   4.931 -0.8069  2.3055  0.3313
 3927TIP3   OH211786   5.617   3.041   4.623 -0.1240 -0.1981  0.2184
 3927TIP3    H111787   5.699   3.090   4.632  0.0538 -0.5880  0.8625
 3927TIP3    H211788   5.608   3.025   4.529  0.1444  0.5064  0.0688
 3928TIP3   OH211789   1.752   3.821   1.979 -0.0342 -0.5502 -0.3148
 3928TIP3    H111790   1.687   3.870   1.929  0.7411 -0.0318 -0.8299
 3928TIP3    H211791   1.701   3.753   2.024 -0.9316 -0.1331 -0.6776
 3929TIP3   OH211792   0.056   0.082   1.586  0.1835  0.1076 -0.6393
 3929TIP3    H111793   0.131   0.022   1.585  1.1241  1.2311 -1.6637
 3929TIP3    H211794   0.093   0.165   1.616 -1.3884 -0.1017  2.2042
 3930TIP3   OH211795   5.175   3.382   0.998 -0.2040  0.0610  0.4623
 3930TIP3    H111796   5.110   3.425   1.054 -0.3982  0.8261 -0.3293
 3930TIP3    H211797   5.222   3.323   1.057  0.6228  1.9578  1.7899
 3931TIP3   OH211798   2.147   1.420   1.906 -0.3731 -0.4683  0.6610
 3931TIP3    H111799   2.210   1.473   1.956 -1.0967  0.4359  0.6331
 3931TIP3    H211800   2.066   1.470   1.909 -1.2223 -1.8250  1.0546
 3932TIP3   OH211801   1.860   0.379   0.108  0.2622 -0.4104  0.1091
 3932TIP3    H111802   1.822   0.372   0.195 -1.7230  0.2772 -0.6496
 3932TIP3    H211803   1.792   0.421   0.055  0.7778 -2.2027 -2.1556
 3933TIP3   OH211804   5.791   2.164   2.254 -0.4815 -0.0496 -0.2517
 3933TIP3    H111805   5.855   2.191   2.321  1.0260  0.1792 -1.7191
 3933TIP3    H211806   5.822   2.079   2.224 -1.6322 -0.5401 -0.0811
 3934TIP3   OH211807   6.042   2.936   0.950 -0.1043 -0.4188  0.3426
 3934TIP3    H111808   6.017   2.860   1.002  2.2026 -0.6276  1.2857
 3934TIP3    H211809   6.138   2.939   0.957  0.0531  1.2640 -1.5327
 3935TIP3   OH211810   2.607   0.680   5.071 -0.3329 -0.3637  0.1933
 3935TIP3    H111811   2.647   0.766   5.069 -1.0037 -0.0623 -1.8090
 3935TIP3    H211812   2.538   0.687   5.138 -1.9964  1.4475 -1.5926
 3936TIP3   OH211813   6.284   5.121   3.531 -0.3712  0.3711  0.7357
 3936TIP3    H111814   6.243   5.038   3.556  0.1004  0.2550  1.1547
 3936TIP3    H211815   6.377   5.106   3.544 -0.3616  1.3812  2.1354
 3937TIP3   OH211816   4.323   0.227   5.061  0.1514 -0.5290 -0.5601
 3937TIP3    H111817   4.237   0.268   5.055  0.6247  0.6414  0.3618
 3937TIP3    H211818   4.307   0.144   5.106 -0.5405 -0.4697 -0.6901
 3938TIP3   OH211819   3.774   1.569   1.165 -0.2855  0.0843 -0.6292
 3938TIP3    H111820   3.823   1.585   1.084 -1.1790 -0.2177 -1.2450
 3938TIP3    H211821   3.836   1.521   1.221 -0.3687 -1.7858 -2.0194
 3939TIP3   OH211822   5.185   1.542   4.167 -0.2511 -0.0369  0.3925
 3939TIP3    H111823   5.119   1.551   4.235 -1.1225  1.8527 -0.6176
 3939TIP3    H211824   5.147   1.585   4.090  1.9335  0.6866 -0.3703
 3940TIP3   OH211825   4.928   0.109   3.132  0.1153  0.6295  0.1405
 3940TIP3    H111826   4.926   0.038   3.196 -1.5909  0.2075 -0.3381
 3940TIP3    H211827   4.974   0.072   3.056 -0.3010  0.2187  0.0911
 3941TIP3   OH211828   0.347   4.837   4.356 -0.3137  0.1205 -0.7189
 3941TIP3    H111829   0.324   4.898   4.426 -1.2995 -1.1747  0.1437
 3941TIP3    H211830   0.426   4.874   4.317 -0.3821  1.4699  0.3405
 3942TIP3   OH211831   5.165   1.265   1.812 -0.0322 -0.3945  0.3988
 3942TIP3    H111832   5.164   1.265   1.716  0.3474  0.1726  0.3941
 3942TIP3    H211833   5.224   1.336   1.836 -1.0682  0.2856  1.0591
 3943TIP3   OH211834   2.871   2.172   4.480  0.1640  0.0572 -0.5690
 3943TIP3    H111835   2.939   2.219   4.529 -0.0329 -0.6887  0.4549
 3943TIP3    H211836   2.918   2.103   4.434  0.1861 -0.0438 -0.3953
 3944TIP3   OH211837   1.130   5.032   2.900 -0.0728 -0.1329 -0.2873
 3944TIP3    H111838   1.197   4.964   2.895 -0.6188 -0.6076 -1.9059
 3944TIP3    H211839   1.178   5.114   2.890  0.4026 -0.3803 -0.0817
 3945TIP3   OH211840   1.879   2.554   2.270 -0.1450 -0.2736 -0.2126
 3945TIP3    H111841   1.927   2.538   2.189  1.5266 -0.0174  0.6990
 3945TIP3    H211842   1.896   2.478   2.324 -1.0762 -0.3426  0.0038
 3946TIP3   OH211843   5.623   1.987   0.415  0.0777 -0.0227 -0.4968
 3946TIP3    H111844   5.576   2.042   0.479 -1.7922 -1.1303 -0.8333
 3946TIP3    H211845   5.712   1.981   0.450 -1.0779 -1.3433  2.5921
 3947TIP3   OH211846   1.176   2.949   0.245  0.5278 -0.1792  0.6476
 3947TIP3    H111847   1.129   2.875   0.284 -0.5229  0.0949 -0.0659
 3947TIP3    H211848   1.230   2.909   0.176  0.5022 -0.3680  0.7356
 3948TIP3   OH211849   2.470   3.420   4.833  0.0757 -0.1777  0.5263
 3948TIP3    H111850   2.546   3.382   4.789 -1.5127 -1.7964 -1.0118
 3948TIP3    H211851   2.452   3.361   4.905  0.4769  0.4161  1.1230
 3949TIP3   OH211852   0.225   1.011   4.784  0.0870  0.1966  0.8735
 3949TIP3    H111853   0.210   0.964   4.866  1.9529  0.4561  1.4218
 3949TIP3    H211854   0.166   0.969   4.721  0.4804 -1.7885  1.7427
 3950TIP3   OH211855   1.668   4.055   1.868 -0.6304  0.0481 -0.2472
 3950TIP3    H111856   1.592   4.107   1.894 -0.2533  0.6290 -0.2886
 3950TIP3    H211857   1.728   4.118   1.829  0.5585 -0.1204  1.2178
 3951TIP3   OH211858   2.582   0.910   2.484  0.4488  0.6453  0.0045
 3951TIP3    H111859   2.648   0.939   2.421  0.4514  0.0597 -0.2694
 3951TIP3    H211860   2.516   0.865   2.431 -1.7853  3.8116 -0.1582
 3952TIP3   OH211861   0.743   4.365   1.567 -0.2016  0.0466  0.0107
 3952TIP3    H111862   0.675   4.312   1.526 -0.8151  0.8844 -0.0877
 3952TIP3    H211863   0.722   4.455   1.540 -0.0545  0.5019  1.3696
 3953TIP3   OH211864   0.765   2.506   3.260  0.0641 -0.1396 -0.1905
 3953TIP3    H111865   0.852   2.537   3.234  0.5190 -1.7071 -0.6292
 3953TIP3    H211866   0.705   2.556   3.205  0.8098 -0.5357 -1.3934
 3954TIP3   OH211867   5.690   1.433   2.002  0.8759 -0.4597  0.0949
 3954TIP3    H111868   5.746   1.367   1.961 -0.4898 -2.0554  0.6433
 3954TIP3    H211869   5.633   1.382   2.060 -1.0624  1.0606 -0.3557
 3955TIP3   OH211870   1.789   4.668   1.354  0.0280 -0.1253 -0.1137
 3955TIP3    H111871   1.702   4.692   1.385  0.6726  0.1330  1.6833
 3955TIP3    H211872   1.814   4.738   1.294 -2.0229 -1.5987 -2.8602
 3956TIP3   OH211873   2.693   1.009   4.712  0.0359 -0.1055 -0.0643
 3956TIP3    H111874   2.661   0.929   4.670  0.9552 -0.7968  0.5249
 3956TIP3    H211875   2.625   1.031   4.775 -0.4089 -0.1939 -0.5072
 3957TIP3   OH211876   0.129   2.969   1.857  0.0029 -0.0096 -0.3737
 3957TIP3    H111877   0.219   2.978   1.891  0.0625  1.5703 -0.8698
 3957TIP3    H211878   0.141   2.939   1.767  0.0582  0.5895 -0.5690
 3958TIP3   OH211879   2.125   2.717   2.832  0.7255  0.1620  0.1079
 3958TIP3    H111880   2.070   2.769   2.891 -0.3760  1.1322 -1.6560
 3958TIP3    H211881   2.086   2.629   2.834 -0.6608  0.7195 -0.7461
 3959TIP3   OH211882   0.684   1.499   2.446 -0.3160  0.2505  0.2647
 3959TIP3    H111883   0.672   1.579   2.497 -0.2105 -0.6640  1.7805
 3959TIP3    H211884   0.762   1.515   2.394 -0.6730  1.3774  0.0548
 3960TIP3   OH211885   4.376   5.856   4.046  0.2242 -0.3869 -0.0160
 3960TIP3    H111886   4.378   5.764   4.073 -0.8830 -0.6354 -0.7017
 3960TIP3    H211887   4.289   5.867   4.006  1.1660  0.3968 -1.9308
 3961TIP3   OH211888   3.102   4.939   2.247 -0.5880  0.0278 -0.6561
 3961TIP3    H111889   3.086   4.845   2.233 -0.7009 -0.2349  1.0503
 3961TIP3    H211890   3.025   4.969   2.296 -0.3758  0.9312 -0.8666
 3962TIP3   OH211891   4.105   4.322   2.419 -0.0750  0.1792 -0.4060
 3962TIP3    H111892   4.067   4.237   2.438  1.2993 -0.2157  0.8090
 3962TIP3    H211893   4.132   4.317   2.327  0.2885 -0.8187 -0.2516
 3963TIP3   OH211894   1.899   2.394   2.507  0.3152  0.4062  0.4439
 3963TIP3    H111895   1.845   2.412   2.585 -0.2707  2.9475 -0.4407
 3963TIP3    H211896   1.984   2.434   2.527  0.2354  0.8659 -0.1172
 3964TIP3   OH211897   6.021   0.304   1.213 -0.3942  0.2971  0.0243
 3964TIP3    H111898   6.026   0.398   1.195  1.1579 -0.0970 -1.9645
 3964TIP3    H211899   6.025   0.298   1.309  0.8520  2.2144  0.1450
 3965TIP3   OH211900   4.937   5.335   3.684  0.3118 -0.1283  0.3974
 3965TIP3    H111901   4.861   5.370   3.636  0.2958  0.6979  1.0067
 3965TIP3    H211902   5.007   5.398   3.667  0.3986 -0.0051  1.1691
 3966TIP3   OH211903   0.110   1.071   3.978  0.5165  0.3112 -0.1112
 3966TIP3    H111904   0.060   1.138   4.025 -0.2620 -0.7972  0.6926
 3966TIP3    H211905   0.162   1.029   4.046  0.3284 -0.4842 -0.4512
 3967TIP3   OH211906   3.949   2.599   0.245  1.1946 -0.0170  0.0825
 3967TIP3    H111907   3.972   2.567   0.157  0.3987 -3.0842  0.8688
 3967TIP3    H211908   3.853   2.598   0.247  1.1695  1.2302  0.6400
 3968TIP3   OH211909   5.639   4.486   1.167 -0.1580 -0.0614 -0.4428
 3968TIP3    H111910   5.703   4.424   1.133  0.5001  1.3370 -1.9485
 3968TIP3    H211911   5.591   4.515   1.089 -0.3234  1.4162  0.1732
 3969TIP3   OH211912   6.282   1.017   2.542 -0.2047 -0.5957 -0.2350
 3969TIP3    H111913   6.209   0.955   2.536 -0.7684  0.2103 -2.6450
 3969TIP3    H211914   6.241   1.103   2.533  0.8443  0.0012  0.5084
 3970TIP3   OH211915   0.789   5.109   3.488 -0.0490  0.1157 -0.3848
 3970TIP3    H111916   0.855   5.121   3.420  0.7835  0.5618  0.4760
 3970TIP3    H211917   0.713   5.074   3.442 -0.1369  2.0995 -1.8718
 3971TIP3   OH211918   5.200   0.887   4.951 -0.5343  1.2656 -0.3088
 3971TIP3    H111919   5.218   0.805   4.905 -1.3258  1.4944 -1.0681
 3971TIP3    H211920   5.109   0.908   4.928 -0.4178  2.2400  0.0457
 3972TIP3   OH211921   5.810   4.895   0.719  0.0393  0.1826 -0.2662
 3972TIP3    H111922   5.864   4.817   0.727 -1.3246 -0.8360 -0.6353
 3972TIP3    H211923   5.840   4.953   0.790  1.0471 -0.6761  0.0249
 3973TIP3   OH211924   4.811   3.309   3.759 -0.1108 -0.1680 -0.3651
 3973TIP3    H111925   4.737   3.325   3.701 -0.5371 -1.8604 -0.3566
 3973TIP3    H211926   4.863   3.243   3.713 -1.2802 -2.7418  1.7537
 3974TIP3   OH211927   3.369   2.412   3.389 -0.0680  0.4033  0.1408
 3974TIP3    H111928   3.331   2.339   3.439 -0.2471  0.9013  0.7439
 3974TIP3    H211929   3.298   2.440   3.332  0.2778 -0.4621 -0.7452
 3975TIP3   OH211930   5.479   5.577   4.469 -0.3205  0.0015 -0.6491
 3975TIP3    H111931   5.465   5.611   4.557  0.6434  0.5047 -0.6759
 3975TIP3    H211932   5.393   5.584   4.427 -0.8443 -0.4702  0.3099
 3976TIP3   OH211933   3.851   4.864   0.186  0.1423  0.1794  0.2091
 3976TIP3    H111934   3.907   4.793   0.156 -0.6732 -0.3882 -0.0071
 3976TIP3    H211935   3.817   4.835   0.270 -1.2194 -0.2918 -0.4699
 3977TIP3   OH211936   2.751   5.131   2.100  0.0136 -0.0004  0.1851
 3977TIP3    H111937   2.657   5.128   2.121 -0.4247  1.0222 -1.4871
 3977TIP3    H211938   2.764   5.215   2.057  1.2978 -0.9552 -1.4214
 3978TIP3   OH211939   3.992   0.771   1.298 -0.3539  0.1404  0.1363
 3978TIP3    H111940   3.985   0.690   1.248  2.3099 -1.0508  1.5011
 3978TIP3    H211941   3.958   0.749   1.384  4.0100 -1.0049  1.8445
 3979TIP3   OH211942   1.777   4.154   3.158 -0.3494 -0.5751  0.2791
 3979TIP3    H111943   1.851   4.111   3.115 -1.9524 -1.4462 -1.7344
 3979TIP3    H211944   1.804   4.245   3.167  1.0755 -0.9413 -0.1064
 3980TIP3   OH211945   0.101   3.862   1.889  0.3865 -0.3281 -0.0300
 3980TIP3    H111946   0.069   3.928   1.828 -0.6171  0.3259  1.1376
 3980TIP3    H211947   0.186   3.835   1.854 -0.5248 -0.6195 -2.1590
 3981TIP3   OH211948   3.490   1.948   5.034  0.1626 -0.1649 -0.6718
 3981TIP3    H111949   3.396   1.942   5.023  0.1297 -1.4128  0.0623
 3981TIP3    H211950   3.527   1.894   4.964  0.3214  0.1363 -0.8219
 3982TIP3   OH211951   0.037   0.630   4.975 -0.3632  0.4312 -0.1077
 3982TIP3    H111952   0.125   0.653   5.008 -0.4042 -0.3082  0.5391
 3982TIP3    H211953   0.001   0.714   4.946  0.5787  0.7404 -0.4434
 3983TIP3   OH211954   2.910   4.962   1.632  0.0004  0.0725 -0.1790
 3983TIP3    H111955   2.906   4.904   1.556 -1.1793 -0.0258 -0.0536
 3983TIP3    H211956   2.976   4.921   1.689 -1.6107 -1.8270  0.4232
 3984TIP3   OH211957   6.279   0.007   3.918 -0.4947 -0.4622 -0.5376
 3984TIP3    H111958   6.214  -0.020   3.853  1.0025 -1.0679 -1.8504
 3984TIP3    H211959   6.227   0.045   3.989 -2.2877 -1.1489 -1.4049
 3985TIP3   OH211960   3.731   0.085   1.876 -0.1838 -0.1461 -0.3859
 3985TIP3    H111961   3.664   0.116   1.937  0.2253 -0.7139  0.3691
 3985TIP3    H211962   3.681   0.047   1.803 -0.7332  2.7034 -1.6560
 3986TIP3   OH211963   1.985   2.425   2.039  0.2352 -0.0079 -0.1981
 3986TIP3    H111964   1.988   2.481   1.962 -0.6158 -0.1921 -0.3690
 3986TIP3    H211965   1.930   2.351   2.013  0.6509 -0.5019  0.3039
 3987TIP3   OH211966   2.225   2.458   4.888  0.7613 -0.1437 -0.7472
 3987TIP3    H111967   2.226   2.409   4.806 -0.1240  0.0770 -0.9005
 3987TIP3    H211968   2.159   2.414   4.942  0.5818  0.3490 -0.5557
 3988TIP3   OH211969   3.018   2.301   1.857  0.4470  0.4283 -0.3032
 3988TIP3    H111970   3.036   2.208   1.846  1.7537  0.6684 -0.3298
 3988TIP3    H211971   3.010   2.313   1.952  0.3934  0.3045 -0.2923
 3989TIP3   OH211972   4.475   3.854   3.047  0.0908  0.5927  0.5381
 3989TIP3    H111973   4.397   3.850   2.990  1.9001  0.5662 -2.1451
 3989TIP3    H211974   4.457   3.790   3.116 -1.3520 -1.1185 -1.2895
 3990TIP3   OH211975   1.881   0.704   1.251 -0.0186 -0.4933  0.4779
 3990TIP3    H111976   1.967   0.740   1.229 -0.2751 -0.3461 -0.3203
 3990TIP3    H211977   1.821   0.778   1.241 -0.4521 -0.9563 -0.4990
 3991TIP3   OH211978   5.753   0.621   0.955  0.0403 -1.0184  0.2847
 3991TIP3    H111979   5.660   0.607   0.976  0.3294 -2.2799  0.7586
 3991TIP3    H211980   5.794   0.536   0.969  1.7604  0.0959  2.6759
 3992TIP3   OH211981   2.732   1.626   2.744 -0.1902  0.6776  0.3486
 3992TIP3    H111982   2.787   1.594   2.672  0.1723 -0.5266  1.1353
 3992TIP3    H211983   2.643   1.604   2.717 -0.1161  0.8600 -0.0469
 3993TIP3   OH211984   2.704   5.099   1.729  0.4894  0.3010  0.7463
 3993TIP3    H111985   2.659   5.030   1.776  1.5160  1.0113  2.8778
 3993TIP3    H211986   2.784   5.058   1.697 -0.8424 -0.5625 -1.7644
 3994TIP3   OH211987   3.024   0.129   4.322  0.2695 -0.5935 -0.4641
 3994TIP3    H111988   3.082   0.075   4.268  2.7202  1.0470  0.3566
 3994TIP3    H211989   3.033   0.093   4.410  0.7110  0.1624 -0.1908
 3995TIP3   OH211990   0.497   5.697   3.785 -0.0804 -0.6585  0.7526
 3995TIP3    H111991   0.529   5.712   3.696  0.7471 -0.3058  1.1015
 3995TIP3    H211992   0.500   5.783   3.827  1.5666 -1.1475  1.7543
 3996TIP3   OH211993   0.747   4.532   0.316 -0.9880 -0.0009 -0.7952
 3996TIP3    H111994   0.657   4.520   0.285 -0.7239 -0.0232 -1.5841
 3996TIP3    H211995   0.795   4.564   0.239 -0.0529 -1.1739 -0.7458
 3997TIP3   OH211996   4.490   0.522   4.384  0.0417  0.0361 -0.0198
 3997TIP3    H111997   4.503   0.440   4.337 -0.6550 -0.7544  1.1212
 3997TIP3    H211998   4.504   0.590   4.318 -2.8162 -1.0368 -1.9409
 3998TIP3   OH211999   0.718   4.917   0.192  0.0850 -0.4797 -0.1628
 3998TIP3    H112000   0.807   4.898   0.220 -0.2425 -1.3012  0.3665
 3998TIP3    H212001   0.725   4.998   0.142  1.1480 -0.6246 -0.2632
 3999TIP3   OH212002   3.736   5.174   2.272 -0.1200 -0.0595 -0.1044
 3999TIP3    H112003   3.684   5.185   2.352  1.7781 -2.4813  1.6551
 3999TIP3    H212004   3.692   5.105   2.223  1.3565 -2.3265  1.5305
 4000TIP3   OH212005   0.864   4.157   0.922 -0.5269  0.1728 -0.3684
 4000TIP3    H112006   0.941   4.100   0.925 -0.2710  0.5171  1.9814
 4000TIP3    H212007   0.871   4.203   0.838  0.2456 -1.8771 -1.4905
 4001TIP3   OH212008   0.121   3.550   4.012  0.0862  0.3161 -0.1424
 4001TIP3    H112009   0.096   3.462   4.039  1.3800  0.0431  0.2412
 4001TIP3    H212010   0.214   3.542   3.989  0.3573  1.6900  0.4008
 4002TIP3   OH212011   3.152   1.560   0.491 -0.1974 -0.5267 -0.1708
 4002TIP3    H112012   3.179   1.542   0.401 -0.9958 -1.6772 -0.2015
 4002TIP3    H212013   3.234   1.568   0.540  0.2319 -0.6095 -0.8651
 4003TIP3   OH212014   5.852   5.562   1.965 -0.4837  0.2526  0.0265
 4003TIP3    H112015   5.855   5.515   2.048 -1.4342  1.4891  0.7999
 4003TIP3    H212016   5.918   5.631   1.974 -1.2747  1.0089  0.1729
 4004TIP3   OH212017   0.213   4.193   3.329 -0.6550  0.0399 -0.1371
 4004TIP3    H112018   0.219   4.156   3.417 -2.5692 -0.7406 -0.3049
 4004TIP3    H212019   0.276   4.143   3.278 -0.6009 -0.5235  0.4627
 4005TIP3   OH212020   5.360   0.833   3.278  0.4145 -0.1241  0.1440
 4005TIP3    H112021   5.311   0.856   3.199  0.7694  0.0733 -0.0225
 4005TIP3    H212022   5.293   0.819   3.345  0.1256  0.0125 -0.1141
 4006TIP3   OH212023   2.808   0.569   0.278 -0.0224  0.3817  0.3983
 4006TIP3    H112024   2.776   0.602   0.195 -0.9821 -2.1918 -0.3370
 4006TIP3    H212025   2.751   0.495   0.298  1.0457  0.0934  2.6805
 4007TIP3   OH212026   2.169   0.193   1.953  0.4116  0.6395  0.2889
 4007TIP3    H112027   2.096   0.204   1.892 -0.3338  1.8008  1.3702
 4007TIP3    H212028   2.210   0.279   1.958  1.4777  0.1641  0.2137
 4008TIP3   OH212029   3.985   3.062   0.437 -0.3741  0.0079  0.4631
 4008TIP3    H112030   4.011   3.004   0.508  1.9705 -0.2717 -0.5577
 4008TIP3    H212031   4.055   3.126   0.430  0.3346 -0.9258 -2.5942
 4009TIP3   OH212032   6.312   2.992   3.361 -0.5440 -0.1855 -0.0637
 4009TIP3    H112033   6.216   2.993   3.359 -0.5778  1.2530 -3.5081
 4009TIP3    H212034   6.337   2.922   3.300  0.6249 -0.0418  0.2264
 4010TIP3   OH212035   3.196   2.660   1.006  0.4410  0.2088  0.2691
 4010TIP3    H112036   3.231   2.622   1.086  1.2093  0.2007 -0.0703
 4010TIP3    H212037   3.122   2.713   1.036 -1.8886 -2.9260  0.5885
 4011TIP3   OH212038   2.732   2.606   4.775  0.0406 -0.2494  0.0404
 4011TIP3    H112039   2.672   2.542   4.737  0.4390 -1.3826  1.2075
 4011TIP3    H212040   2.782   2.639   4.701 -0.2504 -1.2375 -0.6243
 4012TIP3   OH212041   5.699   0.698   2.233 -0.0832 -0.1693 -0.2536
 4012TIP3    H112042   5.678   0.605   2.240  0.9244 -0.2829  2.0382
 4012TIP3    H212043   5.674   0.735   2.318  2.3236  1.0290  0.0048
 4013TIP3   OH212044   0.391   2.305   0.618  0.3527 -0.2090  0.0240
 4013TIP3    H112045   0.329   2.375   0.599  0.5627  0.0711  0.3562
 4013TIP3    H212046   0.477   2.342   0.598  0.5629  0.0206  1.2767
 4014TIP3   OH212047   4.176   5.561   3.402 -0.4936 -0.0325  0.6398
 4014TIP3    H112048   4.247   5.553   3.466 -1.3040 -0.9405  1.4603
 4014TIP3    H212049   4.097   5.539   3.452 -1.4121  1.4071 -0.1376
 4015TIP3   OH212050   3.716   2.158   5.009  0.2894  0.0112 -0.4456
 4015TIP3    H112051   3.626   2.126   5.009  0.2800 -0.0923 -2.4798
 4015TIP3    H212052   3.766   2.089   4.967  1.4194 -0.0885  0.9788
 4016TIP3   OH212053   1.131   3.369   0.157  0.2200 -0.4352 -0.0457
 4016TIP3    H112054   1.166   3.393   0.071 -0.1907  0.2979 -0.0234
 4016TIP3    H212055   1.195   3.308   0.193 -0.5180 -2.2160 -1.6289
 4017TIP3   OH212056   0.216   2.231   4.170  0.3329 -0.1409  0.1259
 4017TIP3    H112057   0.166   2.149   4.174  0.6333 -0.3474 -0.2373
 4017TIP3    H212058   0.186   2.272   4.088  0.5195 -0.1118  0.0721
 4018TIP3   OH212059   3.077   2.362   5.156 -0.0680  0.6522 -0.0890
 4018TIP3    H112060   3.117   2.418   5.222 -1.0575  0.1347  0.9906
 4018TIP3    H212061   2.986   2.393   5.151 -0.5511 -0.6530  0.3165
 4019TIP3   OH212062   3.922   4.604   3.303 -0.3983 -0.1700 -0.6463
 4019TIP3    H112063   4.008   4.570   3.327  0.0008  1.3377  0.2111
 4019TIP3    H212064   3.920   4.692   3.341 -1.7677  0.3671 -1.8630
 4020TIP3   OH212065   3.592   0.946   2.767 -0.5016  0.0716  0.4738
 4020TIP3    H112066   3.625   1.025   2.725  0.1470 -0.3470  0.1637
 4020TIP3    H212067   3.533   0.907   2.703 -1.1852  0.5395  0.8116
 4021TIP3   OH212068   4.284   1.637   3.695 -0.1561  0.3402 -0.4312
 4021TIP3    H112069   4.262   1.581   3.769  0.6303 -1.9457 -1.8485
 4021TIP3    H212070   4.206   1.636   3.639  0.1642 -0.0819 -0.8821
 4022TIP3   OH212071   6.257   1.739   2.343  0.0244  0.1667  0.6088
 4022TIP3    H112072   6.337   1.752   2.292 -0.3807  2.6375  0.4347
 4022TIP3    H212073   6.218   1.660   2.307  2.0824 -0.7804  0.3257
 4023TIP3   OH212074   2.408   1.936   3.333  0.4933 -0.0362  0.1822
 4023TIP3    H112075   2.491   1.941   3.380  0.9032 -0.1069 -0.5093
 4023TIP3    H212076   2.341   1.948   3.400  1.0745  0.4465  0.6878
 4024TIP3   OH212077   5.682   1.712   3.658 -0.2665 -0.6299  0.1397
 4024TIP3    H112078   5.596   1.686   3.693  0.1575 -0.2512  1.5379
 4024TIP3    H212079   5.662   1.761   3.578 -1.5752  2.0394  1.9672
 4025TIP3   OH212080   0.737   1.071   1.377  0.0675  0.6157  0.8173
 4025TIP3    H112081   0.779   1.025   1.449 -0.1260  1.4996  1.5224
 4025TIP3    H212082   0.690   1.003   1.329  2.2403 -0.3973 -0.0010
 4026TIP3   OH212083   2.810   2.845   1.848  0.5415 -0.3743  0.4106
 4026TIP3    H112084   2.782   2.919   1.794 -1.2273 -1.4799 -0.2428
 4026TIP3    H212085   2.846   2.886   1.927  2.0875  1.2420 -1.0379
 4027TIP3   OH212086   0.349   4.030   2.045  0.3524 -0.2128 -0.1717
 4027TIP3    H112087   0.280   4.093   2.027  1.3464  0.6414 -1.2067
 4027TIP3    H212088   0.305   3.955   2.084 -0.9429  0.8599  0.4697
 4028TIP3   OH212089   1.640   1.380   4.474 -0.6448 -0.7745 -0.7399
 4028TIP3    H112090   1.619   1.468   4.507  1.3556 -0.7310  0.5541
 4028TIP3    H212091   1.555   1.336   4.469 -1.6717  1.1541 -1.2327
 4029TIP3   OH212092   0.676   1.694   3.061  0.2701 -0.1733 -0.4676
 4029TIP3    H112093   0.753   1.638   3.053 -0.6421 -1.3994 -0.9087
 4029TIP3    H212094   0.633   1.664   3.141  1.1332  1.6727  0.7562
 4030TIP3   OH212095   1.135   0.536   3.120 -0.5477  0.5806  0.5333
 4030TIP3    H112096   1.057   0.522   3.066 -0.1775 -0.0630  0.1575
 4030TIP3    H212097   1.199   0.573   3.060  0.5292 -1.9527 -0.0230
 4031TIP3   OH212098   1.987   2.328   0.477 -0.3598 -0.4718  0.1579
 4031TIP3    H112099   2.020   2.315   0.566 -0.4989 -1.5537  0.0579
 4031TIP3    H212100   2.065   2.329   0.422 -0.3253 -0.4924  0.2065
 4032TIP3   OH212101   3.799   2.508   1.781  0.1076  0.1859  0.7817
 4032TIP3    H112102   3.709   2.535   1.802 -0.1857 -0.0310 -0.1770
 4032TIP3    H212103   3.846   2.590   1.769 -0.2114  0.3015  0.2764
 4033TIP3   OH212104   5.155   0.405   1.231  0.9002  0.1009 -0.3780
 4033TIP3    H112105   5.230   0.352   1.257 -0.3170 -1.9082 -0.7702
 4033TIP3    H212106   5.079   0.353   1.256 -0.3766  1.6692 -0.8236
 4034TIP3   OH212107   1.811   4.917   5.049 -0.2116 -0.5406 -0.7136
 4034TIP3    H112108   1.852   4.845   5.001 -1.2946 -1.1685 -0.7364
 4034TIP3    H212109   1.853   4.996   5.015  0.3767 -1.1107 -1.3244
 4035TIP3   OH212110   0.270   1.816   0.440  0.1501 -0.0184 -0.3528
 4035TIP3    H112111   0.337   1.880   0.463 -0.9870  1.4243 -0.8800
 4035TIP3    H212112   0.241   1.781   0.523 -0.9150  1.9896  0.1967
 4036TIP3   OH212113   1.254   2.605   2.310  0.1130  0.1646  0.2971
 4036TIP3    H112114   1.273   2.511   2.312 -0.2730  0.0940  1.0943
 4036TIP3    H212115   1.308   2.639   2.239 -0.5085 -0.8309 -0.6895
 4037TIP3   OH212116   0.178   4.673   2.052  0.5934 -0.0226  0.4183
 4037TIP3    H112117   0.217   4.759   2.065  1.1124 -0.3061  0.7344
 4037TIP3    H212118   0.175   4.663   1.956 -1.1521  1.1026  0.3139
 4038TIP3   OH212119   0.123   0.726   4.053 -0.3224  0.0680  0.3221
 4038TIP3    H112120   0.178   0.780   4.109 -0.3118  0.7641 -0.3305
 4038TIP3    H212121   0.139   0.636   4.081 -0.2279  0.3962  1.3335
 4039TIP3   OH212122   2.987   0.431   2.889 -0.3919  0.3380 -0.4901
 4039TIP3    H112123   2.990   0.341   2.922 -1.0954  0.9804  1.4955
 4039TIP3    H212124   2.917   0.430   2.823 -2.3889 -0.0660  1.4867
 4040TIP3   OH212125   5.643   2.347   4.863 -0.3579 -0.4265  0.4300
 4040TIP3    H112126   5.702   2.422   4.855  0.7001 -0.8407  3.1293
 4040TIP3    H212127   5.556   2.386   4.874 -0.2050  0.2843 -0.7534
 4041TIP3   OH212128   5.808   0.419   2.548  0.1271 -0.3652 -0.5455
 4041TIP3    H112129   5.809   0.407   2.453  1.1257 -1.6742 -0.3987
 4041TIP3    H212130   5.722   0.456   2.567  0.2792  0.8654 -2.0521
 4042TIP3   OH212131   0.573   5.678   0.942  0.1446  0.0962  0.2411
 4042TIP3    H112132   0.571   5.596   0.895  2.3384 -0.5352  1.1207
 4042TIP3    H212133   0.570   5.653   1.035  2.4490  0.8314  0.5783
 4043TIP3   OH212134   2.747   3.222   2.263  0.5095  0.2462 -0.0901
 4043TIP3    H112135   2.710   3.162   2.198  0.9781  1.0039 -1.0832
 4043TIP3    H212136   2.671   3.270   2.298  0.2032 -0.4939  0.2874
 4044TIP3   OH212137   3.784   2.628   3.610  0.0571 -0.3996  0.5858
 4044TIP3    H112138   3.839   2.705   3.621 -0.6684  0.3732 -0.8754
 4044TIP3    H212139   3.811   2.590   3.526 -1.1810 -0.3759  0.1595
 4045TIP3   OH212140   1.397   3.782   3.061 -0.8181 -0.3200 -0.6378
 4045TIP3    H112141   1.470   3.837   3.034  0.1041  0.2384  2.5860
 4045TIP3    H212142   1.418   3.695   3.026 -0.4888  0.5567 -2.7572
 4046TIP3   OH212143   5.714   0.592   0.340 -0.1328  0.4387 -0.3577
 4046TIP3    H112144   5.686   0.628   0.256 -0.8362  1.5313  0.3251
 4046TIP3    H212145   5.680   0.502   0.340 -0.3678  0.5235 -1.1215
 4047TIP3   OH212146   0.816   0.038   1.874 -0.0167  0.0095  0.1386
 4047TIP3    H112147   0.885   0.091   1.915 -1.2446  1.0228  0.9678
 4047TIP3    H212148   0.863  -0.016   1.809  1.7272 -0.3031  1.5673
 4048TIP3   OH212149   0.972   0.142   4.919 -0.5429 -0.2627  0.1433
 4048TIP3    H112150   1.008   0.062   4.879  0.5131  0.6009 -0.6669
 4048TIP3    H212151   0.896   0.163   4.864  0.3352  0.3735 -0.8596
 4049TIP3   OH212152   1.804   1.360   0.909 -0.0131 -0.4943  0.2548
 4049TIP3    H112153   1.802   1.419   0.834 -0.0353  0.1336  0.7421
 4049TIP3    H212154   1.743   1.290   0.887  1.9395 -1.7731 -1.4845
 4050TIP3   OH212155   0.161   4.797   4.133 -0.7219  0.0627  0.0394
 4050TIP3    H112156   0.181   4.843   4.052  1.7718 -0.3982  0.3015
 4050TIP3    H212157   0.216   4.839   4.199 -2.7084  0.4467  1.5537
 4051TIP3   OH212158   1.054   4.920   1.706 -0.4997 -0.0385  0.0936
 4051TIP3    H112159   1.119   4.954   1.646 -0.5264 -0.7996 -0.3794
 4051TIP3    H212160   1.035   4.831   1.674  1.2319 -1.4167  2.5645
 4052TIP3   OH212161   3.335   0.309   0.124 -0.1841  0.2700  0.1153
 4052TIP3    H112162   3.415   0.328   0.076 -0.8520 -1.3693 -1.7731
 4052TIP3    H212163   3.265   0.319   0.059 -1.4058  0.4812  1.4074
 4053TIP3   OH212164   1.244   4.232   0.453 -0.4569  0.0556 -0.1541
 4053TIP3    H112165   1.288   4.284   0.520 -1.1846 -0.0309  0.3986
 4053TIP3    H212166   1.311   4.170   0.423 -0.3949 -0.5559  1.1748
 4054TIP3   OH212167   3.260   3.611   2.732 -0.0405  0.2916  0.1175
 4054TIP3    H112168   3.207   3.561   2.670 -0.3057  0.9842 -0.2230
 4054TIP3    H212169   3.348   3.575   2.724 -0.0699  0.3882 -0.6751
 4055TIP3   OH212170   6.192   4.798   0.877  0.7170  0.4712  0.0284
 4055TIP3    H112171   6.124   4.751   0.830  0.0619  1.1577  0.2792
 4055TIP3    H212172   6.241   4.730   0.922 -0.3165  0.0304  0.5113
 4056TIP3   OH212173   2.048   1.612   2.181 -0.5497  0.1589  0.0992
 4056TIP3    H112174   2.128   1.572   2.148  0.3562  0.8403  1.3866
 4056TIP3    H212175   2.027   1.681   2.117 -0.1047 -0.0142 -0.2334
 4057TIP3   OH212176   5.484   2.642   3.017  0.5185  0.1692 -0.0722
 4057TIP3    H112177   5.400   2.682   2.994  1.3163  1.3370 -1.0617
 4057TIP3    H212178   5.467   2.548   3.018 -0.4820  0.3008 -1.6660
 4058TIP3   OH212179   2.046   3.221   2.119 -0.3950 -0.1667  0.4696
 4058TIP3    H112180   2.100   3.153   2.161  0.8683  1.4106  1.5177
 4058TIP3    H212181   2.073   3.302   2.162 -0.3375  1.3108 -2.1852
 4059TIP3   OH212182   3.009   5.942   3.948  0.3380 -0.1464 -0.0017
 4059TIP3    H112183   2.949   6.003   3.905 -0.1550 -0.0154  0.8476
 4059TIP3    H212184   3.016   5.975   4.037  1.3712 -0.3915  0.0194
 4060TIP3   OH212185   3.168   2.933   4.897  0.4080  0.4837 -0.1247
 4060TIP3    H112186   3.156   2.994   4.824  0.0663  0.6665  0.0827
 4060TIP3    H212187   3.248   2.885   4.876  2.1598  2.7541  0.9279
 4061TIP3   OH212188   5.540   4.908   0.139  0.2667 -0.4033 -0.1997
 4061TIP3    H112189   5.547   4.924   0.045  1.2764 -0.9374 -0.2319
 4061TIP3    H212190   5.464   4.959   0.167 -0.7783 -1.2076 -1.5112
 4062TIP3   OH212191   1.298   1.361   3.647 -0.1141 -0.3886  0.2779
 4062TIP3    H112192   1.363   1.330   3.711  0.5402  0.3318 -0.0247
 4062TIP3    H212193   1.327   1.449   3.625  0.0307 -0.8533 -1.4881
 4063TIP3   OH212194   1.298   5.306   4.001  0.5149  0.5155  0.6684
 4063TIP3    H112195   1.353   5.301   4.080 -0.0461  1.1519  1.1117
 4063TIP3    H212196   1.241   5.381   4.017 -2.1139 -1.4596  1.2764
 4064TIP3   OH212197   2.418   0.490   0.411 -0.4069 -0.6560  0.7572
 4064TIP3    H112198   2.482   0.484   0.341 -1.6108 -1.0493 -0.3643
 4064TIP3    H212199   2.451   0.432   0.479  1.9951  1.5008  1.5879
 4065TIP3   OH212200   4.647   5.814   4.769 -0.1492 -0.2701  0.3956
 4065TIP3    H112201   4.666   5.840   4.859 -1.8117 -0.5066  0.8309
 4065TIP3    H212202   4.552   5.820   4.760 -0.0562 -0.5629 -1.2544
 4066TIP3   OH212203   5.121   4.721   0.488 -0.2182  0.4071 -0.7049
 4066TIP3    H112204   5.212   4.693   0.496  0.2354  1.4834 -1.9214
 4066TIP3    H212205   5.096   4.698   0.399 -1.1298  0.2078 -0.4172
 4067TIP3   OH212206   6.091   2.723   4.398  0.1044 -0.3371  0.2238
 4067TIP3    H112207   6.174   2.721   4.351  0.1389  1.4180  0.1372
 4067TIP3    H212208   6.049   2.804   4.370 -1.8318 -1.3482 -0.0263
 4068TIP3   OH212209   2.967   2.381   2.113  0.3427 -0.5974  0.0104
 4068TIP3    H112210   2.930   2.464   2.142  0.2169 -1.1869  1.6578
 4068TIP3    H212211   2.967   2.326   2.192  2.7896 -1.3125 -0.3832
 4069TIP3   OH212212   5.378   4.804   0.613  0.6108 -0.4961  0.4070
 4069TIP3    H112213   5.408   4.895   0.622  0.6076 -0.3408 -0.9473
 4069TIP3    H212214   5.294   4.802   0.659  1.2225 -0.1525  1.5661
 4070TIP3   OH212215   5.673   3.542   1.589  0.2055 -0.0326  0.0235
 4070TIP3    H112216   5.592   3.508   1.553  0.5849 -1.1875  0.2141
 4070TIP3    H212217   5.742   3.489   1.549  0.8149  0.4477  0.4073
 4071TIP3   OH212218   3.982   3.743   2.052  0.3247  0.5174 -0.2386
 4071TIP3    H112219   3.930   3.663   2.059  0.2678  0.5187 -0.6426
 4071TIP3    H212220   3.998   3.768   2.143  0.3233  0.0630 -0.1087
 4072TIP3   OH212221   1.047   1.971   4.798 -0.2450  0.3576  0.0803
 4072TIP3    H112222   0.953   1.954   4.809 -0.2120 -0.5056 -0.7720
 4072TIP3    H212223   1.052   2.065   4.782 -1.0183  0.3439 -0.3257
 4073TIP3   OH212224   3.334   5.752   2.743  0.1282  0.0821  0.4938
 4073TIP3    H112225   3.296   5.733   2.658 -1.2880 -1.3429  1.3859
 4073TIP3    H212226   3.341   5.847   2.747 -1.1775  0.2412 -0.6307
 4074TIP3   OH212227   6.345   2.014   4.676  0.0276 -0.4674 -0.4639
 4074TIP3    H112228   6.322   2.106   4.665  1.2576 -0.0130  0.4636
 4074TIP3    H212229   6.307   1.969   4.600  2.1112  1.3035 -2.7361
 4075TIP3   OH212230   0.834   0.328   4.219 -0.1537 -0.0011 -0.4461
 4075TIP3    H112231   0.774   0.254   4.216  1.3026 -1.3760  1.7888
 4075TIP3    H212232   0.920   0.290   4.199  0.3405  1.5204 -1.4194
 4076TIP3   OH212233   5.862   2.481   3.084 -0.5900 -0.3416  0.3047
 4076TIP3    H112234   5.784   2.447   3.129 -1.6523 -0.1453 -1.3154
 4076TIP3    H212235   5.890   2.410   3.027  0.9012 -0.6790  1.3964
 4077TIP3   OH212236   0.909   3.093   1.059  0.2063 -0.3183  0.3533
 4077TIP3    H112237   0.936   3.026   1.122  2.5239 -0.7808 -0.9982
 4077TIP3    H212238   0.991   3.125   1.023 -0.9176  2.2888 -0.0743
 4078TIP3   OH212239   4.195   4.137   1.116 -0.5058  0.4954  0.1851
 4078TIP3    H112240   4.144   4.116   1.195 -0.0018 -1.4616  0.0506
 4078TIP3    H212241   4.267   4.074   1.117  0.9189  2.0403 -0.5763
 4079TIP3   OH212242   5.520   2.578   4.599 -0.6462  0.0372  0.4664
 4079TIP3    H112243   5.599   2.545   4.555 -0.3566 -1.5810  2.0719
 4079TIP3    H212244   5.553   2.648   4.656 -0.6430  0.5128 -0.1170
 4080TIP3   OH212245   4.611   2.040   1.938  0.3540 -0.2008 -0.1188
 4080TIP3    H112246   4.573   1.953   1.931  1.4040 -0.7217  0.4726
 4080TIP3    H212247   4.568   2.091   1.869 -0.4405 -1.1132 -0.3100
 4081TIP3   OH212248   3.887   5.171   5.170 -0.3912 -0.3694 -0.4538
 4081TIP3    H112249   3.962   5.210   5.215 -1.6403  0.1204  1.3449
 4081TIP3    H212250   3.925   5.106   5.111  1.6575  2.4099 -2.3948
 4082TIP3   OH212251   0.052   5.668   1.826  0.4137 -0.8898  0.0389
 4082TIP3    H112252   0.094   5.754   1.823  2.5616 -1.9047 -1.7966
 4082TIP3    H212253   0.076   5.632   1.911  2.4642 -0.9945 -0.5381
 4083TIP3   OH212254   6.281   0.243   1.184 -0.2298 -0.3164  0.3314
 4083TIP3    H112255   6.191   0.273   1.193 -0.6859 -1.2209 -0.9987
 4083TIP3    H212256   6.304   0.264   1.093  1.3632  1.1020  1.0045
 4084TIP3   OH212257   4.508   2.022   5.052 -0.5198  0.5947 -0.1548
 4084TIP3    H112258   4.456   2.060   4.981  0.2813 -1.2852 -1.8594
 4084TIP3    H212259   4.518   1.930   5.027  5.0248  1.0651 -0.9796
 4085TIP3   OH212260   6.296   1.443   1.926 -0.0341  0.4921  0.7404
 4085TIP3    H112261   6.356   1.412   1.858  2.2792  2.5096  1.7170
 4085TIP3    H212262   6.223   1.380   1.925 -0.0054  0.2981 -3.3645
 4086TIP3   OH212263   2.599   3.298   4.185 -0.3216  0.0453 -0.2524
 4086TIP3    H112264   2.618   3.392   4.185  0.8740 -0.1278 -2.7424
 4086TIP3    H212265   2.639   3.265   4.265  0.6668  1.4050 -0.1548
 4087TIP3   OH212266   2.393   0.341   1.814  0.5500 -0.7013  0.3808
 4087TIP3    H112267   2.362   0.362   1.725  0.1717 -1.5259  0.3115
 4087TIP3    H212268   2.407   0.246   1.813 -0.3603 -0.8700  1.4752
 4088TIP3   OH212269   4.506   0.338   0.464  0.4037 -0.0988  0.0953
 4088TIP3    H112270   4.488   0.283   0.388  2.3147 -0.4453 -0.1600
 4088TIP3    H212271   4.582   0.389   0.439 -0.1304  1.2312  1.0779
 4089TIP3   OH212272   2.654   1.324   0.841 -0.2330  0.5585  0.3962
 4089TIP3    H112273   2.699   1.336   0.925  0.8343  1.8148 -0.3029
 4089TIP3    H212274   2.712   1.366   0.778 -0.7650 -0.7950 -1.0578
 4090TIP3   OH212275   3.127   2.655   1.848 -0.4313  0.4009  0.3587
 4090TIP3    H112276   3.201   2.711   1.824 -0.6085  0.9565  1.0362
 4090TIP3    H212277   3.112   2.675   1.941  0.6306 -2.0893  1.1486
 4091TIP3   OH212278   1.198   0.409   1.926  0.0296 -0.0943  0.0457
 4091TIP3    H112279   1.265   0.477   1.922  0.1123 -0.2320 -1.7280
 4091TIP3    H212280   1.234   0.343   1.985  0.4539  0.8480  0.8695
 4092TIP3   OH212281   2.007   1.790   3.880  0.0862  0.2522 -0.3870
 4092TIP3    H112282   2.057   1.803   3.961  0.3984 -1.1977 -0.3186
 4092TIP3    H212283   2.066   1.739   3.824 -0.3076  0.8404 -1.3507
 4093TIP3   OH212284   1.879   1.428   1.376 -0.9247  0.5463 -0.2730
 4093TIP3    H112285   1.893   1.363   1.445 -0.8186 -1.5110 -2.1197
 4093TIP3    H212286   1.785   1.424   1.358 -0.7671  0.1900 -1.0459
 4094TIP3   OH212287   4.868   0.235   0.400 -0.4415 -0.4841  0.1220
 4094TIP3    H112288   4.876   0.303   0.467 -1.6646 -1.2971  1.1557
 4094TIP3    H212289   4.942   0.176   0.416  0.2428  0.2332 -0.3548
 4095TIP3   OH212290   2.087   1.579   3.160  0.3113  0.1710 -0.2883
 4095TIP3    H112291   2.040   1.593   3.241 -0.5850  0.0391 -0.7750
 4095TIP3    H212292   2.097   1.666   3.122 -1.0005  0.0494 -0.9704
 4096TIP3   OH212293   5.549   3.734   4.572  0.1119 -0.0927  0.2017
 4096TIP3    H112294   5.480   3.708   4.511  1.1653 -1.9880 -0.2521
 4096TIP3    H212295   5.549   3.830   4.568 -3.4365  0.0970  1.3403
 4097TIP3   OH212296   0.577   5.546   1.644  0.7991 -0.5982  0.0482
 4097TIP3    H112297   0.504   5.520   1.588  1.0265  1.5168 -1.3354
 4097TIP3    H212298   0.538   5.559   1.730 -0.0680 -1.3522 -0.2181
 4098TIP3   OH212299   2.496   3.826   1.863 -0.5836 -0.4758  1.2889
 4098TIP3    H112300   2.420   3.877   1.891  1.0765  3.0019 -0.0290
 4098TIP3    H212301   2.468   3.786   1.781 -1.3605 -0.1921  1.4027
 4099TIP3   OH212302   1.080   1.346   1.808 -0.0206  0.1255  0.8462
 4099TIP3    H112303   1.169   1.362   1.778  0.1627  1.3052  1.9470
 4099TIP3    H212304   1.027   1.415   1.767 -0.0962  0.5544  1.6396
 4100TIP3   OH212305   4.409   3.416   0.373 -0.1437 -0.0859 -0.5095
 4100TIP3    H112306   4.488   3.414   0.319  0.4213  2.0530  0.1235
 4100TIP3    H212307   4.361   3.493   0.343 -1.9513 -1.2399 -0.7483
 4101TIP3   OH212308   4.602   1.917   4.488 -0.2750  0.1760 -0.0077
 4101TIP3    H112309   4.677   1.976   4.489 -1.2294  1.4410  0.5475
 4101TIP3    H212310   4.527   1.974   4.468 -0.9771 -1.2095 -1.5962
 4102TIP3   OH212311   1.644   2.444   1.917 -0.0117  0.4267 -0.7797
 4102TIP3    H112312   1.711   2.378   1.899  0.0078 -0.3205  1.7044
 4102TIP3    H212313   1.619   2.477   1.830  1.4882 -1.3257 -1.9503
 4103TIP3   OH212314   5.879   5.824   4.196  0.2045  0.2191 -0.3007
 4103TIP3    H112315   5.784   5.820   4.207  0.0734  0.4943 -1.2416
 4103TIP3    H212316   5.906   5.732   4.196  0.2540  0.1694  2.2666
 4104TIP3   OH212317   3.769   3.590   1.152 -0.1452 -0.2147 -0.3352
 4104TIP3    H112318   3.727   3.635   1.079 -1.1064 -0.4462  0.0666
 4104TIP3    H212319   3.742   3.639   1.230 -0.1149 -0.6900 -0.0174
 4105TIP3   OH212320   3.427   1.936   2.770  0.1083 -0.3080  0.7696
 4105TIP3    H112321   3.347   1.928   2.718 -0.8079 -0.9119  2.2071
 4105TIP3    H212322   3.412   2.013   2.826  0.4310 -0.5680  1.2200
 4106TIP3   OH212323   5.080   4.718   2.704 -0.2778 -0.2644  0.5739
 4106TIP3    H112324   5.130   4.640   2.729  0.2541  0.2291  1.0823
 4106TIP3    H212325   5.110   4.738   2.615  0.1737 -0.1851  0.7388
 4107TIP3   OH212326   3.903   5.085   4.034  0.0572 -0.1549 -0.4178
 4107TIP3    H112327   3.944   5.170   4.050 -1.1588  0.5450 -0.8739
 4107TIP3    H212328   3.970   5.033   3.989  0.4868  0.8921 -1.0130
 4108TIP3   OH212329   4.880   2.481   1.694  0.0709  0.1020 -0.0167
 4108TIP3    H112330   4.793   2.486   1.734  0.7373  1.7414  1.3380
 4108TIP3    H212331   4.874   2.408   1.632 -2.1823  0.0353  0.2159
 4109TIP3   OH212332   5.701   0.552   0.599 -0.2361  0.0191 -0.0238
 4109TIP3    H112333   5.709   0.595   0.514 -0.3033  1.6610  0.7633
 4109TIP3    H212334   5.641   0.608   0.648  0.1971 -0.6302  1.2785
 4110TIP3   OH212335   5.444   5.385   3.811 -0.4878  0.5590  0.3095
 4110TIP3    H112336   5.482   5.462   3.768  0.6707 -0.5650 -0.7607
 4110TIP3    H212337   5.508   5.315   3.797 -2.5044 -1.2034 -0.7665
 4111TIP3   OH212338   0.157   1.630   1.593  0.7653 -0.2462  0.6235
 4111TIP3    H112339   0.097   1.704   1.598  0.1363 -0.7477  0.5860
 4111TIP3    H212340   0.238   1.667   1.558 -0.2392  0.0185 -1.5902
 4112TIP3   OH212341   2.091   2.401   1.154  0.3186  0.2304 -0.8623
 4112TIP3    H112342   2.081   2.494   1.133  1.7995  0.7426  0.5354
 4112TIP3    H212343   2.185   2.386   1.153  0.4673 -0.1346  3.1305
 4113TIP3   OH212344   5.089   3.300   0.227 -0.3141  0.3477  0.0143
 4113TIP3    H112345   5.053   3.335   0.308 -3.2426 -1.1214 -0.5137
 4113TIP3    H212346   5.039   3.342   0.157  2.3023  1.7632 -1.1410
 4114TIP3   OH212347   0.484   5.247   2.802 -0.1583  0.2910  0.5524
 4114TIP3    H112348   0.488   5.207   2.715  0.9371  1.4588  0.0244
 4114TIP3    H212349   0.574   5.244   2.834 -0.5176  0.0585  1.5610
 4115TIP3   OH212350   6.081   4.822   1.778  0.0427 -0.8026 -0.6584
 4115TIP3    H112351   5.997   4.818   1.732 -0.1002 -2.5752 -0.3391
 4115TIP3    H212352   6.118   4.907   1.755 -1.1289 -0.6449 -2.0803
 4116TIP3   OH212353   6.121   0.397   2.433  0.0055 -0.4048  0.1274
 4116TIP3    H112354   6.027   0.399   2.449 -0.0454 -2.1688  0.1351
 4116TIP3    H212355   6.160   0.365   2.514  0.6895  0.8730  0.3336
 4117TIP3   OH212356   4.543   2.573   3.101 -0.4390  0.0046  0.7078
 4117TIP3    H112357   4.595   2.617   3.168  0.0393  0.2672  0.1743
 4117TIP3    H212358   4.536   2.482   3.131  0.1838  0.0089  0.8691
 4118TIP3   OH212359   6.064   5.084   4.316  0.2339 -0.8687 -0.3270
 4118TIP3    H112360   6.054   5.179   4.321  0.8581 -0.7780 -0.6482
 4118TIP3    H212361   6.093   5.068   4.226  1.1412 -1.2652  0.0249
 4119TIP3   OH212362   0.696   3.729   2.449 -0.1881  0.3022  0.2836
 4119TIP3    H112363   0.766   3.672   2.418 -1.2799 -0.3487 -1.0807
 4119TIP3    H212364   0.706   3.810   2.399 -1.1873 -0.2917 -0.9543
 4120TIP3   OH212365   2.346   2.182   0.073 -0.0598  0.2778  0.8559
 4120TIP3    H112366   2.344   2.166  -0.022  0.8163 -0.6145  0.9775
 4120TIP3    H212367   2.419   2.243   0.084  0.2005 -0.0612  1.0151
 4121TIP3   OH212368   2.968   1.346   1.345 -0.5655  0.1837  0.2376
 4121TIP3    H112369   2.996   1.355   1.436  2.2813  1.0680 -0.6206
 4121TIP3    H212370   3.032   1.288   1.305 -2.3625 -1.0591 -1.0293
 4122TIP3   OH212371   0.639   3.601   3.294  0.5175 -0.1744 -0.2013
 4122TIP3    H112372   0.635   3.527   3.234  0.3219  0.5111 -1.0513
 4122TIP3    H212373   0.661   3.676   3.239 -0.9083  0.7077  0.3625
 4123TIP3   OH212374   3.755   4.170   0.432 -0.5914 -0.1996 -0.0483
 4123TIP3    H112375   3.808   4.091   0.440 -1.1094 -0.9306 -2.8380
 4123TIP3    H212376   3.731   4.191   0.522  0.5122 -2.5598  0.8937
 4124TIP3   OH212377   0.470   3.460   0.462 -0.4988  0.0543 -0.1183
 4124TIP3    H112378   0.440   3.498   0.380  0.8376  0.7162 -0.3144
 4124TIP3    H212379   0.404   3.393   0.483 -0.1023 -1.1827 -2.4897
 4125TIP3   OH212380   4.220   1.992   3.494  0.9037 -0.4122 -0.0593
 4125TIP3    H112381   4.284   2.062   3.484 -1.4603  1.7802 -0.9814
 4125TIP3    H212382   4.212   1.981   3.588  1.4332  0.4605  0.1065
 4126TIP3   OH212383   2.667   4.639   5.031  0.0738 -0.2634 -0.1421
 4126TIP3    H112384   2.639   4.641   4.939 -0.9403  2.1536  0.1634
 4126TIP3    H212385   2.745   4.695   5.033 -1.2040  1.5752  0.7997
 4127TIP3   OH212386   5.233   3.998   3.204  0.2634  0.3139  0.2313
 4127TIP3    H112387   5.291   4.039   3.140 -0.1315 -1.0409 -1.0870
 4127TIP3    H212388   5.284   3.926   3.241  0.1992  0.5601  0.8088
 4128TIP3   OH212389   1.115   5.811   3.321  0.3600 -0.4393 -0.3876
 4128TIP3    H112390   1.163   5.756   3.383  2.1506  2.1223  0.6340
 4128TIP3    H212391   1.114   5.898   3.360 -1.3848  0.5639 -2.4368
 4129TIP3   OH212392   2.971   1.817   3.388 -0.0129  0.2959 -0.1212
 4129TIP3    H112393   2.907   1.751   3.414 -2.2704  2.5762  0.4230
 4129TIP3    H212394   3.048   1.798   3.442 -1.2276 -0.8558  1.2965
 4130TIP3   OH212395   4.874   5.850   1.577  0.3144  0.1041 -0.1508
 4130TIP3    H112396   4.792   5.846   1.625  1.2077 -1.4545  1.3408
 4130TIP3    H212397   4.902   5.942   1.586 -0.1930  0.1490  1.2222
 4131TIP3   OH212398   4.042   4.287   3.051 -0.1015  0.3496  0.5118
 4131TIP3    H112399   4.132   4.280   3.081  0.0753  0.7253  0.0756
 4131TIP3    H212400   4.049   4.310   2.959 -0.6398 -0.2444  0.3140
 4132TIP3   OH212401   3.551   0.213   5.063  0.1640  0.0118 -0.3593
 4132TIP3    H112402   3.603   0.196   4.984 -0.5181  1.1126 -1.0557
 4132TIP3    H212403   3.541   0.308   5.066  0.4718  0.0309  1.2614
 4133TIP3   OH212404   1.309   2.335   3.857  0.1388 -0.1061 -0.1070
 4133TIP3    H112405   1.305   2.420   3.814 -0.7254  0.0564  0.2773
 4133TIP3    H212406   1.250   2.279   3.805 -1.9618  0.4355  1.5644
 4134TIP3   OH212407   4.026   4.588   0.261 -0.3116  0.1196 -0.6714
 4134TIP3    H112408   3.967   4.516   0.283  0.9578 -0.8093 -0.2245
 4134TIP3    H212409   4.085   4.551   0.196  0.7794  0.5526  0.0581
 4135TIP3   OH212410   5.014   0.666   2.702 -0.3728 -0.1669 -0.4079
 4135TIP3    H112411   5.070   0.665   2.625  0.4737  0.6203  0.1716
 4135TIP3    H212412   5.071   0.635   2.773 -1.5373 -2.3064 -0.3275
 4136TIP3   OH212413   3.601   1.606   2.090 -0.9875 -0.4215 -0.0444
 4136TIP3    H112414   3.643   1.613   2.175  0.7453 -2.3461 -0.6434
 4136TIP3    H212415   3.626   1.519   2.058 -1.8726  0.0878 -2.3610
 4137TIP3   OH212416   4.701   4.078   0.934  0.1291  0.1778  0.0067
 4137TIP3    H112417   4.775   4.018   0.927 -1.4580 -1.9898  0.7717
 4137TIP3    H212418   4.633   4.039   0.879 -1.6432  0.1262  2.1140
 4138TIP3   OH212419   5.077   2.074   2.654  0.2015 -0.3938 -0.3960
 4138TIP3    H112420   5.041   2.022   2.582 -1.2333 -0.2727  0.1948
 4138TIP3    H212421   5.071   2.164   2.625  0.8293 -0.4234 -0.6286
 4139TIP3   OH212422   5.449   1.414   0.165  0.2591 -0.3061  0.0279
 4139TIP3    H112423   5.424   1.442   0.077 -0.5831 -2.8368 -0.6148
 4139TIP3    H212424   5.515   1.346   0.151  1.2664  0.3440  1.4273
 4140TIP3   OH212425   0.113   0.853   3.786  0.5519 -0.6982 -0.1154
 4140TIP3    H112426   0.096   0.944   3.810  3.3802 -0.2049  0.3904
 4140TIP3    H212427   0.113   0.806   3.869  0.3141 -0.9170 -0.2398
 4141TIP3   OH212428   1.912   1.707   1.431  0.3064 -0.1356  0.3487
 4141TIP3    H112429   1.836   1.688   1.486 -1.2877 -0.9249 -1.9302
 4141TIP3    H212430   1.936   1.623   1.393  1.1681  0.3929 -0.3311
 4142TIP3   OH212431   2.681   2.702   0.435 -0.3305  0.1702  0.0394
 4142TIP3    H112432   2.622   2.627   0.421  0.4910 -0.5205  0.2210
 4142TIP3    H212433   2.751   2.689   0.371  0.1796  0.4035  0.5461
 4143TIP3   OH212434   5.697   3.233   2.710 -0.0020 -0.2072 -0.4254
 4143TIP3    H112435   5.758   3.297   2.672 -0.5651 -0.2153 -1.3751
 4143TIP3    H212436   5.631   3.220   2.642 -0.2046 -1.3853 -0.0202
 4144TIP3   OH212437   0.489   2.751   0.211 -0.0422 -0.1132  0.4352
 4144TIP3    H112438   0.431   2.714   0.145 -2.0948  2.5461  0.5903
 4144TIP3    H212439   0.515   2.836   0.175  0.4718  0.4947  2.1434
 4145TIP3   OH212440   3.567   4.391   3.968  0.0407 -0.8216 -0.4246
 4145TIP3    H112441   3.530   4.303   3.961 -0.9618 -0.3595 -1.2289
 4145TIP3    H212442   3.493   4.449   3.952  1.2612  0.1361 -3.3852
 4146TIP3   OH212443   0.046   1.755   3.697  0.6130 -0.0445  0.0650
 4146TIP3    H112444   0.050   1.764   3.792  1.0022  1.3741 -0.0531
 4146TIP3    H212445   0.130   1.716   3.672  0.4985 -0.4423  0.3049
 4147TIP3   OH212446   4.599   0.310   1.523 -0.0678  0.3104  0.7552
 4147TIP3    H112447   4.562   0.392   1.491 -1.0937  0.0241  1.1964
 4147TIP3    H212448   4.693   0.327   1.528  0.1767  0.4293 -2.2869
 4148TIP3   OH212449   5.455   1.432   0.436 -0.5695 -0.1280 -0.3641
 4148TIP3    H112450   5.454   1.442   0.341 -2.3563 -0.4110 -0.4111
 4148TIP3    H212451   5.414   1.511   0.469  1.5255  0.7574  0.3260
 4149TIP3   OH212452   1.891   2.715   4.733  0.0508  0.3559 -0.3997
 4149TIP3    H112453   1.877   2.755   4.647  1.0095  2.5949  0.4371
 4149TIP3    H212454   1.875   2.785   4.795 -0.6379 -1.2292  1.2995
 4150TIP3   OH212455   6.244   1.737   0.467 -0.0380 -0.2021  0.4384
 4150TIP3    H112456   6.295   1.776   0.538 -1.6528  0.2684  1.4210
 4150TIP3    H212457   6.154   1.764   0.485 -0.6473 -0.9335 -1.2377
 4151TIP3   OH212458   1.984   5.562   4.109  0.0694 -0.1577 -0.1597
 4151TIP3    H112459   1.980   5.619   4.186  0.0396 -0.0716 -0.2263
 4151TIP3    H212460   1.893   5.552   4.082  0.1587  0.5428 -0.7316
 4152TIP3   OH212461   1.313   1.838   4.285 -0.3227 -0.1144 -0.6454
 4152TIP3    H112462   1.314   1.927   4.318 -1.1250 -0.6483  0.9130
 4152TIP3    H212463   1.375   1.838   4.212  2.0862  0.9642  1.2960
 4153TIP3   OH212464   1.280   0.788   4.361 -0.2183  0.5769 -0.0028
 4153TIP3    H112465   1.288   0.795   4.266 -1.8322 -0.9553 -0.2945
 4153TIP3    H212466   1.350   0.729   4.387 -0.4560  0.1097 -0.4042
 4154TIP3   OH212467   4.859   2.149   3.285  0.1624 -0.5277  0.8797
 4154TIP3    H112468   4.837   2.212   3.216 -0.7619 -2.3353 -0.5404
 4154TIP3    H212469   4.954   2.157   3.295  0.0868  0.9940  0.6735
 4155TIP3   OH212470   0.378   2.385   2.389 -0.1271  0.6274 -0.2391
 4155TIP3    H112471   0.410   2.351   2.306  1.2065 -2.0294  1.2238
 4155TIP3    H212472   0.284   2.369   2.387  0.0219 -0.2354 -0.9268
 4156TIP3   OH212473   1.337   4.433   1.348  0.3822  0.1069 -0.3098
 4156TIP3    H112474   1.262   4.465   1.298 -1.0368 -2.0751  0.2936
 4156TIP3    H212475   1.344   4.340   1.324  0.7532 -0.5739  2.1455
 4157TIP3   OH212476   0.155   5.520   5.093  0.4429  0.4085 -0.2407
 4157TIP3    H112477   0.216   5.543   5.162 -0.2105  0.9303  0.1723
 4157TIP3    H212478   0.094   5.458   5.134  1.6222 -1.4121 -1.0837
 4158TIP3   OH212479   3.177   4.947   4.386  0.4633 -0.3758 -0.3408
 4158TIP3    H112480   3.129   4.880   4.339 -1.0715  1.4149 -1.4911
 4158TIP3    H212481   3.173   4.921   4.477 -1.4934 -1.0382 -0.5783
 4159TIP3   OH212482   5.712   3.932   1.366 -0.6238  0.1194 -0.2780
 4159TIP3    H112483   5.627   3.899   1.393  0.4683 -2.3278  0.4044
 4159TIP3    H212484   5.710   3.928   1.270 -0.7553 -1.4298 -0.2306
 4160TIP3   OH212485   4.781   1.998   3.668 -0.1363  0.4861  0.1299
 4160TIP3    H112486   4.771   2.019   3.575 -2.4306  1.5520  0.5554
 4160TIP3    H212487   4.748   2.076   3.714  3.0857  0.9842  1.9268
 4161TIP3   OH212488   0.511   1.668   3.720 -0.5884 -0.2695  0.0424
 4161TIP3    H112489   0.494   1.744   3.665 -0.5791  0.6756  1.2870
 4161TIP3    H212490   0.606   1.669   3.734 -0.7981  0.7303  1.7080
 4162TIP3   OH212491   4.761   5.439   3.469  0.7451  0.1671 -0.0428
 4162TIP3    H112492   4.738   5.521   3.513 -1.3193 -1.4334  2.1651
 4162TIP3    H212493   4.680   5.412   3.425  0.5563 -1.8136  1.3470
 4163TIP3   OH212494   1.458   1.573   0.326  0.0716 -0.1496  0.1389
 4163TIP3    H112495   1.372   1.535   0.308 -0.2452  0.5649  0.0933
 4163TIP3    H212496   1.513   1.498   0.350  0.1618 -0.9891 -2.4339
 4164TIP3   OH212497   2.786   4.736   0.874 -0.1713 -0.4234 -0.6577
 4164TIP3    H112498   2.736   4.678   0.817  0.0266 -0.8003 -0.4525
 4164TIP3    H212499   2.870   4.747   0.830 -0.0047 -0.7456 -0.4207
 4165TIP3   OH212500   2.447   1.218   2.907 -0.7741 -1.0790 -0.0786
 4165TIP3    H112501   2.483   1.147   2.854 -0.3534 -0.2149 -0.9876
 4165TIP3    H212502   2.427   1.177   2.991  1.2044 -1.8798  0.0672
 4166TIP3   OH212503   4.731   1.649   1.096  0.0353  0.1442  0.0796
 4166TIP3    H112504   4.683   1.566   1.095  0.6911 -0.2316 -0.9874
 4166TIP3    H212505   4.811   1.629   1.144 -0.1460  0.3776  0.4948
 4167TIP3   OH212506   1.770   1.777   0.606  0.3304  0.1412  0.8136
 4167TIP3    H112507   1.706   1.803   0.540 -0.1425  0.0393  1.2355
 4167TIP3    H212508   1.855   1.787   0.561  0.1660  2.1739  0.8895
 4168TIP3   OH212509   0.549   0.088   1.918  0.1377 -0.2690 -0.0956
 4168TIP3    H112510   0.627   0.033   1.910  1.5103  1.2712  1.6572
 4168TIP3    H212511   0.581   0.177   1.901 -1.4972  0.2874 -0.4623
 4169TIP3   OH212512   1.145   3.215   1.323 -0.0041  0.0470  0.1150
 4169TIP3    H112513   1.125   3.255   1.238  1.8761 -0.0018 -0.3984
 4169TIP3    H212514   1.105   3.274   1.387 -1.8374 -0.1531 -0.7882
 4170TIP3   OH212515   3.584   2.320   2.550  0.3333 -0.1172 -0.3427
 4170TIP3    H112516   3.636   2.246   2.581  1.0009  0.2945 -0.4672
 4170TIP3    H212517   3.514   2.280   2.499  1.4257 -0.6179 -1.5031
 4171TIP3   OH212518   0.049   0.804   0.712  0.0386  0.4509 -0.2707
 4171TIP3    H112519  -0.039   0.826   0.682 -0.1966 -2.5028 -2.1453
 4171TIP3    H212520   0.091   0.889   0.728 -2.9376  1.9609  0.2612
 4172TIP3   OH212521   0.655   0.283   3.806 -0.0260  0.7421  0.0793
 4172TIP3    H112522   0.574   0.268   3.855  0.0039  0.7038  0.1163
 4172TIP3    H212523   0.633   0.260   3.716  0.0273  0.4564  0.1392
 4173TIP3   OH212524   5.721   3.593   1.182  0.2424  0.5985 -0.2272
 4173TIP3    H112525   5.749   3.535   1.253 -0.5923  1.2560  0.6699
 4173TIP3    H212526   5.635   3.625   1.209 -0.5255  0.1472 -1.9979
 4174TIP3   OH212527   1.590   2.177   0.334  0.2726 -0.2413 -0.0517
 4174TIP3    H112528   1.505   2.140   0.358  0.3540  0.4268  1.3491
 4174TIP3    H212529   1.623   2.217   0.415  2.1601 -0.9354 -0.4129
 4175TIP3   OH212530   4.823   2.831   3.911  0.4044  0.4184  0.6218
 4175TIP3    H112531   4.825   2.830   4.007  1.3962  3.7811  0.7574
 4175TIP3    H212532   4.750   2.889   3.889  1.8631  1.9112 -0.5059
 4176TIP3   OH212533   2.075   0.028   4.547 -0.4245  0.1946  0.6760
 4176TIP3    H112534   2.027   0.110   4.531 -1.1138 -0.3124  0.0861
 4176TIP3    H212535   2.044  -0.032   4.479  0.8740 -0.2353  0.4306
 4177TIP3   OH212536   1.533   1.940   2.023 -0.4886 -0.3763 -0.6416
 4177TIP3    H112537   1.458   1.885   2.002 -1.5402  1.0159 -0.6905
 4177TIP3    H212538   1.510   2.026   1.988  0.8072  0.2598  0.0063
 4178TIP3   OH212539   0.678   1.470   4.547  0.5169  0.5068 -0.8467
 4178TIP3    H112540   0.709   1.467   4.456  0.2195  1.0828 -0.9735
 4178TIP3    H212541   0.750   1.433   4.598  1.3869  1.7336 -1.1398
 4179TIP3   OH212542   0.642   3.343   3.186  0.0364  0.2655  0.2414
 4179TIP3    H112543   0.616   3.270   3.243  0.9019  0.8406  1.4351
 4179TIP3    H212544   0.691   3.302   3.115  0.4765 -0.3288  0.8724
 4180TIP3   OH212545   1.411   1.027   4.347  0.2023  0.0393  0.1913
 4180TIP3    H112546   1.382   1.100   4.402 -3.2267 -0.1944 -1.0650
 4180TIP3    H212547   1.371   0.950   4.388 -0.1221 -0.4868 -1.0902
 4181TIP3   OH212548   3.883   0.509   0.521 -0.4094 -0.2826  0.0019
 4181TIP3    H112549   3.941   0.558   0.580 -0.7250  0.3399 -0.1888
 4181TIP3    H212550   3.917   0.528   0.434 -0.5135 -0.4282 -0.0694
 4182TIP3   OH212551   4.912   5.556   1.663  0.0502  0.4598  0.5251
 4182TIP3    H112552   4.818   5.539   1.659  0.3521 -1.1494 -0.8048
 4182TIP3    H212553   4.925   5.634   1.610 -0.4070 -0.0307 -0.3329
 4183TIP3   OH212554   2.944   0.543   2.150 -0.1118  0.0047 -0.4135
 4183TIP3    H112555   2.967   0.451   2.156 -0.0412  0.1231  1.8766
 4183TIP3    H212556   2.938   0.560   2.056  2.5930 -1.6229 -0.9768
 4184TIP3   OH212557   3.017   3.917   0.991  0.0532  0.3214 -0.2957
 4184TIP3    H112558   2.985   3.993   1.040 -1.1605  0.0128 -0.5644
 4184TIP3    H212559   3.075   3.953   0.925  0.3951  0.9007  0.3130
 4185TIP3   OH212560   6.117   2.819   5.194 -0.8869  0.1419  0.2026
 4185TIP3    H112561   6.174   2.894   5.211 -1.9807  0.8253  0.9840
 4185TIP3    H212562   6.161   2.771   5.124 -0.1820  1.5401 -0.3608
 4186TIP3   OH212563   4.938   2.036   3.959 -0.8404  0.9653 -0.4005
 4186TIP3    H112564   4.894   1.962   4.000 -1.0173  2.0984  1.5695
 4186TIP3    H212565   4.902   2.039   3.870 -0.8384 -1.2551 -0.5371
 4187TIP3   OH212566   5.919   4.936   0.981 -0.4158 -0.4485 -0.1692
 4187TIP3    H112567   5.903   4.862   1.038 -0.2805  0.9155  1.7165
 4187TIP3    H212568   6.014   4.948   0.982 -0.3052 -1.0020 -1.5068
 4188TIP3   OH212569   4.429   5.882   3.309  0.7269 -0.3516 -0.0618
 4188TIP3    H112570   4.450   5.967   3.271  2.3777  0.3510  2.1556
 4188TIP3    H212571   4.358   5.899   3.370  1.4374 -0.3999  0.8069
 4189TIP3   OH212572   0.766   0.587   4.216  1.0233  0.4339  0.1273
 4189TIP3    H112573   0.770   0.494   4.237  2.6740  0.7143  1.2333
 4189TIP3    H212574   0.685   0.597   4.167  0.1339 -1.3533  1.1435
 4190TIP3   OH212575   5.932   5.811   4.790 -0.2293 -0.0224 -0.1946
 4190TIP3    H112576   5.963   5.896   4.758 -1.6848  0.5658 -0.1271
 4190TIP3    H212577   5.957   5.809   4.883  1.2724 -0.4003 -0.5924
 4191TIP3   OH212578   3.707   1.222   2.206 -0.1300 -0.6174 -0.3035
 4191TIP3    H112579   3.627   1.238   2.256  0.9168  1.3828  0.8939
 4191TIP3    H212580   3.706   1.287   2.136  0.5083 -0.4489 -0.1697
 4192TIP3   OH212581   4.486   5.882   1.553 -0.1375 -0.1819 -0.0182
 4192TIP3    H112582   4.542   5.829   1.496  1.0514 -0.3929  1.2713
 4192TIP3    H212583   4.445   5.818   1.612  1.1585  0.2401  1.4238
 4193TIP3   OH212584   6.039   0.046   2.579  0.3328 -0.3754 -0.2426
 4193TIP3    H112585   6.124   0.002   2.575  0.0360 -0.9144 -0.7811
 4193TIP3    H212586   5.975  -0.025   2.574 -0.1899 -0.1916  2.3151
 4194TIP3   OH212587   1.453   5.625   4.825  0.4146 -0.0833 -0.6523
 4194TIP3    H112588   1.535   5.657   4.864  0.9124 -0.5664 -1.2728
 4194TIP3    H212589   1.404   5.705   4.805  0.8905  0.2264 -0.6062
 4195TIP3   OH212590   0.250   2.480   0.273  0.5510  0.7090 -0.3338
 4195TIP3    H112591   0.213   2.424   0.341  0.3794  0.3258 -0.7443
 4195TIP3    H212592   0.302   2.544   0.322 -1.2856  1.7798  0.3287
 4196TIP3   OH212593   2.635   5.535   1.357  0.1543  0.4172 -0.3421
 4196TIP3    H112594   2.662   5.528   1.449  1.1611 -0.6020 -0.6880
 4196TIP3    H212595   2.604   5.625   1.348 -1.7691  0.0209  1.4437
 4197TIP3   OH212596   1.587   5.693   0.954 -0.3029 -0.4395  0.2972
 4197TIP3    H112597   1.558   5.765   1.011  0.9707 -0.3703  0.8951
 4197TIP3    H212598   1.563   5.721   0.866 -1.6949 -0.2366  0.7269
 4198TIP3   OH212599   0.526   3.896   1.861  0.7091  0.1530 -0.0364
 4198TIP3    H112600   0.608   3.945   1.854  0.7861 -0.2172 -2.1600
 4198TIP3    H212601   0.476   3.942   1.929 -0.0130  4.3979 -3.0905
 4199TIP3   OH212602   2.002   3.717   0.101 -0.0930 -0.0642 -0.0397
 4199TIP3    H112603   2.003   3.782   0.031  1.2844 -1.2709 -1.2001
 4199TIP3    H212604   1.965   3.763   0.176  0.1911  1.8451 -1.0143
 4200TIP3   OH212605   3.852   1.148   3.100  0.4097 -0.7308  0.5256
 4200TIP3    H112606   3.932   1.162   3.151  0.8252 -3.1502  0.6541
 4200TIP3    H212607   3.837   1.053   3.104 -2.3666 -0.3871  0.3249
 4201TIP3   OH212608   5.608   0.522   4.102 -0.0185  0.3424 -0.0937
 4201TIP3    H112609   5.528   0.471   4.116  0.8603 -0.7463  1.3100
 4201TIP3    H212610   5.678   0.463   4.130  1.1481  1.8720  0.3119
 4202TIP3   OH212611   1.254   2.549   4.621  0.5118 -0.0620 -0.2366
 4202TIP3    H112612   1.166   2.529   4.650 -0.2091 -0.4584 -2.4609
 4202TIP3    H212613   1.311   2.512   4.688 -0.9803  0.7475  1.5665
 4203TIP3   OH212614   4.200   2.234   4.147 -0.6259 -0.0504 -0.1084
 4203TIP3    H112615   4.294   2.220   4.156 -0.6707 -0.1067  0.2838
 4203TIP3    H212616   4.190   2.280   4.064  0.0192  2.6631  1.2028
 4204TIP3   OH212617   3.057   0.010   2.716  0.3511 -0.2931  0.0758
 4204TIP3    H112618   2.994   0.077   2.690  0.7951  0.2500  0.3769
 4204TIP3    H212619   3.023  -0.023   2.800  1.3569  1.2385  1.1490
 4205TIP3   OH212620   3.877   1.241   0.234  0.2209  0.3038  0.0889
 4205TIP3    H112621   3.788   1.225   0.203  0.0003  1.1774  0.2468
 4205TIP3    H212622   3.930   1.243   0.154  0.5531 -2.6253  0.1011
 4206TIP3   OH212623   3.915   4.067   1.044 -0.0154 -0.2629  0.5878
 4206TIP3    H112624   3.895   3.983   1.086 -0.9672 -0.2846  0.1034
 4206TIP3    H212625   4.010   4.077   1.056 -0.1130 -0.6954  1.9579
 4207TIP3   OH212626   6.337   1.294   4.108  0.1222  0.0948 -0.1268
 4207TIP3    H112627   6.284   1.310   4.030  1.9271  0.1070 -1.4226
 4207TIP3    H212628   6.386   1.375   4.121 -2.0473  1.1095  2.6854
 4208TIP3   OH212629   0.520   0.601   1.494 -0.0758 -0.2698 -0.1289
 4208TIP3    H112630   0.458   0.603   1.421 -0.9888  2.2859  0.6053
 4208TIP3    H212631   0.550   0.692   1.502  1.2957 -0.8257  1.6108
 4209TIP3   OH212632   2.045   1.404   4.346 -0.0127  0.3805  0.6550
 4209TIP3    H112633   2.023   1.326   4.396  0.9067  0.9634  2.0254
 4209TIP3    H212634   2.102   1.455   4.404  1.7346  0.7466 -1.2428
 4210TIP3   OH212635   5.654   0.048   3.933 -0.0547  0.1527 -0.6205
 4210TIP3    H112636   5.566   0.079   3.956  0.0960 -0.8284  1.5101
 4210TIP3    H212637   5.713   0.114   3.972  0.3140  2.8582 -5.0427
 4211TIP3   OH212638   2.131   1.219   2.999 -0.1251  0.3048  0.2302
 4211TIP3    H112639   2.100   1.274   2.927 -2.8225 -0.5792  0.5817
 4211TIP3    H212640   2.120   1.273   3.077 -0.5771  0.0617  0.3360
 4212TIP3   OH212641   0.401   4.323   1.794 -0.0822 -0.3458 -0.4881
 4212TIP3    H112642   0.317   4.342   1.752  0.2087  2.0676 -0.1448
 4212TIP3    H212643   0.459   4.299   1.722 -0.2868  1.0912 -1.1799
 4213TIP3   OH212644   4.780   2.093   1.174  0.3550  0.0252  0.1158
 4213TIP3    H112645   4.736   2.104   1.259 -0.7442  1.6978 -0.6196
 4213TIP3    H212646   4.859   2.043   1.195 -1.1448 -1.9046  1.7198
 4214TIP3   OH212647   3.799   3.856   4.427 -0.2121  0.0754  0.2420
 4214TIP3    H112648   3.885   3.887   4.399 -0.1516  1.0355  1.4202
 4214TIP3    H212649   3.813   3.767   4.459  0.2758  0.1115  0.1247
 4215TIP3   OH212650   4.761   2.624   3.777  0.0426 -0.0679  0.1980
 4215TIP3    H112651   4.667   2.631   3.794  0.0767  0.2333  0.2699
 4215TIP3    H212652   4.800   2.697   3.826  0.4052 -0.6888  0.8602
 4216TIP3   OH212653   1.185   1.557   1.358  0.4464  0.2913  0.2695
 4216TIP3    H112654   1.100   1.531   1.396  0.1743 -0.9366 -1.1078
 4216TIP3    H212655   1.221   1.476   1.323  3.1545  0.3571  2.5149
 4217TIP3   OH212656   4.570   0.155   2.675 -0.9501 -0.5361 -0.2554
 4217TIP3    H112657   4.485   0.115   2.660 -2.3559  1.1019  2.5238
 4217TIP3    H212658   4.577   0.161   2.771  2.2932 -0.5644 -0.3902
 4218TIP3   OH212659   2.653   2.433   1.614  0.0170 -0.0021  0.4375
 4218TIP3    H112660   2.746   2.443   1.635  0.0864 -0.5747  0.4178
 4218TIP3    H212661   2.616   2.389   1.691  0.3922 -2.6943 -0.8336
 4219TIP3   OH212662   2.336   1.053   4.643  0.1772 -0.1155  0.4257
 4219TIP3    H112663   2.305   0.976   4.691 -0.5356 -0.8215 -1.1101
 4219TIP3    H212664   2.283   1.056   4.564  0.1889  1.9777  0.4266
 4220TIP3   OH212665   3.734   0.568   3.075 -0.0340 -0.0645  0.3010
 4220TIP3    H112666   3.752   0.611   2.992  2.1250  1.0785  1.2782
 4220TIP3    H212667   3.812   0.516   3.092 -0.3720 -0.1485  1.7047
 4221TIP3   OH212668   0.345   5.327   1.409 -0.1975 -0.1734  0.5830
 4221TIP3    H112669   0.379   5.257   1.353 -0.9390  1.7795 -2.5633
 4221TIP3    H212670   0.251   5.310   1.415 -0.2725  0.1627  0.3824
 4222TIP3   OH212671   3.150   2.059   1.203  0.7231 -0.3336 -0.5176
 4222TIP3    H112672   3.221   2.042   1.265  0.5038 -1.7677 -0.6219
 4222TIP3    H212673   3.162   2.150   1.177  2.8940 -0.6970 -0.9923
 4223TIP3   OH212674   1.072   4.303   0.266 -0.1967 -0.0722  0.2174
 4223TIP3    H112675   1.063   4.222   0.215  0.2059 -0.6428  1.0324
 4223TIP3    H212676   1.130   4.279   0.338  0.6597  1.1895 -0.0248
 4224TIP3   OH212677   5.864   3.601   5.111 -0.6323  0.3637 -0.0504
 4224TIP3    H112678   5.914   3.520   5.098  0.4290  0.7271  1.5351
 4224TIP3    H212679   5.781   3.571   5.150 -0.7539 -0.0400 -0.5930
 4225TIP3   OH212680   3.137   2.050   1.823 -0.2266  0.2737  0.1687
 4225TIP3    H112681   3.161   1.970   1.776 -0.6436  1.0102 -1.3602
 4225TIP3    H212682   3.135   2.023   1.915  2.3528 -0.8115  0.0156
 4226TIP3   OH212683   0.738   0.345   4.540 -0.2395 -0.2010 -0.3323
 4226TIP3    H112684   0.649   0.379   4.549 -0.5402 -1.3403  1.6010
 4226TIP3    H212685   0.794   0.423   4.540 -1.2111  0.5116 -1.2457
 4227TIP3   OH212686   0.705   5.213   3.715  0.3007  0.1200 -0.6026
 4227TIP3    H112687   0.628   5.263   3.690  1.1132  0.7229 -2.0257
 4227TIP3    H212688   0.744   5.185   3.632  1.8847  0.2685  0.0579
 4228TIP3   OH212689   3.757   1.002   0.906  0.1604 -0.3604 -0.2162
 4228TIP3    H112690   3.697   1.011   0.981  0.1843  1.5267 -0.3828
 4228TIP3    H212691   3.707   1.034   0.831  0.8119 -0.3584 -0.6587
 4229TIP3   OH212692   2.899   5.554   1.088 -0.3114  0.3799 -0.6357
 4229TIP3    H112693   2.878   5.466   1.056 -0.0855  0.4269 -0.9214
 4229TIP3    H212694   2.930   5.601   1.010  1.9864 -0.0297 -0.0378
 4230TIP3   OH212695   3.514   4.513   1.905 -0.7052  0.0000 -0.9814
 4230TIP3    H112696   3.510   4.473   1.817  0.3623  0.0105 -1.0570
 4230TIP3    H212697   3.459   4.590   1.899 -0.2525  0.2784 -1.8119
 4231TIP3   OH212698   5.474   0.876   1.306  0.1775 -0.3883  0.0783
 4231TIP3    H112699   5.453   0.871   1.212 -0.2276  0.9558  0.0764
 4231TIP3    H212700   5.493   0.785   1.331 -0.4058 -0.8725 -1.1415
 4232TIP3   OH212701   5.776   2.433   0.274 -0.3400  0.0217  0.0848
 4232TIP3    H112702   5.717   2.405   0.343  0.0391  0.6393  0.6765
 4232TIP3    H212703   5.848   2.370   0.277  0.1146  0.5551  0.8688
 4233TIP3   OH212704   1.366   1.466   1.761 -0.0200  0.3890 -0.1864
 4233TIP3    H112705   1.351   1.397   1.697  1.5552  0.7066 -0.9601
 4233TIP3    H212706   1.461   1.464   1.777 -0.5988 -1.5189  4.3005
 4234TIP3   OH212707   3.432   4.524   4.296  0.5315  0.0618  0.3949
 4234TIP3    H112708   3.468   4.442   4.329  0.2001  0.1322  0.9474
 4234TIP3    H212709   3.509   4.580   4.284  0.7101 -0.1554  0.5117
 4235TIP3   OH212710   4.393   5.501   3.582 -0.6840  0.1511 -0.0769
 4235TIP3    H112711   4.420   5.415   3.615  0.2105  0.3199 -0.3504
 4235TIP3    H212712   4.413   5.561   3.654 -0.7308  0.2228 -0.1241
 4236TIP3   OH212713   0.558   2.481   0.215  0.1209 -0.1144 -0.3213
 4236TIP3    H112714   0.591   2.467   0.126  0.0426  2.0058 -0.7591
 4236TIP3    H212715   0.500   2.557   0.207  0.3613  0.3360  1.5880
 4237TIP3   OH212716   5.581   0.564   2.476 -0.3958 -0.8868  0.0438
 4237TIP3    H112717   5.523   0.623   2.524 -0.0802 -0.3324 -0.2532
 4237TIP3    H212718   5.546   0.563   2.387  0.9141  0.6359 -0.5242
 4238TIP3   OH212719   4.552   2.646   0.134 -0.1905 -0.0922 -0.5466
 4238TIP3    H112720   4.638   2.624   0.098  0.3756 -1.6114  1.5335
 4238TIP3    H212721   4.546   2.595   0.215 -2.1371  1.6868  0.5390
 4239TIP3   OH212722   0.563   4.549   0.619 -0.3959 -0.3527  0.5129
 4239TIP3    H112723   0.557   4.523   0.712  1.0499  1.2575  1.1024
 4239TIP3    H212724   0.657   4.542   0.599 -0.1652  2.6097  0.2255
 4240TIP3   OH212725   3.520   2.315   3.647  0.1023  0.3452  0.1717
 4240TIP3    H112726   3.441   2.265   3.668 -1.0531  2.2099  0.5463
 4240TIP3    H212727   3.530   2.307   3.553 -0.1730 -0.3837  0.1980
 4241TIP3   OH212728   6.212   4.787   2.673 -0.0436  0.0649  0.4606
 4241TIP3    H112729   6.295   4.771   2.719 -0.6953  0.4442  1.8189
 4241TIP3    H212730   6.190   4.878   2.693 -1.0885 -0.2130  0.6301
 4242TIP3   OH212731   1.016   2.608   2.663  0.0321 -0.0239  0.1106
 4242TIP3    H112732   0.971   2.571   2.739 -0.6776  1.5982  0.5021
 4242TIP3    H212733   1.014   2.537   2.598  1.3106 -1.7130  1.7969
 4243TIP3   OH212734   0.241   0.238   2.267 -0.1480 -0.4543 -0.6958
 4243TIP3    H112735   0.176   0.202   2.327  0.8910  1.0449  1.4762
 4243TIP3    H212736   0.208   0.324   2.244  1.0032  0.3545  0.4870
 4244TIP3   OH212737   5.562   0.258   0.743 -0.5122 -0.1004 -0.1708
 4244TIP3    H112738   5.476   0.269   0.784 -0.3278  2.5376 -0.2850
 4244TIP3    H212739   5.554   0.307   0.660  1.1751  0.4881 -0.0114
 4245TIP3   OH212740   0.905   2.842   2.925 -0.0679  0.1523  0.5758
 4245TIP3    H112741   0.880   2.757   2.960 -0.2840  0.5737  1.4631
 4245TIP3    H212742   0.841   2.860   2.856  0.1846 -0.5499  0.1490
 4246TIP3   OH212743   2.777   0.696   3.009  0.2134  0.0960  0.4628
 4246TIP3    H112744   2.835   0.731   3.077  1.7867 -0.5838 -0.4676
 4246TIP3    H212745   2.783   0.760   2.938 -1.1911  0.6533  0.8060
 4247TIP3   OH212746   2.225   3.039   1.720  0.6334  0.1241 -0.1660
 4247TIP3    H112747   2.293   3.071   1.780  0.1528  0.5690  0.1369
 4247TIP3    H212748   2.219   3.106   1.652  1.1757 -0.3787 -0.7235
 4248TIP3   OH212749   5.016   0.977   4.181  0.4362  0.0997 -0.6669
 4248TIP3    H112750   4.994   1.007   4.093 -0.3759  0.5175 -0.3301
 4248TIP3    H212751   4.966   1.034   4.239  1.3127  0.1218  0.0885
 4249TIP3   OH212752   0.842   3.107   0.759 -0.4361 -0.1524 -0.1912
 4249TIP3    H112753   0.865   3.020   0.726 -0.0323 -0.2995  0.4417
 4249TIP3    H212754   0.864   3.103   0.852 -0.5506  0.5843 -0.1267
 4250TIP3   OH212755   1.799   3.624   0.848  0.3748  0.5488  0.2436
 4250TIP3    H112756   1.854   3.683   0.797  0.0434  0.3642 -0.3378
 4250TIP3    H212757   1.861   3.578   0.906  1.2968 -1.5749 -2.1882
 4251TIP3   OH212758   4.606   0.505   4.706 -0.3578  0.4769  0.3262
 4251TIP3    H112759   4.539   0.438   4.688  0.0329  0.2769 -0.4300
 4251TIP3    H212760   4.687   0.455   4.714  0.2113  0.9496 -1.7681
 4252TIP3   OH212761   5.863   1.643   0.606  0.0101  0.0406 -0.8766
 4252TIP3    H112762   5.802   1.575   0.577 -0.1971 -0.0016 -0.3493
 4252TIP3    H212763   5.869   1.703   0.532 -0.7965  0.1270 -0.8827
 4253TIP3   OH212764   3.818   4.142   3.008  0.7908 -0.7508  0.2455
 4253TIP3    H112765   3.843   4.051   2.991  1.9795 -0.1448 -1.4574
 4253TIP3    H212766   3.898   4.185   3.037  0.7710  0.2287 -1.0611
 4254TIP3   OH212767   2.917   2.814   3.960 -0.3289  0.4241 -0.3460
 4254TIP3    H112768   2.923   2.739   3.900  0.8730  1.6458 -1.8586
 4254TIP3    H212769   2.859   2.875   3.915 -0.3233  0.9059  0.2936
 4255TIP3   OH212770   1.453   5.537   4.558 -0.4238 -0.1424  0.3899
 4255TIP3    H112771   1.381   5.475   4.545  0.5617 -1.0754 -0.8808
 4255TIP3    H212772   1.437   5.574   4.645 -2.4870 -0.2289  0.1030
 4256TIP3   OH212773   5.829   1.549   0.314  0.1130 -0.3296 -0.5002
 4256TIP3    H112774   5.870   1.554   0.228  0.3765 -1.8522 -0.4898
 4256TIP3    H212775   5.744   1.592   0.303  0.1542 -0.4816 -1.5115
 4257TIP3   OH212776   3.096   5.550   3.763 -0.1608  0.1782 -0.3123
 4257TIP3    H112777   3.005   5.576   3.776 -0.6303 -1.6437  0.4552
 4257TIP3    H212778   3.147   5.622   3.801 -1.3233  0.5235  0.6643
 4258TIP3   OH212779   1.227   5.819   0.769  0.3681  0.1145  0.2929
 4258TIP3    H112780   1.273   5.741   0.737 -2.0646 -1.6249  0.7476
 4258TIP3    H212781   1.199   5.864   0.690 -0.8712 -1.1917 -0.0464
 4259TIP3   OH212782   4.494   3.164   2.965  0.0038 -0.3866  0.1216
 4259TIP3    H112783   4.500   3.069   2.958  0.2020 -0.4288  0.8442
 4259TIP3    H212784   4.431   3.180   3.034  0.0182  0.0101  0.0481
 4260TIP3   OH212785   0.751   3.919   3.518  0.0785  0.7984  0.3048
 4260TIP3    H112786   0.699   3.988   3.479 -0.9126 -0.5586 -0.8804
 4260TIP3    H212787   0.763   3.855   3.448  0.8009 -0.3148  1.3996
 4261TIP3   OH212788   3.254   2.393   2.083 -0.2291  0.1023  0.8326
 4261TIP3    H112789   3.277   2.486   2.092  0.3387  0.1899 -1.0894
 4261TIP3    H212790   3.160   2.391   2.096 -0.0313  0.6510  2.7132
 4262TIP3   OH212791   3.436   0.678   4.889 -0.5966 -0.5347  0.4202
 4262TIP3    H112792   3.347   0.657   4.859  0.2835 -0.2849 -2.6902
 4262TIP3    H212793   3.468   0.742   4.827  1.7547 -0.5099  1.5433
 4263TIP3   OH212794   1.785   5.647   0.504  0.1998  0.3503  0.8457
 4263TIP3    H112795   1.825   5.632   0.419  0.4709 -0.6555  1.1261
 4263TIP3    H212796   1.791   5.741   0.518 -2.4188  1.0007 -1.4847
 4264TIP3   OH212797   1.704   1.700   1.849  0.5529  1.0805 -0.7342
 4264TIP3    H112798   1.694   1.698   1.754  0.0514  0.1333 -0.6807
 4264TIP3    H212799   1.633   1.756   1.880  0.0611  0.5468 -0.8644
 4265TIP3   OH212800   0.576   1.324   2.625 -0.2866  0.5504 -0.1325
 4265TIP3    H112801   0.608   1.394   2.568  2.6837 -1.1670 -0.7713
 4265TIP3    H212802   0.620   1.245   2.593 -0.4945 -0.9506  2.9561
 4266TIP3   OH212803   4.157   1.651   2.311  0.2331 -0.0606 -0.6394
 4266TIP3    H112804   4.240   1.697   2.298  0.8781 -1.3591 -1.3707
 4266TIP3    H212805   4.138   1.611   2.226 -0.3244 -1.0571 -0.0733
 4267TIP3   OH212806   0.327   5.023   4.568 -0.3084 -0.6147 -0.1776
 4267TIP3    H112807   0.412   5.058   4.596  0.1146 -0.7298 -1.2944
 4267TIP3    H212808   0.269   5.100   4.567  0.6274  0.1584 -2.6758
 4268TIP3   OH212809   4.655   1.674   1.631  0.6289 -0.4042 -0.1222
 4268TIP3    H112810   4.733   1.620   1.644  0.6226 -0.0963  1.3990
 4268TIP3    H212811   4.664   1.707   1.542  1.3085 -1.8182 -0.6190
 4269TIP3   OH212812   6.227   2.095   3.999 -0.1098 -0.4179 -0.6308
 4269TIP3    H112813   6.179   2.027   3.952 -1.2965  0.8872 -1.3860
 4269TIP3    H212814   6.202   2.176   3.956  1.2126  0.5247  0.2910
 4270TIP3   OH212815   1.307   1.613   4.472 -0.2729  0.3144  0.1190
 4270TIP3    H112816   1.376   1.588   4.534  0.3770  2.8554  0.5029
 4270TIP3    H212817   1.348   1.678   4.415 -1.3342 -0.7833 -2.0451
 4271TIP3   OH212818   3.472   1.796   1.331 -0.8176 -0.4471  0.0317
 4271TIP3    H112819   3.475   1.757   1.243 -1.7787  0.4719 -0.4278
 4271TIP3    H212820   3.471   1.891   1.315 -2.4558 -0.2751  0.9633
 4272TIP3   OH212821   4.061   4.326   4.856 -0.3134  0.1036 -0.1871
 4272TIP3    H112822   4.088   4.406   4.810 -1.9072 -0.1554 -1.7155
 4272TIP3    H212823   3.966   4.335   4.864 -0.1534 -0.0955  2.7591
 4273TIP3   OH212824   4.320   5.721   0.266 -0.4488  0.0235  0.0160
 4273TIP3    H112825   4.364   5.726   0.181  0.0845  0.2609  0.3083
 4273TIP3    H212826   4.228   5.706   0.243 -0.2682 -0.2054 -0.5992
 4274TIP3   OH212827   0.579   5.701   2.116  0.3253 -0.0118  0.0075
 4274TIP3    H112828   0.486   5.717   2.128  0.5682  1.9566 -0.4499
 4274TIP3    H212829   0.591   5.609   2.139 -1.8456 -0.5092 -0.6513
 4275TIP3   OH212830   5.026   4.697   4.651 -0.0197 -0.5653 -0.1961
 4275TIP3    H112831   4.974   4.671   4.727  0.1967 -0.7602 -0.1111
 4275TIP3    H212832   5.107   4.732   4.688  0.0875 -0.6628 -0.3337
 4276TIP3   OH212833   2.581   3.715   0.186 -0.2873  0.0689 -0.3641
 4276TIP3    H112834   2.629   3.632   0.177  1.0039  0.8142 -0.6633
 4276TIP3    H212835   2.489   3.689   0.188  0.1220 -1.4415  0.4678
 4277TIP3   OH212836   3.204   1.957   4.640  0.1154  0.1143  0.2957
 4277TIP3    H112837   3.232   1.874   4.678  0.0371 -0.3832 -0.6993
 4277TIP3    H212838   3.114   1.968   4.671  0.5572  0.5083  1.5096
 4278TIP3   OH212839   1.100   0.197   2.628  0.3428  0.0549  0.1582
 4278TIP3    H112840   1.170   0.145   2.668  2.2297  0.8696 -1.8274
 4278TIP3    H212841   1.053   0.135   2.572 -0.4024 -0.4446  1.3091
 4279TIP3   OH212842   3.986   5.256   4.313  0.0871  0.4895  0.1775
 4279TIP3    H112843   3.956   5.282   4.226  2.8541  0.2578 -0.9734
 4279TIP3    H212844   3.907   5.227   4.359 -1.7399  2.3849 -1.5707
 4280TIP3   OH212845   1.635   3.581   0.267 -0.3100 -0.3036 -0.1370
 4280TIP3    H112846   1.718   3.620   0.294  0.3645 -1.2381 -0.8067
 4280TIP3    H212847   1.582   3.655   0.238  0.4974  0.2480 -0.2464
 4281TIP3   OH212848   4.735   1.583   0.225  0.1715  0.3629  0.1531
 4281TIP3    H112849   4.792   1.660   0.221  0.6870  0.0798  1.3306
 4281TIP3    H212850   4.787   1.518   0.273 -1.2209  0.1825  1.5000
 4282TIP3   OH212851   2.535   0.492   3.880  0.1648 -0.0611  0.0584
 4282TIP3    H112852   2.566   0.529   3.797  1.5050 -1.4095 -0.0911
 4282TIP3    H212853   2.562   0.556   3.946 -0.7006  0.9116 -0.5000
 4283TIP3   OH212854   2.693   5.100   0.122 -0.1185  0.4015 -0.2321
 4283TIP3    H112855   2.618   5.129   0.174 -1.0234  0.4310 -1.5230
 4283TIP3    H212856   2.692   5.004   0.129 -0.8634  0.3448 -1.0287
 4284TIP3   OH212857   5.400   4.751   1.951  0.4286  0.1283 -0.0388
 4284TIP3    H112858   5.449   4.751   1.869 -1.6957 -2.3777 -1.4511
 4284TIP3    H212859   5.450   4.693   2.009  0.9561  0.4251 -0.1868
 4285TIP3   OH212860   2.921   3.229   3.420  0.0746 -0.1765  0.5782
 4285TIP3    H112861   2.881   3.304   3.465 -0.6782 -0.8077  1.0106
 4285TIP3    H212862   2.846   3.180   3.386  0.4394 -1.5290  1.6200
 4286TIP3   OH212863   3.001   0.086   0.812 -0.0892 -0.0924 -0.1743
 4286TIP3    H112864   2.981   0.170   0.855  0.3127 -0.7851  1.4223
 4286TIP3    H212865   3.050   0.111   0.734 -2.2711  1.3075 -1.2039
 4287TIP3   OH212866   5.915   1.445   1.072 -0.0200 -0.1327  0.2917
 4287TIP3    H112867   5.912   1.428   0.978 -0.0708  0.9764  0.0800
 4287TIP3    H212868   5.967   1.525   1.080 -0.6182  0.1811  1.1426
 4288TIP3   OH212869   1.532   2.731   3.538  0.2260 -0.2497  0.7619
 4288TIP3    H112870   1.552   2.711   3.630 -1.0014 -0.4001  1.0138
 4288TIP3    H212871   1.498   2.821   3.540  1.2641  0.1793  0.2766
 4289TIP3   OH212872   2.483   0.835   1.267  0.2581 -0.0422 -0.4394
 4289TIP3    H112873   2.529   0.775   1.326  0.2582 -0.6318 -1.0297
 4289TIP3    H212874   2.477   0.788   1.184 -1.7984 -0.1597 -0.2747
 4290TIP3   OH212875   2.046   1.511   4.056 -0.5603  0.1773 -0.1803
 4290TIP3    H112876   2.044   1.468   4.142 -0.0179 -0.8359 -0.6543
 4290TIP3    H212877   2.066   1.602   4.075  2.5283 -0.5608  0.6132
 4291TIP3   OH212878   2.820   0.296   0.900  0.1258 -0.0524  0.8908
 4291TIP3    H112879   2.754   0.358   0.930 -0.7647 -1.4748  2.0531
 4291TIP3    H212880   2.894   0.350   0.873 -1.5157  1.5963 -0.5403
 4292TIP3   OH212881   2.247   4.748   3.050  0.1440  0.1247 -0.0943
 4292TIP3    H112882   2.192   4.785   2.981 -0.3340  1.6358  1.0512
 4292TIP3    H212883   2.256   4.656   3.026 -0.3327  0.5160 -1.9439
 4293TIP3   OH212884   4.198   0.567   4.097  0.0042 -0.5706  0.1514
 4293TIP3    H112885   4.130   0.630   4.073 -0.1791 -1.4974 -1.9787
 4293TIP3    H212886   4.150   0.494   4.136  0.0195 -0.2829  0.7221
 4294TIP3   OH212887   0.669   0.182   3.024  0.5184  0.4030 -0.0691
 4294TIP3    H112888   0.588   0.133   3.035  0.3268  0.9034  0.8794
 4294TIP3    H212889   0.728   0.147   3.091  1.3513 -0.4355 -1.1871
 4295TIP3   OH212890   3.440   5.978   1.142 -0.2858 -0.3809  0.4611
 4295TIP3    H112891   3.442   5.904   1.202 -0.7573 -1.3272 -0.6391
 4295TIP3    H212892   3.522   5.971   1.092  0.8496  1.2906  1.9683
 4296TIP3   OH212893   0.991   2.608   1.723 -0.6053  0.4651 -0.2356
 4296TIP3    H112894   0.946   2.691   1.737 -0.8291  0.0376  1.9496
 4296TIP3    H212895   0.922   2.542   1.730 -0.0176 -0.0558  1.0398
 4297TIP3   OH212896   0.112   5.695   4.488 -0.1186 -0.2220  0.2128
 4297TIP3    H112897   0.192   5.647   4.468 -0.3906 -0.0984 -1.2690
 4297TIP3    H212898   0.042   5.632   4.470 -0.4589  0.5680 -1.3665
 4298TIP3   OH212899   1.831   2.249   1.898  0.2056  0.1007  0.0446
 4298TIP3    H112900   1.827   2.245   1.802  1.6718 -0.0106 -0.0369
 4298TIP3    H212901   1.846   2.158   1.925 -1.2386 -0.0382  0.4710
 4299TIP3   OH212902   0.284   0.183   4.683  0.0602  0.2048 -0.1887
 4299TIP3    H112903   0.258   0.110   4.628  0.4269 -0.6029  0.6860
 4299TIP3    H212904   0.214   0.188   4.749  0.8185 -0.3545  0.6685
 4300TIP3   OH212905   0.055   2.430   1.088 -0.1111 -0.1492  0.9808
 4300TIP3    H112906   0.119   2.359   1.080  0.6780  0.6824 -0.5054
 4300TIP3    H212907  -0.014   2.394   1.144  1.6284 -1.0776  2.6323
 4301TIP3   OH212908   5.239   5.977   2.909  0.0046 -0.1488  0.0237
 4301TIP3    H112909   5.286   5.921   2.847 -0.7946 -1.1427  0.2767
 4301TIP3    H212910   5.182   6.031   2.854 -0.3726 -0.7123 -0.1558
 4302TIP3   OH212911   2.722   3.130   3.272 -0.5034  0.7828 -0.2155
 4302TIP3    H112912   2.723   3.084   3.188 -1.5627 -0.0733  0.2162
 4302TIP3    H212913   2.685   3.067   3.334 -3.0378  2.4824  0.2011
 4303TIP3   OH212914   0.724   4.358   2.531 -0.3599 -0.3029  0.0116
 4303TIP3    H112915   0.797   4.420   2.525  0.1182 -0.6300  1.6868
 4303TIP3    H212916   0.686   4.356   2.444 -0.2015  2.1116 -0.1723
 4304TIP3   OH212917   3.086   0.104   4.823 -0.1859  0.2234  0.0196
 4304TIP3    H112918   3.005   0.155   4.833 -1.3646 -1.4462 -0.6354
 4304TIP3    H212919   3.097   0.061   4.908 -0.2056  0.1347 -0.0232
 4305TIP3   OH212920   5.928   1.564   2.288 -0.1452 -0.3431 -0.4458
 4305TIP3    H112921   5.952   1.472   2.300 -2.0080 -0.8846 -0.6420
 4305TIP3    H212922   5.946   1.582   2.196  2.3342  0.2009  0.0559
 4306TIP3   OH212923   3.228   1.945   2.565 -1.0691  0.0033 -0.1398
 4306TIP3    H112924   3.259   1.864   2.525 -0.3344 -0.6798  1.6970
 4306TIP3    H212925   3.132   1.939   2.562 -1.0431  0.1218 -1.9878
 4307TIP3   OH212926   0.585   3.952   4.345 -0.0634  0.3677 -0.4950
 4307TIP3    H112927   0.654   3.957   4.411  0.6087  1.6399 -1.2509
 4307TIP3    H212928   0.559   3.860   4.344  1.1938 -0.0206  0.2536
 4308TIP3   OH212929   3.125   2.879   1.516  0.2222  0.0805 -0.4128
 4308TIP3    H112930   3.062   2.808   1.527 -0.6845  0.2531 -3.4274
 4308TIP3    H212931   3.101   2.919   1.432  2.0529  2.5716  0.1327
 4309TIP3   OH212932   5.819   2.679   2.269 -0.1787  0.2659  0.3644
 4309TIP3    H112933   5.913   2.693   2.280 -0.2116  0.8341 -0.1110
 4309TIP3    H212934   5.778   2.755   2.310 -0.4835 -0.5562  1.6690
 4310TIP3   OH212935   5.692   3.920   1.088 -0.2035  0.1731  0.0198
 4310TIP3    H112936   5.766   3.965   1.048  1.4809 -1.3034  1.2853
 4310TIP3    H212937   5.654   3.866   1.018 -0.1818  1.0247 -0.6622
 4311TIP3   OH212938   5.274   3.032   4.320  0.5778 -0.3389 -0.3161
 4311TIP3    H112939   5.227   2.975   4.259  2.0492 -1.1449 -0.7468
 4311TIP3    H212940   5.275   3.117   4.277 -0.5458 -0.2716 -0.2517
 4312TIP3   OH212941   2.907   1.003   1.787 -0.5858  0.0984 -0.3342
 4312TIP3    H112942   2.876   1.032   1.701 -1.0396  0.5640 -0.0100
 4312TIP3    H212943   2.970   1.070   1.814 -0.3772 -0.0937 -0.3310
 4313TIP3   OH212944   1.099   3.981   0.923  0.3108  0.1332  0.7166
 4313TIP3    H112945   1.089   3.887   0.911 -2.4860  0.4877 -0.4402
 4313TIP3    H212946   1.135   4.013   0.840 -0.2983  0.2571  0.4947
 4314TIP3   OH212947   3.418   0.060   4.514  0.6040 -0.1310  0.2677
 4314TIP3    H112948   3.392   0.111   4.437  0.6697 -0.9920 -0.3404
 4314TIP3    H212949   3.469   0.121   4.567 -1.6637  1.2948  0.9729
 4315TIP3   OH212950   6.023   2.974   4.294 -0.6136 -0.3435  0.2224
 4315TIP3    H112951   5.932   2.957   4.268 -0.5629 -0.1865 -0.0616
 4315TIP3    H212952   6.071   2.980   4.211 -0.6998  1.6268  0.2747
 4316TIP3   OH212953   4.401   2.205   3.466 -0.5933  0.4575  0.2549
 4316TIP3    H112954   4.408   2.264   3.391  1.8005 -0.3847 -0.2972
 4316TIP3    H212955   4.490   2.172   3.478 -1.3749 -1.1812  2.0496
 4317TIP3   OH212956   3.691   5.502   3.246 -0.4181  0.1751  0.1132
 4317TIP3    H112957   3.653   5.487   3.332 -0.6887  1.3839  0.2288
 4317TIP3    H212958   3.700   5.598   3.241  0.0528  0.0816 -0.9995
 4318TIP3   OH212959   1.799   1.461   4.259  0.2011  0.3598  0.2946
 4318TIP3    H112960   1.886   1.447   4.297  0.1238 -0.5675  0.1560
 4318TIP3    H212961   1.739   1.430   4.327  0.0803 -2.1537 -0.8468
 4319TIP3   OH212962   1.406   3.256   2.459  0.1034 -0.1941 -0.1582
 4319TIP3    H112963   1.335   3.193   2.448 -0.2738  0.0872  0.6259
 4319TIP3    H212964   1.363   3.342   2.457  0.1922 -0.0582  1.8489
 4320TIP3   OH212965   4.966   1.746   3.510 -0.1027  0.1874  0.3347
 4320TIP3    H112966   5.001   1.805   3.443  0.0878  0.1232  0.3766
 4320TIP3    H212967   4.969   1.798   3.591  1.1408 -0.2551  0.5930
 4321TIP3   OH212968   4.213   5.750   1.105 -0.4911  0.0714 -0.0248
 4321TIP3    H112969   4.252   5.822   1.154 -1.4816 -0.5007  1.6724
 4321TIP3    H212970   4.127   5.782   1.079 -0.4157 -0.0458 -0.4374
 4322TIP3   OH212971   5.692   3.841   3.352  0.5620 -0.3035  0.0292
 4322TIP3    H112972   5.706   3.793   3.271  1.9278 -1.4727  0.9247
 4322TIP3    H212973   5.768   3.898   3.360  1.2172 -1.2894  1.2104
 4323TIP3   OH212974   3.578   4.724   1.566  0.2142 -0.2460 -0.4121
 4323TIP3    H112975   3.622   4.638   1.569 -1.5943 -1.2546 -1.3531
 4323TIP3    H212976   3.626   4.777   1.630  0.1504 -2.5708  1.7365
 4324TIP3   OH212977   5.067   2.324   2.547 -0.1663  0.7017  0.3440
 4324TIP3    H112978   5.099   2.415   2.542  0.2742  0.5249 -0.2401
 4324TIP3    H212979   5.069   2.293   2.456  1.8452 -0.6059  0.7638
 4325TIP3   OH212980   0.135   0.100   0.062 -0.5676  0.1402 -0.3450
 4325TIP3    H112981   0.118   0.140   0.148  0.7011 -0.8934  0.4282
 4325TIP3    H212982   0.165   0.012   0.083  1.5987  0.4727 -1.7631
 4326TIP3   OH212983   5.537   5.880   4.506 -0.0606  0.3404  0.3970
 4326TIP3    H112984   5.442   5.873   4.497 -0.1251  1.7455 -0.3377
 4326TIP3    H212985   5.570   5.859   4.419  0.2589  0.3965  0.5049
 4327TIP3   OH212986   2.979   4.168   1.418 -0.0072 -0.2087 -0.7186
 4327TIP3    H112987   2.920   4.218   1.362 -0.3640  0.2777  0.0737
 4327TIP3    H212988   2.921   4.112   1.469  0.3601 -1.1522 -1.3013
 4328TIP3   OH212989   0.354   4.979   4.967  0.6682 -0.2247 -0.3959
 4328TIP3    H112990   0.260   4.962   4.958  0.9363 -1.8901 -0.3727
 4328TIP3    H212991   0.372   4.962   5.059  0.5521  2.7925  0.3148
 4329TIP3   OH212992   1.665   1.697   1.597  0.3957 -0.7609  0.5744
 4329TIP3    H112993   1.620   1.781   1.592 -0.9636 -1.4995 -0.2393
 4329TIP3    H212994   1.606   1.636   1.552  2.4258 -1.6800 -1.0229
 4330TIP3   OH212995   4.479   2.252   4.168  0.4430  0.1934  0.4640
 4330TIP3    H112996   4.562   2.251   4.121  0.4513 -0.0092  0.4835
 4330TIP3    H212997   4.504   2.256   4.260  0.5046 -2.6805  0.6545
 4331TIP3   OH212998   3.868   1.144   1.355 -0.3380 -0.2425  0.6157
 4331TIP3    H112999   3.843   1.223   1.403 -0.7629 -0.1980  0.3339
 4331TIP3    H213000   3.903   1.085   1.421  0.5816  0.4216  0.7316
 4332TIP3   OH213001   5.898   2.165   5.081 -0.6054 -0.2123  0.0365
 4332TIP3    H113002   5.921   2.218   5.004 -1.8143  1.2146  0.6121
 4332TIP3    H213003   5.980   2.124   5.107  0.8819  2.8046  0.5966
 4333TIP3   OH213004   4.686   4.868   2.406  0.0884  0.0310 -0.2065
 4333TIP3    H113005   4.758   4.908   2.453  0.9948 -0.9078 -0.7493
 4333TIP3    H213006   4.637   4.819   2.472 -0.6416  1.4409  0.3358
 4334TIP3   OH213007   5.874   1.472   2.807  0.1614  0.5673  0.4218
 4334TIP3    H113008   5.854   1.393   2.757  0.4322  0.1549  0.9531
 4334TIP3    H213009   5.895   1.440   2.895  0.7745  1.1875  0.5088
 4335TIP3   OH213010   0.197   2.270   3.659  0.0727  0.5165  0.1904
 4335TIP3    H113011   0.262   2.221   3.610  1.3995  2.0507  0.3468
 4335TIP3    H213012   0.116   2.219   3.650  1.0755 -0.9675 -0.7344
 4336TIP3   OH213013   0.391   5.327   1.747  0.3577  0.4089  0.0387
 4336TIP3    H113014   0.391   5.420   1.767  1.8648  0.6654 -0.9745
 4336TIP3    H213015   0.315   5.314   1.690 -0.7276  0.7005  1.3700
 4337TIP3   OH213016   3.856   3.422   3.773  0.3842  0.0764 -0.1066
 4337TIP3    H113017   3.866   3.518   3.770  0.0996  0.0862 -1.3494
 4337TIP3    H213018   3.848   3.396   3.681  0.2298 -1.1245  0.2306
 4338TIP3   OH213019   4.898   3.939   1.827 -0.2578 -0.2264  0.1100
 4338TIP3    H113020   4.871   3.985   1.907  0.7491  1.3531 -0.4180
 4338TIP3    H213021   4.866   3.995   1.756  0.9993 -0.3094 -0.5496
 4339TIP3   OH213022  -0.002   0.185   2.921 -0.4050  0.3022 -0.0666
 4339TIP3    H113023   0.090   0.201   2.944 -0.0939  1.5997 -2.0063
 4339TIP3    H213024  -0.051   0.245   2.978 -0.1882 -1.1895  1.7746
 4340TIP3   OH213025   2.387   5.254   2.550 -0.1380 -0.1520  0.8317
 4340TIP3    H113026   2.421   5.250   2.640  0.4791 -0.7042  0.5829
 4340TIP3    H213027   2.447   5.200   2.499 -0.2490  0.4832  0.0037
 4341TIP3   OH213028   0.140   3.570   4.986  0.3512 -0.2103 -0.0358
 4341TIP3    H113029   0.159   3.573   5.080 -0.3253  0.4624  0.0886
 4341TIP3    H213030   0.226   3.566   4.944  0.6617 -0.4655  0.6062
 4342TIP3   OH213031   1.582   1.801   0.395  0.5892 -0.5570  0.6424
 4342TIP3    H113032   1.517   1.861   0.431  1.7629  1.6076 -0.6470
 4342TIP3    H213033   1.531   1.742   0.339 -0.3055  1.2690 -0.5761
 4343TIP3   OH213034   1.428   0.066   1.105  0.1141  0.2328 -0.0549
 4343TIP3    H113035   1.510   0.068   1.155 -0.4150 -3.7939  1.3368
 4343TIP3    H213036   1.360   0.079   1.171 -0.4651 -0.8667 -0.4101
 4344TIP3   OH213037   1.253   2.922   0.867  0.5657  0.4870  0.1673
 4344TIP3    H113038   1.298   2.948   0.948  2.9790  1.1534 -1.3080
 4344TIP3    H213039   1.253   2.826   0.870  0.0358  0.4961  1.2225
 4345TIP3   OH213040   4.566   1.504   0.035  0.2390  0.3155  0.2313
 4345TIP3    H113041   4.560   1.587  -0.013  0.2215  0.0746 -0.1885
 4345TIP3    H213042   4.636   1.518   0.098 -0.2058  0.8745  0.6092
 4346TIP3   OH213043   2.471   4.947   3.388 -0.2857  0.0630  0.1909
 4346TIP3    H113044   2.391   4.955   3.336 -0.8647  0.0498  1.0518
 4346TIP3    H213045   2.515   4.870   3.354 -0.9549 -0.2915  0.1144
 4347TIP3   OH213046   4.322   2.451   4.653 -0.2020  0.0059 -0.3666
 4347TIP3    H113047   4.235   2.474   4.622 -0.0826 -0.1934 -0.8662
 4347TIP3    H213048   4.313   2.440   4.747 -1.0639 -1.6078 -0.6040
 4348TIP3   OH213049   1.444   0.535   0.124  0.4413  0.7552  0.0734
 4348TIP3    H113050   1.509   0.503   0.062  1.6892  1.3479  1.0172
 4348TIP3    H213051   1.407   0.612   0.082  0.8730  0.8272 -0.1867
 4349TIP3   OH213052   1.561   2.161   1.274 -0.3157 -0.9954  0.0910
 4349TIP3    H113053   1.637   2.211   1.244  0.3090 -1.5465  0.7155
 4349TIP3    H213054   1.509   2.148   1.195 -0.0748 -0.0889 -0.2351
 4350TIP3   OH213055   2.895   1.679   3.898  0.3503 -0.0594 -0.2473
 4350TIP3    H113056   2.874   1.691   3.805  0.1976  2.9062  0.0707
 4350TIP3    H213057   2.812   1.651   3.938 -0.5247  1.9429 -0.5452
 4351TIP3   OH213058   3.297   3.438   1.803 -0.3285  0.1730 -0.0370
 4351TIP3    H113059   3.283   3.529   1.776  0.6488  0.7591  1.3111
 4351TIP3    H213060   3.286   3.439   1.898  1.1013 -0.8157  0.1682
 4352TIP3   OH213061   4.891   1.429   4.780  0.1228  0.1534 -0.5697
 4352TIP3    H113062   4.934   1.344   4.770 -0.1046  0.0936 -1.0375
 4352TIP3    H213063   4.959   1.486   4.816  0.8935  0.3166 -2.1896
 4353TIP3   OH213064   1.669   4.102   2.704 -0.2848 -0.1764  0.7853
 4353TIP3    H113065   1.652   4.016   2.666  0.1317  0.6475 -1.4299
 4353TIP3    H213066   1.763   4.104   2.718  0.1467  0.7814 -1.6869
 4354TIP3   OH213067   3.633   3.145   2.725 -0.2211 -0.1339 -0.2860
 4354TIP3    H113068   3.631   3.133   2.820 -2.3579 -0.2133 -0.3071
 4354TIP3    H213069   3.545   3.174   2.703  0.3450  0.2225 -2.2252
 4355TIP3   OH213070   2.018   4.870   0.638 -0.2366 -0.5282 -0.2363
 4355TIP3    H113071   1.928   4.895   0.657 -0.5627 -0.6024 -1.5503
 4355TIP3    H213072   2.045   4.930   0.568  0.4269 -1.0697 -0.4556
 4356TIP3   OH213073   0.764   0.778   2.603 -0.2851  0.1425  0.0730
 4356TIP3    H113074   0.687   0.761   2.549 -0.6832  0.9104  0.3850
 4356TIP3    H213075   0.836   0.736   2.556 -0.8693 -0.4545 -0.2993
 4357TIP3   OH213076   0.520   0.758   2.486 -0.1891 -0.3431 -0.2524
 4357TIP3    H113077   0.463   0.688   2.517 -1.5251  1.3608  1.3860
 4357TIP3    H213078   0.476   0.793   2.409 -0.2593 -0.3854 -0.2319
 4358TIP3   OH213079   2.685   2.475   4.217  0.0708 -0.0597  0.5156
 4358TIP3    H113080   2.709   2.564   4.190  1.5889 -0.5449  0.1451
 4358TIP3    H213081   2.706   2.471   4.310  1.2525 -0.3961  0.2536
 4359TIP3   OH213082   5.481   2.683   1.570  1.0624 -0.0984  0.1671
 4359TIP3    H113083   5.536   2.635   1.507 -0.2779 -0.9674 -0.4031
 4359TIP3    H213084   5.411   2.621   1.592  0.4634  0.8691  1.0682
 4360TIP3   OH213085   3.363   5.125   4.704 -0.2509 -0.0996 -0.1518
 4360TIP3    H113086   3.291   5.106   4.644 -0.0739  0.6864 -0.6303
 4360TIP3    H213087   3.337   5.085   4.787  0.2474 -2.6718 -1.1500
 4361TIP3   OH213088   6.276   5.348   5.137  0.3186  0.0101 -0.4412
 4361TIP3    H113089   6.288   5.284   5.067 -1.8494 -1.0771  0.1029
 4361TIP3    H213090   6.293   5.299   5.218 -1.6747 -0.0571 -0.0002
 4362TIP3   OH213091   6.024   4.936   3.122  0.2014  0.4511 -0.2443
 4362TIP3    H113092   6.096   4.884   3.086  0.1012  0.2823 -0.1974
 4362TIP3    H213093   6.009   4.900   3.209 -1.5417 -1.1038 -1.1205
 4363TIP3   OH213094   3.485   1.335   3.081  0.0209  0.8678  0.2214
 4363TIP3    H113095   3.407   1.388   3.072 -0.1832  0.7536  1.1672
 4363TIP3    H213096   3.474   1.265   3.016 -0.1565  1.4328 -0.3679
 4364TIP3   OH213097   0.340   5.263   3.911 -0.1186 -0.2871 -0.3212
 4364TIP3    H113098   0.378   5.332   3.964 -0.1986 -0.7999  0.4174
 4364TIP3    H213099   0.344   5.296   3.821  0.2727  0.4700 -0.0273
 4365TIP3   OH213100   5.447   4.531   1.719 -0.8194 -0.4794 -0.0527
 4365TIP3    H113101   5.523   4.588   1.730 -0.4457 -1.0709  0.5319
 4365TIP3    H213102   5.484   4.445   1.696 -1.3264 -0.6923 -0.0949
 4366TIP3   OH213103   4.718   3.990   1.404 -0.1462 -0.0077  0.3659
 4366TIP3    H113104   4.697   4.054   1.337  2.1709 -0.2018 -0.6581
 4366TIP3    H213105   4.743   3.911   1.355  1.6390 -0.1464  1.4038
 4367TIP3   OH213106   3.775   2.261   3.776  0.0524  0.3002 -0.0461
 4367TIP3    H113107   3.847   2.210   3.739  0.2919 -0.7564  1.7923
 4367TIP3    H213108   3.706   2.255   3.709  1.1692  0.2097 -1.2410
 4368TIP3   OH213109   6.209   0.029   4.501 -0.2717  0.8045  0.1669
 4368TIP3    H113110   6.258  -0.008   4.574 -0.1590 -2.1473 -1.2554
 4368TIP3    H213111   6.206   0.123   4.519  4.1079  0.9107  1.4022
 4369TIP3   OH213112   3.742   0.894   1.228  0.2182  0.1719 -0.1151
 4369TIP3    H113113   3.829   0.855   1.225  0.0173 -0.3390  0.5716
 4369TIP3    H213114   3.754   0.979   1.269  0.4528  0.2696 -0.3872
 4370TIP3   OH213115   1.271   5.612   0.515 -0.2903 -0.1162 -0.8338
 4370TIP3    H113116   1.222   5.534   0.490 -0.6473 -0.4609  0.8521
 4370TIP3    H213117   1.345   5.614   0.454 -1.7031 -0.2545 -2.6324
 4371TIP3   OH213118   1.645   1.939   0.040 -0.2100  0.1718 -0.3348
 4371TIP3    H113119   1.680   1.859   0.079 -0.5434  0.2632  0.1664
 4371TIP3    H213120   1.686   2.010   0.090  0.3125  0.3269 -0.9703
 4372TIP3   OH213121   4.193   0.632   3.686 -0.3392 -0.2390  0.0870
 4372TIP3    H113122   4.256   0.677   3.630 -0.1420 -1.0163 -0.3260
 4372TIP3    H213123   4.129   0.699   3.708 -0.4666  0.0597 -1.1411
 4373TIP3   OH213124   2.148   2.807   1.841 -0.4015 -0.3760 -0.4018
 4373TIP3    H113125   2.186   2.888   1.808 -0.3805  0.2865  1.1466
 4373TIP3    H213126   2.220   2.744   1.839  0.3350  0.3826  0.8442
 4374TIP3   OH213127   1.207   0.620   4.003  0.6062  0.5076 -0.0475
 4374TIP3    H113128   1.276   0.555   3.990  0.7701  0.4937  0.8152
 4374TIP3    H213129   1.249   0.689   4.054  0.9686  2.2164 -2.4565
 4375TIP3   OH213130   3.377   0.130   4.001  0.1548  0.2571 -0.1484
 4375TIP3    H113131   3.318   0.202   4.023 -0.0120 -0.1865  0.9217
 4375TIP3    H213132   3.355   0.108   3.911 -1.7926 -0.3231  0.4176
 4376TIP3   OH213133   0.454   5.782   2.565 -0.1001 -0.3939  0.5044
 4376TIP3    H113134   0.468   5.842   2.638  1.2158  0.1866 -0.2070
 4376TIP3    H213135   0.542   5.757   2.536 -0.5452  0.1913 -1.5362
 4377TIP3   OH213136   2.129   5.128   2.825  0.2256  0.6093 -0.4364
 4377TIP3    H113137   2.164   5.109   2.738  4.5866 -0.6676  1.3223
 4377TIP3    H213138   2.151   5.220   2.841  0.6376  0.4762 -0.2208
 4378TIP3   OH213139   5.028   1.698   4.000  0.3855 -0.0349 -0.0263
 4378TIP3    H113140   5.015   1.757   4.074  0.4018 -0.6765  0.4966
 4378TIP3    H213141   5.032   1.756   3.924  1.5704  0.7305  0.5980
 4379TIP3   OH213142   0.612   5.154   2.494  0.5154 -0.1398  0.5826
 4379TIP3    H113143   0.519   5.174   2.489  0.3092 -1.0014  0.7679
 4379TIP3    H213144   0.630   5.100   2.417  1.7251  3.0911 -1.6299
 4380TIP3   OH213145   1.573   5.079   2.277 -0.3859  0.6804 -0.2847
 4380TIP3    H113146   1.585   5.001   2.331 -1.9331  0.9985  0.5711
 4380TIP3    H213147   1.564   5.150   2.340 -1.4306  1.1823 -0.9731
 4381TIP3   OH213148   4.589   3.318   1.763 -0.3644 -0.6818 -0.0425
 4381TIP3    H113149   4.666   3.262   1.776 -0.6334 -1.2366 -0.7909
 4381TIP3    H213150   4.622   3.393   1.714 -0.1664 -0.5875  0.2338
 4382TIP3   OH213151   0.783   3.174   3.643  0.6143 -0.3081  0.1851
 4382TIP3    H113152   0.859   3.224   3.610  1.5365 -1.3841  0.6110
 4382TIP3    H213153   0.786   3.092   3.595 -0.3963 -0.3072  0.1019
 4383TIP3   OH213154   2.459   5.669   1.997 -0.3438 -0.1233  0.0303
 4383TIP3    H113155   2.410   5.650   2.078  0.3239 -1.0621  0.2405
 4383TIP3    H213156   2.391   5.680   1.930 -0.8707 -1.6392  0.2631
 4384TIP3   OH213157   1.041   3.645   1.057 -0.2052  0.4246  0.1944
 4384TIP3    H113158   1.065   3.555   1.075 -1.1103 -0.2687 -1.7909
 4384TIP3    H213159   1.109   3.678   0.999 -1.7247 -0.2073 -2.0475
 4385TIP3   OH213160   6.001   5.263   0.781  0.1452 -0.4268  0.3675
 4385TIP3    H113161   6.074   5.279   0.840  0.8138 -1.9934  0.0167
 4385TIP3    H213162   6.040   5.215   0.708 -1.1402 -0.8369 -0.0696
 4386TIP3   OH213163   4.104   5.590   3.131 -0.3998  0.0791  0.3027
 4386TIP3    H113164   4.059   5.672   3.111  0.1505  0.1998 -0.5135
 4386TIP3    H213165   4.115   5.591   3.226  0.9652  1.7245  0.1915
 4387TIP3   OH213166   5.002   5.419   4.171  0.4514  0.2885  0.4689
 4387TIP3    H113167   5.060   5.411   4.095 -0.7901  0.2361 -0.4921
 4387TIP3    H213168   5.061   5.415   4.246  1.7144  0.4278 -0.4852
 4388TIP3   OH213169   4.798   4.660   2.772  0.7226  0.1527 -0.4303
 4388TIP3    H113170   4.888   4.681   2.748  0.8194  0.1976 -0.0477
 4388TIP3    H213171   4.798   4.565   2.785  1.3555  0.4183  2.0290
 4389TIP3   OH213172   3.292   4.625   2.396 -0.6372 -0.2728  0.1264
 4389TIP3    H113173   3.266   4.614   2.304 -3.8279  0.3955  0.8145
 4389TIP3    H213174   3.318   4.537   2.424  0.6694 -0.4276 -1.4559
 4390TIP3   OH213175   5.147   2.582   4.816  0.3176 -0.1869 -0.3105
 4390TIP3    H113176   5.195   2.505   4.788  0.0423 -0.3190 -0.4242
 4390TIP3    H213177   5.121   2.625   4.735  0.1329 -0.1847 -0.2503
 4391TIP3   OH213178   5.132   3.055   3.917  0.4570  0.5939 -0.0102
 4391TIP3    H113179   5.193   3.096   3.856  1.5040  1.1096  1.3227
 4391TIP3    H213180   5.093   3.128   3.964 -1.0292  0.2486 -0.6672
 4392TIP3   OH213181   4.253   1.697   1.829 -0.0498  0.5796  0.0021
 4392TIP3    H113182   4.327   1.751   1.857  0.5784 -0.9546  1.5251
 4392TIP3    H213183   4.294   1.619   1.791 -0.8944  0.3332 -0.4148
 4393TIP3   OH213184   0.653   1.951   3.488 -0.0468 -0.1816 -0.0725
 4393TIP3    H113185   0.742   1.970   3.518 -0.1090  0.8691 -0.5253
 4393TIP3    H213186   0.663   1.933   3.394 -0.5119  1.6637 -0.5145
 4394TIP3   OH213187   3.103   3.323   4.887 -0.1083  0.4216  0.1946
 4394TIP3    H113188   3.038   3.346   4.954  0.0267  1.7016 -0.0891
 4394TIP3    H213189   3.051   3.314   4.807 -0.4255 -2.1364  0.6026
 4395TIP3   OH213190   3.367   4.724   1.903  0.5671  0.1937 -0.1620
 4395TIP3    H113191   3.322   4.776   1.836 -2.0186 -1.2093  0.3740
 4395TIP3    H213192   3.440   4.780   1.931 -1.0631  2.8139 -0.7969
 4396TIP3   OH213193   5.466   3.426   1.485  0.3208  0.2473  0.4157
 4396TIP3    H113194   5.378   3.394   1.506 -0.9595  0.0362 -4.2062
 4396TIP3    H213195   5.518   3.347   1.473  0.5285  0.3194  0.8058
 4397TIP3   OH213196   2.889   2.509   1.754 -0.5105  0.1233  0.0710
 4397TIP3    H113197   2.938   2.579   1.797 -1.0475  0.2539  0.4889
 4397TIP3    H213198   2.935   2.429   1.779  0.4492  0.3558 -0.8788
 4398TIP3   OH213199   2.770   4.634   4.339  0.2870 -0.9003 -0.4112
 4398TIP3    H113200   2.827   4.588   4.277  0.3580  0.2561 -1.2396
 4398TIP3    H213201   2.698   4.667   4.285  0.1212 -0.2446  0.1972
 4399TIP3   OH213202   1.463   2.758   2.952  0.3565  0.1421  0.1517
 4399TIP3    H113203   1.382   2.806   2.973 -0.1223 -0.2582 -0.7024
 4399TIP3    H213204   1.521   2.825   2.915  0.4938  0.4691  0.9367
 4400TIP3   OH213205   2.164   5.856   2.484  0.0541  0.1301 -0.5575
 4400TIP3    H113206   2.217   5.870   2.563 -1.3512  0.5741  0.3567
 4400TIP3    H213207   2.137   5.944   2.457 -0.0690 -0.0744 -1.1160
 4401TIP3   OH213208   5.598   5.170   0.913 -0.1504  0.4225 -0.3368
 4401TIP3    H113209   5.522   5.184   0.969  0.2045 -1.0796  0.6006
 4401TIP3    H213210   5.673   5.187   0.970  0.2318 -2.0262  0.0265
 4402TIP3   OH213211   4.027   2.353   1.787  0.1545 -0.0211  0.2017
 4402TIP3    H113212   4.069   2.392   1.863 -0.6685 -0.2574  0.7897
 4402TIP3    H213213   3.933   2.371   1.799 -0.0188 -0.3804 -0.5608
 4403TIP3   OH213214   2.413   3.754   0.844  0.4400  0.1400 -0.6675
 4403TIP3    H113215   2.471   3.683   0.874 -0.4869 -1.2821 -2.1114
 4403TIP3    H213216   2.333   3.743   0.895  0.5593  0.6277 -0.3676
 4404TIP3   OH213217   2.398   0.771   4.514  0.4013  0.9014 -0.1304
 4404TIP3    H113218   2.345   0.846   4.488  0.0268  1.1252  1.2192
 4404TIP3    H213219   2.383   0.763   4.608 -0.0402 -1.2291 -0.3410
 4405TIP3   OH213220   4.410   1.655   4.086 -0.1806 -0.2678  0.0640
 4405TIP3    H113221   4.391   1.748   4.092 -2.2361 -0.3162 -3.0762
 4405TIP3    H213222   4.340   1.620   4.030  0.7014 -3.6448  0.8478
 4406TIP3   OH213223   4.332   0.599   1.921 -0.0729 -0.2523 -0.0817
 4406TIP3    H113224   4.239   0.580   1.919 -0.2536  0.6338 -1.5392
 4406TIP3    H213225   4.368   0.550   1.847  0.9569 -1.9932  1.4690
 4407TIP3   OH213226   4.248   4.941   4.239  0.0771 -0.0661  0.3572
 4407TIP3    H113227   4.305   4.889   4.295 -1.3823 -1.0329  1.0051
 4407TIP3    H213228   4.160   4.908   4.257 -0.6144  0.7981 -1.2281
 4408TIP3   OH213229   4.992   5.951   3.463 -0.2407  0.3194 -0.5699
 4408TIP3    H113230   4.984   5.876   3.522 -0.7206 -0.8780 -2.0665
 4408TIP3    H213231   5.071   5.996   3.492  0.0983 -0.8040  0.3414
 4409TIP3   OH213232   2.299   2.632   2.475  0.6158  0.6128  0.3555
 4409TIP3    H113233   2.382   2.606   2.435 -0.6903 -1.3608 -1.3043
 4409TIP3    H213234   2.252   2.549   2.488 -1.4830  1.7407  0.3348
 4410TIP3   OH213235   1.457   4.457   2.132 -0.5472 -0.3233  0.3495
 4410TIP3    H113236   1.394   4.524   2.159 -0.1631  0.5156 -0.7467
 4410TIP3    H213237   1.475   4.408   2.212 -1.1781  0.6073  1.0927
 4411TIP3   OH213238   1.117   2.861   5.129 -0.3238 -0.0621 -0.3345
 4411TIP3    H113239   1.081   2.949   5.127 -0.8706 -0.2647  0.4384
 4411TIP3    H213240   1.067   2.815   5.196  0.1780 -0.8665 -0.4914
 4412TIP3   OH213241   1.842   0.458   4.610  0.4760  0.1262 -0.5012
 4412TIP3    H113242   1.819   0.366   4.627  0.8435  0.2103  0.5560
 4412TIP3    H213243   1.802   0.506   4.683 -0.8591  0.9855 -1.7674
 4413TIP3   OH213244   0.595   5.526   0.455  0.2912  0.3875  0.1381
 4413TIP3    H113245   0.595   5.509   0.549  2.5641 -0.6800  0.0150
 4413TIP3    H213246   0.637   5.612   0.446  2.2475 -0.5200  0.0448
 4414TIP3   OH213247   4.756   1.089   0.493 -0.1432  0.1940 -0.2197
 4414TIP3    H113248   4.695   1.015   0.501  0.5380 -0.3914 -0.2874
 4414TIP3    H213249   4.827   1.054   0.440 -0.1248  1.1138 -0.8174
 4415TIP3   OH213250   1.743   2.232   3.978  0.2733  0.3781  0.1835
 4415TIP3    H113251   1.797   2.302   3.941 -1.4429  0.4957 -2.3610
 4415TIP3    H213252   1.805   2.161   3.995  1.7455  1.7557  0.8578
 4416TIP3   OH213253   5.252   1.476   4.823  0.2055  0.1757 -0.0986
 4416TIP3    H113254   5.243   1.563   4.785  0.7628  0.8482  1.2266
 4416TIP3    H213255   5.209   1.483   4.909  1.7590 -0.3306  0.7512
 4417TIP3   OH213256   2.845   0.212   4.917  0.1620  0.2603 -0.4005
 4417TIP3    H113257   2.807   0.297   4.893  2.1509  1.2534 -0.2904
 4417TIP3    H213258   2.780   0.172   4.974 -0.6242  1.9552 -0.0391
 4418TIP3   OH213259   6.054   0.855   4.754  0.0850  0.0340 -0.0612
 4418TIP3    H113260   6.082   0.930   4.807 -0.2847 -0.3800  0.7464
 4418TIP3    H213261   5.958   0.858   4.759  0.0714 -0.5677  0.0964
 4419TIP3   OH213262   4.648   3.301   3.509 -0.1606 -0.3847 -0.0515
 4419TIP3    H113263   4.611   3.309   3.421  0.2382 -1.6981 -0.3654
 4419TIP3    H213264   4.743   3.307   3.495 -0.0923 -0.6661  0.2651
 4420TIP3   OH213265   5.652   1.805   2.809  0.3420 -0.3871 -0.0240
 4420TIP3    H113266   5.648   1.898   2.832 -1.3559 -0.3350 -0.4090
 4420TIP3    H213267   5.673   1.760   2.891  1.0753  0.3135  0.1851
 4421TIP3   OH213268   0.617   0.528   4.772  0.0480  0.3610 -0.0335
 4421TIP3    H113269   0.571   0.480   4.703  0.7887 -0.7557  0.2322
 4421TIP3    H213270   0.710   0.514   4.753  0.2604  0.5615  0.8279
 4422TIP3   OH213271   5.016   4.155   4.218 -0.7795 -0.0342 -0.1536
 4422TIP3    H113272   5.055   4.119   4.297 -0.3707  1.4359  0.3344
 4422TIP3    H213273   4.980   4.239   4.244 -0.5985  0.5041 -1.5446
 4423TIP3   OH213274   5.942   5.920   4.526  0.0437  0.4283 -0.1552
 4423TIP3    H113275   5.882   5.851   4.556 -0.2373  1.2433  1.2808
 4423TIP3    H213276   6.005   5.874   4.471 -0.6876 -0.8078 -0.0259
 4424TIP3   OH213277   3.461   5.344   2.959 -0.2861 -0.0025  0.1141
 4424TIP3    H113278   3.459   5.439   2.969  2.5338  0.0335  1.3021
 4424TIP3    H213279   3.370   5.320   2.944 -1.2210  2.7771  0.6376
 4425TIP3   OH213280   3.164   1.629   3.818  0.2449  0.2327 -0.4296
 4425TIP3    H113281   3.108   1.673   3.881 -0.9012 -0.8144 -0.6838
 4425TIP3    H213282   3.247   1.617   3.864 -0.5014 -0.3097  0.8222
 4426TIP3   OH213283   1.071   5.948   4.139 -0.1012  0.1868  0.1387
 4426TIP3    H113284   1.149   5.999   4.117 -2.6584  4.4267 -0.1728
 4426TIP3    H213285   1.063   5.885   4.068  1.5610  1.4638 -1.2651
 4427TIP3   OH213286   6.327   3.446   4.332 -0.3159 -0.9633  0.4913
 4427TIP3    H113287   6.333   3.542   4.334  2.0532 -0.9968 -0.7865
 4427TIP3    H213288   6.275   3.428   4.253  3.6177 -0.6132 -2.5114
 4428TIP3   OH213289   5.247   3.907   1.638 -0.0228 -0.1322  0.0863
 4428TIP3    H113290   5.341   3.907   1.653 -0.0227 -2.5657  0.4541
 4428TIP3    H213291   5.212   3.963   1.707  1.0495 -0.1087  0.6342
 4429TIP3   OH213292   5.200   5.873   1.678 -0.4581  0.9919 -0.3292
 4429TIP3    H113293   5.203   5.778   1.685  1.4558  1.0365  0.1217
 4429TIP3    H213294   5.163   5.890   1.592 -1.0531 -0.1436 -0.3182
 4430TIP3   OH213295   3.779   0.857   3.862  0.3758 -0.7060 -0.6949
 4430TIP3    H113296   3.740   0.814   3.785 -1.5546 -0.2216 -0.0322
 4430TIP3    H213297   3.750   0.948   3.856  0.0177 -0.7136  0.7249
 4431TIP3   OH213298   0.643   3.558   1.306  0.3272  0.0580 -0.0616
 4431TIP3    H113299   0.697   3.482   1.330 -0.0317  0.1115  0.9583
 4431TIP3    H213300   0.704   3.631   1.309 -0.3253  0.7001  4.4763
 4432TIP3   OH213301   4.176   2.599   3.827 -0.7475  0.1485 -0.2497
 4432TIP3    H113302   4.184   2.630   3.737 -0.2710 -0.5123 -0.4371
 4432TIP3    H213303   4.092   2.634   3.856 -1.2490 -0.2287 -1.1906
 4433TIP3   OH213304   5.869   1.601   1.297 -0.7226  0.2974  0.3616
 4433TIP3    H113305   5.854   1.692   1.272  1.4928  0.7102  0.3620
 4433TIP3    H213306   5.868   1.553   1.214 -1.6800  0.3385  0.3409
 4434TIP3   OH213307   2.427   4.284   1.899  0.1026  0.0120 -0.2264
 4434TIP3    H113308   2.391   4.343   1.966  0.1652  0.0411 -0.2186
 4434TIP3    H213309   2.433   4.199   1.943 -1.6369 -0.4256 -0.7441
 4435TIP3   OH213310   4.153   3.532   5.075  0.0976 -0.8200 -0.0830
 4435TIP3    H113311   4.190   3.618   5.096 -0.4394 -0.8288  1.0049
 4435TIP3    H213312   4.063   3.536   5.108 -0.3122 -1.3952 -1.1017
 4436TIP3   OH213313   0.780   0.223   5.134  0.1124  0.0270  0.2675
 4436TIP3    H113314   0.829   0.305   5.131  2.5242 -1.3128  0.0365
 4436TIP3    H213315   0.810   0.174   5.057 -0.3113 -1.5370  1.0398
 4437TIP3   OH213316   3.930   2.613   0.925 -0.0901  0.3046 -0.4559
 4437TIP3    H113317   3.932   2.663   0.843  0.0926 -0.7628 -1.1295
 4437TIP3    H213318   3.937   2.522   0.897 -2.6587 -0.2843  0.5788
 4438TIP3   OH213319   0.354   0.112   1.279 -0.5067  0.0258 -0.3771
 4438TIP3    H113320   0.298   0.185   1.306 -0.6854  0.1361 -1.0385
 4438TIP3    H213321   0.347   0.049   1.350 -0.7615  0.4290 -0.0403
 4439TIP3   OH213322   4.953   5.176   2.350  0.5577  0.0880 -0.3771
 4439TIP3    H113323   4.879   5.152   2.406  1.6570 -2.5392  0.0785
 4439TIP3    H213324   4.926   5.149   2.262  0.9086 -0.8142 -0.2202
 4440TIP3   OH213325   1.621   0.644   1.603  0.4910 -0.1971 -0.7733
 4440TIP3    H113326   1.699   0.590   1.587  0.4415 -0.5410  0.1531
 4440TIP3    H213327   1.559   0.616   1.536  1.1355  0.0590 -1.5107
 4441TIP3   OH213328   4.017   1.519   3.034  0.8038 -0.4727  0.0981
 4441TIP3    H113329   3.978   1.604   3.013 -0.9057 -1.0842  0.6566
 4441TIP3    H213330   4.087   1.539   3.096  0.8276  0.5853 -0.2507
 4442TIP3   OH213331   2.281   0.504   1.272 -0.3777  0.2759  0.3471
 4442TIP3    H113332   2.373   0.524   1.284 -0.4563  1.6536 -1.0672
 4442TIP3    H213333   2.242   0.586   1.241 -1.4129 -1.1232 -2.3861
 4443TIP3   OH213334   5.474   2.514   0.217  0.0847  0.0984  0.2248
 4443TIP3    H113335   5.529   2.521   0.140 -0.1263  0.6518  0.1180
 4443TIP3    H213336   5.416   2.590   0.212  0.2114  0.2605  1.0402
 4444TIP3   OH213337   1.989   3.922   1.890 -0.2522  0.0160 -0.2532
 4444TIP3    H113338   1.944   4.002   1.863 -0.2575  0.3055  0.5784
 4444TIP3    H213339   1.928   3.879   1.950  1.5612  1.8134  3.1577
 4445TIP3   OH213340   5.147   3.803   1.129 -0.2357  0.1162 -0.1736
 4445TIP3    H113341   5.179   3.821   1.217 -0.2038  0.5622 -0.2768
 4445TIP3    H213342   5.192   3.866   1.073 -0.8643  0.3772 -0.3968
 4446TIP3   OH213343   6.025   0.618   2.698  0.2300 -0.1529 -0.3300
 4446TIP3    H113344   6.012   0.696   2.751  0.5067  0.0884 -0.6155
 4446TIP3    H213345   5.940   0.602   2.658  0.1595 -0.0287 -0.2300
 4447TIP3   OH213346   4.607   3.809   1.163  0.1996  0.8637  0.0993
 4447TIP3    H113347   4.696   3.774   1.156 -0.0029  0.3915 -0.1554
 4447TIP3    H213348   4.570   3.766   1.240 -0.0712  0.4637 -0.2501
 4448TIP3   OH213349   0.619   5.859   4.376 -0.7985 -0.0960 -0.1890
 4448TIP3    H113350   0.579   5.884   4.459 -1.2775  0.0625 -0.4624
 4448TIP3    H213351   0.713   5.853   4.394 -0.9810 -0.8518  0.5630
 4449TIP3   OH213352   2.272   2.204   0.654  0.5816  0.4854  0.6988
 4449TIP3    H113353   2.203   2.141   0.634  0.2407  0.8344  0.7661
 4449TIP3    H213354   2.226   2.280   0.689  1.0313  0.5794  1.0937
 4450TIP3   OH213355   0.596   4.772   4.697  0.6017 -0.1590  0.2738
 4450TIP3    H113356   0.580   4.761   4.791 -0.5852 -0.2675  0.0685
 4450TIP3    H213357   0.632   4.688   4.668  1.4095  0.0243  0.7031
 4451TIP3   OH213358   0.722   5.749   4.686  0.4328 -0.8512 -0.4530
 4451TIP3    H113359   0.726   5.833   4.732 -1.3008  0.2977 -2.2534
 4451TIP3    H213360   0.796   5.751   4.625  0.5131 -0.7206 -0.3508
 4452TIP3   OH213361   3.553   5.718   0.190 -0.8321 -0.1029 -0.0994
 4452TIP3    H113362   3.587   5.797   0.149 -0.0440 -0.2997  0.1550
 4452TIP3    H213363   3.587   5.647   0.136 -1.1621 -0.2898 -0.0638
 4453TIP3   OH213364   0.962   2.462   4.233 -0.3971  0.3981 -0.0690
 4453TIP3    H113365   0.928   2.439   4.320 -1.9011  0.7878 -0.5278
 4453TIP3    H213366   1.014   2.541   4.248 -1.2169  0.8712  0.3981
 4454TIP3   OH213367   6.052   5.514   5.147 -0.0718  0.0786  0.3237
 4454TIP3    H113368   6.116   5.444   5.136 -1.6653 -1.5233  0.8056
 4454TIP3    H213369   5.972   5.469   5.175 -1.2438  2.0697  0.3349
 4455TIP3   OH213370   2.083   5.897   4.144  0.3513 -0.2301  0.0694
 4455TIP3    H113371   2.128   5.833   4.200 -0.1817 -1.9623 -1.3972
 4455TIP3    H213372   2.132   5.978   4.157  3.6573 -1.8736 -1.0689
 4456TIP3   OH213373   2.119   3.470   1.816  0.6673  0.4533  0.1103
 4456TIP3    H113374   2.024   3.481   1.803  0.3065  0.6439  2.4335
 4456TIP3    H213375   2.143   3.401   1.755 -0.8643  0.7430 -0.8970
 4457TIP3   OH213376   1.729   5.558   2.633 -0.2426 -0.6603  0.3580
 4457TIP3    H113377   1.747   5.468   2.659 -1.5302 -0.5013  2.0064
 4457TIP3    H213378   1.770   5.611   2.701 -0.1560 -0.0315 -0.1755
 4458TIP3   OH213379   5.863   2.778   3.064  0.2483  0.0709 -0.5076
 4458TIP3    H113380   5.791   2.823   3.109  1.9852 -0.4037  3.0116
 4458TIP3    H213381   5.836   2.686   3.061  0.7676 -0.1599  1.0977
 4459TIP3   OH213382   5.552   3.907   1.738 -0.5034 -0.0665 -0.0715
 4459TIP3    H113383   5.560   3.841   1.669  1.5503  1.1767 -1.1258
 4459TIP3    H213384   5.554   3.991   1.691 -2.7647  0.7961  1.2430
 4460TIP3   OH213385   3.503   2.301   1.973 -0.2091  0.0561 -0.9040
 4460TIP3    H113386   3.419   2.347   1.976 -0.9858 -1.3548  2.1336
 4460TIP3    H213387   3.481   2.210   1.957  0.8260 -0.2240 -0.8452
 4461TIP3   OH213388   1.098   2.893   4.767  0.4656 -0.3856 -0.5467
 4461TIP3    H113389   1.135   2.851   4.689 -0.1963 -0.5507 -0.7715
 4461TIP3    H213390   1.079   2.820   4.826  1.6478 -0.2169  0.0843
 4462TIP3   OH213391   3.097   0.535   3.635 -0.3964  0.0427 -0.4028
 4462TIP3    H113392   3.025   0.577   3.588 -0.3283  0.3742 -0.2158
 4462TIP3    H213393   3.068   0.535   3.726 -0.4513 -0.4362 -0.4208
 4463TIP3   OH213394   2.575   3.665   2.426  0.2205 -0.4655  0.5978
 4463TIP3    H113395   2.602   3.700   2.511 -1.4443 -0.4265  1.1471
 4463TIP3    H213396   2.546   3.742   2.377 -0.4260 -0.6955  0.6216
 4464TIP3   OH213397   2.614   3.521   3.303  0.4367  0.1566  0.5293
 4464TIP3    H113398   2.622   3.495   3.211  2.3792 -0.9847  0.9765
 4464TIP3    H213399   2.635   3.614   3.303 -0.8548  0.4720 -0.3330
 4465TIP3   OH213400   0.774   4.580   4.350  0.3085  0.1704  0.4402
 4465TIP3    H113401   0.719   4.514   4.306  0.5166 -0.6040  1.3161
 4465TIP3    H213402   0.758   4.661   4.301 -0.7090 -0.3097 -0.0521
 4466TIP3   OH213403   2.006   0.549   4.915 -0.7758  0.1134 -0.0033
 4466TIP3    H113404   2.083   0.538   4.970 -0.6647  1.4637  0.1458
 4466TIP3    H213405   1.992   0.463   4.875  0.5461 -0.2590  0.2957
 4467TIP3   OH213406   3.764   4.907   1.632 -0.2414 -0.4883  0.3426
 4467TIP3    H113407   3.773   4.868   1.545 -2.1716 -1.4633  0.5127
 4467TIP3    H213408   3.722   4.992   1.616  1.7474  0.5125  0.1659
 4468TIP3   OH213409   1.612   5.998   3.431  0.3259  0.1435  0.4626
 4468TIP3    H113410   1.601   5.924   3.372  0.2637  0.3628  0.1923
 4468TIP3    H213411   1.601   5.962   3.519  0.0934 -0.1262  0.3230
 4469TIP3   OH213412   3.594   2.124   3.413 -0.0053 -0.1043  0.4587
 4469TIP3    H113413   3.678   2.162   3.387 -0.0514  1.4177  2.3200
 4469TIP3    H213414   3.618   2.048   3.467  0.1780  0.2884  0.9307
 4470TIP3   OH213415   5.028   4.339   1.941  0.2451  0.1013 -0.6017
 4470TIP3    H113416   5.001   4.256   1.981  0.7028 -0.2035 -0.9157
 4470TIP3    H213417   5.029   4.321   1.847 -0.5769  0.7421 -0.7475
 4471TIP3   OH213418   1.181   2.882   2.644  0.3845 -0.4599  0.4228
 4471TIP3    H113419   1.232   2.865   2.723  0.4463 -0.6678  0.3395
 4471TIP3    H213420   1.245   2.872   2.573  0.4081  0.0651  0.3695
 4472TIP3   OH213421   1.131   2.579  -0.013  0.1218 -0.1979 -0.3522
 4472TIP3    H113422   1.153   2.574   0.080 -1.8297  3.3898  0.4783
 4472TIP3    H213423   1.095   2.493  -0.034 -0.4179 -0.7668  2.5141
 4473TIP3   OH213424   4.555   1.953   2.368 -0.3201  0.0583  0.6061
 4473TIP3    H113425   4.481   1.989   2.319  0.7602 -0.3857 -1.4726
 4473TIP3    H213426   4.611   2.028   2.385 -0.3416  0.0966  0.5063
 4474TIP3   OH213427   3.413   3.159   4.931 -0.1949  0.0162  0.5474
 4474TIP3    H113428   3.357   3.210   4.990  0.0940  0.4507  0.4472
 4474TIP3    H213429   3.352   3.124   4.866 -0.4781 -0.2544  0.9538
 4475TIP3   OH213430   4.544   4.682   1.658 -0.2756  0.0520  0.0474
 4475TIP3    H113431   4.573   4.728   1.737 -3.1443 -0.4844  1.5477
 4475TIP3    H213432   4.577   4.593   1.668 -0.9334 -0.1144  0.8979
 4476TIP3   OH213433   6.278   0.719   3.619  0.6311 -0.5431  0.0941
 4476TIP3    H113434   6.324   0.777   3.680  1.1629 -1.1841  0.3066
 4476TIP3    H213435   6.284   0.765   3.535 -0.9727  0.8369  0.6639
 4477TIP3   OH213436   5.319   4.774   2.537 -0.3572 -0.2409  0.3422
 4477TIP3    H113437   5.371   4.809   2.465  2.0673 -1.5877  1.3223
 4477TIP3    H213438   5.234   4.817   2.529  0.5597  1.2952 -1.9656
 4478TIP3   OH213439   4.653   5.271   4.809  0.1399 -0.4607 -0.3186
 4478TIP3    H113440   4.617   5.198   4.860 -0.5589  0.3158  0.3258
 4478TIP3    H213441   4.579   5.329   4.794  0.8750  0.6077  0.0301
 4479TIP3   OH213442   0.225   3.290   0.126 -0.2446  0.3022  0.4379
 4479TIP3    H113443   0.244   3.250   0.211 -2.6400 -0.3552  0.7225
 4479TIP3    H213444   0.176   3.223   0.079 -0.5505  1.3477 -0.7670
 4480TIP3   OH213445   2.849   1.374   2.325 -0.2698  0.3184 -0.0032
 4480TIP3    H113446   2.911   1.322   2.275 -0.0258  1.2626 -0.6977
 4480TIP3    H213447   2.827   1.319   2.401 -1.1582 -1.4306 -1.4492
 4481TIP3   OH213448   4.699   2.379   0.909 -1.3645 -0.2859  0.0290
 4481TIP3    H113449   4.616   2.348   0.946 -0.5871 -0.3129  1.8594
 4481TIP3    H213450   4.757   2.302   0.914 -0.0060  0.7805  2.7662
 4482TIP3   OH213451   0.450   1.443   3.557  0.1344 -0.2013 -0.2955
 4482TIP3    H113452   0.478   1.504   3.625 -0.2682 -0.7148  0.3414
 4482TIP3    H213453   0.509   1.460   3.483  1.5808 -0.7032  0.7210
 4483TIP3   OH213454   2.703   5.571   5.038  0.4849  0.2927  0.4958
 4483TIP3    H113455   2.791   5.540   5.016  0.1735 -0.0891 -0.2612
 4483TIP3    H213456   2.710   5.666   5.038  0.2415  0.4153 -2.6162
 4484TIP3   OH213457   5.662   1.296   0.743 -0.2224 -0.0697 -0.2047
 4484TIP3    H113458   5.684   1.354   0.670  1.9059  0.8357  1.0742
 4484TIP3    H213459   5.566   1.290   0.740 -0.7008  4.2007  0.0395
 4485TIP3   OH213460   1.463   0.500   1.436 -0.0898 -0.1925  0.4257
 4485TIP3    H113461   1.443   0.427   1.494 -0.4087 -0.2506  0.2446
 4485TIP3    H213462   1.494   0.460   1.355 -0.8853 -0.1552  0.0890
 4486TIP3   OH213463   5.102   0.692   1.687  0.5587  0.0524 -0.8246
 4486TIP3    H113464   5.061   0.696   1.773  1.3440 -0.0720 -0.4295
 4486TIP3    H213465   5.096   0.781   1.653  0.1674  0.0820 -0.6813
 4487TIP3   OH213466   2.489   1.094   4.914  0.1318  0.6305  0.1519
 4487TIP3    H113467   2.424   1.073   4.847 -0.1735  0.3403  0.5404
 4487TIP3    H213468   2.439   1.134   4.985  0.2899 -0.1269  0.7006
 4488TIP3   OH213469   0.940   1.565   2.402  0.2694 -0.0471 -0.2050
 4488TIP3    H113470   1.022   1.515   2.393 -0.1679 -0.4249 -2.8767
 4488TIP3    H213471   0.966   1.656   2.395  0.4259 -0.1970 -2.0263
 4489TIP3   OH213472   2.707   0.801   3.859 -0.7767 -0.5323  0.1243
 4489TIP3    H113473   2.618   0.837   3.864 -1.3177 -1.5929 -1.1335
 4489TIP3    H213474   2.699   0.728   3.797  0.7300 -1.4029  0.9028
 4490TIP3   OH213475   2.272   1.219   5.138  0.1621 -0.1763  0.6790
 4490TIP3    H113476   2.201   1.181   5.087 -1.4487 -0.9523  3.3426
 4490TIP3    H213477   2.323   1.144   5.169  1.3821  0.3081 -0.0749
 4491TIP3   OH213478   6.111   5.611   4.374 -0.0587  0.5081  0.2254
 4491TIP3    H113479   6.056   5.588   4.299  0.9306 -0.5669 -0.2131
 4491TIP3    H213480   6.146   5.698   4.353 -2.8681  2.0185  1.3128
 4492TIP3   OH213481   0.312   2.727   1.617 -0.2220  0.4083  0.0290
 4492TIP3    H113482   0.239   2.750   1.674 -0.0592  0.5427  0.1838
 4492TIP3    H213483   0.277   2.733   1.529  0.0172  1.9639  0.0245
 4493TIP3   OH213484   5.218   1.765   0.401  0.0125  0.0105 -0.1000
 4493TIP3    H113485   5.277   1.807   0.338 -0.1944 -1.1048 -1.0680
 4493TIP3    H213486   5.196   1.681   0.361 -1.8900  0.2039  0.4420
 4494TIP3   OH213487   2.381   5.993   5.187 -0.9705  0.1227  0.3251
 4494TIP3    H113488   2.383   5.995   5.091  0.5015  1.1616  0.3400
 4494TIP3    H213489   2.365   5.901   5.209  0.6016 -0.5046 -0.9378
 4495TIP3   OH213490   2.913   5.116   4.397 -0.3300  0.3650  0.3622
 4495TIP3    H113491   2.817   5.107   4.394 -0.2145 -1.2307  0.5570
 4495TIP3    H213492   2.938   5.129   4.306 -0.6717 -0.1226  0.1900
 4496TIP3   OH213493   3.705   5.805   3.283  0.1905 -0.1390  0.1897
 4496TIP3    H113494   3.611   5.806   3.263  0.2085 -1.1705 -0.0311
 4496TIP3    H213495   3.710   5.829   3.376 -0.1590  1.3942 -0.1700
 4497TIP3   OH213496   0.468   2.744   2.183  0.1573 -0.0459  0.1912
 4497TIP3    H113497   0.491   2.665   2.232 -1.2355 -0.3838  0.3445
 4497TIP3    H213498   0.383   2.771   2.220  0.3420  1.1986 -0.2510
 4498TIP3   OH213499   1.213   3.703   0.350 -0.5031 -0.0030  0.4602
 4498TIP3    H113500   1.157   3.731   0.278 -1.3777  0.4330  1.2905
 4498TIP3    H213501   1.155   3.659   0.411  0.0758  0.3113  1.2631
 4499TIP3   OH213502   3.692   2.205   3.129 -0.3363  0.5544  0.2237
 4499TIP3    H113503   3.728   2.241   3.048 -2.3125  1.0033 -0.5355
 4499TIP3    H213504   3.750   2.133   3.152  0.7462  0.9519 -1.1217
 4500TIP3   OH213505   1.957   4.204   1.338 -0.2162 -0.1831 -0.1216
 4500TIP3    H113506   1.960   4.204   1.242  1.1053 -1.7815 -0.1180
 4500TIP3    H213507   1.967   4.296   1.362  0.8449  0.0961 -1.5109
 4501TIP3   OH213508   1.681   0.832   1.098 -0.4135  0.2910  0.4227
 4501TIP3    H113509   1.631   0.913   1.098 -0.9042  0.1966 -3.4658
 4501TIP3    H213510   1.619   0.765   1.068  0.5871 -1.0503  1.2096
 4502TIP3   OH213511   5.610   0.064   4.283  0.1967 -0.2849 -0.6010
 4502TIP3    H113512   5.681   0.003   4.304  0.3987  0.1572  0.0167
 4502TIP3    H213513   5.587   0.104   4.366  0.2686  0.7015 -1.0495
 4503TIP3   OH213514   2.089  -0.010   3.841  0.3861 -0.6105  0.0547
 4503TIP3    H113515   2.157   0.054   3.864  0.2098 -0.8017  1.1258
 4503TIP3    H213516   2.051   0.025   3.760  2.4643 -1.0574 -1.2104
 4504TIP3   OH213517   1.830   1.475   0.108 -0.0417 -0.1080  0.2304
 4504TIP3    H113518   1.775   1.504   0.035  0.3198 -2.1408 -0.9531
 4504TIP3    H213519   1.904   1.431   0.065  1.5503  0.9160  1.8163
 4505TIP3   OH213520   5.591   4.008   4.511  0.4319 -0.4004  0.5453
 4505TIP3    H113521   5.616   4.049   4.428 -0.0241 -1.1078  0.0368
 4505TIP3    H213522   5.661   4.030   4.572  1.4717 -0.9878 -0.3901
 4506TIP3   OH213523   1.482   3.821   0.258  0.6015  0.0899  0.4254
 4506TIP3    H113524   1.497   3.901   0.207 -0.5876 -0.3421 -0.6662
 4506TIP3    H213525   1.397   3.837   0.301  1.0873  0.0142  1.4396
 4507TIP3   OH213526   5.418   0.708   3.610 -0.1665  0.1074  0.0428
 4507TIP3    H113527   5.328   0.674   3.609 -0.1809  0.0028  2.0712
 4507TIP3    H213528   5.408   0.802   3.619 -0.1512 -0.0713  2.9349
 4508TIP3   OH213529   1.028   4.536   1.306 -0.3427 -0.2958 -0.5830
 4508TIP3    H113530   1.070   4.456   1.338 -0.2027 -0.7798 -1.9231
 4508TIP3    H213531   0.941   4.535   1.347  0.3601 -0.0588  1.0112
 4509TIP3   OH213532   3.402   5.213   2.034 -0.4824 -0.1172  0.1171
 4509TIP3    H113533   3.338   5.160   1.986  0.5662 -0.7984 -0.5658
 4509TIP3    H213534   3.350   5.283   2.073 -1.5605 -0.2968 -0.9277
 4510TIP3   OH213535   6.305   2.608   2.108  0.0077  0.4979  0.5301
 4510TIP3    H113536   6.269   2.546   2.045  0.6568  0.7707 -0.1257
 4510TIP3    H213537   6.228   2.642   2.155 -0.4971  0.4011 -0.2127
 4511TIP3   OH213538   5.160   5.164   3.782 -0.3169 -0.2977  0.2048
 4511TIP3    H113539   5.228   5.195   3.722 -0.6915 -0.0584 -0.0977
 4511TIP3    H213540   5.089   5.227   3.773 -0.2949 -0.1376  1.0658
 4512TIP3   OH213541   4.132   2.394   2.972 -0.0077 -0.4792 -0.0487
 4512TIP3    H113542   4.178   2.428   2.896 -1.4478  0.4990 -0.5192
 4512TIP3    H213543   4.102   2.307   2.945  0.5348 -0.6381 -0.1483
 4513TIP3   OH213544   0.556   4.235   2.004 -0.6501  0.3416  0.3031
 4513TIP3    H113545   0.500   4.178   2.056 -1.3892  1.1922  0.4624
 4513TIP3    H213546   0.503   4.257   1.927  0.6895 -1.5192 -1.2605
 4514TIP3   OH213547   1.864   0.508   1.061  0.0511 -0.0230 -0.0205
 4514TIP3    H113548   1.937   0.534   1.005 -0.8578  1.5846 -0.5263
 4514TIP3    H213549   1.856   0.579   1.125 -0.6123 -0.5494  0.4978
 4515TIP3   OH213550   2.743   2.639   4.502  0.1108 -0.2934 -0.0894
 4515TIP3    H113551   2.773   2.725   4.473  1.9877 -0.5330  0.9676
 4515TIP3    H213552   2.804   2.578   4.463 -2.1228 -1.3950 -2.1379
 4516TIP3   OH213553   0.391   3.812   5.125 -0.2075  0.2169  0.1836
 4516TIP3    H113554   0.413   3.899   5.158 -0.3796  0.7240 -0.9754
 4516TIP3    H213555   0.474   3.774   5.099 -0.1909  0.2641  0.1676
 4517TIP3   OH213556   3.464   3.936   2.168  0.4558  0.1633 -0.3329
 4517TIP3    H113557   3.389   3.899   2.215  1.0427  0.4877  0.8925
 4517TIP3    H213558   3.466   4.028   2.194  0.8541  0.3387 -0.9501
 4518TIP3   OH213559   4.761   2.392   1.207 -0.3744  0.2531  0.5432
 4518TIP3    H113560   4.792   2.418   1.120  1.3642  2.1623  1.6400
 4518TIP3    H213561   4.785   2.300   1.215 -1.6216 -0.3052 -1.3824
 4519TIP3   OH213562   0.343   3.010   2.027 -0.2358 -1.0015  0.0868
 4519TIP3    H113563   0.366   2.934   2.081 -1.2137 -0.5760  1.1437
 4519TIP3    H213564   0.276   3.056   2.077 -3.0812 -1.9316 -2.5493
 4520TIP3   OH213565   0.997   3.601   0.554 -0.3573  0.2176 -0.6205
 4520TIP3    H113566   0.945   3.572   0.629 -0.4438  0.2684 -0.6612
 4520TIP3    H213567   1.046   3.523   0.528  1.4359  0.7384  0.9323
 4521TIP3   OH213568   4.998   0.657   3.021 -0.5746 -0.2540  0.3924
 4521TIP3    H113569   4.987   0.625   3.111  2.5755 -2.3858  0.1923
 4521TIP3    H213570   4.924   0.621   2.973 -1.9786  0.4087  1.9567
 4522TIP3   OH213571   3.015   1.280   4.218 -0.5246  0.0719  0.0904
 4522TIP3    H113572   2.922   1.297   4.236 -0.0670  0.3488  2.4836
 4522TIP3    H213573   3.046   1.360   4.175 -1.0593  0.6187  0.7000
 4523TIP3   OH213574   1.775   0.856   2.859 -0.3430  0.4274  0.5002
 4523TIP3    H113575   1.809   0.858   2.949 -0.6348  0.2876  0.6163
 4523TIP3    H213576   1.781   0.946   2.828 -0.1495  0.4571  0.6276
 4524TIP3   OH213577   2.389   0.926   1.929  0.4362 -0.3730  0.7042
 4524TIP3    H113578   2.443   0.998   1.962 -0.0547  0.0242  0.6585
 4524TIP3    H213579   2.299   0.949   1.956  0.2405 -0.8349  0.4582
 4525TIP3   OH213580   4.777   0.358   4.518  0.3721 -0.3426 -0.3453
 4525TIP3    H113581   4.848   0.340   4.457  0.2747 -0.9678 -0.2834
 4525TIP3    H213582   4.755   0.450   4.503  1.2308 -0.1276 -0.3211
 4526TIP3   OH213583   4.102   3.412   2.374 -0.2663  0.3095  0.0964
 4526TIP3    H113584   4.087   3.361   2.454  0.1629 -0.5919 -0.3903
 4526TIP3    H213585   4.167   3.362   2.325 -0.7566  0.6903 -0.9719
 4527TIP3   OH213586   6.016   2.290   0.272 -0.3351  0.1568 -0.8150
 4527TIP3    H113587   6.077   2.233   0.321  1.7070  1.5911 -1.5447
 4527TIP3    H213588   5.961   2.229   0.223  2.5614 -1.3114 -2.5387
 4528TIP3   OH213589   4.651   4.284   5.154  0.6039  0.0171 -0.2504
 4528TIP3    H113590   4.606   4.290   5.238  0.8156  1.8185 -0.2228
 4528TIP3    H213591   4.654   4.191   5.135  0.1304 -0.3994  1.5127
 4529TIP3   OH213592   3.963   1.667   0.414 -0.0096  0.3229 -0.2832
 4529TIP3    H113593   4.002   1.580   0.418 -1.7482 -0.5065 -0.3483
 4529TIP3    H213594   3.970   1.693   0.321 -0.5859 -0.2925 -0.5027
 4530TIP3   OH213595   2.942   0.227   1.860  0.0726  0.7918 -0.2313
 4530TIP3    H113596   2.946   0.250   1.953  3.0693 -1.2063  0.2575
 4530TIP3    H213597   3.002   0.288   1.818 -0.1666  0.7540 -0.6324
 4531TIP3   OH213598   3.216   5.620   4.448  0.3352 -0.0299  0.4492
 4531TIP3    H113599   3.168   5.693   4.488  0.0013  0.8265 -1.4057
 4531TIP3    H213600   3.155   5.547   4.451 -1.1542  1.0068 -1.7622
 4532TIP3   OH213601   2.045   2.454   2.800 -0.3605 -0.4875  0.0856
 4532TIP3    H113602   2.001   2.407   2.871  0.3028  0.1148  0.9161
 4532TIP3    H213603   2.073   2.385   2.740  0.5993 -1.1893  1.2792
 4533TIP3   OH213604   0.887   2.742   4.549 -0.0855  0.2686 -0.4230
 4533TIP3    H113605   0.821   2.776   4.489 -1.1217 -0.1130  0.4748
 4533TIP3    H213606   0.961   2.719   4.492 -0.7935  0.5106 -1.4731
 4534TIP3   OH213607   6.200   1.422   0.439  0.0976 -0.3204 -0.0722
 4534TIP3    H113608   6.117   1.375   0.449  0.1352 -0.2856  0.4228
 4534TIP3    H213609   6.174   1.509   0.408  0.0213 -0.6204 -0.8865
 4535TIP3   OH213610   1.450   4.359   4.278 -0.1571 -0.3130  0.2892
 4535TIP3    H113611   1.477   4.414   4.205 -1.1775 -0.1567  0.0175
 4535TIP3    H213612   1.441   4.272   4.241 -1.4000 -0.0928  0.0469
 4536TIP3   OH213613   4.933   2.419   3.983  0.0753 -0.5056 -0.3848
 4536TIP3    H113614   4.984   2.486   4.029 -0.4205 -1.1658  1.2048
 4536TIP3    H213615   4.842   2.439   4.005 -0.0670 -1.7842  0.2733
 4537TIP3   OH213616   6.002   3.737   2.153 -0.7077  0.3109  0.4433
 4537TIP3    H113617   6.023   3.713   2.063 -1.0137 -0.4500  0.5702
 4537TIP3    H213618   5.949   3.816   2.145  1.8634  2.1225  0.0929
 4538TIP3   OH213619   4.795   2.734   4.464 -0.3284 -0.5705  0.1240
 4538TIP3    H113620   4.824   2.767   4.548 -0.2066  2.0254 -0.8504
 4538TIP3    H213621   4.704   2.709   4.478  0.1699 -1.8075  1.3914
 4539TIP3   OH213622   5.115   4.929   3.624 -0.4037 -0.3035  0.2110
 4539TIP3    H113623   5.042   4.878   3.658  0.4696 -0.5563  1.8256
 4539TIP3    H213624   5.111   5.012   3.671 -0.5852  0.3152 -0.8724
 4540TIP3   OH213625   5.042   5.312   0.301  0.1588  0.2520 -0.1039
 4540TIP3    H113626   5.091   5.383   0.259  2.1406 -0.6959  0.4716
 4540TIP3    H213627   5.043   5.241   0.237 -1.0187  0.4127 -0.3190
 4541TIP3   OH213628   2.920   1.541   2.943  0.1755  0.2781  0.3152
 4541TIP3    H113629   2.856   1.575   2.881 -1.1991 -1.1375  0.9000
 4541TIP3    H213630   2.975   1.481   2.891 -2.2329 -2.5112  0.7059
 4542TIP3   OH213631   3.395   2.529   4.696 -0.0289  0.3669 -0.1793
 4542TIP3    H113632   3.410   2.436   4.714  0.6743  0.5169  0.0353
 4542TIP3    H213633   3.481   2.562   4.669  0.4657  1.5957  2.5301
 4543TIP3   OH213634   6.057   2.799   1.492  0.0614 -0.1338 -0.2624
 4543TIP3    H113635   6.084   2.719   1.538  3.2392  1.3901  0.7911
 4543TIP3    H213636   5.997   2.842   1.554  0.3897 -0.4612  0.2958
 4544TIP3   OH213637   6.022   1.258  -0.017 -0.9350  0.4079  0.1959
 4544TIP3    H113638   6.079   1.187   0.012 -2.5966 -2.2086 -2.3572
 4544TIP3    H213639   5.955   1.266   0.051  0.6340  1.3405  1.6922
 4545TIP3   OH213640   4.708   2.724   3.280  0.0546 -0.3545 -0.4790
 4545TIP3    H113641   4.792   2.735   3.235 -1.1009 -1.7157 -3.2105
 4545TIP3    H213642   4.725   2.658   3.347  1.0953 -0.9306 -1.2813
 4546TIP3   OH213643   3.033   3.615   3.993  0.2559 -0.0788  0.0202
 4546TIP3    H113644   3.082   3.681   4.042  0.5372  0.1525 -0.5723
 4546TIP3    H213645   3.099   3.570   3.941 -0.1156 -0.0029 -0.5173
 4547TIP3   OH213646   1.883   2.823   2.327  0.2129  0.0531  0.3416
 4547TIP3    H113647   1.888   2.728   2.321  0.2249  0.1051 -0.6487
 4547TIP3    H213648   1.936   2.855   2.254  0.4011  0.8289  0.7966
 4548TIP3   OH213649   3.686   4.906   4.027 -0.4369  0.1125  0.0897
 4548TIP3    H113650   3.756   4.971   4.039 -0.9837  0.6959  0.1506
 4548TIP3    H213651   3.606   4.957   4.023 -0.8260 -0.5154 -0.4404
 4549TIP3   OH213652   3.454   5.122   4.304  0.0492 -0.0294  0.1021
 4549TIP3    H113653   3.368   5.162   4.317  0.8456  1.5942  0.7526
 4549TIP3    H213654   3.468   5.068   4.382  0.0150  0.4918  0.4723
 4550TIP3   OH213655   3.718   2.142   1.500 -0.1447  0.4263 -0.5129
 4550TIP3    H113656   3.649   2.115   1.561  0.2715  1.4689  0.4495
 4550TIP3    H213657   3.713   2.238   1.500  2.0245  0.5758  0.4268
 4551TIP3   OH213658   0.794   4.768   2.605 -0.0899  0.1350  0.0628
 4551TIP3    H113659   0.842   4.709   2.548 -0.6545  1.3087 -1.7280
 4551TIP3    H213660   0.701   4.749   2.587 -0.2739  0.5896  0.5114
 4552TIP3   OH213661   2.470   0.474   3.489  0.2817  0.6158 -0.1514
 4552TIP3    H113662   2.423   0.536   3.546 -0.8281 -0.0744 -0.3016
 4552TIP3    H213663   2.465   0.513   3.402 -1.1278 -0.0542 -0.3932
 4553TIP3   OH213664   3.188   0.798   3.921 -0.2574 -0.1200 -0.2119
 4553TIP3    H113665   3.149   0.881   3.893  0.1531 -0.3402 -1.4888
 4553TIP3    H213666   3.179   0.740   3.846 -0.4863 -1.2269  0.6492
 4554TIP3   OH213667   5.831   2.167   0.106 -0.3952 -0.4756  0.0114
 4554TIP3    H113668   5.739   2.192   0.116 -0.1123  1.2740 -1.4151
 4554TIP3    H213669   5.837   2.135   0.016  0.5096 -0.0208 -0.0938
 4555TIP3   OH213670   4.361   3.095   1.589  0.4311 -0.7453 -0.4572
 4555TIP3    H113671   4.381   3.189   1.590  0.7288 -0.8035 -0.8515
 4555TIP3    H213672   4.389   3.065   1.503  0.1926 -1.1679 -0.3894
 4556TIP3   OH213673   1.834   4.964   1.965 -0.1228  0.3264  0.1978
 4556TIP3    H113674   1.898   4.905   1.925 -0.6823  0.0670 -0.3287
 4556TIP3    H213675   1.874   4.989   2.049  0.2079 -0.6452  0.3469
 4557TIP3   OH213676   5.647   3.345   5.089  0.5121 -0.1022  0.4146
 4557TIP3    H113677   5.672   3.283   5.021 -0.5753 -0.3965  0.2743
 4557TIP3    H213678   5.586   3.405   5.046 -1.2510 -1.0977  1.4477
 4558TIP3   OH213679   4.534   4.768   4.308 -0.1866 -0.4145 -0.4283
 4558TIP3    H113680   4.614   4.814   4.283  0.9150 -1.8039  0.4262
 4558TIP3    H213681   4.500   4.818   4.382 -1.3342  1.4248 -2.0788
 4559TIP3   OH213682   4.182   1.278   3.611 -0.3726  0.3009  0.4342
 4559TIP3    H113683   4.193   1.360   3.563 -1.3585 -0.1260 -0.5784
 4559TIP3    H213684   4.095   1.285   3.651 -0.2887 -0.0771  0.6840
 4560TIP3   OH213685   4.050   0.519   2.505  0.2458 -0.2118  0.0863
 4560TIP3    H113686   4.095   0.566   2.435  0.8722  1.2094  1.3906
 4560TIP3    H213687   4.095   0.546   2.585 -0.2851 -1.9718  1.0450
 4561TIP3   OH213688   6.313   0.229   3.299  0.2215  0.1012  0.2199
 4561TIP3    H113689   6.343   0.302   3.353  0.5141 -0.0144  0.2175
 4561TIP3    H213690   6.219   0.223   3.317  0.4532 -0.4410  1.3251
 4562TIP3   OH213691   5.141   3.951   0.683  0.3518  0.6514 -0.2258
 4562TIP3    H113692   5.184   3.924   0.765 -1.2391 -0.6249  0.2479
 4562TIP3    H213693   5.119   4.043   0.696  0.4907  0.5747  0.6190
 4563TIP3   OH213694   3.522   1.079   0.594 -0.6113  0.4834  0.0875
 4563TIP3    H113695   3.580   1.141   0.638 -0.3088  1.7876 -2.0072
 4563TIP3    H213696   3.520   1.108   0.503 -2.0329 -1.4479 -0.5771
 4564TIP3   OH213697   2.906   5.623   2.672 -0.2413 -0.1719  0.6359
 4564TIP3    H113698   2.934   5.572   2.596 -0.3019 -0.3369  0.7244
 4564TIP3    H213699   2.988   5.641   2.719 -0.1702  0.1786  0.3773
 4565TIP3   OH213700   0.018   2.907   3.662  0.0199  0.2342 -0.0058
 4565TIP3    H113701   0.016   2.930   3.569 -0.4381  1.0209  0.1894
 4565TIP3    H213702  -0.011   2.816   3.664  1.9842 -0.4666 -0.8068
 4566TIP3   OH213703   2.051   4.298   4.073  0.1303  0.3367  0.1400
 4566TIP3    H113704   2.073   4.219   4.123 -0.2772  0.3427  0.3313
 4566TIP3    H213705   2.038   4.267   3.983 -0.5390  0.1023  0.3138
 4567TIP3   OH213706   1.826   5.558   0.951  0.0532  0.0177  0.6933
 4567TIP3    H113707   1.807   5.497   0.881 -1.0821 -2.6230  3.0917
 4567TIP3    H213708   1.748   5.613   0.958 -1.2625 -1.8908  1.8879
 4568TIP3   OH213709   1.239  -0.018   5.014  0.2359 -0.2643  0.5561
 4568TIP3    H113710   1.294   0.054   4.984 -2.0098  1.6050  0.6458
 4568TIP3    H213711   1.177  -0.033   4.943 -0.7671 -0.5511  1.4731
 4569TIP3   OH213712   3.196   2.371   1.167 -0.2286 -0.3448  0.8067
 4569TIP3    H113713   3.162   2.434   1.230 -0.8445 -1.1672  1.3148
 4569TIP3    H213714   3.289   2.361   1.190 -0.2454 -0.0023  1.0313
 4570TIP3   OH213715   5.222   3.281   5.119  0.1398  0.7704 -1.0917
 4570TIP3    H113716   5.175   3.226   5.057  0.2892  0.5580 -1.0153
 4570TIP3    H213717   5.189   3.255   5.204  0.2212  0.7913 -1.0540
 4571TIP3   OH213718   0.590   4.652   1.496  0.1861  0.6364  0.4399
 4571TIP3    H113719   0.684   4.662   1.481  0.4017  0.1314  1.4103
 4571TIP3    H213720   0.554   4.739   1.479  0.5927  0.4770 -1.5082
 4572TIP3   OH213721   4.163   2.749   1.931  0.9863  0.1528 -0.3088
 4572TIP3    H113722   4.104   2.770   2.003  0.5678  1.9104 -1.0999
 4572TIP3    H213723   4.106   2.744   1.854  1.8126  1.7725 -1.0712
 4573TIP3   OH213724   2.540   3.665   2.078 -0.2333 -0.1864 -0.1000
 4573TIP3    H113725   2.513   3.732   2.015 -0.4402  0.5133  0.7029
 4573TIP3    H213726   2.470   3.601   2.077  0.3567 -0.8446 -1.4880
 4574TIP3   OH213727   4.163   4.631   5.030 -0.2170  0.1467  0.1289
 4574TIP3    H113728   4.119   4.686   5.095 -2.3805 -0.5489 -0.6791
 4574TIP3    H213729   4.177   4.548   5.075  0.7824  0.5138  0.5382
 4575TIP3   OH213730   4.018   2.949   0.696 -0.4071 -0.0153  0.1128
 4575TIP3    H113731   4.105   2.918   0.721  0.2002  0.1173 -1.7374
 4575TIP3    H213732   3.964   2.870   0.693 -0.2257 -0.1659  0.7444
 4576TIP3   OH213733   0.542   3.682   4.356  0.1569 -0.1731  0.9210
 4576TIP3    H113734   0.507   3.607   4.308  0.3960  1.6959 -2.5484
 4576TIP3    H213735   0.637   3.675   4.345  0.1705  0.7139  0.3217
 4577TIP3   OH213736   5.325   5.674   5.047  0.1875 -0.1846  0.2254
 4577TIP3    H113737   5.297   5.582   5.039 -0.2597 -0.1985  1.6429
 4577TIP3    H213738   5.305   5.712   4.961  2.2008 -1.8549 -1.0900
 4578TIP3   OH213739   2.237   1.696   2.787  0.1192 -0.7762  0.3944
 4578TIP3    H113740   2.286   1.767   2.747  0.3183 -1.1350 -0.0099
 4578TIP3    H213741   2.304   1.641   2.828 -0.1837  0.6088  2.9868
 4579TIP3   OH213742   1.473   5.942   4.312  0.0068  0.4245 -0.5575
 4579TIP3    H113743   1.505   5.852   4.323 -1.5106  0.0423  1.1052
 4579TIP3    H213744   1.405   5.952   4.378 -1.2924  2.1502 -2.0486
 4580TIP3   OH213745   0.124   2.917   1.533  0.4799 -0.2012  0.0981
 4580TIP3    H113746   0.161   3.003   1.510 -0.6463  0.2646 -0.0568
 4580TIP3    H213747   0.085   2.886   1.451 -1.7874  0.5450  0.8403
 4581TIP3   OH213748   1.257   2.668   1.306  0.0379  0.4557 -0.0118
 4581TIP3    H113749   1.197   2.594   1.308 -0.4117  0.8250  0.4087
 4581TIP3    H213750   1.343   2.629   1.290 -0.2344 -0.1293 -0.0497
 4582TIP3   OH213751   4.326   2.691   2.965 -0.4437 -0.2709  0.0837
 4582TIP3    H113752   4.278   2.679   2.884  0.9127  0.4928 -0.8773
 4582TIP3    H213753   4.383   2.614   2.972 -1.5719 -1.0573  1.0955
 4583TIP3   OH213754   3.970   4.292   4.256  0.6161 -0.2402 -0.8219
 4583TIP3    H113755   3.960   4.295   4.351 -2.8993 -0.0863 -1.0325
 4583TIP3    H213756   4.044   4.234   4.241 -0.5030 -2.6983  2.0336
 4584TIP3   OH213757   4.615   2.368   0.609 -0.3687 -0.2163 -0.3391
 4584TIP3    H113758   4.554   2.356   0.682 -2.7494  0.5628 -2.0635
 4584TIP3    H213759   4.586   2.304   0.543  0.8448  0.0080 -1.1105
 4585TIP3   OH213760   4.599   0.192   2.949 -0.4452 -0.2525  0.1438
 4585TIP3    H113761   4.650   0.261   2.990 -0.5897 -0.6497  1.0246
 4585TIP3    H213762   4.574   0.134   3.021 -2.6546  0.2472 -0.1284
 4586TIP3   OH213763   0.822   0.134   3.227 -0.1062 -0.5725 -0.3610
 4586TIP3    H113764   0.826   0.133   3.323  0.1011  1.6991 -0.2922
 4586TIP3    H213765   0.912   0.150   3.199 -0.5034  1.1296 -0.8006
 4587TIP3   OH213766   4.509   3.848   2.141  0.1386  0.2307  0.2614
 4587TIP3    H113767   4.456   3.793   2.084  0.9184  0.3118 -0.5708
 4587TIP3    H213768   4.452   3.922   2.163 -0.2942  0.0164 -0.1159
 4588TIP3   OH213769   4.358   0.765   4.566 -0.5502 -0.0795 -0.0676
 4588TIP3    H113770   4.440   0.719   4.550  0.0926 -0.2751  3.0086
 4588TIP3    H213771   4.294   0.723   4.508  1.1195 -1.1932 -1.1635
 4589TIP3   OH213772   2.597   1.964   0.617  0.0901  0.2559  0.1388
 4589TIP3    H113773   2.623   1.873   0.607  0.5270  0.3623  0.2877
 4589TIP3    H213774   2.678   2.010   0.639 -0.2374  0.5772  0.7006
 4590TIP3   OH213775   0.541   1.768   0.720  0.0072  0.5663  0.1128
 4590TIP3    H113776   0.512   1.858   0.731 -3.1036 -0.4433  1.3104
 4590TIP3    H213777   0.586   1.747   0.801 -1.4804  0.3794  0.9350
 4591TIP3   OH213778   6.069   5.788   2.619  0.4428 -0.1583  0.2393
 4591TIP3    H113779   5.978   5.808   2.641  0.9419  0.5768  1.7661
 4591TIP3    H213780   6.076   5.807   2.526 -0.5329  1.5374  0.4709
 4592TIP3   OH213781   0.679   4.657   0.084  0.2762  0.1713 -0.0624
 4592TIP3    H113782   0.688   4.679  -0.008  1.4231  1.2432  0.2855
 4592TIP3    H213783   0.675   4.741   0.130  3.4335 -0.2037  1.1679
 4593TIP3   OH213784   4.364   3.733   4.357 -0.1427 -0.0819 -0.3663
 4593TIP3    H113785   4.447   3.758   4.315 -0.5149  0.6845 -0.6530
 4593TIP3    H213786   4.391   3.679   4.431  0.6408  0.5028 -0.2051
 4594TIP3   OH213787   2.021   0.077   2.913  0.5472  0.2418  0.1531
 4594TIP3    H113788   2.099   0.030   2.884  0.4986 -0.1428  0.6444
 4594TIP3    H213789   2.048   0.169   2.915  1.2733  0.0182  1.2226
 4595TIP3   OH213790   3.695   3.621   0.668 -0.3495  0.0452 -0.2525
 4595TIP3    H113791   3.676   3.714   0.681  0.8807  0.2813 -0.0719
 4595TIP3    H213792   3.631   3.593   0.602  0.5109  1.5035 -1.7757
 4596TIP3   OH213793   2.703  -0.006   3.058  0.5518 -0.2201 -0.1321
 4596TIP3    H113794   2.688   0.088   3.048  0.8737 -0.2673 -1.2540
 4596TIP3    H213795   2.778  -0.013   3.118  0.9794  0.2700 -0.6028
 4597TIP3   OH213796   6.336   2.995   4.693  0.4298  0.1593 -0.4650
 4597TIP3    H113797   6.271   2.959   4.753  0.2045  1.7656  0.3071
 4597TIP3    H213798   6.286   3.015   4.613 -0.5386  2.9933  0.6974
 4598TIP3   OH213799   1.501   1.446   0.724 -0.3970  0.0695 -0.1141
 4598TIP3    H113800   1.409   1.439   0.750 -0.4075  0.0079 -0.1653
 4598TIP3    H213801   1.544   1.372   0.767 -0.3632  0.1256 -0.0530
 4599TIP3   OH213802   0.196   4.406   1.606  0.2412  0.1138 -0.4296
 4599TIP3    H113803   0.261   4.449   1.551 -0.5297 -0.1727 -1.5995
 4599TIP3    H213804   0.176   4.324   1.560 -0.8950  0.1697 -0.0669
 4600TIP3   OH213805   2.430   4.935   2.952  0.7651 -0.1399  0.8187
 4600TIP3    H113806   2.500   4.932   2.887 -0.9214  2.9777 -1.4402
 4600TIP3    H213807   2.363   4.876   2.918  0.9544 -0.5869  1.2118
 4601TIP3   OH213808   3.981   1.479   0.986 -0.7865 -0.1643 -0.0380
 4601TIP3    H113809   3.945   1.399   1.024 -1.3004 -0.8324 -1.8318
 4601TIP3    H213810   4.015   1.452   0.901  0.9924  1.1101  0.2035
 4602TIP3   OH213811   6.057   3.832   4.869  0.1718 -0.0416 -0.2744
 4602TIP3    H113812   6.083   3.740   4.874  2.0119  0.3168 -2.0853
 4602TIP3    H213813   5.964   3.829   4.849  0.2505 -1.5035 -0.5705
 4603TIP3   OH213814   5.607   2.685   1.140  0.0374  0.0413  1.0726
 4603TIP3    H113815   5.655   2.766   1.156  0.3985  0.2211 -0.7133
 4603TIP3    H213816   5.590   2.686   1.046  1.1413 -2.5513  0.7811
 4604TIP3   OH213817   5.581   1.780   3.413  0.3547  0.5854 -0.0296
 4604TIP3    H113818   5.648   1.800   3.348 -0.0758  0.4084 -0.5362
 4604TIP3    H213819   5.520   1.722   3.367 -0.8471  1.7761 -0.0044
 4605TIP3   OH213820   1.416   0.802   3.386 -0.0073  0.0359  0.3864
 4605TIP3    H113821   1.360   0.867   3.430 -0.1524 -1.0263  1.8558
 4605TIP3    H213822   1.407   0.822   3.293 -0.5832  1.6849  0.7562
 4606TIP3   OH213823   4.867   0.753   1.821  0.2685 -0.2195  0.2407
 4606TIP3    H113824   4.873   0.845   1.796 -0.9039 -0.7921 -2.5362
 4606TIP3    H213825   4.803   0.751   1.891  0.7356  1.1337  0.7304
 4607TIP3   OH213826   0.678   2.442   1.366  0.0799  0.5940  0.5559
 4607TIP3    H113827   0.632   2.481   1.440 -0.2386 -1.1630  1.3322
 4607TIP3    H213828   0.691   2.351   1.391 -0.3946 -0.1614 -1.7229
 4608TIP3   OH213829   0.843   2.040   5.060 -0.3571  0.0175 -0.3467
 4608TIP3    H113830   0.873   2.031   5.150  0.8828  0.0226 -0.7347
 4608TIP3    H213831   0.853   1.952   5.022  1.4076  0.5000 -1.1129
 4609TIP3   OH213832   0.916   1.967   2.958  0.7220 -0.0620 -0.5288
 4609TIP3    H113833   0.850   2.036   2.965  1.4181  0.6751 -1.0450
 4609TIP3    H213834   0.892   1.918   2.879  2.0178  1.5939 -2.0458
 4610TIP3   OH213835   1.321   3.188   0.285  0.2539  0.1447  0.2682
 4610TIP3    H113836   1.263   3.119   0.254  1.3888 -0.8949  0.3797
 4610TIP3    H213837   1.385   3.142   0.340  0.5252  1.4085  1.0478
 4611TIP3   OH213838   5.450   2.048   3.383  0.9142 -0.0219 -0.1467
 4611TIP3    H113839   5.377   2.108   3.401  0.9853 -0.0578  0.2856
 4611TIP3    H213840   5.448   1.986   3.456  0.7686 -0.6222 -0.6512
 4612TIP3   OH213841   5.984   0.773   2.902  0.1983 -0.1083  1.0226
 4612TIP3    H113842   6.033   0.854   2.916 -0.7942  0.6295  0.4634
 4612TIP3    H213843   5.997   0.722   2.981  0.3246  0.8954  1.6674
 4613TIP3   OH213844   5.989   5.899   2.393 -0.2645  0.3020 -0.2582
 4613TIP3    H113845   5.989   5.983   2.439 -0.2128  1.0203 -1.5252
 4613TIP3    H213846   5.938   5.914   2.313  0.1760 -0.7248 -0.7640
 4614TIP3   OH213847   0.267   5.015   0.713  0.1302 -0.0188  0.1280
 4614TIP3    H113848   0.221   5.099   0.716 -0.2248 -0.2243  0.7829
 4614TIP3    H213849   0.308   5.012   0.627  0.3812  0.9504  0.2052
 4615TIP3   OH213850   0.567   2.920   3.886 -0.0496  0.0724 -0.2184
 4615TIP3    H113851   0.504   2.877   3.944 -1.2531  0.8935 -0.8781
 4615TIP3    H213852   0.541   3.012   3.886  1.2030  0.4494 -0.4582
 4616TIP3   OH213853   3.814   2.403   1.501  0.4404  0.4483 -0.3810
 4616TIP3    H113854   3.813   2.427   1.593 -0.5621  0.4211 -0.3767
 4616TIP3    H213855   3.776   2.479   1.456  0.4725  0.2687 -0.7203
 4617TIP3   OH213856   4.902   1.790   2.212 -0.5567 -0.6884 -0.1454
 4617TIP3    H113857   4.961   1.714   2.211 -0.7646 -0.8539 -1.4934
 4617TIP3    H213858   4.817   1.755   2.186 -1.2788 -0.4295  1.7014
 4618TIP3   OH213859   3.550   2.063   1.244  0.4064 -1.2117 -0.6071
 4618TIP3    H113860   3.479   2.105   1.293 -0.5188 -1.7198 -1.4809
 4618TIP3    H213861   3.627   2.071   1.302 -0.2888 -0.4359  0.2487
 4619TIP3   OH213862   5.119   0.134   0.154 -0.1114 -0.1878 -0.2052
 4619TIP3    H113863   5.155   0.217   0.184 -1.5642  0.8322 -1.1488
 4619TIP3    H213864   5.092   0.089   0.234 -0.7559  0.9670  0.2489
 4620TIP3   OH213865   2.276   4.392   1.330  0.4095 -0.5739 -0.8784
 4620TIP3    H113866   2.248   4.359   1.245  2.2087  0.1147 -1.7985
 4620TIP3    H213867   2.367   4.365   1.338  0.2839 -0.6535  0.8732
 4621TIP3   OH213868   5.977   3.226   3.893  0.4332 -0.4100 -0.2717
 4621TIP3    H113869   6.051   3.233   3.953  0.1340 -0.1520  0.0684
 4621TIP3    H213870   6.015   3.190   3.812  0.9235 -0.3023 -0.0909
 4622TIP3   OH213871   0.562   2.240   5.066 -0.0719 -0.5035 -0.3443
 4622TIP3    H113872   0.605   2.196   4.993 -1.1943  0.2158 -1.4872
 4622TIP3    H213873   0.597   2.197   5.144  2.1934 -0.3786 -1.2104
 4623TIP3   OH213874   0.317   0.678   4.960 -0.2453 -0.4404 -0.0875
 4623TIP3    H113875   0.336   0.690   4.867 -1.0200 -2.0346 -0.4821
 4623TIP3    H213876   0.399   0.702   5.005  0.4925 -0.7333 -1.2514
 4624TIP3   OH213877   3.428   0.306   1.447 -0.3265 -0.0094 -0.3008
 4624TIP3    H113878   3.521   0.314   1.469 -0.6871  1.0805  0.9915
 4624TIP3    H213879   3.384   0.302   1.532 -1.4975 -0.1001 -0.8930
 4625TIP3   OH213880   3.475   4.610   3.489 -0.2204  0.4503  0.2002
 4625TIP3    H113881   3.512   4.586   3.403 -0.2086  0.1100  0.2969
 4625TIP3    H213882   3.551   4.630   3.543 -0.1054 -1.0259  0.6325
 4626TIP3   OH213883   5.248   5.385   5.115  0.4499  0.2232 -0.0394
 4626TIP3    H113884   5.272   5.326   5.186  2.5438 -0.8532 -1.5237
 4626TIP3    H213885   5.156   5.368   5.099 -0.0507  0.4125  2.2814
 4627TIP3   OH213886   1.308   4.587   4.593  0.1920 -0.1662 -0.0018
 4627TIP3    H113887   1.319   4.608   4.686 -0.7470 -0.9721  0.3017
 4627TIP3    H213888   1.336   4.496   4.585  0.2899 -0.0964 -0.5253
 4628TIP3   OH213889   5.147   4.529   3.742  0.0644  0.0441 -0.3988
 4628TIP3    H113890   5.174   4.490   3.825 -0.7489  0.4527  0.0709
 4628TIP3    H213891   5.073   4.586   3.765  1.5930  2.3894 -0.9416
 4629TIP3   OH213892   2.169   5.461   1.954 -0.2858 -0.5538  0.1920
 4629TIP3    H113893   2.080   5.426   1.955 -1.3289  1.8353 -0.9079
 4629TIP3    H213894   2.164   5.540   2.008  0.8608  0.2358 -0.8005
 4630TIP3   OH213895   1.813   2.928   1.263 -0.3020  0.0749  0.7520
 4630TIP3    H113896   1.770   2.964   1.185  0.3535 -0.8404 -0.0583
 4630TIP3    H213897   1.742   2.920   1.327 -1.2478 -0.8729 -0.3623
 4631TIP3   OH213898   3.746   5.898   0.045 -0.1331 -1.0764  0.0447
 4631TIP3    H113899   3.705   5.964  -0.010 -2.0425 -1.7606  0.5652
 4631TIP3    H213900   3.832   5.934   0.066 -1.1071  1.2684  0.3425
 4632TIP3   OH213901   1.296   4.326   2.554 -0.0802  0.3092  0.4225
 4632TIP3    H113902   1.348   4.343   2.632  0.6964 -1.1767  0.2663
 4632TIP3    H213903   1.216   4.377   2.566  0.8551  1.6195  1.2624
 4633TIP3   OH213904   2.259   3.687   3.167  0.2432 -0.4655 -0.2218
 4633TIP3    H113905   2.277   3.781   3.163  0.1037 -0.3595  1.0346
 4633TIP3    H213906   2.333   3.646   3.123  1.5104  0.1533  1.2522
 4634TIP3   OH213907   5.382   1.897   3.758 -1.0706 -0.1412  0.3873
 4634TIP3    H113908   5.364   1.978   3.804  2.2084 -0.2357  2.1209
 4634TIP3    H213909   5.386   1.830   3.826  2.3113 -0.5806 -0.0482
 4635TIP3   OH213910   2.042   1.273   4.802  0.0525  0.4979 -0.6434
 4635TIP3    H113911   2.051   1.196   4.858 -1.5294  0.1999 -0.7344
 4635TIP3    H213912   2.021   1.345   4.862 -0.6444  0.3867 -0.7434
 4636TIP3   OH213913   0.505   1.390   2.230  0.1503  0.6493  0.3570
 4636TIP3    H113914   0.522   1.392   2.325 -0.9926 -0.9564  0.6464
 4636TIP3    H213915   0.586   1.357   2.192  1.1091  2.5985  0.5854
 4637TIP3   OH213916   1.894   0.730   4.578 -0.7833 -0.8442  0.2302
 4637TIP3    H113917   1.812   0.695   4.614 -0.6086 -0.7981  0.6892
 4637TIP3    H213918   1.953   0.654   4.577 -0.9768 -0.9878 -0.5570
 4638TIP3   OH213919   1.945   1.330   2.163 -0.1416 -0.0227 -0.3894
 4638TIP3    H113920   1.951   1.424   2.149 -0.1455  0.1791  0.8616
 4638TIP3    H213921   1.956   1.292   2.075  0.9158  1.0829 -0.7634
 4639TIP3   OH213922   1.272   0.158   4.375  0.6515  0.0810 -0.6593
 4639TIP3    H113923   1.365   0.169   4.392  0.3241  1.4779  0.5098
 4639TIP3    H213924   1.248   0.078   4.422  1.4229 -0.8342 -1.7881
 4640TIP3   OH213925   3.901   0.851   4.240  0.4075  0.0046  0.1749
 4640TIP3    H113926   3.806   0.840   4.235  0.3818  0.6399 -1.2620
 4640TIP3    H213927   3.914   0.917   4.308 -0.2493  0.5308 -0.1944
 4641TIP3   OH213928   3.351   4.018   3.427 -0.4227  0.2596  0.0198
 4641TIP3    H113929   3.407   3.946   3.458  0.7118  0.3951 -1.6246
 4641TIP3    H213930   3.262   3.986   3.439  0.0610 -1.6397 -1.1182
 4642TIP3   OH213931   0.615   4.606   4.943 -0.1878 -0.2135  0.1585
 4642TIP3    H113932   0.698   4.653   4.937 -1.3427  2.2916  2.0100
 4642TIP3    H213933   0.630   4.539   5.010  0.8682 -1.1330 -0.9572
 4643TIP3   OH213934   6.115   3.454   2.125 -0.1525 -0.0980  0.1663
 4643TIP3    H113935   6.116   3.550   2.132  0.6491 -0.1338  0.7572
 4643TIP3    H213936   6.133   3.437   2.033  1.3736  0.3224  0.3556
 4644TIP3   OH213937   1.859   4.418   3.167 -0.3430  0.1451 -0.0586
 4644TIP3    H113938   1.785   4.479   3.162 -0.9254 -0.4346  1.0548
 4644TIP3    H213939   1.913   4.453   3.238 -1.0556 -1.0077  1.0872
 4645TIP3   OH213940   6.202   1.770   0.750  0.3480  0.2298 -0.1861
 4645TIP3    H113941   6.260   1.846   0.753  1.1129 -0.3445 -0.1302
 4645TIP3    H213942   6.254   1.698   0.786  0.0883 -0.6033 -1.3852
 4646TIP3   OH213943   0.951   1.075   2.504 -0.2261  0.0453  0.4504
 4646TIP3    H113944   1.016   1.039   2.564  0.2919  0.5798  0.2158
 4646TIP3    H213945   0.918   0.999   2.456  1.6287 -0.0331 -0.8011
 4647TIP3   OH213946   0.422   3.884   1.395 -0.0538 -0.7172  0.6820
 4647TIP3    H113947   0.484   3.864   1.464 -0.1850  0.0285  1.0301
 4647TIP3    H213948   0.474   3.926   1.327  0.5797 -3.7154 -0.8713
 4648TIP3   OH213949   2.140   4.231   2.818  0.0998 -0.3542  0.4766
 4648TIP3    H113950   2.229   4.198   2.805  0.9113  1.7372  0.4405
 4648TIP3    H213951   2.107   4.179   2.892  1.7088 -0.4996  1.1423
 4649TIP3   OH213952   2.678   4.022   2.698 -0.6271  0.6973 -0.1242
 4649TIP3    H113953   2.641   4.109   2.683  0.0006  0.7865 -1.2512
 4649TIP3    H213954   2.770   4.038   2.719 -0.1761  0.2624 -1.6310
 4650TIP3   OH213955   3.755   2.756   1.620  0.6715  0.1627  0.3279
 4650TIP3    H113956   3.737   2.818   1.549  2.3686  0.1471 -0.1768
 4650TIP3    H213957   3.669   2.726   1.648 -0.1365  1.7016 -0.3490
 4651TIP3   OH213958   2.322   0.339   2.807  0.2282 -0.5847  0.1927
 4651TIP3    H113959   2.341   0.245   2.809 -1.9411 -1.0614  0.0581
 4651TIP3    H213960   2.239   0.346   2.761 -0.9088  1.1711  2.3345
 4652TIP3   OH213961   4.556   3.777   3.452  0.1085 -0.5973  0.1162
 4652TIP3    H113962   4.566   3.825   3.534  0.8180 -1.0160  0.2798
 4652TIP3    H213963   4.494   3.830   3.401 -0.0332 -0.1313  0.7598
 4653TIP3   OH213964   0.481   3.398   3.675  0.1118  0.1470  0.2984
 4653TIP3    H113965   0.557   3.422   3.622 -0.4742 -0.0727 -0.6736
 4653TIP3    H213966   0.481   3.302   3.674  0.2480  0.1377  0.9339
 4654TIP3   OH213967   0.570   5.545   4.790  0.4996 -0.0024 -0.5524
 4654TIP3    H113968   0.557   5.513   4.700 -0.1510  0.4220 -0.6164
 4654TIP3    H213969   0.621   5.626   4.780  1.0277 -0.3208 -0.4827
 4655TIP3   OH213970   6.249   5.808   1.226  0.5759 -0.0612 -0.1996
 4655TIP3    H113971   6.193   5.730   1.217  4.3313 -3.1400  0.2863
 4655TIP3    H213972   6.252   5.824   1.320  0.8910 -0.2391 -0.1783
 4656TIP3   OH213973   2.154   0.091   2.210  0.2395  0.4104  0.4123
 4656TIP3    H113974   2.123   0.108   2.121 -0.8192 -1.1126  0.4404
 4656TIP3    H213975   2.175  -0.003   2.210  0.5762  0.4719  1.6618
 4657TIP3   OH213976   2.717   5.260   1.490 -0.1187 -0.4282  0.6106
 4657TIP3    H113977   2.632   5.299   1.467  0.2140  0.3935  0.7421
 4657TIP3    H213978   2.705   5.228   1.579 -0.4505 -0.8037  0.4375
 4658TIP3   OH213979   4.142   0.333   4.743  0.2150  0.1230 -0.3780
 4658TIP3    H113980   4.061   0.369   4.706 -0.0526 -0.0167  0.0586
 4658TIP3    H213981   4.182   0.406   4.791  0.4306  0.2353 -0.7285
 4659TIP3   OH213982   5.322   1.642   3.625 -0.1594 -0.0916  0.0019
 4659TIP3    H113983   5.367   1.720   3.656 -0.5537  0.1641 -0.0623
 4659TIP3    H213984   5.365   1.570   3.671 -0.2518  0.2210  0.5909
 4660TIP3   OH213985   0.779   1.222   0.680  0.3870 -0.4529  0.2293
 4660TIP3    H113986   0.759   1.314   0.666  0.0324 -0.4416  0.8124
 4660TIP3    H213987   0.777   1.210   0.775  2.0823 -0.6943  0.2671
 4661TIP3   OH213988   6.170   1.064   0.094  0.4328 -0.2616 -0.5051
 4661TIP3    H113989   6.155   1.079   0.187 -1.2516  0.3918 -0.8400
 4661TIP3    H213990   6.132   0.977   0.077  0.1390 -0.1000 -0.6939
 4662TIP3   OH213991   1.531   3.258   4.116 -0.0267  0.1970 -0.1604
 4662TIP3    H113992   1.470   3.220   4.179 -0.7218 -1.7671 -1.9221
 4662TIP3    H213993   1.477   3.314   4.061  0.6643  2.3078  1.2019
 4663TIP3   OH213994   2.706   1.440   3.119  0.2732 -0.1985  0.1998
 4663TIP3    H113995   2.733   1.348   3.131 -2.1586 -1.0919 -0.6628
 4663TIP3    H213996   2.772   1.476   3.060  0.1585 -2.0394 -1.1653
 4664TIP3   OH213997   4.981   0.731   0.205  0.2846  0.6109 -0.1764
 4664TIP3    H113998   5.046   0.691   0.148  0.4500 -0.9239  1.0136
 4664TIP3    H213999   4.931   0.657   0.240 -0.3222  1.5483  1.0349
 4665TIP3   OH214000   1.322   0.873   0.232  0.3642  0.1254 -0.0096
 4665TIP3    H114001   1.309   0.950   0.176  1.8065  1.8065  1.8003
 4665TIP3    H214002   1.368   0.810   0.177  0.2369  1.0467 -1.2013
 4666TIP3   OH214003   6.289   4.064   4.052 -0.3357 -0.2422 -0.3990
 4666TIP3    H114004   6.335   4.129   4.106 -1.2005 -0.8673  1.1484
 4666TIP3    H214005   6.358   4.006   4.021  0.8003  2.5364 -3.6259
 4667TIP3   OH214006   5.105   2.895   2.748  0.6013  0.3944  0.2267
 4667TIP3    H114007   5.048   2.902   2.671 -0.1371 -0.5856  0.6696
 4667TIP3    H214008   5.056   2.939   2.818  0.7796  0.3176  0.4000
 4668TIP3   OH214009   0.012   0.460   3.714 -0.1668  0.3739  0.2012
 4668TIP3    H114010  -0.020   0.550   3.704 -0.4017  0.4150  1.1557
 4668TIP3    H214011   0.067   0.445   3.638 -1.9333  0.5274 -1.1598
 4669TIP3   OH214012   1.968   1.358   0.326  0.0420  0.4322 -0.9522
 4669TIP3    H114013   1.892   1.414   0.310  0.1958  0.5362 -1.3405
 4669TIP3    H214014   2.042   1.418   0.332 -0.0885  0.4552  0.8474
 4670TIP3   OH214015   1.346   2.849   4.938 -0.4004 -0.4795 -0.2879
 4670TIP3    H114016   1.364   2.755   4.932  0.2496 -0.3705 -0.1259
 4670TIP3    H214017   1.278   2.856   5.005  1.0546 -0.6714  1.2798
 4671TIP3   OH214018   5.819   4.079   3.420  0.1329  0.2906  0.3738
 4671TIP3    H114019   5.791   4.137   3.350 -0.1403 -0.5999 -0.2827
 4671TIP3    H214020   5.905   4.047   3.392  0.4772  0.7056  0.9373
 4672TIP3   OH214021   2.200   2.360   2.533  0.0353  0.2224  0.7113
 4672TIP3    H114022   2.290   2.338   2.556  0.4040  2.0267  1.2225
 4672TIP3    H214023   2.152   2.278   2.542  1.4522 -0.5796  1.3438
 4673TIP3   OH214024   0.661   1.463   4.904 -0.0051 -0.2289  0.1087
 4673TIP3    H114025   0.704   1.377   4.908  0.4928  0.0646  1.6483
 4673TIP3    H214026   0.676   1.493   4.814  0.6299 -1.3350 -0.1735
 4674TIP3   OH214027   3.851   2.400   2.511  0.0550  0.0540 -0.3878
 4674TIP3    H114028   3.774   2.367   2.556 -0.5610  2.4675  0.4794
 4674TIP3    H214029   3.918   2.407   2.579 -0.2979  1.9086 -0.1785
 4675TIP3   OH214030   2.482   5.186   3.089 -0.4061  0.5591  0.0644
 4675TIP3    H114031   2.403   5.228   3.124 -0.9016  0.1055 -0.5009
 4675TIP3    H214032   2.453   5.099   3.061  0.0595  0.7604 -1.1004
 4676TIP3   OH214033   4.065   3.961   4.255  0.0787 -0.0686  0.4744
 4676TIP3    H114034   4.055   3.888   4.194 -0.0625  0.2804  0.0758
 4676TIP3    H214035   4.143   4.008   4.223 -0.7069  0.8287 -0.1946
 4677TIP3   OH214036   5.715   1.171   3.676  0.1005 -0.7787 -0.1309
 4677TIP3    H114037   5.753   1.097   3.630  3.2436  1.9083 -2.3615
 4677TIP3    H214038   5.682   1.228   3.606 -0.7004  0.6818  1.3488
 4678TIP3   OH214039   5.487   5.037   0.697  0.3306  0.3861 -0.6768
 4678TIP3    H114040   5.552   5.054   0.629  1.3413 -0.6443  0.0011
 4678TIP3    H214041   5.536   5.044   0.779 -0.7467  1.0522 -0.0585
 4679TIP3   OH214042   3.338   0.448   0.547  0.7921 -0.1172 -0.2508
 4679TIP3    H114043   3.423   0.485   0.523  1.1705  0.1744  1.4637
 4679TIP3    H214044   3.276   0.520   0.536  0.9175 -0.0466 -0.5146
 4680TIP3   OH214045   1.262   0.634   5.157 -0.5203  0.2009  0.4217
 4680TIP3    H114046   1.278   0.728   5.159 -1.0413  0.3047 -0.1958
 4680TIP3    H214047   1.335   0.597   5.207  0.6697  0.8018 -0.7849
 4681TIP3   OH214048   3.309   2.198   1.694 -0.2568 -0.4746 -0.1148
 4681TIP3    H114049   3.243   2.152   1.746 -1.2713  0.1867 -0.7747
 4681TIP3    H214050   3.286   2.291   1.704  0.7571 -0.2138 -0.1238
 4682TIP3   OH214051   1.041   2.511   4.777  0.1201  0.0482 -0.9026
 4682TIP3    H114052   1.037   2.460   4.857  0.3961  2.1543  0.5290
 4682TIP3    H214053   0.967   2.571   4.783  1.2649  1.5644 -1.2264
 4683TIP3   OH214054   0.351   5.478   3.050 -0.1416 -0.2916  0.1623
 4683TIP3    H114055   0.263   5.516   3.056  0.6038  1.2817  2.6084
 4683TIP3    H214056   0.396   5.533   2.986 -0.6014 -0.3814 -0.2463
 4684TIP3   OH214057   0.603   0.799   4.824  0.6216  0.4095  0.0879
 4684TIP3    H114058   0.607   0.705   4.807 -0.8902  0.4051 -0.3859
 4684TIP3    H214059   0.588   0.807   4.918 -2.2041  0.0243 -0.2403
 4685TIP3   OH214060   3.595   2.761   0.527  0.6981 -0.2631 -0.0253
 4685TIP3    H114061   3.616   2.854   0.516 -0.9283  0.2739  0.9712
 4685TIP3    H214062   3.509   2.751   0.485  0.0590 -0.8876  1.3516
 4686TIP3   OH214063   5.282   2.228   3.655  0.0578 -0.4686 -0.2477
 4686TIP3    H114064   5.223   2.245   3.582  1.2885 -1.0521 -1.4347
 4686TIP3    H214065   5.332   2.309   3.665  2.7667 -1.6296 -2.8911
 4687TIP3   OH214066   1.620   2.929   4.734  0.3794  0.0836  0.6660
 4687TIP3    H114067   1.697   2.917   4.790  1.3591 -1.2628 -0.9061
 4687TIP3    H214068   1.550   2.882   4.779  0.6228  0.7296  1.7582
 4688TIP3   OH214069  -0.006   5.934   0.470 -0.3011 -0.1903 -0.7051
 4688TIP3    H114070  -0.059   6.013   0.483 -0.8097 -0.4562 -1.1340
 4688TIP3    H214071   0.076   5.952   0.516 -0.6007  0.3972 -0.3965
 4689TIP3   OH214072   5.816   2.968   2.607  0.4622 -0.1802 -0.2371
 4689TIP3    H114073   5.828   3.049   2.656 -0.8818 -0.1915  0.1421
 4689TIP3    H214074   5.834   2.899   2.671  0.0031 -0.1855 -0.1105
 4690TIP3   OH214075   4.365   0.906   4.813  0.4655  0.2509 -0.1829
 4690TIP3    H114076   4.373   0.851   4.735  1.3344  1.1263 -0.7244
 4690TIP3    H214077   4.362   0.843   4.885  3.7156 -0.5615 -0.5673
 4691TIP3   OH214078   4.822   2.151   2.572 -0.8995 -0.0227  0.2897
 4691TIP3    H114079   4.755   2.104   2.622  0.0582 -1.8950 -0.0814
 4691TIP3    H214080   4.862   2.083   2.516 -1.1185  1.7413 -2.1462
 4692TIP3   OH214081   1.342   4.396   0.843 -0.6627 -0.4222  0.4337
 4692TIP3    H114082   1.433   4.368   0.835 -0.0124  1.5331  0.4912
 4692TIP3    H214083   1.346   4.491   0.846 -2.8478 -0.2100 -1.1212
 4693TIP3   OH214084   1.255   0.764   4.882  0.1434 -0.2876  0.2923
 4693TIP3    H114085   1.342   0.742   4.916  1.7999  1.8618 -2.1661
 4693TIP3    H214086   1.238   0.852   4.914 -1.5994 -0.9899  1.4428
 4694TIP3   OH214087   3.367   2.724   2.659  0.2943 -0.0125  0.0693
 4694TIP3    H114088   3.403   2.744   2.573  0.8654 -1.0527  0.0515
 4694TIP3    H214089   3.437   2.678   2.705 -0.0356  0.4518  1.0687
 4695TIP3   OH214090   0.943   4.946   0.484  0.3219 -0.3751 -0.1313
 4695TIP3    H114091   1.032   4.921   0.458  0.4983 -0.1415  0.2386
 4695TIP3    H214092   0.903   4.864   0.514  1.0255 -0.1781  1.4542
 4696TIP3   OH214093   1.741   3.738   1.117 -0.3447 -0.1645  0.1570
 4696TIP3    H114094   1.783   3.701   1.040  1.3010  0.8592  0.5208
 4696TIP3    H214095   1.782   3.824   1.128  0.2261 -0.6787  2.7387
 4697TIP3   OH214096   3.448   2.320   0.026  0.4072  0.0947  0.3675
 4697TIP3    H114097   3.413   2.409   0.035  0.0484  0.0607 -0.5687
 4697TIP3    H214098   3.503   2.324  -0.052 -1.8053 -1.1460 -1.3631
 4698TIP3   OH214099   4.692   1.816   3.843 -0.3543  0.2615 -0.1375
 4698TIP3    H114100   4.745   1.850   3.772 -1.4043  0.5362 -0.8189
 4698TIP3    H214101   4.650   1.737   3.807  0.1639 -0.3821  0.6320
 4699TIP3   OH214102   1.595   3.870   1.669 -0.4216 -0.0356 -0.2873
 4699TIP3    H114103   1.624   3.947   1.717  0.7512  0.1735 -1.2705
 4699TIP3    H214104   1.503   3.886   1.651 -1.2382 -0.6345  2.8047
 4700TIP3   OH214105   1.886   3.624   1.802 -0.1813  0.0144  0.1234
 4700TIP3    H114106   1.864   3.559   1.869  0.0653 -0.2041 -0.0061
 4700TIP3    H214107   1.825   3.696   1.818 -0.6886 -0.3974  0.0506
 4701TIP3   OH214108   5.347   0.954   0.301  0.1944 -0.3060  0.3347
 4701TIP3    H114109   5.361   0.862   0.324  1.7430 -0.1018  0.3409
 4701TIP3    H214110   5.388   1.003   0.373  1.0273  0.3616 -0.5630
 4702TIP3   OH214111   2.563   5.659   0.178 -0.1753  0.1896  0.4889
 4702TIP3    H114112   2.557   5.755   0.178  2.2666  0.4062  1.3957
 4702TIP3    H214113   2.634   5.639   0.117  0.4583 -0.9127  1.5346
 4703TIP3   OH214114   1.545   4.936   2.919  0.1973  0.1599  0.0602
 4703TIP3    H114115   1.464   4.886   2.929  0.2280 -0.0764 -0.7617
 4703TIP3    H214116   1.523   5.024   2.947 -0.0337 -0.1652  0.9220
 4704TIP3   OH214117   0.255   5.541   3.794  0.6423 -0.6155  0.0159
 4704TIP3    H114118   0.330   5.594   3.818 -0.9252  1.1044  1.3975
 4704TIP3    H214119   0.190   5.604   3.761 -0.5627 -1.9017 -0.1744
 4705TIP3   OH214120   4.540   3.353   2.780  0.0118  0.5690  0.0807
 4705TIP3    H114121   4.552   3.286   2.847  1.4726  0.6698 -0.0456
 4705TIP3    H214122   4.485   3.419   2.821 -0.7738 -0.3176  0.4840
 4706TIP3   OH214123   1.968   5.605   3.531  0.1794  0.1612 -0.0008
 4706TIP3    H114124   1.988   5.532   3.589 -0.3566 -0.8267 -1.0212
 4706TIP3    H214125   2.043   5.610   3.472 -0.1266 -0.0612 -0.4122
 4707TIP3   OH214126   2.825   2.787   0.200  0.2804 -0.4682  0.1603
 4707TIP3    H114127   2.909   2.823   0.173  1.6177 -3.2632  0.1747
 4707TIP3    H214128   2.762   2.855   0.180  2.2797  0.9736 -1.7482
 4708TIP3   OH214129   2.913   3.623   1.641 -0.3493 -0.0980  0.3124
 4708TIP3    H114130   2.969   3.550   1.668  1.0020  0.8504  0.2080
 4708TIP3    H214131   2.884   3.663   1.723  2.6730  1.9736  0.5638
 4709TIP3   OH214132   2.974   2.974   2.001 -0.0234 -0.4408 -0.3751
 4709TIP3    H114133   3.068   2.964   1.986  0.0240 -0.3160 -0.1736
 4709TIP3    H214134   2.959   3.068   2.000 -0.1846 -0.4685 -0.6240
 4710TIP3   OH214135   5.838   1.119   0.856  0.1852 -0.1730 -0.4661
 4710TIP3    H114136   5.788   1.174   0.796  0.9809 -0.3342 -1.2988
 4710TIP3    H214137   5.845   1.034   0.811  1.4158 -0.0734 -0.5060
 4711TIP3   OH214138   6.167   3.303   4.918  0.0625  0.0568  0.4213
 4711TIP3    H114139   6.171   3.209   4.934 -0.9758  0.1575  1.4180
 4711TIP3    H214140   6.090   3.332   4.966 -1.6923  0.8706 -2.5799
 4712TIP3   OH214141   1.679   3.447   0.688  0.1113  0.2750 -0.3824
 4712TIP3    H114142   1.696   3.506   0.762  2.0185 -1.0164  0.2848
 4712TIP3    H214143   1.661   3.505   0.614 -1.1625  1.6095  0.9084
 4713TIP3   OH214144   2.040   4.982   4.279 -0.2106 -0.2346 -0.1065
 4713TIP3    H114145   1.991   4.912   4.322 -0.6201 -0.7740 -1.3946
 4713TIP3    H214146   2.005   4.984   4.190  0.4659  0.9766 -0.3626
 4714TIP3   OH214147   0.743   2.546   3.759  0.3237 -0.0482  0.4728
 4714TIP3    H114148   0.767   2.638   3.772  1.5603 -0.1444 -0.9784
 4714TIP3    H214149   0.786   2.500   3.832  1.5226  0.2591 -0.0206
 4715TIP3   OH214150   3.250   2.651   3.136 -0.0388  0.0508 -0.3431
 4715TIP3    H114151   3.196   2.618   3.064  0.8806 -0.0265 -1.0188
 4715TIP3    H214152   3.286   2.733   3.104  1.9112 -0.9080 -0.7705
 4716TIP3   OH214153   4.065   3.274   1.892 -0.5538  0.2727 -0.4738
 4716TIP3    H114154   4.079   3.332   1.817 -2.4584  1.2850 -0.1114
 4716TIP3    H214155   4.090   3.188   1.860 -0.7087  0.7784 -2.0798
 4717TIP3   OH214156   0.287   3.155   1.529  0.2570 -0.2374 -0.1860
 4717TIP3    H114157   0.382   3.142   1.537  0.5464  1.5473 -0.2161
 4717TIP3    H214158   0.264   3.204   1.608 -0.6850 -0.8254 -0.0885
 4718TIP3   OH214159   0.680   3.373   4.739  0.1092 -0.9163 -0.1108
 4718TIP3    H114160   0.692   3.323   4.659 -1.9917 -0.6140 -0.6910
 4718TIP3    H214161   0.609   3.328   4.785 -0.2798  0.2213  0.4521
 4719TIP3   OH214162   4.985   4.635   2.267  0.0512  0.1024  0.4419
 4719TIP3    H114163   5.048   4.699   2.233 -1.8255  1.7538 -0.0724
 4719TIP3    H214164   4.987   4.564   2.203  0.9243  0.4108  0.1048
 4720TIP3   OH214165   5.353   4.229   4.479 -0.1782 -0.1294  0.0544
 4720TIP3    H114166   5.423   4.167   4.496  0.4186  0.2949 -0.7449
 4720TIP3    H214167   5.386   4.313   4.511 -0.1230  0.1614 -0.7421
 4721TIP3   OH214168   3.890   4.007   4.854  0.1831  0.9035  0.4377
 4721TIP3    H114169   3.932   4.052   4.781 -0.7074  2.3322  0.7600
 4721TIP3    H214170   3.927   4.049   4.932 -2.5251  2.9854  0.7376
 4722TIP3   OH214171   1.648   4.843   0.428 -0.2534 -1.0240  0.2886
 4722TIP3    H114172   1.621   4.909   0.365 -1.0312  0.0867  1.7140
 4722TIP3    H214173   1.685   4.893   0.501  4.0007 -2.3603 -0.6607
 4723TIP3   OH214174   3.254   2.937   0.872  0.0297 -0.4187 -0.1232
 4723TIP3    H114175   3.344   2.935   0.904 -0.2271 -1.3204  0.5683
 4723TIP3    H214176   3.201   2.917   0.948 -0.7647  0.1181 -0.5251
 4724TIP3   OH214177   1.242   4.958   0.667  0.3946  0.2710 -0.2710
 4724TIP3    H114178   1.268   5.004   0.587  0.6320  0.5325 -0.0451
 4724TIP3    H214179   1.198   4.879   0.636  0.2772  0.4878 -0.6620
 4725TIP3   OH214180   6.199   5.013   1.070 -0.1020  0.2569 -0.1742
 4725TIP3    H114181   6.210   4.925   1.033  1.0093  0.5080 -0.4671
 4725TIP3    H214182   6.172   4.998   1.160 -0.5949 -0.3777 -0.4184
 4726TIP3   OH214183   6.050   1.050   4.373 -0.6548  0.0495  0.2548
 4726TIP3    H114184   6.042   1.138   4.337 -2.8903 -0.3030 -0.2972
 4726TIP3    H214185   6.141   1.025   4.356 -0.5411  1.4468 -1.5070
 4727TIP3   OH214186   5.887   0.727   1.564 -0.4796  0.2727  0.1005
 4727TIP3    H114187   5.922   0.792   1.503 -1.5376  2.1691  1.3987
 4727TIP3    H214188   5.949   0.728   1.638  0.0824 -1.0483 -0.3110
 4728TIP3   OH214189   2.895   2.249   1.148 -0.0352  0.0619  0.0583
 4728TIP3    H114190   2.815   2.261   1.097 -0.2495 -0.3756  0.2851
 4728TIP3    H214191   2.918   2.157   1.135  1.0798  0.4446 -0.9440
 4729TIP3   OH214192   4.003   3.076   5.137  0.6685  0.1913  0.3118
 4729TIP3    H114193   4.033   3.133   5.208  0.9555 -0.0960  0.4202
 4729TIP3    H214194   3.976   3.137   5.068  0.8390  0.4631  0.4813
 4730TIP3   OH214195   3.951   2.776   3.806 -1.0622  0.0919  0.0954
 4730TIP3    H114196   3.947   2.830   3.885  0.7965  1.2635 -0.5596
 4730TIP3    H214197   3.904   2.696   3.830  1.0328 -0.4410  3.0814
 4731TIP3   OH214198   5.573   3.169   2.321  0.9181  0.3750  0.1674
 4731TIP3    H114199   5.539   3.178   2.410  0.5163  0.8170 -0.0243
 4731TIP3    H214200   5.622   3.249   2.305 -0.4300  1.0987 -0.5971
 4732TIP3   OH214201   5.774   2.848   4.265 -0.7246  0.2534 -0.5702
 4732TIP3    H114202   5.723   2.875   4.341 -0.4973 -1.2123  0.1211
 4732TIP3    H214203   5.710   2.811   4.205 -0.6931 -0.0465 -0.4177
 4733TIP3   OH214204   6.341   1.550   0.848 -0.1185 -0.2933  0.7353
 4733TIP3    H114205   6.372   1.541   0.938  1.5476  1.2762  0.3851
 4733TIP3    H214206   6.304   1.465   0.827  2.7873 -1.9314  1.7074
 4734TIP3   OH214207   2.601   4.063   2.042  0.1718  0.3917 -0.1202
 4734TIP3    H114208   2.696   4.074   2.042  0.4060 -1.1578 -1.3177
 4734TIP3    H214209   2.585   4.001   1.971 -1.7624  0.7465 -0.0446
 4735TIP3   OH214210   4.671   0.758   2.508  0.1225  0.4954 -0.4013
 4735TIP3    H114211   4.657   0.852   2.497  0.8677  0.5561 -0.8869
 4735TIP3    H214212   4.709   0.750   2.596  1.4446  0.8152 -0.9172
 4736TIP3   OH214213   5.530   0.131   1.625  0.4862 -0.1889  0.5499
 4736TIP3    H114214   5.604   0.149   1.567  0.7584 -0.0849  0.9272
 4736TIP3    H214215   5.559   0.160   1.711 -0.0275 -0.0632  0.6856
 4737TIP3   OH214216   1.276   1.416   2.778  0.1249 -0.2876 -0.2638
 4737TIP3    H114217   1.259   1.447   2.867  0.1770 -1.7357  0.2783
 4737TIP3    H214218   1.227   1.334   2.771 -2.2945  1.2063 -2.5962
 4738TIP3   OH214219   2.236   3.855   4.867 -0.0507  0.3946 -0.2248
 4738TIP3    H114220   2.303   3.924   4.865 -1.2519  1.5783 -1.1776
 4738TIP3    H214221   2.173   3.884   4.933  0.7021 -1.0997  1.2418
 4739TIP3   OH214222   3.709   5.574   1.599  0.0894 -0.1935  0.7512
 4739TIP3    H114223   3.775   5.606   1.538 -0.1165 -0.4905  0.3662
 4739TIP3    H214224   3.661   5.652   1.626 -1.5110 -0.3074 -1.4736
 4740TIP3   OH214225   1.187   4.265   1.977 -0.4956 -0.2315  0.4911
 4740TIP3    H114226   1.129   4.209   2.029 -1.7977 -0.7493 -1.4105
 4740TIP3    H214227   1.129   4.332   1.940  0.8331  1.7399  1.7572
 4741TIP3   OH214228   5.878   4.981   1.385 -0.0898 -0.0686  0.5130
 4741TIP3    H114229   5.903   5.070   1.360 -1.2431  0.5624  1.4491
 4741TIP3    H214230   5.796   4.965   1.338  0.6871 -1.1169 -0.5546
 4742TIP3   OH214231   3.208   4.484   4.159  0.7499  0.6817 -0.1490
 4742TIP3    H114232   3.290   4.491   4.208  0.8819 -1.7821  0.0882
 4742TIP3    H214233   3.235   4.481   4.068  0.9708 -0.3719 -0.0593
 4743TIP3   OH214234   1.421   5.359   2.801 -0.4114  0.3394  0.6556
 4743TIP3    H114235   1.418   5.434   2.861  0.1497  1.0552 -0.1954
 4743TIP3    H214236   1.414   5.398   2.714 -1.2549 -0.6939  0.2404
 4744TIP3   OH214237   3.287   5.106   2.872  0.3380 -0.8428 -0.8270
 4744TIP3    H114238   3.296   5.092   2.967  3.5580  1.9121 -0.5351
 4744TIP3    H214239   3.375   5.093   2.838 -0.1202  1.0298 -2.9609
 4745TIP3   OH214240   4.352   0.137   2.216 -0.3027 -0.1107 -0.0898
 4745TIP3    H114241   4.443   0.131   2.247 -0.3746 -1.3219 -0.0546
 4745TIP3    H214242   4.303   0.170   2.291 -0.3432 -2.2318  0.9124
 4746TIP3   OH214243   3.335   0.850   5.127  0.6237  0.7319  0.3294
 4746TIP3    H114244   3.397   0.814   5.190  1.4067  3.0040  0.9531
 4746TIP3    H214245   3.296   0.773   5.085  2.0429 -0.7981  1.6697
 4747TIP3   OH214246   4.278   2.758   2.610 -0.5286 -0.4264  0.3537
 4747TIP3    H114247   4.350   2.728   2.556 -1.5631  0.0297 -1.3676
 4747TIP3    H214248   4.310   2.838   2.651  0.8402 -1.6539  1.7954
 4748TIP3   OH214249   0.585   2.467   2.855 -0.0668 -0.4593  0.1789
 4748TIP3    H114250   0.594   2.448   2.761 -1.0172  0.4030 -0.1057
 4748TIP3    H214251   0.570   2.381   2.895 -0.3066 -0.7674 -0.5449
 4749TIP3   OH214252   5.842   2.003   4.066 -0.2669  0.6146 -0.0392
 4749TIP3    H114253   5.783   1.973   4.135  1.2028  0.1871  1.0666
 4749TIP3    H214254   5.785   2.051   4.005 -1.3256  2.8835  2.5357
 4750TIP3   OH214255   6.052   3.279   1.529  0.1690 -0.2255 -0.3521
 4750TIP3    H114256   6.005   3.214   1.476 -0.9823 -1.0628  1.5818
 4750TIP3    H214257   6.140   3.243   1.539 -0.5245 -1.7022  0.9002
 4751TIP3   OH214258   0.429   2.250   2.137  0.0012  0.1708  0.2531
 4751TIP3    H114259   0.369   2.176   2.149 -0.2753  0.4116  0.3740
 4751TIP3    H214260   0.509   2.210   2.103  0.1723 -0.3038  1.1700
 4752TIP3   OH214261   0.906   5.140   4.204  0.2435  0.1900 -0.0994
 4752TIP3    H114262   0.946   5.083   4.139  0.0715 -0.6665  0.5283
 4752TIP3    H214263   0.827   5.173   4.162 -0.4467 -1.2272  0.0447
 4753TIP3   OH214264   5.572   0.653   3.241  0.0306  0.2108 -0.1783
 4753TIP3    H114265   5.496   0.702   3.271 -1.5292 -0.9242 -2.1239
 4753TIP3    H214266   5.618   0.630   3.322 -1.2371  1.5676  0.9900
 4754TIP3   OH214267   5.235   4.994   4.389 -0.3241  0.1821 -1.0917
 4754TIP3    H114268   5.234   5.069   4.329 -1.2591  0.6272 -0.5362
 4754TIP3    H214269   5.144   4.983   4.417 -0.1190 -0.8486 -0.7683
 4755TIP3   OH214270   4.435   2.046   1.607 -0.6179 -0.2700  0.2260
 4755TIP3    H114271   4.347   2.008   1.617 -1.7926  1.9277 -0.9467
 4755TIP3    H214272   4.420   2.140   1.604  1.8789  0.2070  0.4898
 4756TIP3   OH214273   6.010   2.202   0.954 -0.6762 -0.0393 -0.2708
 4756TIP3    H114274   5.959   2.171   1.028 -1.0643  2.0712  0.4094
 4756TIP3    H214275   5.950   2.200   0.880 -0.0724 -2.9088 -0.8186
 4757TIP3   OH214276   5.443   3.089   3.205 -0.1145 -0.4982  0.3436
 4757TIP3    H114277   5.365   3.127   3.246 -0.5367 -1.7636  0.7619
 4757TIP3    H214278   5.462   3.147   3.131 -0.9796  0.2683  0.7018
 4758TIP3   OH214279   4.600   4.281   1.521 -0.1669 -0.0258 -0.1039
 4758TIP3    H114280   4.622   4.289   1.428 -2.6153 -0.9694 -0.8453
 4758TIP3    H214281   4.506   4.295   1.525 -0.1767 -0.3068  2.2199
 4759TIP3   OH214282   0.537   4.830   0.647  0.0288 -0.2663  0.3725
 4759TIP3    H114283   0.555   4.737   0.632  0.9844 -0.1053  0.4604
 4759TIP3    H214284   0.574   4.847   0.734  0.4347  0.3384  0.0857
 4760TIP3   OH214285   4.370   3.284   0.820 -0.5530  0.2538  0.5701
 4760TIP3    H114286   4.285   3.299   0.862 -2.0941  0.5350 -2.3517
 4760TIP3    H214287   4.366   3.194   0.788 -0.6379  0.8521 -1.2610
 4761TIP3   OH214288   2.184   3.230   0.245  0.1628 -0.0275  0.0932
 4761TIP3    H114289   2.122   3.302   0.251 -0.1328 -0.3440  1.0233
 4761TIP3    H214290   2.243   3.254   0.174 -1.5628 -0.1347 -1.4443
 4762TIP3   OH214291   2.802   3.174   1.441  0.1639  0.0209  0.3260
 4762TIP3    H114292   2.755   3.190   1.359  1.6116 -0.0029 -0.5418
 4762TIP3    H214293   2.770   3.242   1.500 -0.3931  0.4705 -0.4694
 4763TIP3   OH214294   1.366   4.242   1.686 -0.1066  0.4075  0.0480
 4763TIP3    H114295   1.433   4.270   1.749  1.0432 -2.0004  0.0052
 4763TIP3    H214296   1.413   4.234   1.603 -0.1540 -2.1205  0.1881
 4764TIP3   OH214297   0.348   5.179   3.380  0.0781  0.2868  0.5886
 4764TIP3    H114298   0.277   5.238   3.404 -1.4572 -0.9512 -0.7184
 4764TIP3    H214299   0.378   5.210   3.295 -0.3573 -0.4685  0.1547
 4765TIP3   OH214300   0.687   3.512   4.040 -0.3364 -0.8355  0.0684
 4765TIP3    H114301   0.601   3.478   4.067 -0.0199 -1.8707 -0.1949
 4765TIP3    H214302   0.666   3.593   3.994 -1.1198 -0.6945  0.6431
 4766TIP3   OH214303   5.226   3.640   4.180  0.1452 -0.9869  0.0838
 4766TIP3    H114304   5.145   3.673   4.142 -0.4135 -1.9852  0.3551
 4766TIP3    H214305   5.281   3.618   4.105  0.4893  0.4177 -0.0971
 4767TIP3   OH214306   0.569   1.035   0.623 -0.5573  0.2538 -0.3313
 4767TIP3    H114307   0.493   1.081   0.589 -0.7096 -0.5598 -1.1511
 4767TIP3    H214308   0.625   1.104   0.659 -2.2860  0.7398  1.5742
 4768TIP3   OH214309   3.464   4.527   5.088 -0.0405 -0.2732 -0.0882
 4768TIP3    H114310   3.472   4.432   5.092  0.1067 -0.2387  0.5875
 4768TIP3    H214311   3.376   4.545   5.122 -0.0456 -0.1681 -0.1574
 4769TIP3   OH214312   0.165   2.741   3.380  0.0283  0.2770 -0.0332
 4769TIP3    H114313   0.203   2.723   3.294  0.3877  0.0922  0.1631
 4769TIP3    H214314   0.090   2.681   3.387 -1.2009  1.6141 -1.0060
 4770TIP3   OH214315   3.616   1.267   0.119 -0.2673 -0.0996  0.6716
 4770TIP3    H114316   3.655   1.345   0.081 -0.5010  0.8990  2.3505
 4770TIP3    H214317   3.601   1.208   0.045  3.6372 -0.2746 -0.2039
 4771TIP3   OH214318   0.889   0.545   4.677  0.0434 -0.5765 -0.5483
 4771TIP3    H114319   0.941   0.623   4.658 -1.3060  0.3156 -0.7303
 4771TIP3    H214320   0.950   0.472   4.666  1.7812  0.5154  1.2447
 4772TIP3   OH214321   1.373   5.880   1.111 -0.6460 -0.3066  0.4352
 4772TIP3    H114322   1.323   5.892   1.030 -1.8130 -1.1649  1.0012
 4772TIP3    H214323   1.367   5.965   1.155 -1.1517 -0.2330  0.2357
 4773TIP3   OH214324   6.142   0.286   3.857  0.7991  0.3251 -0.0412
 4773TIP3    H114325   6.104   0.362   3.899 -3.0803 -0.6304 -1.4348
 4773TIP3    H214326   6.133   0.215   3.921 -2.4856 -0.4829 -1.2162
 4774TIP3   OH214327   1.624   3.324   4.439 -0.6795 -0.1350 -0.4156
 4774TIP3    H114328   1.685   3.361   4.504 -0.7033  0.5815 -0.7929
 4774TIP3    H214329   1.649   3.366   4.356  0.1512 -1.9412 -1.1230
 4775TIP3   OH214330   0.215   5.959   1.446  0.1307 -0.1082  0.7110
 4775TIP3    H114331   0.266   6.040   1.433  0.9463 -0.5271  1.1964
 4775TIP3    H214332   0.264   5.893   1.398 -0.1222 -0.4630  0.9398
 4776TIP3   OH214333   4.611   2.905   1.827  0.1183 -0.5437 -0.0843
 4776TIP3    H114334   4.553   2.893   1.903  0.0382 -1.1771 -0.2401
 4776TIP3    H214335   4.559   2.874   1.753  0.8006 -1.5169 -0.1715
 4777TIP3   OH214336   6.318   1.641   4.800 -0.0268  0.0572 -0.1347
 4777TIP3    H114337   6.399   1.668   4.756 -0.4414  1.0869 -0.2945
 4777TIP3    H214338   6.277   1.723   4.827 -0.6093 -0.4909  0.6931
 4778TIP3   OH214339   1.246   5.002   2.550  0.2011  0.7595 -0.7141
 4778TIP3    H114340   1.326   4.967   2.511  0.2597  0.4072 -0.2892
 4778TIP3    H214341   1.276   5.058   2.622  0.0572  0.3389 -0.3234
 4779TIP3   OH214342   1.808   4.012   0.794  0.3861 -1.1196  0.6039
 4779TIP3    H114343   1.804   4.106   0.776 -0.8353 -1.2856 -0.1157
 4779TIP3    H214344   1.899   3.988   0.773  0.0486 -0.5595 -1.7834
 4780TIP3   OH214345   1.741   1.509   3.568  0.3407 -0.0251  0.3311
 4780TIP3    H114346   1.762   1.503   3.475  0.8846 -1.2189  0.5004
 4780TIP3    H214347   1.760   1.599   3.592 -0.7944  0.5836 -0.9310
 4781TIP3   OH214348   1.088   0.089   2.325  0.0432 -0.4361  0.3846
 4781TIP3    H114349   1.165   0.049   2.285  0.9171 -0.0040  1.5339
 4781TIP3    H214350   1.055   0.023   2.386  3.4998  1.3904  4.8800
 4782TIP3   OH214351   5.867   0.466   4.596 -0.3145 -0.3498 -0.0248
 4782TIP3    H114352   5.886   0.469   4.690 -0.5392 -1.0254  0.0488
 4782TIP3    H214353   5.775   0.438   4.591 -0.3690 -0.1050 -0.4395
 4783TIP3   OH214354   2.496   1.281   3.845  0.1139  0.0053 -0.2378
 4783TIP3    H114355   2.443   1.276   3.766  0.7773  1.1461 -0.7732
 4783TIP3    H214356   2.432   1.297   3.915 -0.3192  0.5697 -0.7559
 4784TIP3   OH214357   2.588   0.054   4.593 -0.3606  0.2568 -0.2253
 4784TIP3    H114358   2.525   0.012   4.535 -0.8446  0.4900  0.1334
 4784TIP3    H214359   2.536   0.111   4.649  0.1492  0.3480  0.1656
 4785TIP3   OH214360   1.630   4.439   0.245 -0.1971  0.0365 -0.3224
 4785TIP3    H114361   1.687   4.399   0.180 -0.2572  0.8870 -0.9121
 4785TIP3    H214362   1.544   4.443   0.203 -0.3477  0.1298 -0.0086
 4786TIP3   OH214363   0.383   2.973   4.536  0.0349  0.4917 -0.0692
 4786TIP3    H114364   0.315   2.905   4.540 -1.2756  1.6986 -0.8924
 4786TIP3    H214365   0.385   2.998   4.444  0.7893  1.3069  0.1605
 4787TIP3   OH214366   0.147   5.906   2.899 -0.7975 -0.3008 -0.1407
 4787TIP3    H114367   0.192   5.844   2.957  3.3932  2.6085  0.2630
 4787TIP3    H214368   0.120   5.854   2.824  0.0674 -3.0057  1.2822
 4788TIP3   OH214369   2.843   5.000   4.792 -0.0352 -0.4215 -0.1582
 4788TIP3    H114370   2.762   5.001   4.740 -2.0402 -0.2632  2.7505
 4788TIP3    H214371   2.844   5.085   4.836  1.3716 -0.6976  0.3808
 4789TIP3   OH214372   3.983   5.491   2.873 -0.2551  0.0806  0.8841
 4789TIP3    H114373   3.984   5.528   2.961  0.4411 -0.7858  1.2549
 4789TIP3    H214374   3.911   5.428   2.874 -0.3392  0.1747  0.7896
 4790TIP3   OH214375   0.734   5.288   0.875 -0.0601 -0.7030  0.4054
 4790TIP3    H114376   0.643   5.265   0.897  0.3448 -2.3468  0.5278
 4790TIP3    H214377   0.756   5.230   0.802  1.1743 -0.9762  0.9757
 4791TIP3   OH214378   4.017   2.764   1.708  0.4829 -0.1928  0.0311
 4791TIP3    H114379   3.922   2.765   1.690  0.0242 -2.1633  1.9060
 4791TIP3    H214380   4.057   2.760   1.621 -1.2374 -0.7272 -0.7937
 4792TIP3   OH214381   2.960   0.502   1.109 -0.0618  0.0298  0.0700
 4792TIP3    H114382   3.005   0.506   1.024 -0.4025 -1.3832 -0.2069
 4792TIP3    H214383   2.869   0.484   1.087 -0.4626  1.2245  0.6933
 4793TIP3   OH214384   2.188   0.525   3.356  0.2710  0.4105  0.7392
 4793TIP3    H114385   2.242   0.507   3.279 -1.1477  0.1236 -0.2312
 4793TIP3    H214386   2.196   0.619   3.369 -0.0468  0.5839 -0.2196
 4794TIP3   OH214387   5.445   0.717   4.405 -0.2556 -0.3212 -0.2018
 4794TIP3    H114388   5.486   0.784   4.460 -0.0752 -0.2979 -0.3619
 4794TIP3    H214389   5.512   0.696   4.339 -0.3032 -0.6688 -0.1431
 4795TIP3   OH214390   3.723   1.134   2.639 -0.1853 -0.1986 -0.4388
 4795TIP3    H114391   3.783   1.063   2.619 -0.9681 -0.8632 -0.5005
 4795TIP3    H214392   3.764   1.182   2.710  0.9321  0.0277 -1.2122
 4796TIP3   OH214393   0.232   1.530   4.407  0.2441  0.1147 -0.1352
 4796TIP3    H114394   0.277   1.574   4.335  1.8079  1.6818  1.6804
 4796TIP3    H214395   0.299   1.472   4.444 -0.4646 -0.5035  0.1917
 4797TIP3   OH214396   3.829   1.871   3.393  0.0759 -0.1023 -0.3173
 4797TIP3    H114397   3.779   1.810   3.338  1.0393 -1.9789  0.7736
 4797TIP3    H214398   3.828   1.830   3.479  0.2184  1.8112  0.6289
 4798TIP3   OH214399   5.190   4.554   2.085  0.0466 -0.7710  0.0880
 4798TIP3    H114400   5.227   4.639   2.061 -0.6937 -0.5797 -0.3979
 4798TIP3    H214401   5.131   4.532   2.013 -0.8506 -1.0358  0.8751
 4799TIP3   OH214402   3.274   4.384   4.897  0.1619 -0.1294 -0.3960
 4799TIP3    H114403   3.200   4.371   4.838  1.3599  0.0621 -2.0218
 4799TIP3    H214404   3.234   4.397   4.983 -1.6491 -0.5784 -1.1149
 4800TIP3   OH214405   3.561   4.480   1.138  0.0418 -0.5368  0.1494
 4800TIP3    H114406   3.645   4.439   1.118 -0.4363 -2.6273  1.9739
 4800TIP3    H214407   3.570   4.509   1.229 -0.4547  1.4247 -0.3735
 4801TIP3   OH214408   5.506   2.326   1.048 -0.3159  0.3312  0.2553
 4801TIP3    H114409   5.533   2.237   1.025  1.2911  0.6606  0.7619
 4801TIP3    H214410   5.544   2.381   0.979 -1.8884  0.5904 -0.4507
 4802TIP3   OH214411   2.436   5.538   2.607  0.3756  0.2031  0.4111
 4802TIP3    H114412   2.419   5.455   2.563  1.6256  0.6647 -0.9989
 4802TIP3    H214413   2.353   5.558   2.652 -0.8394 -0.5048 -1.3850
 4803TIP3   OH214414   5.953   3.395   3.679 -0.4836  0.1553  0.1963
 4803TIP3    H114415   5.916   3.337   3.613 -2.1733  1.0872  0.2734
 4803TIP3    H214416   5.950   3.344   3.760 -0.1542 -0.3204 -0.0876
 4804TIP3   OH214417   6.088   3.574   0.946  0.4075 -0.2685  0.5115
 4804TIP3    H114418   6.109   3.497   0.999 -0.4587 -0.3640  0.7329
 4804TIP3    H214419   6.155   3.575   0.878  1.1607 -0.5098  1.2311
 4805TIP3   OH214420   0.052   5.278   3.130  0.1815 -0.0257  0.0787
 4805TIP3    H114421  -0.040   5.300   3.118 -0.1688 -1.8441 -0.9550
 4805TIP3    H214422   0.074   5.311   3.218 -1.4665  0.3572  0.3747
 4806TIP3   OH214423   5.363   0.796   5.138  0.2710  0.9517 -0.6033
 4806TIP3    H114424   5.304   0.830   5.070  0.0008  2.1391  0.1979
 4806TIP3    H214425   5.322   0.820   5.220  0.4041 -0.8219  0.0228
 4807TIP3   OH214426   0.140   2.068   3.891 -0.2915  0.1846  0.2115
 4807TIP3    H114427   0.071   2.085   3.955 -0.5750  2.2187 -0.5537
 4807TIP3    H214428   0.102   2.094   3.807  2.2376  4.4867  0.0765
 4808TIP3   OH214429   3.980   1.997   0.709 -0.0510  0.4751  0.3263
 4808TIP3    H114430   4.009   2.077   0.666  0.2492  1.0335  1.5358
 4808TIP3    H214431   4.058   1.941   0.710 -0.1452  0.3297 -0.1296
 4809TIP3   OH214432   2.908   4.514   3.443  0.5330  0.3868 -0.1311
 4809TIP3    H114433   2.925   4.446   3.508 -2.2257 -1.2839 -0.9880
 4809TIP3    H214434   2.976   4.503   3.377  0.3537 -1.3848 -0.0654
 4810TIP3   OH214435   1.973   3.215   0.677 -0.1450 -0.0852  0.0834
 4810TIP3    H114436   2.022   3.133   0.688  0.2492  0.3314  1.8811
 4810TIP3    H214437   1.884   3.193   0.703 -0.4290 -0.3204 -1.0525
 4811TIP3   OH214438   2.662   2.341   2.287  0.0231 -0.0634  0.3313
 4811TIP3    H114439   2.615   2.324   2.369 -1.0905 -2.2877 -0.6628
 4811TIP3    H214440   2.731   2.275   2.286  0.2398  0.1679 -0.3676
 4812TIP3   OH214441   0.335   2.843   3.553 -0.4990  0.2266 -0.0336
 4812TIP3    H114442   0.277   2.794   3.495 -0.0273  0.2617 -0.5536
 4812TIP3    H214443   0.417   2.793   3.552 -0.9358 -0.6280  1.8366
 4813TIP3   OH214444   4.264   1.208   3.128 -0.2324  0.0379 -0.3424
 4813TIP3    H114445   4.230   1.176   3.044 -0.0998  2.3855 -1.3769
 4813TIP3    H214446   4.272   1.303   3.116 -1.3931  0.6463  2.7697
 4814TIP3   OH214447   5.611   2.859   3.137  0.0472  0.3328  0.0514
 4814TIP3    H114448   5.553   2.921   3.180 -0.7637  0.0440 -0.5820
 4814TIP3    H214449   5.561   2.777   3.136 -0.0956  0.3991 -1.6656
 4815TIP3   OH214450   2.815   4.061   1.639  0.3351  0.2894 -0.0420
 4815TIP3    H114451   2.785   4.152   1.634 -1.0910 -0.1724 -0.1993
 4815TIP3    H214452   2.825   4.044   1.732 -0.8338  0.1705  0.0748
 4816TIP3   OH214453   4.543   3.026   4.405 -0.0244  0.4809  0.7470
 4816TIP3    H114454   4.513   3.088   4.338 -0.2775 -0.7403 -0.3000
 4816TIP3    H214455   4.636   3.015   4.388 -0.1124  0.0798  0.5228
 4817TIP3   OH214456   4.184   1.821   0.455 -0.2537 -0.2231 -0.3827
 4817TIP3    H114457   4.112   1.764   0.482 -0.7402  0.6161  0.0931
 4817TIP3    H214458   4.221   1.854   0.537  0.1074  0.0560 -0.6531
 4818TIP3   OH214459   2.625   4.740   1.666 -0.2709  0.3535 -0.7409
 4818TIP3    H114460   2.702   4.704   1.710 -0.8725  0.6195  0.5622
 4818TIP3    H214461   2.657   4.762   1.578  0.5216 -1.8338 -1.0735
 4819TIP3   OH214462   0.973   0.602   2.157 -0.7722 -0.3154 -0.1706
 4819TIP3    H114463   0.966   0.543   2.083 -0.5639  2.7996 -2.9015
 4819TIP3    H214464   1.065   0.627   2.160 -1.1227  1.0850 -0.2010
 4820TIP3   OH214465   2.798   4.446   3.937  0.0199  0.1556  0.2614
 4820TIP3    H114466   2.795   4.358   3.901 -0.7740  0.2159  0.1706
 4820TIP3    H214467   2.848   4.497   3.872 -0.4535  0.0148 -0.2172
 4821TIP3   OH214468   3.166   2.848   2.393  0.3945  0.4120 -0.1958
 4821TIP3    H114469   3.217   2.929   2.387 -0.8382  1.1864 -0.7822
 4821TIP3    H214470   3.079   2.877   2.421 -0.6775 -0.4155 -2.4193
 4822TIP3   OH214471   2.963   4.933   0.462  0.0163  0.1057 -0.1625
 4822TIP3    H114472   2.932   4.917   0.552 -1.8363  1.0927 -0.5623
 4822TIP3    H214473   3.040   4.989   0.473 -1.2344  1.7488  0.8368
 4823TIP3   OH214474   1.058   0.884   3.895  0.4058  0.5070 -0.2030
 4823TIP3    H114475   1.017   0.831   3.827 -1.8981  0.9360  0.7288
 4823TIP3    H214476   1.096   0.958   3.849  0.4553 -0.1084 -1.1742
 4824TIP3   OH214477   4.337   5.123   0.966  0.1770  0.7518 -0.3843
 4824TIP3    H114478   4.332   5.136   0.871 -0.4329  1.7669 -0.2249
 4824TIP3    H214479   4.290   5.197   1.003 -0.1394  0.0238  0.7094
 4825TIP3   OH214480   4.257   5.242   4.308 -0.2464  0.1523  0.1092
 4825TIP3    H114481   4.273   5.148   4.319  0.4724  0.1815 -0.5730
 4825TIP3    H214482   4.163   5.249   4.292  0.0028 -0.7128 -2.1063
 4826TIP3   OH214483   3.689   2.720   2.529 -0.1713 -0.2498  0.2706
 4826TIP3    H114484   3.701   2.671   2.610  2.8725  0.3546  0.3049
 4826TIP3    H214485   3.697   2.655   2.460  2.7147 -0.1033  0.3557
 4827TIP3   OH214486   0.686   4.117   3.757  0.1908 -0.4610  0.5214
 4827TIP3    H114487   0.670   4.142   3.666 -0.6635  1.0403  1.0568
 4827TIP3    H214488   0.772   4.073   3.755  1.2380  1.4955 -0.6795
 4828TIP3   OH214489   1.334   5.525   3.295 -0.3017  0.2750  0.5465
 4828TIP3    H114490   1.378   5.600   3.336  0.1806 -0.1482  0.8080
 4828TIP3    H214491   1.394   5.452   3.307 -1.3161 -0.4538  1.4340
 4829TIP3   OH214492   6.140   2.694   2.297 -0.6619  0.5229 -0.2773
 4829TIP3    H114493   6.190   2.770   2.267  1.7773 -0.5259  0.8574
 4829TIP3    H214494   6.135   2.705   2.392 -1.3768 -0.1068 -0.2384
 4830TIP3   OH214495   3.272   5.832   3.569  0.4472  0.5851 -0.1831
 4830TIP3    H114496   3.258   5.812   3.661 -0.7253 -1.1117 -0.6880
 4830TIP3    H214497   3.184   5.841   3.532  0.7113 -2.1508 -1.7765
 4831TIP3   OH214498   3.376   4.754   1.146 -0.1020 -0.0716  0.5434
 4831TIP3    H114499   3.346   4.807   1.220 -0.2642  0.4623  0.1093
 4831TIP3    H214500   3.465   4.729   1.168  0.9162  2.4830 -0.3092
 4832TIP3   OH214501   4.451   4.523   0.263 -0.0827 -0.2939 -0.3913
 4832TIP3    H114502   4.362   4.528   0.228  0.5166 -0.3225 -2.0279
 4832TIP3    H214503   4.500   4.474   0.196  1.0189 -0.8616  0.7898
 4833TIP3   OH214504   1.230   2.562   3.705 -0.3102 -0.0943  0.0046
 4833TIP3    H114505   1.153   2.619   3.713 -0.5839 -0.5573  0.7278
 4833TIP3    H214506   1.300   2.611   3.748 -0.4847 -0.1865  0.3974
 4834TIP3   OH214507   2.029   5.467   0.684  0.7123  0.3010 -0.3092
 4834TIP3    H114508   2.062   5.468   0.594  0.5909 -2.1447 -0.4713
 4834TIP3    H214509   1.935   5.455   0.674  0.3818  2.2612  0.1754
 4835TIP3   OH214510   5.843   5.397   2.195  0.4358 -0.2437  0.1666
 4835TIP3    H114511   5.782   5.326   2.216  0.2832 -0.6299 -1.4299
 4835TIP3    H214512   5.885   5.418   2.279 -0.3805 -1.3924  0.9042
 4836TIP3   OH214513   4.465   4.412   1.864 -0.2452 -0.0916  0.1437
 4836TIP3    H114514   4.490   4.426   1.955 -0.5615 -0.3295  0.2692
 4836TIP3    H214515   4.545   4.429   1.814 -0.1081  0.1776  0.4526
 4837TIP3   OH214516   3.782   2.651   1.346 -0.1596  0.3324 -0.3489
 4837TIP3    H114517   3.858   2.709   1.348 -0.4315  0.7193  1.6914
 4837TIP3    H214518   3.706   2.710   1.343 -0.4069  0.0436  0.0388
 4838TIP3   OH214519   3.151   5.187   3.122  0.6407 -0.1884  0.3292
 4838TIP3    H114520   3.146   5.269   3.170  1.5754  0.7018 -1.0264
 4838TIP3    H214521   3.070   5.183   3.071 -0.2398 -1.0174  1.7302
 4839TIP3   OH214522   2.549   1.296   2.511 -0.3021 -0.1281  0.4140
 4839TIP3    H114523   2.612   1.246   2.562 -0.2877 -0.9133 -0.3365
 4839TIP3    H214524   2.464   1.260   2.536 -0.3774  0.2833  0.7408
 4840TIP3   OH214525   6.262   3.536   0.748 -0.2035  0.4339  0.2147
 4840TIP3    H114526   6.193   3.566   0.690 -0.4331  0.8058  0.6725
 4840TIP3    H214527   6.326   3.493   0.690 -2.4188 -3.1064  0.1086
 4841TIP3   OH214528   1.386   2.629   4.293  0.5958  0.3450 -0.3100
 4841TIP3    H114529   1.295   2.643   4.320  0.0173 -1.7681 -0.9885
 4841TIP3    H214530   1.438   2.666   4.364 -0.7938  1.1185  0.3391
 4842TIP3   OH214531   2.702   5.580   2.443  0.5036 -0.4685  0.1804
 4842TIP3    H114532   2.680   5.501   2.491 -0.4699 -1.4697 -1.7816
 4842TIP3    H214533   2.667   5.651   2.497 -1.1952 -1.5812  0.6462
 4843TIP3   OH214534   1.787   4.726   3.765 -0.4245 -0.4754  0.5150
 4843TIP3    H114535   1.803   4.794   3.831  1.4869 -1.4198  1.1020
 4843TIP3    H214536   1.871   4.715   3.721 -1.3008 -0.8584 -1.1743
 4844TIP3   OH214537   1.477   3.079   5.043 -0.5824 -0.6399 -0.5011
 4844TIP3    H114538   1.425   2.999   5.035 -1.9302 -0.0910  1.8830
 4844TIP3    H214539   1.416   3.144   5.079  1.6571  0.0761  2.3358
 4845TIP3   OH214540   5.117   4.688   1.334 -0.0264 -0.3495 -0.5479
 4845TIP3    H114541   5.157   4.728   1.257  0.5579  1.6053  0.6918
 4845TIP3    H214542   5.185   4.631   1.369 -0.4212 -1.5281 -1.6459
 4846TIP3   OH214543   2.712   4.719   4.752  0.1073  0.7200  0.2197
 4846TIP3    H114544   2.720   4.809   4.785 -1.0214  0.8191  0.2853
 4846TIP3    H214545   2.778   4.712   4.683  1.4111  1.0241  1.3995
 4847TIP3   OH214546   1.920   5.446   3.232 -0.5539  0.0270  0.3728
 4847TIP3    H114547   1.851   5.412   3.175 -0.7157 -0.6800  0.9774
 4847TIP3    H214548   1.912   5.395   3.312  1.6608 -1.1894 -0.1017
 4848TIP3   OH214549   4.675   1.018   0.135 -0.3281 -0.3961 -0.2023
 4848TIP3    H114550   4.755   1.016   0.188  0.7231 -1.2907 -1.7418
 4848TIP3    H214551   4.685   1.094   0.078  0.1229 -1.2902 -1.3645
 4849TIP3   OH214552   6.173   1.352   2.416  0.5232  0.6209 -0.6823
 4849TIP3    H114553   6.179   1.422   2.351  0.5095  0.0143 -1.3534
 4849TIP3    H214554   6.263   1.322   2.429  0.2556 -2.0690 -3.6160
 4850TIP3   OH214555   3.360   1.507   2.692 -0.4038  0.3689  0.2226
 4850TIP3    H114556   3.451   1.479   2.701  0.2115  2.1488  0.0060
 4850TIP3    H214557   3.351   1.528   2.599 -1.6448 -1.6106 -0.1605
 4851TIP3   OH214558   1.726   4.448   4.484 -0.1980  0.0766 -0.0368
 4851TIP3    H114559   1.715   4.506   4.409  1.0737  0.4572  0.0460
 4851TIP3    H214560   1.704   4.361   4.450  1.6685  0.0303 -1.2508
 4852TIP3   OH214561   4.823   3.177   2.504 -0.0588  0.7376  0.0219
 4852TIP3    H114562   4.789   3.189   2.593  1.1391  0.1602  0.5829
 4852TIP3    H214563   4.770   3.235   2.450 -2.5234 -0.7207  0.6931
 4853TIP3   OH214564   4.438   4.376   3.310 -0.5269 -0.3312 -0.7909
 4853TIP3    H114565   4.500   4.447   3.325 -1.3874  0.4288 -0.7818
 4853TIP3    H214566   4.464   4.308   3.372  0.7505 -0.3359 -1.2961
 4854TIP3   OH214567   4.547   5.374   4.200  0.3442 -0.1825  0.0008
 4854TIP3    H114568   4.586   5.400   4.284  0.9150  0.4526 -0.4562
 4854TIP3    H214569   4.536   5.280   4.208 -1.2362  0.0680  1.4756
 4855TIP3   OH214570   2.941   2.191   2.320 -0.6317  0.0084  0.1278
 4855TIP3    H114571   2.965   2.187   2.412  2.7278  1.3401 -0.5704
 4855TIP3    H214572   2.893   2.109   2.304 -1.5198 -0.1410  3.0264
 4856TIP3   OH214573   3.108   1.799   1.705 -0.0076 -0.0658  0.7232
 4856TIP3    H114574   3.113   1.804   1.610 -0.1924 -0.4944  0.6862
 4856TIP3    H214575   3.025   1.753   1.722  0.3327 -0.5670  1.0685
 4857TIP3   OH214576   5.750   3.864   2.482 -0.5637  0.0930 -0.5446
 4857TIP3    H114577   5.789   3.906   2.559  0.1630 -1.3614 -0.0688
 4857TIP3    H214578   5.661   3.842   2.510 -0.1203 -0.9337  0.1011
 4858TIP3   OH214579   2.298   5.693   0.633  0.5859  0.4502 -0.2359
 4858TIP3    H114580   2.303   5.783   0.665 -1.4345  0.8735 -0.9293
 4858TIP3    H214581   2.268   5.643   0.709  1.7739  0.3176  0.1682
 4859TIP3   OH214582   0.684   3.636   4.596 -0.2417 -0.0431 -0.3973
 4859TIP3    H114583   0.591   3.648   4.576 -0.7130 -0.4685  1.3991
 4859TIP3    H214584   0.686   3.562   4.657  0.9944  1.4896  1.5344
 4860TIP3   OH214585   3.706   1.704   3.220  0.2810  0.0625  0.3722
 4860TIP3    H114586   3.734   1.613   3.217 -0.7931 -0.2642 -0.3699
 4860TIP3    H214587   3.614   1.700   3.248  0.0422  0.8621 -0.2445
 4861TIP3   OH214588   2.129   3.643   3.803 -0.3836 -0.6055 -0.4541
 4861TIP3    H114589   2.089   3.614   3.885 -0.3915 -2.2954 -1.0193
 4861TIP3    H214590   2.057   3.683   3.755 -0.3447  0.5375  0.4048
 4862TIP3   OH214591   3.214   3.714   1.602  0.2574 -0.2135  0.0624
 4862TIP3    H114592   3.123   3.742   1.606  0.7955  1.5396  2.2861
 4862TIP3    H214593   3.218   3.655   1.527 -2.9221 -1.2498  0.5623
 4863TIP3   OH214594   4.821   2.045   2.169  0.6344  0.2704  1.2454
 4863TIP3    H114595   4.861   1.960   2.189  0.0039 -0.3307  0.0513
 4863TIP3    H214596   4.727   2.028   2.171  0.5209  0.5838 -0.4176
 4864TIP3   OH214597   4.983   2.395   3.477 -0.0896  0.2948 -0.3533
 4864TIP3    H114598   5.042   2.334   3.433 -1.6264 -0.5301 -1.3922
 4864TIP3    H214599   4.951   2.347   3.553 -0.5514  0.1643 -0.6270
 4865TIP3   OH214600   0.096   1.236   3.412 -0.4651  0.3828 -0.2213
 4865TIP3    H114601   0.114   1.330   3.407 -0.0808  0.2903 -0.5988
 4865TIP3    H214602   0.135   1.200   3.333 -0.3880 -0.1301  0.0477
 4866TIP3   OH214603   5.265   4.227   1.606 -1.0776 -0.5336  0.3974
 4866TIP3    H114604   5.356   4.208   1.586 -0.7943  0.9143  0.1927
 4866TIP3    H214605   5.267   4.262   1.695 -1.1354  1.3571 -0.3006
 4867TIP3   OH214606   0.371   1.002   3.789 -0.0740 -0.3240 -0.1429
 4867TIP3    H114607   0.285   0.958   3.783 -1.7480  2.4208  1.6478
 4867TIP3    H214608   0.360   1.083   3.740  1.6652 -0.0706 -0.1691
 4868TIP3   OH214609   0.502   1.402   4.038 -0.1690 -0.2696  0.5753
 4868TIP3    H114610   0.539   1.402   3.950  2.0615  1.3488  1.4333
 4868TIP3    H214611   0.490   1.495   4.059 -1.7553 -0.6624  1.5770
 4869TIP3   OH214612   1.201   4.979   0.120  0.2516  0.2104 -0.0091
 4869TIP3    H114613   1.120   4.978   0.069 -0.4763  1.7521  1.0572
 4869TIP3    H214614   1.247   5.057   0.090  0.5466  0.2650  0.5782
 4870TIP3   OH214615   0.896   3.852   0.534 -0.1594 -0.8445  0.1393
 4870TIP3    H114616   0.914   3.905   0.612  0.4903  0.1433 -0.6474
 4870TIP3    H214617   0.948   3.773   0.545  0.4866 -0.3933  0.3840
 4871TIP3   OH214618   2.157   4.859   2.824 -0.2045 -0.4166 -0.1038
 4871TIP3    H114619   2.122   4.835   2.739 -0.1664 -0.0921 -0.2127
 4871TIP3    H214620   2.136   4.952   2.833  0.1404 -0.3537  0.0699
 4872TIP3   OH214621   4.078   1.987   0.282 -0.3171 -0.0872 -0.3589
 4872TIP3    H114622   4.129   1.940   0.348  1.2204  0.7561 -0.9001
 4872TIP3    H214623   4.075   1.926   0.208  3.9021  1.3655 -2.0700
 4873TIP3   OH214624   0.839   5.566   1.570  0.2603 -0.2310  0.6738
 4873TIP3    H114625   0.746   5.563   1.591 -0.7532  0.7689 -2.8553
 4873TIP3    H214626   0.861   5.659   1.570  0.6011 -0.2838 -0.7305
 4874TIP3   OH214627   0.195   0.310   3.539  0.1725 -0.3448  0.3360
 4874TIP3    H114628   0.246   0.361   3.602 -1.4605  1.7015  0.1432
 4874TIP3    H214629   0.221   0.345   3.454  0.4893 -1.2661  0.0519
 4875TIP3   OH214630   4.553   2.066   3.915 -0.0376 -0.1849  0.4611
 4875TIP3    H114631   4.633   2.097   3.958 -0.3068 -1.6979  2.1993
 4875TIP3    H214632   4.574   1.978   3.886 -1.2010 -0.8024  1.4234
 4876TIP3   OH214633   1.542   3.630   2.264 -0.4523  0.9038  0.1685
 4876TIP3    H114634   1.602   3.577   2.211  0.6406  1.9773  0.2842
 4876TIP3    H214635   1.482   3.669   2.200 -0.6918  0.2569 -0.0099
 4877TIP3   OH214636   4.890   2.156   0.127  0.2283  0.2832 -0.4081
 4877TIP3    H114637   4.885   2.248   0.153 -0.9105 -0.1088  0.8796
 4877TIP3    H214638   4.964   2.121   0.178 -0.5905  0.0464  0.6618
 4878TIP3   OH214639   0.052   2.822   1.272  0.2386 -0.1999  0.5022
 4878TIP3    H114640   0.057   2.774   1.190 -0.9625 -0.5343  0.5953
 4878TIP3    H214641  -0.027   2.789   1.315 -1.7305  3.0393 -0.2395
 4879TIP3   OH214642   4.819   2.606   0.088  0.0605 -0.3479  0.1974
 4879TIP3    H114643   4.888   2.569   0.033  0.3582 -0.4341  0.6241
 4879TIP3    H214644   4.857   2.688   0.120  1.4048 -2.0315  3.2922
 4880TIP3   OH214645   2.960   4.188   2.515 -0.4539  0.3327 -0.5021
 4880TIP3    H114646   2.996   4.126   2.451  1.2536  1.2070 -0.4460
 4880TIP3    H214647   2.955   4.139   2.597 -0.5811 -0.1586 -0.7996
 4881TIP3   OH214648   1.961   1.158   1.851 -0.2882 -0.5742 -0.2575
 4881TIP3    H114649   1.957   1.065   1.828  0.5552 -0.1970 -2.1168
 4881TIP3    H214650   2.039   1.165   1.907 -0.3506 -0.9670 -0.1143
 4882TIP3   OH214651   5.688   4.444   1.911 -0.5924 -0.1781 -1.0582
 4882TIP3    H114652   5.642   4.524   1.884  1.5598  1.2773 -0.6475
 4882TIP3    H214653   5.731   4.413   1.831 -1.6496 -1.1565 -1.2847
 4883TIP3   OH214654   0.705   2.305   0.043 -0.0146 -0.3811  0.4970
 4883TIP3    H114655   0.620   2.276   0.008  0.0756 -0.6224  0.4764
 4883TIP3    H214656   0.752   2.337  -0.034  0.3889 -1.4099  0.3031
 4884TIP3   OH214657   2.753   1.092   0.584 -0.1518 -0.0642 -0.4113
 4884TIP3    H114658   2.842   1.067   0.559 -0.1503 -0.3326 -0.1547
 4884TIP3    H214659   2.754   1.187   0.586  0.4081 -0.0797  0.5551
 4885TIP3   OH214660   2.847   5.236   4.898 -0.2925  0.3461  0.4228
 4885TIP3    H114661   2.887   5.323   4.899  0.8290 -0.1019 -1.1445
 4885TIP3    H214662   2.753   5.253   4.895 -0.0592  1.5685 -1.5043
 4886TIP3   OH214663   5.781   5.018   4.352 -0.2850 -0.0408 -1.0767
 4886TIP3    H114664   5.796   4.959   4.278 -0.1098 -0.0656 -1.0224
 4886TIP3    H214665   5.868   5.046   4.379 -0.3021 -0.5464 -0.4652
 4887TIP3   OH214666   2.357   4.635   2.644  0.7009 -0.1929  0.4427
 4887TIP3    H114667   2.296   4.603   2.711 -1.4774  2.3378 -0.1428
 4887TIP3    H214668   2.423   4.683   2.694  0.4003 -0.2865  0.9422
 4888TIP3   OH214669   4.837   4.168   2.026  0.3920  0.3076 -0.1470
 4888TIP3    H114670   4.766   4.174   1.962  0.6276 -1.3165 -0.6124
 4888TIP3    H214671   4.794   4.181   2.110 -0.6775 -1.5675 -0.3412
 4889TIP3   OH214672   5.016   5.656   0.814 -0.3078 -0.2836  0.9451
 4889TIP3    H114673   5.056   5.655   0.727 -1.4513  0.7976  0.3706
 4889TIP3    H214674   5.090   5.664   0.874  0.8603 -4.3462  0.3981
 4890TIP3   OH214675   0.957   4.736   1.137 -0.6617  0.0685  0.0637
 4890TIP3    H114676   1.010   4.709   1.062 -1.7127 -0.4952 -0.5041
 4890TIP3    H214677   0.958   4.660   1.195  0.2680  0.5554  0.7073
 4891TIP3   OH214678   4.160   1.934   1.411 -0.3851 -0.6251  0.7626
 4891TIP3    H114679   4.149   1.933   1.506 -1.3078 -0.1289  0.6699
 4891TIP3    H214680   4.076   1.965   1.377  0.9621  2.5331 -0.0740
 4892TIP3   OH214681   5.731   2.729   0.701 -0.4244  0.1555  0.1147
 4892TIP3    H114682   5.662   2.675   0.662 -0.1920 -0.0543 -0.0131
 4892TIP3    H214683   5.813   2.688   0.670 -0.2479  0.6367 -0.0573
 4893TIP3   OH214684   2.888   1.127   4.903 -0.3351 -0.1795 -0.0129
 4893TIP3    H114685   2.856   1.184   4.832 -2.6171  0.1646  1.1752
 4893TIP3    H214686   2.974   1.162   4.925 -1.2366  2.2383 -0.0210
 4894TIP3   OH214687   0.957   0.794   0.313 -0.0025 -0.1715  0.6528
 4894TIP3    H114688   1.028   0.740   0.348 -0.2366 -1.0932 -0.2491
 4894TIP3    H214689   0.931   0.751   0.232 -0.7637  0.8478  0.3248
 4895TIP3   OH214690   5.302   1.277   4.110  0.4377  0.1106  0.7071
 4895TIP3    H114691   5.240   1.347   4.090  0.8356 -0.2481 -2.1667
 4895TIP3    H214692   5.361   1.315   4.175 -0.8493  1.5506  1.0963
 4896TIP3   OH214693   1.796   2.977   2.552  0.1318  0.3190 -0.2404
 4896TIP3    H114694   1.704   2.955   2.559  0.0820  0.6132  0.0544
 4896TIP3    H214695   1.826   2.931   2.474 -0.2736  0.2581 -0.3604
 4897TIP3   OH214696   2.863   2.673   3.531 -0.2242 -0.0935 -0.9168
 4897TIP3    H114697   2.854   2.757   3.575 -0.4446  0.2890 -1.6769
 4897TIP3    H214698   2.811   2.682   3.451 -0.4031 -1.0127 -0.9243
 4898TIP3   OH214699   2.185   1.634   4.785 -0.0318  0.4867  0.4427
 4898TIP3    H114700   2.205   1.554   4.834 -0.9970  0.0279  0.1181
 4898TIP3    H214701   2.194   1.705   4.849 -0.6631 -0.0387  1.1295
 4899TIP3   OH214702   0.509   0.313   0.236 -0.3967  0.1390 -0.3703
 4899TIP3    H114703   0.509   0.223   0.270 -1.0448 -0.5106 -2.0042
 4899TIP3    H214704   0.471   0.306   0.149  1.7788  1.6374 -1.5398
 4900TIP3   OH214705   0.125   4.192   1.793 -0.2414 -0.4766 -0.2761
 4900TIP3    H114706   0.192   4.139   1.752  1.3791 -0.0352  1.6229
 4900TIP3    H214707   0.171   4.239   1.863 -1.9847  1.9368 -0.6204
 4901TIP3   OH214708   1.590   3.250   1.471  0.8081 -0.3862  0.2099
 4901TIP3    H114709   1.526   3.320   1.481 -0.2914 -1.5974  2.4697
 4901TIP3    H214710   1.544   3.181   1.423  1.0247 -0.5746  0.2674
 4902TIP3   OH214711   3.730   5.297   4.800  0.2385 -0.4576  0.3411
 4902TIP3    H114712   3.767   5.209   4.792 -0.1829 -0.5362 -1.0307
 4902TIP3    H214713   3.660   5.288   4.864  1.4019 -0.6940  1.6185
 4903TIP3   OH214714   2.953   2.544   3.171 -0.0560  0.0291 -0.0679
 4903TIP3    H114715   2.864   2.572   3.191 -0.2120 -1.7770  2.1956
 4903TIP3    H214716   2.969   2.577   3.083 -2.4505  1.5549 -0.0337
 4904TIP3   OH214717   4.236   5.293   2.630 -0.1419 -0.2034  0.0841
 4904TIP3    H114718   4.254   5.340   2.712  0.0736  1.1815 -0.7334
 4904TIP3    H214719   4.140   5.287   2.628 -0.1735  0.2294  0.1799
 4905TIP3   OH214720   2.904   0.718   0.902  0.2800  0.1356  0.4482
 4905TIP3    H114721   2.891   0.744   0.811 -0.1909  1.4591  0.8639
 4905TIP3    H214722   2.820   0.680   0.929  0.2945  0.1009  0.4445
 4906TIP3   OH214723   3.179   1.189   0.808  0.7424  0.3611  0.1915
 4906TIP3    H114724   3.245   1.225   0.749 -0.7358 -0.7002 -2.2556
 4906TIP3    H214725   3.229   1.138   0.872  2.3431  0.5952 -0.8135
 4907TIP3   OH214726   0.187   1.690   1.911 -0.2090  0.3624 -0.5734
 4907TIP3    H114727   0.173   1.596   1.925 -2.9959  0.4901 -1.8000
 4907TIP3    H214728   0.261   1.695   1.852  0.6188 -0.9847  0.2887
 4908TIP3   OH214729   1.955   2.792   4.237  0.4472  0.2462 -0.0665
 4908TIP3    H114730   1.923   2.864   4.182 -0.1237  1.1995  1.4406
 4908TIP3    H214731   2.049   2.793   4.225  0.5535  1.8601  0.5560
 4909TIP3   OH214732   5.910   4.435   2.683  0.2135  0.3843 -0.2409
 4909TIP3    H114733   5.956   4.477   2.610 -0.2333  1.4637  0.0744
 4909TIP3    H214734   5.828   4.404   2.645  0.6046 -0.3606 -0.5065
 4910TIP3   OH214735   6.213   1.501   5.030  0.2101  0.1484  0.6762
 4910TIP3    H114736   6.244   1.547   4.952 -1.4991 -0.2038 -0.2612
 4910TIP3    H214737   6.132   1.458   5.002 -0.6981  0.3677  2.7578
 4911TIP3   OH214738   6.230   2.228   4.389 -0.9015  0.1672 -0.5665
 4911TIP3    H114739   6.209   2.257   4.478 -1.8377 -2.4911  0.1896
 4911TIP3    H214740   6.149   2.238   4.340 -0.6559  0.7236 -0.8659
 4912TIP3   OH214741   4.911   1.555   1.270 -0.1572 -0.8414 -0.4052
 4912TIP3    H114742   4.980   1.606   1.312 -0.9217 -0.1835  0.0961
 4912TIP3    H214743   4.923   1.467   1.304 -0.5804 -0.3811  1.0241
 4913TIP3   OH214744   3.981   3.923   3.759 -0.1521  0.7750  0.4006
 4913TIP3    H114745   3.925   3.938   3.835  0.2456  1.5032  0.5617
 4913TIP3    H214746   4.001   4.011   3.726 -2.4467  0.4504 -2.1770
 4914TIP3   OH214747   0.619   1.089   2.453 -0.0036  0.0043  0.2570
 4914TIP3    H114748   0.712   1.093   2.474 -0.5563  1.8833  2.9441
 4914TIP3    H214749   0.585   1.020   2.510 -0.6693  1.4210  1.6580
 4915TIP3   OH214750   2.704   5.468   2.803  0.0269  0.7492 -0.3053
 4915TIP3    H114751   2.756   5.546   2.784  0.6878 -0.0991 -2.1299
 4915TIP3    H214752   2.707   5.416   2.723 -0.1051 -1.3350  0.9563
 4916TIP3   OH214753   2.978   4.346   1.740 -0.0634  0.2324 -0.3133
 4916TIP3    H114754   2.906   4.360   1.679  0.5874 -0.5266 -1.2816
 4916TIP3    H214755   2.936   4.334   1.825 -0.9112  3.5494 -0.1201
 4917TIP3   OH214756   2.523   3.677   3.005  0.7050  0.2958 -0.5683
 4917TIP3    H114757   2.523   3.583   2.987  1.6139  0.3273 -0.7733
 4917TIP3    H214758   2.585   3.689   3.077 -2.1235  0.3108  2.0738
 4918TIP3   OH214759   1.326   3.558   2.451  0.0826  0.3542  0.3457
 4918TIP3    H114760   1.284   3.633   2.494 -0.1584  1.3253 -1.4511
 4918TIP3    H214761   1.415   3.589   2.431  0.0306  0.1297 -0.2689
 4919TIP3   OH214762   3.514   0.060   0.829  0.3156 -0.0099  0.0357
 4919TIP3    H114763   3.461  -0.019   0.826  0.8156 -0.3186 -1.3000
 4919TIP3    H214764   3.454   0.130   0.800  0.7097 -0.4261 -1.9037
 4920TIP3   OH214765   3.080   4.089   0.233  0.1345 -0.3164  0.1619
 4920TIP3    H114766   3.001   4.039   0.214  0.3934 -0.8842  0.5367
 4920TIP3    H214767   3.146   4.053   0.174  0.2089 -0.1094  0.1184
 4921TIP3   OH214768   1.784   0.065   2.759 -0.5485 -0.3865  0.3790
 4921TIP3    H114769   1.838   0.002   2.712 -1.2656 -0.6234 -0.1479
 4921TIP3    H214770   1.836   0.090   2.836 -0.4187 -1.9219  0.8082
 4922TIP3   OH214771   2.529   2.581   2.336 -0.5219 -0.0973 -0.0497
 4922TIP3    H114772   2.577   2.507   2.300  1.0826  1.3237 -0.9673
 4922TIP3    H214773   2.596   2.644   2.361 -1.8383  1.3698 -0.0128
 4923TIP3   OH214774   5.816   0.557   1.360 -0.3204  0.1484  0.1104
 4923TIP3    H114775   5.841   0.620   1.427 -0.0830  1.6707 -1.3342
 4923TIP3    H214776   5.733   0.591   1.326 -1.4964 -1.7154  0.9732
 4924TIP3   OH214777   1.773   4.723   1.751  0.2587  0.3196 -0.2470
 4924TIP3    H114778   1.860   4.736   1.787  0.3145  0.6456 -0.4873
 4924TIP3    H214779   1.716   4.713   1.827  0.7481 -1.6603 -0.0958
 4925TIP3   OH214780   1.780   1.863   2.104 -0.3173  0.4804 -0.1158
 4925TIP3    H114781   1.819   1.830   2.024  1.4492  3.4311 -0.6282
 4925TIP3    H214782   1.692   1.890   2.078 -0.6515 -0.8147 -0.4103
 4926TIP3   OH214783   4.033   5.874   0.910  0.2485  0.0017  0.0272
 4926TIP3    H114784   4.076   5.920   0.837  2.2464  0.2745  1.2884
 4926TIP3    H214785   4.019   5.943   0.975 -2.1875 -0.0956 -0.3203
 4927TIP3   OH214786   5.126   2.945   3.074  0.1360 -0.0650  0.3328
 4927TIP3    H114787   5.201   2.921   3.021  0.3021 -0.1325  0.5974
 4927TIP3    H214788   5.125   3.041   3.072 -0.2253 -0.0706 -0.2982
 4928TIP3   OH214789   2.265   2.569   3.414  0.0496  0.6202  0.6525
 4928TIP3    H114790   2.309   2.574   3.329 -1.2352  0.2573 -0.0579
 4928TIP3    H214791   2.195   2.634   3.409 -3.5841 -3.0086 -0.7540
 4929TIP3   OH214792   3.368   3.851   1.095 -0.1481 -0.2334 -0.3663
 4929TIP3    H114793   3.287   3.828   1.142 -1.7592  0.3953 -2.6322
 4929TIP3    H214794   3.425   3.887   1.162 -1.8340 -0.5012  1.3123
 4930TIP3   OH214795   2.802   5.911   1.707 -0.0634  0.1205  0.1649
 4930TIP3    H114796   2.712   5.941   1.719 -0.5122 -1.2120  0.2785
 4930TIP3    H214797   2.824   5.937   1.617 -0.6501  0.2114  0.0422
 4931TIP3   OH214798   5.680   5.893   0.374 -0.2148 -0.0787 -0.1977
 4931TIP3    H114799   5.725   5.877   0.291  0.3856  0.0514  0.0993
 4931TIP3    H214800   5.699   5.816   0.428  1.0617  0.7089  0.5311
 4932TIP3   OH214801   3.668   2.476   2.984 -0.7971 -0.3309  0.0876
 4932TIP3    H114802   3.651   2.510   3.072 -1.7297 -0.7165  0.0675
 4932TIP3    H214803   3.762   2.489   2.971 -0.9322  1.2428  0.4923
 4933TIP3   OH214804   0.754   0.191   2.109  0.5036  0.4833  0.8320
 4933TIP3    H114805   0.735   0.098   2.099  0.8698  0.4413  0.5163
 4933TIP3    H214806   0.676   0.227   2.153 -0.0916  0.2157  0.0235
 4934TIP3   OH214807   5.559   2.095   2.372  0.2928  0.4242 -0.1563
 4934TIP3    H114808   5.622   2.148   2.324 -0.0052  0.4171 -0.5672
 4934TIP3    H214809   5.481   2.151   2.379  0.0626  0.1360 -0.3785
 4935TIP3   OH214810   3.365   2.575   0.076 -0.5146 -0.5099  0.1948
 4935TIP3    H114811   3.399   2.663   0.092 -3.6913  0.8323  0.3858
 4935TIP3    H214812   3.313   2.584  -0.004  1.4115 -3.0198 -1.5174
 4936TIP3   OH214813   3.079   1.224   0.226 -0.6346 -0.0088 -0.4046
 4936TIP3    H114814   3.135   1.190   0.156  0.8233  1.0643  0.2120
 4936TIP3    H214815   3.058   1.313   0.198 -0.3649  0.2929  0.3473
 4937TIP3   OH214816   4.445   3.540   3.617 -0.0467  0.3701  0.1346
 4937TIP3    H114817   4.509   3.469   3.614 -0.7205 -0.2352 -0.0718
 4937TIP3    H214818   4.497   3.619   3.601  0.5651 -0.1658 -0.5955
 4938TIP3   OH214819   0.492   2.929   1.692 -0.3330 -0.2058  0.1674
 4938TIP3    H114820   0.427   2.863   1.666 -0.2385 -0.1042 -0.3304
 4938TIP3    H214821   0.568   2.911   1.636 -0.0327 -0.1436  0.5497
 4939TIP3   OH214822   1.268   1.588   0.986 -0.0362  0.0127  0.4028
 4939TIP3    H114823   1.211   1.628   1.052 -0.4760 -0.7129  0.4844
 4939TIP3    H214824   1.283   1.499   1.019  2.6436  0.6987  1.3175
 4940TIP3   OH214825   2.944   1.231   1.099  0.2719  0.5351 -0.3474
 4940TIP3    H114826   2.916   1.218   1.008  0.8952 -1.3439 -0.3083
 4940TIP3    H214827   2.888   1.301   1.131 -1.7552 -0.5098 -1.4075
 4941TIP3   OH214828   2.355   3.836   4.599  0.1654  0.1194  0.3609
 4941TIP3    H114829   2.292   3.809   4.665 -0.3395  0.2121 -0.0742
 4941TIP3    H214830   2.418   3.764   4.595 -0.7890 -0.7008 -0.3060
 4942TIP3   OH214831   4.938   2.286   3.727  0.3416 -0.9209  0.0469
 4942TIP3    H114832   4.845   2.264   3.723  0.6266 -2.1679 -0.2226
 4942TIP3    H214833   4.950   2.325   3.814 -0.2488 -1.6758  0.4785
 4943TIP3   OH214834   0.864   1.788   2.196  0.1228  0.4446 -0.4797
 4943TIP3    H114835   0.778   1.812   2.162  0.1098  1.5547  0.2704
 4943TIP3    H214836   0.868   1.693   2.187 -1.2011  0.3728 -0.4786
 4944TIP3   OH214837   5.105   3.121   0.505  0.3772 -0.0406  0.3236
 4944TIP3    H114838   5.038   3.059   0.531 -1.0374  0.2027 -2.3515
 4944TIP3    H214839   5.057   3.201   0.483  1.5010  0.2139 -1.4614
 4945TIP3   OH214840   4.501   5.232   0.612  0.4234  0.1299  0.1050
 4945TIP3    H114841   4.494   5.323   0.640  0.7850  0.7264 -1.6365
 4945TIP3    H214842   4.424   5.189   0.652  0.1180  1.2275  0.7427
 4946TIP3   OH214843   5.835   1.044   3.893  0.3963  0.2897 -0.2351
 4946TIP3    H114844   5.816   1.101   3.819  1.7276  0.9793 -0.0825
 4946TIP3    H214845   5.855   0.959   3.853 -1.4060 -0.0595 -0.4741
 4947TIP3   OH214846   5.103   1.051   1.141  0.0460  0.1362  0.0304
 4947TIP3    H114847   5.168   1.093   1.196  0.5344 -1.6030  0.8313
 4947TIP3    H214848   5.045   1.005   1.202 -1.6129  1.1605 -0.6980
 4948TIP3   OH214849   0.206   5.919   1.870 -0.3816  0.9765  0.3695
 4948TIP3    H114850   0.127   5.968   1.893 -1.0836  0.6420 -1.2028
 4948TIP3    H214851   0.272   5.987   1.856 -0.8224  1.3618  0.1266
 4949TIP3   OH214852   3.755   2.995   1.821 -0.0421 -0.2425  0.2799
 4949TIP3    H114853   3.800   3.061   1.768 -0.2723 -0.5430 -0.2982
 4949TIP3    H214854   3.817   2.974   1.890  0.8622 -0.9017 -0.6941
 4950TIP3   OH214855   1.657   2.617   2.119  0.3394 -0.3761 -0.4200
 4950TIP3    H114856   1.734   2.605   2.174  1.4754  1.3782 -1.5158
 4950TIP3    H214857   1.670   2.557   2.045  1.1786  0.6094 -1.0936
 4951TIP3   OH214858   5.370   1.059   2.585  0.0181  0.2856  0.6347
 4951TIP3    H114859   5.344   1.124   2.519  1.9848  0.7488  0.2387
 4951TIP3    H214860   5.457   1.089   2.614  0.9327 -2.0693  0.5306
 4952TIP3   OH214861   2.341   4.415   3.900 -0.4829 -0.6462 -0.7386
 4952TIP3    H114862   2.355   4.394   3.992 -1.6832 -3.6855 -1.1291
 4952TIP3    H214863   2.423   4.389   3.857 -0.5704 -0.9356 -0.7346
 4953TIP3   OH214864   3.942   3.906   2.926 -0.5785  0.6412  0.1117
 4953TIP3    H114865   3.994   3.873   2.999 -0.4551  0.6846  0.0432
 4953TIP3    H214866   3.896   3.829   2.893 -0.9793  0.7008  0.5145
 4954TIP3   OH214867   4.726   3.406   4.274 -0.0541  0.1427  0.1131
 4954TIP3    H114868   4.763   3.474   4.218  1.7122 -0.5493  0.3861
 4954TIP3    H214869   4.680   3.454   4.343 -1.8067  1.0103 -1.5420
 4955TIP3   OH214870   0.126   1.447   2.682  0.7242 -0.4832 -0.4077
 4955TIP3    H114871   0.217   1.453   2.655  0.8753 -0.0501  0.1856
 4955TIP3    H214872   0.081   1.514   2.632  0.6392 -1.0036 -1.0453
 4956TIP3   OH214873   6.022   1.839   1.799  0.1206  0.2945 -0.2501
 4956TIP3    H114874   6.100   1.792   1.828  0.0044  0.4048  0.2435
 4956TIP3    H214875   5.972   1.774   1.749  1.9023  0.9641 -3.1421
 4957TIP3   OH214876   1.224   1.273   5.172 -0.2494 -0.1928  0.1633
 4957TIP3    H114877   1.255   1.353   5.129 -0.0889  0.5777  1.6532
 4957TIP3    H214878   1.264   1.202   5.122  0.5862  0.6782 -0.4421
 4958TIP3   OH214879   2.495   2.923   2.471  0.1327 -0.2274 -0.0300
 4958TIP3    H114880   2.511   3.003   2.522 -0.3769  0.0883 -0.3691
 4958TIP3    H214881   2.400   2.913   2.471 -0.1729  1.3880 -3.3474
 4959TIP3   OH214882   4.693   2.607   0.728 -0.1338  0.0712  0.2805
 4959TIP3    H114883   4.687   2.584   0.636  0.0913  0.0863  0.2622
 4959TIP3    H214884   4.681   2.524   0.775  1.1634 -0.1850  0.2054
 4960TIP3   OH214885   3.652   1.572   0.503  0.0457 -0.1523 -0.1942
 4960TIP3    H114886   3.704   1.619   0.568  0.7422  1.5951 -1.9329
 4960TIP3    H214887   3.665   1.621   0.422 -1.4352 -1.7929 -1.4886
 4961TIP3   OH214888   4.517   5.443   3.305 -0.3796  0.0862 -0.0341
 4961TIP3    H114889   4.457   5.485   3.367 -1.6557 -1.2542 -0.3000
 4961TIP3    H214890   4.509   5.495   3.225 -0.3911  0.5361  0.2569
 4962TIP3   OH214891   3.910   5.730   5.005 -0.1542 -0.1099 -0.0915
 4962TIP3    H114892   3.907   5.645   5.050  0.7582 -0.1751 -0.1292
 4962TIP3    H214893   3.837   5.727   4.944 -1.0512 -0.2622  0.9668
 4963TIP3   OH214894   5.599   0.721   1.515  1.1316  0.3936 -0.5177
 4963TIP3    H114895   5.598   0.644   1.571  0.0175  0.7899  0.0445
 4963TIP3    H214896   5.682   0.764   1.533  1.4168 -0.2657 -0.2613
 4964TIP3   OH214897   4.138   4.407   1.821 -0.2913  0.3343  0.9513
 4964TIP3    H114898   4.182   4.490   1.803  0.1776 -0.3208 -1.1296
 4964TIP3    H214899   4.206   4.352   1.860  0.6439 -0.4025 -1.5122
 4965TIP3   OH214900   5.571   2.282   1.330 -0.1166  0.2330 -0.2958
 4965TIP3    H114901   5.496   2.242   1.375  0.6360 -2.1165 -0.9653
 4965TIP3    H214902   5.582   2.229   1.251  1.7818  1.0050 -0.6059
 4966TIP3   OH214903   0.902   5.762   0.663 -0.3212 -0.0361 -0.0813
 4966TIP3    H114904   0.880   5.850   0.693 -2.7507 -0.2447 -1.0161
 4966TIP3    H214905   0.985   5.773   0.616 -0.8004  1.8699 -0.5835
 4967TIP3   OH214906   5.219   5.322   2.057 -0.1376  0.2736 -0.1283
 4967TIP3    H114907   5.217   5.238   2.104  1.3223  0.7415  0.8735
 4967TIP3    H214908   5.149   5.316   1.993 -1.7454 -0.7209  1.6083
 4968TIP3   OH214909   3.684   3.011   0.469 -0.2149  0.2418 -0.4675
 4968TIP3    H114910   3.761   3.010   0.412 -0.6812 -0.5838 -1.1078
 4968TIP3    H214911   3.644   3.096   0.454  1.6143  1.5149  1.3373
 4969TIP3   OH214912   3.205   4.374   0.216  0.0644  0.6468 -0.0057
 4969TIP3    H114913   3.276   4.368   0.280 -0.9948  0.9667  1.2411
 4969TIP3    H214914   3.241   4.335   0.137  1.3038 -0.0702  0.8768
 4970TIP3   OH214915   5.876   4.558   3.056 -0.0442  0.5223 -0.6236
 4970TIP3    H114916   5.884   4.606   2.973  0.5153  0.9528 -0.3229
 4970TIP3    H214917   5.849   4.470   3.030 -1.2231  1.0274 -1.1748
 4971TIP3   OH214918   1.976   4.599   2.950  0.7110 -0.0502 -0.3500
 4971TIP3    H114919   1.946   4.686   2.974 -0.3575 -0.4452 -0.1994
 4971TIP3    H214920   1.951   4.544   3.024  1.9690 -0.3859 -0.1469
 4972TIP3   OH214921   3.393   3.348   4.593  0.2126  0.2953 -0.1147
 4972TIP3    H114922   3.333   3.389   4.530 -0.1169  1.0473  0.6651
 4972TIP3    H214923   3.473   3.332   4.543 -0.7690 -1.1707 -1.3123
 4973TIP3   OH214924   1.893   3.378   2.608  0.1141  0.4708 -0.7890
 4973TIP3    H114925   1.821   3.338   2.560 -0.3189 -0.9731  0.9144
 4973TIP3    H214926   1.882   3.472   2.596  0.3359  0.2035 -3.8283
 4974TIP3   OH214927   3.936   4.972   2.557  0.0551 -0.3581 -0.5242
 4974TIP3    H114928   3.897   4.894   2.517 -2.2261  0.7259 -0.5512
 4974TIP3    H214929   4.011   4.938   2.607 -0.2822 -2.4194 -1.3139
 4975TIP3   OH214930   5.600   2.811   0.344  0.0629 -0.5804  0.0393
 4975TIP3    H114931   5.590   2.768   0.259  2.2336  0.0088 -0.5847
 4975TIP3    H214932   5.677   2.770   0.383  1.5781  1.9171 -0.1126
 4976TIP3   OH214933   4.865   3.669   2.789  0.0548 -0.1410 -0.2325
 4976TIP3    H114934   4.831   3.735   2.850  0.1111 -1.7385  1.5859
 4976TIP3    H214935   4.831   3.697   2.704 -1.2461  1.3463  0.7136
 4977TIP3   OH214936  -0.014   4.413   0.358 -0.1529 -0.5280  0.0428
 4977TIP3    H114937   0.030   4.331   0.335  1.3884  0.1754  0.3182
 4977TIP3    H214938   0.039   4.449   0.429 -1.0797  0.4821  0.2466
 4978TIP3   OH214939   3.750   2.202   0.539  0.6782  0.1272  0.9443
 4978TIP3    H114940   3.698   2.281   0.524  0.6604  0.0350  0.4908
 4978TIP3    H214941   3.804   2.194   0.460 -1.5018 -1.9911 -0.4737
 4979TIP3   OH214942   6.041   1.713   1.051 -0.3159  0.4044 -0.4374
 4979TIP3    H114943   6.070   1.754   0.970 -0.8948  0.3804 -0.6652
 4979TIP3    H214944   6.089   1.759   1.120  0.1735  0.4316 -0.7899
 4980TIP3   OH214945   6.149   2.253   2.240 -0.1742  0.3382 -0.3262
 4980TIP3    H114946   6.201   2.333   2.243 -0.2208  0.3905 -0.8868
 4980TIP3    H214947   6.168   2.209   2.323 -1.3298  1.6693  0.6940
 4981TIP3   OH214948   5.754   3.402   4.064  1.0343  0.1469 -0.0452
 4981TIP3    H114949   5.729   3.466   4.131  0.5775  1.7316 -1.6557
 4981TIP3    H214950   5.832   3.440   4.023  1.9405 -1.3216  0.2391
 4982TIP3   OH214951   2.738   3.410   4.707 -0.5704 -0.4289  0.7951
 4982TIP3    H114952   2.683   3.343   4.665 -0.2528  0.7400 -1.6080
 4982TIP3    H214953   2.804   3.432   4.642  0.3119  1.0964  2.1344
 4983TIP3   OH214954   4.379   5.287   3.123 -0.5354 -0.3643 -0.0001
 4983TIP3    H114955   4.422   5.326   3.199  0.4295 -1.2197 -0.0895
 4983TIP3    H214956   4.291   5.265   3.153  0.0994 -1.4410  1.1336
 4984TIP3   OH214957   5.289   3.980   0.945 -0.2038  0.2452  0.2983
 4984TIP3    H114958   5.320   4.057   0.993  0.8080 -0.1123  0.2269
 4984TIP3    H214959   5.368   3.935   0.917 -0.7677  0.5328 -1.8882
 4985TIP3   OH214960   2.653   1.736   4.890 -0.4850  0.3427 -0.1860
 4985TIP3    H114961   2.579   1.765   4.943 -0.4039  0.8417 -0.3437
 4985TIP3    H214962   2.635   1.769   4.803 -0.2429  0.1677 -0.3046
 4986TIP3   OH214963   1.056   2.715   4.285  0.0912 -0.1168 -0.0203
 4986TIP3    H114964   1.072   2.800   4.327  1.4133 -0.5182  0.3577
 4986TIP3    H214965   1.030   2.736   4.196  0.4776  0.6865  0.0501
 4987TIP3   OH214966   1.587   0.944   0.670  0.5079  0.2952 -0.4650
 4987TIP3    H114967   1.583   0.930   0.575  1.7919 -0.2624 -0.4597
 4987TIP3    H214968   1.572   0.858   0.708  3.9959 -0.4042 -0.3193
 4988TIP3   OH214969   5.387   4.081   1.307 -0.0704 -0.0006  0.1933
 4988TIP3    H114970   5.351   3.998   1.338  0.3421 -0.4363 -0.4856
 4988TIP3    H214971   5.418   4.125   1.386  0.1841 -0.7186  0.4972
 4989TIP3   OH214972   1.355   1.933   4.929  0.3642 -0.1735  0.1952
 4989TIP3    H114973   1.417   2.005   4.921  0.1481  0.1391  1.1719
 4989TIP3    H214974   1.317   1.924   4.842  0.5325  0.7744  0.0137
 4990TIP3   OH214975   5.102   3.945   4.976  0.0922 -0.2312 -0.2437
 4990TIP3    H114976   5.170   3.885   4.945  2.1110  2.1123 -0.6557
 4990TIP3    H214977   5.147   4.029   4.987 -2.2587  0.8937  1.7244
 4991TIP3   OH214978   4.547   4.182   2.176  0.1036  0.4150 -0.1383
 4991TIP3    H114979   4.467   4.145   2.137  0.6207  0.7080 -1.5501
 4991TIP3    H214980   4.533   4.276   2.176 -0.6613  0.3490  2.2147
 4992TIP3   OH214981   3.985   2.595   2.719  0.2048  0.7892 -0.8317
 4992TIP3    H114982   3.943   2.587   2.804 -0.4468  0.5556 -1.1668
 4992TIP3    H214983   4.054   2.660   2.732  1.7751 -1.0339  0.4820
 4993TIP3   OH214984   2.571   0.742   2.721  0.1069  0.5262  0.3330
 4993TIP3    H114985   2.564   0.665   2.665 -0.8418 -0.6709  2.0335
 4993TIP3    H214986   2.595   0.813   2.660  2.0940 -1.2643 -1.1236
 4994TIP3   OH214987   4.206   3.841   1.275  0.1625  0.3095  0.4711
 4994TIP3    H114988   4.141   3.825   1.207  1.2575 -1.5133 -0.2170
 4994TIP3    H214989   4.188   3.775   1.342 -0.6926  1.8716  1.8695
 4995TIP3   OH214990   2.043   1.092   4.015 -0.6275  0.0417 -0.0024
 4995TIP3    H114991   2.035   1.185   4.037 -0.1824  0.0767  0.0284
 4995TIP3    H214992   2.011   1.046   4.093 -2.5070  0.1499 -0.6518
 4996TIP3   OH214993   2.482   5.072   2.171 -0.5119  0.1672 -0.1262
 4996TIP3    H114994   2.444   4.997   2.127 -0.6328  0.2977 -0.2449
 4996TIP3    H214995   2.438   5.148   2.133  0.5361  0.3835 -0.9436
 4997TIP3   OH214996   4.189   2.286   3.621 -0.4359  0.1656  0.1452
 4997TIP3    H114997   4.152   2.364   3.578 -2.7301 -0.6586  0.5036
 4997TIP3    H214998   4.271   2.271   3.575 -1.2185  1.2557 -1.7486
 4998TIP3   OH214999   2.147   2.048   0.318  0.4255  0.2451  0.2419
 4998TIP3    H115000   2.191   2.133   0.313 -0.1289  0.4927 -0.8374
 4998TIP3    H215001   2.074   2.063   0.378 -0.8761  1.1319 -1.4900
 4999TIP3   OH215002   1.784   3.868   2.601 -0.2860 -0.2383 -0.1873
 4999TIP3    H115003   1.704   3.866   2.549 -0.5999  0.2384  0.2722
 4999TIP3    H215004   1.819   3.779   2.595  0.4889  0.1449 -2.4496
 5000TIP3   OH215005   4.956   4.499   1.677 -0.1166  0.0331 -0.3041
 5000TIP3    H115006   4.954   4.562   1.604  0.3822 -0.7408 -1.0064
 5000TIP3    H215007   5.046   4.506   1.711 -0.0060 -0.4108 -0.4966
 5001TIP3   OH215008   0.594   3.070   2.662 -0.0221  0.2772 -0.4481
 5001TIP3    H115009   0.535   3.135   2.625 -1.7008 -1.9042 -1.8831
 5001TIP3    H215010   0.573   2.989   2.615  2.1072 -1.2698  1.0626
 5002TIP3   OH215011   3.084   3.264   0.488  0.1351 -0.4107  0.0401
 5002TIP3    H115012   3.171   3.276   0.448 -0.1731  0.7414 -0.3299
 5002TIP3    H215013   3.098   3.279   0.581 -0.0661  2.3481 -0.2880
 5003TIP3   OH215014   5.825   5.838   2.903  0.2175 -0.6674  0.7569
 5003TIP3    H115015   5.913   5.848   2.940  0.0630  0.2231  0.9138
 5003TIP3    H215016   5.839   5.821   2.810  0.5728 -1.3462  0.9318
 5004TIP3   OH215017   1.870   5.708   1.350 -0.4826  0.3497 -0.5776
 5004TIP3    H115018   1.848   5.774   1.284 -1.8107  3.2386  2.4241
 5004TIP3    H215019   1.806   5.722   1.419  1.8277 -1.2498  2.0922
 5005TIP3   OH215020   3.358   1.445   4.696 -0.3548 -0.2054 -0.6601
 5005TIP3    H115021   3.286   1.386   4.717 -0.7423  0.7327  0.7739
 5005TIP3    H215022   3.416   1.440   4.772 -0.1627  0.9126 -0.7208
 5006TIP3   OH215023   0.693   2.660   4.156 -0.4834 -0.1954 -0.1886
 5006TIP3    H115024   0.665   2.582   4.107 -1.2783 -0.0129 -0.0412
 5006TIP3    H215025   0.673   2.640   4.247 -2.3461  0.8289 -0.3132
 5007TIP3   OH215026   5.023   3.663   0.067 -0.4882 -0.2290 -0.2026
 5007TIP3    H115027   4.958   3.597   0.092 -0.6470  0.6588  1.9532
 5007TIP3    H215028   4.971   3.740   0.044 -0.3185  0.8757  2.6708
 5008TIP3   OH215029   5.893   3.048   4.563 -0.0514  0.1307 -0.4633
 5008TIP3    H115030   5.975   3.005   4.587 -0.0386 -0.1668 -1.0477
 5008TIP3    H215031   5.919   3.120   4.507 -0.1992 -0.0284 -0.7368
 5009TIP3   OH215032   3.410   0.182   2.974  0.1641 -0.1223 -0.1366
 5009TIP3    H115033   3.370   0.140   3.050 -0.4841  0.5288 -0.0978
 5009TIP3    H215034   3.482   0.234   3.011 -0.3700  0.4744  0.0950
 5010TIP3   OH215035   5.832   4.796   2.017 -0.4522  0.0896 -0.3456
 5010TIP3    H115036   5.875   4.716   2.047  0.4228  0.8431  0.4985
 5010TIP3    H215037   5.905   4.856   1.997 -1.0320  0.1471 -2.5773
 5011TIP3   OH215038   2.221   4.883   1.269 -0.4382 -0.6513 -0.0108
 5011TIP3    H115039   2.279   4.944   1.315 -0.2726 -1.2603  0.6033
 5011TIP3    H215040   2.252   4.796   1.295 -1.6360 -0.9908  0.3587
 5012TIP3   OH215041   5.336   1.674   0.865 -0.0582 -0.0364 -0.3304
 5012TIP3    H115042   5.315   1.622   0.788 -1.7880  1.7913 -1.1899
 5012TIP3    H215043   5.347   1.610   0.935 -0.9725 -1.6076 -1.5604
 5013TIP3   OH215044   2.284   2.430   4.465  0.1536 -0.7006 -0.8619
 5013TIP3    H115045   2.215   2.496   4.466 -0.6695 -1.5238 -1.3193
 5013TIP3    H215046   2.359   2.474   4.426  1.2996  1.5026  3.2351
 5014TIP3   OH215047   1.100   4.636   4.143  0.2676 -0.4890 -0.2746
 5014TIP3    H115048   1.073   4.726   4.159  1.4825 -0.1470 -0.1081
 5014TIP3    H215049   1.017   4.588   4.135 -0.3911  0.5211  0.2379
 5015TIP3   OH215050   0.831   3.378   1.185  0.7701  0.1293  0.0975
 5015TIP3    H115051   0.889   3.314   1.144  1.0844  1.3414 -1.4653
 5015TIP3    H215052   0.786   3.420   1.112 -1.0462  0.2111  1.1938
 5016TIP3   OH215053   2.509   1.221   3.410  0.3625  0.2055 -0.3218
 5016TIP3    H115054   2.427   1.231   3.459 -1.1585 -1.8127 -2.2630
 5016TIP3    H215055   2.509   1.294   3.348 -0.2598 -0.0791 -0.6673
 5017TIP3   OH215056   2.794   1.438   4.662 -0.3529 -0.2716 -0.2380
 5017TIP3    H115057   2.804   1.533   4.658  1.0637 -0.3076  1.3003
 5017TIP3    H215058   2.766   1.420   4.752  1.6658 -1.4357  0.2110
 5018TIP3   OH215059   3.420   4.083   1.875 -0.2057  0.0255  0.0916
 5018TIP3    H115060   3.326   4.079   1.888 -0.2084  0.3683  0.1881
 5018TIP3    H215061   3.455   4.108   1.961  0.0711 -1.2511  0.3730
 5019TIP3   OH215062   0.847   1.458   1.194 -0.5724 -0.5252  0.6124
 5019TIP3    H115063   0.865   1.527   1.131  3.4857 -1.3382  0.5783
 5019TIP3    H215064   0.843   1.503   1.279  0.1452 -0.0232  0.3876
 5020TIP3   OH215065   0.459   3.982   3.853 -0.0373 -0.1028  0.1710
 5020TIP3    H115066   0.538   4.029   3.826 -2.2818  4.2000  0.2205
 5020TIP3    H215067   0.448   4.005   3.945 -0.3467 -2.3983  0.7717
 5021TIP3   OH215068   5.286   2.896   2.020 -0.0519 -0.1976 -0.6143
 5021TIP3    H115069   5.365   2.848   2.048 -0.6087 -1.1460 -0.6118
 5021TIP3    H215070   5.282   2.971   2.078 -0.8142 -1.7646  1.4793
 5022TIP3   OH215071   3.770   4.722   1.849  0.1603  0.2064 -0.0980
 5022TIP3    H115072   3.849   4.773   1.830 -0.5841 -0.1843 -6.0144
 5022TIP3    H215073   3.699   4.786   1.842 -0.3807 -0.4662 -0.8543
 5023TIP3   OH215074   5.670   2.351   1.694  0.0908 -0.5872  0.2035
 5023TIP3    H115075   5.598   2.332   1.633 -0.9815  1.1986  0.8158
 5023TIP3    H215076   5.654   2.293   1.768 -1.4116  0.5011  0.7984
 5024TIP3   OH215077   3.835   4.777   3.835  0.0824 -0.1884 -0.2877
 5024TIP3    H115078   3.899   4.843   3.807 -1.5026  1.2435 -0.7317
 5024TIP3    H215079   3.811   4.804   3.923  2.2215 -2.4693  1.1053
 5025TIP3   OH215080   2.619   0.488   4.216 -0.8100 -0.2149  0.3301
 5025TIP3    H115081   2.598   0.567   4.167  1.0300 -1.1331 -2.1412
 5025TIP3    H215082   2.542   0.432   4.204 -1.4165  0.5090  0.6873
 5026TIP3   OH215083   4.880   2.441   0.575  0.4442  0.4306 -0.1025
 5026TIP3    H115084   4.928   2.380   0.519  2.0465  0.1698  1.4648
 5026TIP3    H215085   4.788   2.416   0.564  0.8201 -0.4531 -1.5837
 5027TIP3   OH215086   2.126   3.248   1.558  0.0462  0.1321  0.1518
 5027TIP3    H115087   2.058   3.187   1.528  0.1900 -0.4236  0.9503
 5027TIP3    H215088   2.114   3.325   1.502  0.8926 -1.1943 -1.9884
 5028TIP3   OH215089   0.082   4.454   0.053 -0.2744 -0.0824 -1.1452
 5028TIP3    H115090   0.008   4.481   0.108  1.3213 -0.0307  1.1231
 5028TIP3    H215091   0.152   4.514   0.076  0.5100 -0.1050 -3.2772
 5029TIP3   OH215092   1.079   2.028   0.354 -0.3295 -0.4362 -0.4362
 5029TIP3    H115093   1.063   1.943   0.313  0.0427 -0.9422  0.4521
 5029TIP3    H215094   1.054   2.016   0.445 -0.9391  0.6223 -0.4565
 5030TIP3   OH215095   1.890   3.156   4.741  0.1374  0.6383  0.1458
 5030TIP3    H115096   1.805   3.162   4.698  0.4634  0.7986 -0.4980
 5030TIP3    H215097   1.875   3.187   4.830 -0.7212 -0.4302  0.3982
 5031TIP3   OH215098   2.538   0.389   4.527 -0.0066  0.1646  0.3787
 5031TIP3    H115099   2.601   0.348   4.467  0.2066  1.4519 -0.3004
 5031TIP3    H215100   2.548   0.483   4.513 -0.9220  0.4510  1.4635
 5032TIP3   OH215101   2.775   0.663   4.376 -0.4665  0.0390 -0.7403
 5032TIP3    H115102   2.738   0.593   4.321  1.2340 -0.6153 -1.1131
 5032TIP3    H215103   2.757   0.743   4.327 -3.3284  0.0606  0.1595
 5033TIP3   OH215104   2.431   2.497   3.635  0.0715 -0.0504  0.2292
 5033TIP3    H115105   2.386   2.538   3.560 -1.2868  0.0984  1.0893
 5033TIP3    H215106   2.522   2.491   3.607 -0.6147 -1.3083 -2.0201
 5034TIP3   OH215107   5.361   4.482   4.184  0.0827  0.0091  0.0434
 5034TIP3    H115108   5.417   4.430   4.241 -0.2488  0.5184  0.8382
 5034TIP3    H215109   5.350   4.565   4.229 -1.2513 -0.0526 -0.1269
 5035TIP3   OH215110   3.199   3.939   1.399 -0.0532  0.0840  0.5838
 5035TIP3    H115111   3.184   3.851   1.365  0.0545  0.3234 -0.0834
 5035TIP3    H215112   3.112   3.969   1.426 -0.0045 -0.4567  1.4111
 5036TIP3   OH215113   1.972   5.510   1.175  0.4825  0.2200 -0.1699
 5036TIP3    H115114   1.922   5.527   1.095 -1.7248 -1.8179  0.6185
 5036TIP3    H215115   1.945   5.579   1.235 -0.5068 -0.1644 -0.1506
 5037TIP3   OH215116   2.488   3.277   5.088 -0.4719 -0.3688 -0.2562
 5037TIP3    H115117   2.429   3.207   5.113 -0.6526 -0.8899 -2.0396
 5037TIP3    H215118   2.566   3.232   5.055 -0.2340  0.2806 -0.5923
 5038TIP3   OH215119   0.475   0.394   4.576  0.0363  0.1396 -0.1839
 5038TIP3    H115120   0.453   0.414   4.485  0.6889  0.0809 -0.3592
 5038TIP3    H215121   0.421   0.317   4.597  0.3224 -0.2077 -0.7099
 5039TIP3   OH215122   5.522   2.710   3.695  0.0765 -0.3518  0.9567
 5039TIP3    H115123   5.478   2.629   3.719 -0.9802 -0.0818  0.0308
 5039TIP3    H215124   5.451   2.772   3.677  0.8253  0.2519 -0.0579
 5040TIP3   OH215125   0.534   4.285   4.804  0.2770  0.0951 -0.3694
 5040TIP3    H115126   0.527   4.317   4.714  0.1664  0.6168 -0.1772
 5040TIP3    H215127   0.628   4.285   4.823  0.2735  0.4074 -0.3389
 5041TIP3   OH215128   3.463   0.926   2.494  0.5129  0.1185  0.2551
 5041TIP3    H115129   3.445   0.978   2.415 -1.6186  0.9367  1.1904
 5041TIP3    H215130   3.376   0.902   2.527  1.3882 -3.2057  0.4941
 5042TIP3   OH215131   2.448   3.825   3.440 -0.0247  0.3155  0.1380
 5042TIP3    H115132   2.537   3.802   3.414 -0.3986  0.5487 -1.4373
 5042TIP3    H215133   2.443   3.803   3.533  1.5416 -0.0850  0.1411
 5043TIP3   OH215134   5.085   2.351   5.154  0.7265 -0.1625  0.0521
 5043TIP3    H115135   5.050   2.439   5.138  2.0020  0.2730 -0.4801
 5043TIP3    H215136   5.168   2.366   5.198  1.6856 -1.0356 -1.3853
 5044TIP3   OH215137   0.416   0.361   0.540  0.7634  0.1322 -0.2859
 5044TIP3    H115138   0.452   0.274   0.559  0.3629 -0.2645 -1.3110
 5044TIP3    H215139   0.402   0.362   0.446 -1.0087  0.6388 -0.0436
 5045TIP3   OH215140   4.638   1.192   5.045  0.1373 -0.0636  0.0088
 5045TIP3    H115141   4.649   1.116   5.101  0.5650  0.2347  0.3370
 5045TIP3    H215142   4.694   1.259   5.084 -0.4152  0.4935 -0.1398
 5046TIP3   OH215143   0.188   5.014   3.634 -0.3054  0.0940  0.3319
 5046TIP3    H115144   0.227   5.097   3.605  0.1522  0.6779  2.4521
 5046TIP3    H215145   0.226   4.948   3.576 -0.1357  1.2622 -0.9407
 5047TIP3   OH215146   3.633   1.784   1.856  0.4084 -0.0110 -0.2486
 5047TIP3    H115147   3.657   1.725   1.784 -0.6109 -0.3649 -0.3192
 5047TIP3    H215148   3.619   1.725   1.931  1.3739  0.3473  0.2306
 5048TIP3   OH215149   0.097   0.067   3.538 -0.2845  0.8295 -0.4460
 5048TIP3    H115150   0.138   0.152   3.521 -0.6088  0.4552 -3.6582
 5048TIP3    H215151   0.003   0.084   3.528 -0.4430  0.3497  0.1803
 5049TIP3   OH215152   4.623   5.351   2.990 -0.1473  0.5235 -0.2570
 5049TIP3    H115153   4.575   5.301   3.056 -0.4716 -1.4172 -1.8565
 5049TIP3    H215154   4.576   5.435   2.984  0.1414  0.9056  2.2021
 5050TIP3   OH215155   0.883   0.712   3.049  0.3669 -0.3352 -0.0812
 5050TIP3    H115156   0.934   0.749   3.121 -0.6303  0.7828  0.0966
 5050TIP3    H215157   0.871   0.620   3.073 -0.2043  0.0772  1.3765
 5051TIP3   OH215158   4.097   4.620   1.261 -0.2583 -0.2790  0.1143
 5051TIP3    H115159   4.130   4.690   1.317  0.0530 -1.0621  0.9428
 5051TIP3    H215160   4.158   4.618   1.187 -1.8742  2.1752 -1.4266
 5052TIP3   OH215161   1.678   0.962   4.218  0.5461  0.0283  0.1233
 5052TIP3    H115162   1.614   1.011   4.270 -0.4472  0.1780 -1.1900
 5052TIP3    H215163   1.743   1.027   4.191  0.5544  0.1301  0.3903
 5053TIP3   OH215164   0.969   5.657   5.011  0.2900 -0.0124 -0.2449
 5053TIP3    H115165   0.972   5.692   5.100 -1.4086  3.2554 -1.3052
 5053TIP3    H215166   0.938   5.567   5.021 -0.9674  0.6287  2.3844
 5054TIP3   OH215167   5.552   4.245   3.893 -0.0456 -0.3776  0.0174
 5054TIP3    H115168   5.563   4.221   3.801 -1.2454 -0.0176 -0.2312
 5054TIP3    H215169   5.522   4.336   3.891  0.7905 -0.0654  0.8097
 5055TIP3   OH215170   4.792   5.042   5.023 -0.1081 -0.0807 -0.3937
 5055TIP3    H115171   4.873   5.063   5.068  0.3142  0.8461 -1.5426
 5055TIP3    H215172   4.751   4.975   5.077  2.2983 -1.9477 -0.7100
 5056TIP3   OH215173   2.177   3.186   1.114 -0.0648  0.7307  0.5272
 5056TIP3    H115174   2.152   3.264   1.163  0.0366  1.1510 -0.0798
 5056TIP3    H215175   2.265   3.206   1.080 -0.2019  0.5178  0.0306
 5057TIP3   OH215176   6.202   3.177   0.625 -0.2808 -0.5872 -0.1067
 5057TIP3    H115177   6.178   3.084   0.626  0.3195 -0.7442  0.0395
 5057TIP3    H215178   6.293   3.178   0.593 -1.0155  0.1178 -2.4136
 5058TIP3   OH215179   1.312   3.931   1.579 -0.0304 -0.5032  0.1817
 5058TIP3    H115180   1.353   4.008   1.539 -0.1024 -0.2975  0.4970
 5058TIP3    H215181   1.230   3.964   1.616 -0.0610 -0.7317  0.3199
 5059TIP3   OH215182   2.773   0.979   4.361 -0.5461 -0.3486 -1.0428
 5059TIP3    H115183   2.832   1.017   4.295 -1.7061  0.6285 -1.5465
 5059TIP3    H215184   2.762   1.049   4.425  0.8218 -1.3869  0.4263
 5060TIP3   OH215185   1.552   3.314   0.466  0.2114  0.0853  0.2947
 5060TIP3    H115186   1.492   3.251   0.507  0.8864 -0.6343  0.1951
 5060TIP3    H215187   1.552   3.389   0.526 -1.1782  0.3148  0.0413
 5061TIP3   OH215188   1.398   3.750   2.075  0.4213  0.0731 -0.1218
 5061TIP3    H115189   1.363   3.838   2.061  2.6368  0.8472 -1.0886
 5061TIP3    H215190   1.409   3.714   1.987 -0.5972 -1.2863  0.2633
 5062TIP3   OH215191   5.075   5.362   0.835 -0.3357 -0.2715 -0.4099
 5062TIP3    H115192   5.019   5.373   0.912  0.8588 -0.0918  0.4573
 5062TIP3    H215193   5.160   5.337   0.870 -0.0754 -1.4094 -1.7526
 5063TIP3   OH215194   3.800   0.192   3.028 -0.2817  0.1733  0.4153
 5063TIP3    H115195   3.748   0.201   2.948 -0.4612 -1.0385  0.3678
 5063TIP3    H215196   3.890   0.204   2.998 -0.3807  0.1561  0.0998
 5064TIP3   OH215197   4.557   3.564   2.209  0.1557  0.0774 -0.0420
 5064TIP3    H115198   4.527   3.655   2.203  0.7314  0.1886 -2.3932
 5064TIP3    H215199   4.485   3.517   2.252  0.8509  1.9833  3.5660
 5065TIP3   OH215200   3.005   4.186   4.177  0.3844 -0.8305 -0.1224
 5065TIP3    H115201   2.966   4.198   4.264  1.0702 -0.1240  0.1048
 5065TIP3    H215202   2.976   4.262   4.127  0.8179 -0.7076 -0.1914
 5066TIP3   OH215203   5.598   3.558   4.780  0.6054 -0.4858 -0.1448
 5066TIP3    H115204   5.567   3.639   4.739  1.5809  0.4896  0.9681
 5066TIP3    H215205   5.540   3.545   4.855  2.1994  0.8469  1.4083
 5067TIP3   OH215206   0.329   1.982   3.266  0.4076  0.0831 -0.4642
 5067TIP3    H115207   0.342   2.047   3.196  0.6762 -0.2155 -0.6938
 5067TIP3    H215208   0.250   1.934   3.239 -1.2994  1.9055  0.9364
 5068TIP3   OH215209   4.550   0.962   1.755 -0.3762 -0.5987 -0.3214
 5068TIP3    H115210   4.628   0.970   1.809  0.3156 -0.8534 -1.2472
 5068TIP3    H215211   4.550   1.041   1.700 -0.6821 -0.6723 -0.4337
 5069TIP3   OH215212   0.520   4.382   2.734 -0.0989 -0.3855 -0.1615
 5069TIP3    H115213   0.561   4.389   2.649  1.9131 -2.2107  0.5823
 5069TIP3    H215214   0.587   4.410   2.796 -1.3572  0.4480  0.9039
 5070TIP3   OH215215   5.829   5.208   3.215 -0.4725  0.3286  0.4096
 5070TIP3    H115216   5.871   5.293   3.201 -1.3738  1.0698  1.8559
 5070TIP3    H215217   5.763   5.202   3.146 -1.2483  1.4203  1.0187
 5071TIP3   OH215218   1.942   1.966   1.238  0.2182 -0.0101 -0.3296
 5071TIP3    H115219   1.955   1.908   1.313 -1.7519  2.4225  2.1192
 5071TIP3    H215220   1.860   1.938   1.199  1.9630 -2.2454 -2.7343
 5072TIP3   OH215221   0.983   1.564   4.735  0.1305 -0.1899 -0.0028
 5072TIP3    H115222   0.958   1.560   4.643 -0.0876  2.2267 -0.0959
 5072TIP3    H215223   1.041   1.640   4.741 -0.5454  0.2183  1.9854
 5073TIP3   OH215224   5.802   3.082   1.067 -0.3566  0.4488  0.3225
 5073TIP3    H115225   5.887   3.066   1.027  0.1254  0.6435  1.2622
 5073TIP3    H215226   5.743   3.019   1.024  0.0589  0.9232 -0.9750
 5074TIP3   OH215227   3.236   4.284   2.771 -0.7958  0.0126  0.4428
 5074TIP3    H115228   3.278   4.323   2.847  0.1131 -1.3390  0.6637
 5074TIP3    H215229   3.281   4.323   2.696 -1.3356  0.9422  0.5731
 5075TIP3   OH215230   0.158   1.402   1.731 -0.6425 -0.1997 -0.1598
 5075TIP3    H115231   0.151   1.490   1.695  0.4956  0.9043  2.1131
 5075TIP3    H215232   0.229   1.407   1.795 -0.2989 -2.8738 -0.1952
 5076TIP3   OH215233   1.731   3.445   4.203 -0.4140  0.1098 -0.4001
 5076TIP3    H115234   1.658   3.402   4.158  0.1584 -0.5132 -0.7588
 5076TIP3    H215235   1.718   3.538   4.187 -1.8737  0.1202  0.6783
 5077TIP3   OH215236   6.179   5.574   3.124  0.4788 -0.2579 -0.0525
 5077TIP3    H115237   6.198   5.505   3.061  1.8960  0.9216 -1.0002
 5077TIP3    H215238   6.128   5.638   3.075 -0.9066 -0.6380  0.8401
 5078TIP3   OH215239   1.211   4.755   1.986  0.4842  0.2376  0.2964
 5078TIP3    H115240   1.126   4.766   1.943  0.0795  0.0203  1.0124
 5078TIP3    H215241   1.274   4.791   1.925 -0.2066  1.1109  0.0861
 5079TIP3   OH215242   5.622   2.064   3.673  0.1724 -0.4059 -0.3100
 5079TIP3    H115243   5.605   2.130   3.739  0.3093 -0.7770  0.0981
 5079TIP3    H215244   5.547   2.004   3.679 -0.6190  0.3948 -1.5486
 5080TIP3   OH215245   4.379   1.209   2.421 -0.1524 -0.0746  0.1739
 5080TIP3    H115246   4.337   1.294   2.434  0.1984  0.1036  0.1650
 5080TIP3    H215247   4.439   1.223   2.348  0.2958 -0.1849  0.5183
 5081TIP3   OH215248   3.088   5.978   4.216  0.3495  0.3742 -0.4187
 5081TIP3    H115249   3.110   6.047   4.279  0.5586  1.1380 -1.3125
 5081TIP3    H215250   3.104   5.896   4.264  1.3077  0.9289  0.2507
 5082TIP3   OH215251   0.262   5.274   0.417 -0.0890 -0.1067 -0.4363
 5082TIP3    H115252   0.180   5.321   0.404  0.4157  0.8448 -0.2191
 5082TIP3    H215253   0.289   5.248   0.329  0.1855  0.9805 -0.6887
 5083TIP3   OH215254   3.798   3.186   0.713 -0.4046  0.0847 -0.4763
 5083TIP3    H115255   3.777   3.210   0.623  0.5198  0.0952 -0.6951
 5083TIP3    H215256   3.847   3.104   0.706 -0.7703 -0.1897  0.0548
 5084TIP3   OH215257   2.939   1.612   0.674 -0.3910  0.4983 -0.6224
 5084TIP3    H115258   2.973   1.543   0.731 -2.5928  0.3013  0.5465
 5084TIP3    H215259   2.998   1.611   0.599 -0.0946 -2.4312 -0.4955
 5085TIP3   OH215260   2.319   0.254   4.397  0.0371 -0.3574  0.3540
 5085TIP3    H115261   2.372   0.292   4.467 -0.4906  1.7561 -0.3042
 5085TIP3    H215262   2.229   0.277   4.420 -0.2418 -0.6260 -0.4405
 5086TIP3   OH215263   3.853   5.303   3.151 -0.3235  0.7747  0.3917
 5086TIP3    H115264   3.801   5.308   3.071 -0.8766  0.3454  0.7226
 5086TIP3    H215265   3.822   5.376   3.205 -2.3046 -0.8395  1.5886
 5087TIP3   OH215266   4.379   3.703   3.899  0.3046  0.2699  0.5224
 5087TIP3    H115267   4.431   3.646   3.955 -1.7961  1.6182  4.1923
 5087TIP3    H215268   4.308   3.647   3.867  0.6938 -0.1787  0.4406
 5088TIP3   OH215269   5.158   2.567   3.833 -0.1470  0.1253  0.2647
 5088TIP3    H115270   5.064   2.550   3.821 -0.0156 -0.7531  0.4284
 5088TIP3    H215271   5.166   2.662   3.823 -0.7616  0.0188 -1.6946
 5089TIP3   OH215272   3.241   2.397   4.386 -0.4860 -0.0407  0.3909
 5089TIP3    H115273   3.331   2.365   4.397 -0.5932 -0.7345 -0.5743
 5089TIP3    H215274   3.247   2.491   4.405  0.5578  0.0259 -0.1355
 5090TIP3   OH215275   2.390   2.663   2.899  0.1634 -0.2949  0.1135
 5090TIP3    H115276   2.399   2.627   2.811 -0.0084 -0.3309  0.1094
 5090TIP3    H215277   2.309   2.714   2.896  1.1516  1.3322 -0.2923
 5091TIP3   OH215278   2.651   0.762   4.606  0.0958 -0.5893 -0.1894
 5091TIP3    H115279   2.570   0.742   4.558  0.6965 -0.1649 -1.4273
 5091TIP3    H215280   2.717   0.706   4.566  0.4893 -0.6697  0.5660
 5092TIP3   OH215281   1.509   1.314   3.408 -0.4318 -0.4061 -0.6579
 5092TIP3    H115282   1.490   1.387   3.468  1.1290 -1.3503  1.0844
 5092TIP3    H215283   1.595   1.334   3.371  0.0377 -1.3707 -0.1164
 5093TIP3   OH215284   0.688   2.945   1.109  0.2842 -0.0149  0.1237
 5093TIP3    H115285   0.742   3.001   1.053 -0.4008  0.5927  0.0541
 5093TIP3    H215286   0.651   3.004   1.175  0.5793 -0.6132  0.8418
 5094TIP3   OH215287   0.359   5.464   2.728  0.2549  0.6099 -0.1942
 5094TIP3    H115288   0.381   5.390   2.784 -3.2404 -0.7695 -0.4576
 5094TIP3    H215289   0.311   5.524   2.785  0.3782  1.2308 -0.7295
 5095TIP3   OH215290   4.076   0.220   2.975  0.1281  0.1230  0.2900
 5095TIP3    H115291   4.136   0.206   3.048  1.3808 -0.1193 -0.7372
 5095TIP3    H215292   4.081   0.314   2.958 -0.1020  0.1672  0.4703
 5096TIP3   OH215293   3.319   2.524   0.545  0.2979  0.2113 -0.1482
 5096TIP3    H115294   3.271   2.603   0.517  3.1374  2.2889  0.3690
 5096TIP3    H215295   3.335   2.538   0.638  0.8577 -1.0126 -0.0475
 5097TIP3   OH215296   3.035   5.227   1.612 -0.3245  0.6906 -0.3304
 5097TIP3    H115297   3.010   5.137   1.632 -1.0431  1.4022  2.3498
 5097TIP3    H215298   2.953   5.272   1.594 -0.0669  1.0226 -0.6925
 5098TIP3   OH215299   4.876   1.622   4.573  0.1136 -0.4350 -0.3727
 5098TIP3    H115300   4.816   1.682   4.618 -2.2397 -2.3611 -0.7330
 5098TIP3    H215301   4.885   1.548   4.632  0.1503 -1.2545 -1.3861
 5099TIP3   OH215302   5.029   4.005   2.524  0.2086 -0.2045  0.0090
 5099TIP3    H115303   4.945   4.019   2.568  1.2248 -1.2047  2.4967
 5099TIP3    H215304   5.046   3.911   2.535  1.3906 -0.1169 -0.9469
 5100TIP3   OH215305   0.651   1.227   4.227  0.0932 -0.3137 -0.3856
 5100TIP3    H115306   0.720   1.174   4.189  1.7869  1.3665  0.2254
 5100TIP3    H215307   0.636   1.297   4.164  0.1749  0.2969  0.2622
 5101TIP3   OH215308   3.613   2.083   0.144  0.4128 -0.1596  0.0915
 5101TIP3    H115309   3.557   2.158   0.160  1.0018  0.4497 -0.5868
 5101TIP3    H215310   3.626   2.042   0.229 -0.7582 -0.1017  0.3016
 5102TIP3   OH215311   1.083   1.443   0.627 -0.3174  0.1014  0.4940
 5102TIP3    H115312   1.052   1.387   0.556 -0.8193 -0.2041  0.9461
 5102TIP3    H215313   1.069   1.391   0.706  1.2363  0.0041  0.7340
 5103TIP3   OH215314   4.386   4.194   4.758  0.1650  0.1744  0.1567
 5103TIP3    H115315   4.332   4.143   4.818 -1.1842  1.5806  0.1987
 5103TIP3    H215316   4.336   4.199   4.677  2.3017 -2.3649 -1.5049
 5104TIP3   OH215317   5.100   1.856   3.321 -0.4362 -0.1019  0.4160
 5104TIP3    H115318   5.167   1.829   3.259  0.5428  0.8252  1.0321
 5104TIP3    H215319   5.126   1.945   3.348 -1.3668 -0.1008  1.4055
 5105TIP3   OH215320   5.985   3.689   1.300 -0.2277  0.2602 -0.2122
 5105TIP3    H115321   5.950   3.716   1.385 -0.7049 -0.0411 -0.3114
 5105TIP3    H215322   5.908   3.668   1.248  0.1219 -3.5107  0.5387
 5106TIP3   OH215323   5.055   5.239   1.400 -0.3656 -0.1638  0.4349
 5106TIP3    H115324   5.022   5.314   1.350 -2.5709 -1.3286  0.0294
 5106TIP3    H215325   5.065   5.169   1.336  1.0223 -0.4397  0.9227
 5107TIP3   OH215326   2.365   4.099   4.830  0.1758  0.2852  0.1527
 5107TIP3    H115327   2.374   4.186   4.792  0.7384 -0.7185 -2.1370
 5107TIP3    H215328   2.443   4.089   4.885  1.2239  0.4711 -1.2349
 5108TIP3   OH215329   1.044   1.348   0.891  0.4889  0.0834 -0.0861
 5108TIP3    H115330   1.112   1.329   0.956 -0.6679 -2.3311  0.5482
 5108TIP3    H215331   1.001   1.264   0.877 -1.9685  1.3869 -0.9200
 5109TIP3   OH215332   0.597   4.307   3.998  0.0656 -0.7646  0.5547
 5109TIP3    H115333   0.604   4.233   4.058  0.6105  0.0234  1.5043
 5109TIP3    H215334   0.623   4.273   3.913 -0.9202 -1.9620  0.7053
 5110TIP3   OH215335   0.407   1.690   3.975  0.2111 -0.1934 -0.1187
 5110TIP3    H115336   0.437   1.687   3.884  0.0697 -0.3653 -0.1598
 5110TIP3    H215337   0.382   1.781   3.989 -0.2657 -0.2795 -0.4131
 5111TIP3   OH215338   2.843   3.398   4.950  0.6978 -0.4881 -0.4861
 5111TIP3    H115339   2.816   3.418   4.861 -0.9558 -1.2195 -0.1906
 5111TIP3    H215340   2.792   3.320   4.974  1.6887 -0.7765  0.8266
 5112TIP3   OH215341   2.668   1.893   1.189  0.2491 -0.1801  0.1400
 5112TIP3    H115342   2.750   1.937   1.169  0.5349 -0.0159  1.5729
 5112TIP3    H215343   2.655   1.907   1.282 -2.2920  1.2599 -0.3349
 5113TIP3   OH215344   0.549   4.005   2.685  0.0460  0.2305  0.3542
 5113TIP3    H115345   0.613   4.025   2.618 -2.1479 -0.9823 -2.3076
 5113TIP3    H215346   0.581   3.925   2.727  0.9366  0.4171  0.0310
 5114TIP3   OH215347   5.929   1.356   3.794  0.0616  0.6784  0.1341
 5114TIP3    H115348   5.932   1.411   3.715  2.3774  1.7963  0.9116
 5114TIP3    H215349   5.945   1.268   3.761 -1.9881  0.6437 -0.9407
 5115TIP3   OH215350   0.116   3.731   0.640 -0.2446 -0.1064  0.4206
 5115TIP3    H115351   0.067   3.650   0.647  0.4414 -0.7182 -1.3849
 5115TIP3    H215352   0.207   3.703   0.626  0.0738  0.9706  0.2365
 5116TIP3   OH215353   3.453   4.745   0.574 -0.0068  0.0591 -0.0782
 5116TIP3    H115354   3.414   4.824   0.610  1.1235  1.7348 -2.2630
 5116TIP3    H215355   3.505   4.709   0.646  0.2304  1.8626  0.7115
 5117TIP3   OH215356   2.583   5.786   2.585 -0.4691  0.2620 -1.0300
 5117TIP3    H115357   2.586   5.813   2.676  0.8290 -0.0962 -0.9507
 5117TIP3    H215358   2.499   5.741   2.576  0.0626 -1.1180  0.4119
 5118TIP3   OH215359   0.106   0.010   1.170 -0.5514  0.2920 -0.3525
 5118TIP3    H115360   0.048   0.086   1.167  1.2989  1.7591 -1.2268
 5118TIP3    H215361   0.194   0.048   1.181  0.3768 -1.7697 -0.2452
 5119TIP3   OH215362   2.983   0.760   3.187 -0.2059  0.5998  0.5716
 5119TIP3    H115363   2.988   0.739   3.281  1.1252 -2.0003  0.0272
 5119TIP3    H215364   3.073   0.779   3.162 -0.2974 -0.1761 -0.4210
 5120TIP3   OH215365   4.772   0.351   3.097 -0.0894  0.5042  0.5181
 5120TIP3    H115366   4.811   0.428   3.138  1.3918 -0.7311  1.5744
 5120TIP3    H215367   4.833   0.280   3.118 -1.0178 -0.8238 -1.0364
 5121TIP3   OH215368   1.202   1.624   2.139  0.4580  0.1105 -0.5718
 5121TIP3    H115369   1.154   1.665   2.211 -0.1534 -0.7407 -0.4695
 5121TIP3    H215370   1.177   1.531   2.145  2.2134 -0.3921 -0.4358
 5122TIP3   OH215371   6.176   5.044   4.844 -0.4045  0.5575 -0.0902
 5122TIP3    H115372   6.109   5.045   4.776 -3.1869 -0.0921  2.4273
 5122TIP3    H215373   6.212   5.132   4.844 -0.1922  0.5353 -2.4231
 5123TIP3   OH215374   3.187   2.270   3.664 -0.1605 -0.1971  0.4589
 5123TIP3    H115375   3.237   2.202   3.620  0.1168  0.6889 -0.6502
 5123TIP3    H215376   3.117   2.293   3.603  0.2327  1.0595  0.4393
 5124TIP3   OH215377   3.814   5.005   4.774 -0.3796  0.4881 -0.0975
 5124TIP3    H115378   3.735   5.011   4.720  0.1817 -0.7268 -1.1093
 5124TIP3    H215379   3.798   4.930   4.832  0.6760 -0.9188 -1.5218
 5125TIP3   OH215380   3.083   1.193   1.856 -0.2295 -0.0516  0.0283
 5125TIP3    H115381   3.166   1.148   1.873 -1.5058 -2.4061  0.4476
 5125TIP3    H215382   3.068   1.245   1.935  1.2458  1.1567 -0.4316
 5126TIP3   OH215383   3.068   4.740   0.797  0.1090 -0.0957  0.7144
 5126TIP3    H115384   3.104   4.651   0.798 -1.1041 -0.6184  2.2623
 5126TIP3    H215385   3.109   4.783   0.872 -0.7665  0.0055  1.1476
 5127TIP3   OH215386   6.116   5.561   1.164 -0.2603 -0.8816 -0.3379
 5127TIP3    H115387   6.160   5.494   1.217 -1.8240 -0.7189  1.2575
 5127TIP3    H215388   6.146   5.544   1.075  2.7149 -0.9889  0.5795
 5128TIP3   OH215389   1.072   2.026   1.397 -0.4622 -0.6223  0.0566
 5128TIP3    H115390   1.055   2.111   1.436 -0.4966 -0.5256 -0.1699
 5128TIP3    H215391   1.032   1.963   1.457  0.1747 -0.5261  0.5968
 5129TIP3   OH215392   5.372   5.332   2.896  0.1573 -0.0350  0.8132
 5129TIP3    H115393   5.291   5.315   2.945 -1.1677  0.3835 -1.0729
 5129TIP3    H215394   5.416   5.247   2.892 -0.7918 -0.5490  0.8765
 5130TIP3   OH215395   3.219   0.620   1.967 -0.2878  0.0693  0.5866
 5130TIP3    H115396   3.146   0.671   1.931  0.5430 -0.0336 -1.3416
 5130TIP3    H215397   3.297   0.668   1.940  0.4200 -0.6235  1.3489
 5131TIP3   OH215398   1.927   3.270   4.274 -0.2310 -0.0984 -0.1254
 5131TIP3    H115399   1.851   3.326   4.258 -0.0457  0.6329  1.3863
 5131TIP3    H215400   1.999   3.312   4.226 -0.4976 -0.0972 -0.5270
 5132TIP3   OH215401   4.678   2.240   3.707 -0.2122 -0.3251  0.0842
 5132TIP3    H115402   4.653   2.273   3.621  0.1349 -0.7573 -0.1857
 5132TIP3    H215403   4.616   2.281   3.767 -0.0296  0.5099 -0.2846
 5133TIP3   OH215404   3.605   3.722   0.990 -0.1360 -0.2683 -0.1019
 5133TIP3    H115405   3.632   3.790   0.927  0.6558  0.3401  0.8718
 5133TIP3    H215406   3.528   3.758   1.033 -0.5169 -0.5731 -0.5078
 5134TIP3   OH215407   0.993   5.832   1.850 -0.7343 -0.0955  0.2566
 5134TIP3    H115408   0.906   5.795   1.859 -0.0222 -1.7325  0.8296
 5134TIP3    H215409   0.994   5.871   1.762 -1.3751 -1.9204 -0.5945
 5135TIP3   OH215410   3.298   0.358   2.001  0.4462  0.2502 -0.5108
 5135TIP3    H115411   3.302   0.453   1.998 -0.0029  0.2356 -2.7514
 5135TIP3    H215412   3.209   0.338   2.032  0.8255  0.5080  0.8388
 5136TIP3   OH215413   6.049   3.984   4.620 -0.4831 -0.2841  0.1528
 5136TIP3    H115414   6.084   3.908   4.574  0.3565 -0.6528  1.3511
 5136TIP3    H215415   6.061   3.964   4.713 -2.5165  0.2423  0.5841
 5137TIP3   OH215416   3.927   3.117   1.333 -0.3818  0.1141  0.0797
 5137TIP3    H115417   3.865   3.103   1.261  1.1511  1.6289 -1.6603
 5137TIP3    H215418   3.950   3.029   1.363 -0.9007 -0.5802 -1.4585
 5138TIP3   OH215419   0.356   5.012   0.217 -0.0260  0.5395 -0.5381
 5138TIP3    H115420   0.441   4.973   0.239  0.1808  1.4079  0.2550
 5138TIP3    H215421   0.362   5.030   0.123  1.1025  1.5792 -0.2984
 5139TIP3   OH215422   5.961   2.557   0.644 -0.1291 -1.0644 -0.0978
 5139TIP3    H115423   6.021   2.553   0.569  1.1051 -2.6646  0.9149
 5139TIP3    H215424   6.010   2.518   0.716 -1.1749  0.6568  1.6548
 5140TIP3   OH215425   3.635   4.708   1.288  0.7616  0.5418 -0.3497
 5140TIP3    H115426   3.622   4.683   1.379  1.0174 -0.6956 -0.6363
 5140TIP3    H215427   3.702   4.648   1.255 -0.0323  0.2969 -1.6127
 5141TIP3   OH215428   1.103   5.943   1.600  0.2641  0.1613 -0.2218
 5141TIP3    H115429   1.085   5.852   1.575 -1.9202  0.4824 -0.0633
 5141TIP3    H215430   1.156   5.978   1.529  2.0460 -1.5018  0.2224
 5142TIP3   OH215431   4.644   3.068   0.616 -0.0920  0.2976 -0.4091
 5142TIP3    H115432   4.556   3.064   0.654 -0.2224  1.6247 -0.5207
 5142TIP3    H215433   4.650   2.990   0.561 -1.5696  0.6900 -1.1763
 5143TIP3   OH215434   1.810   5.270   3.003 -0.0531 -0.5477  0.3999
 5143TIP3    H115435   1.734   5.325   3.022  0.0990  0.1756 -0.9725
 5143TIP3    H215436   1.777   5.203   2.943  0.2109 -0.7145  0.4411
 5144TIP3   OH215437   3.621   4.334   3.484 -0.6782  0.4575 -0.2630
 5144TIP3    H115438   3.652   4.397   3.419 -0.2506 -0.3788 -0.8880
 5144TIP3    H215439   3.661   4.363   3.566  0.2350  0.4882 -0.7099
 5145TIP3   OH215440   3.461   2.502   5.040  0.1266 -0.1415 -0.6245
 5145TIP3    H115441   3.376   2.516   4.997 -0.4397 -1.1765  0.1142
 5145TIP3    H215442   3.455   2.414   5.076  0.6191  0.6034  1.4467
 5146TIP3   OH215443   4.106   1.253   0.733  0.0934 -0.6728  0.2394
 5146TIP3    H115444   4.032   1.214   0.687  0.3154 -0.3251 -0.4292
 5146TIP3    H215445   4.182   1.204   0.702  0.2202 -0.5828  0.4067
 5147TIP3   OH215446   3.139   5.851   1.571  0.0337  0.4639 -0.3984
 5147TIP3    H115447   3.218   5.820   1.615  0.1516 -1.0263 -1.5889
 5147TIP3    H215448   3.114   5.930   1.619  0.1778 -1.0074  2.3046
 5148TIP3   OH215449   2.999   4.021   3.052  0.2714 -0.4895 -0.4733
 5148TIP3    H115450   3.023   4.091   3.112  1.2159 -0.1867 -1.1748
 5148TIP3    H215451   3.059   3.950   3.073 -1.5368 -1.6425  1.1349
 5149TIP3   OH215452   5.839   2.553   3.619 -0.3311  0.5185 -0.0044
 5149TIP3    H115453   5.926   2.576   3.587 -0.6601 -0.9713 -2.1314
 5149TIP3    H215454   5.780   2.580   3.549 -1.4161 -0.0832  0.6561
 5150TIP3   OH215455   4.412   3.423   3.980  0.2908  0.3134  0.5331
 5150TIP3    H115456   4.412   3.373   3.899 -0.0238  0.5871  0.3621
 5150TIP3    H215457   4.320   3.424   4.008  0.6749 -1.6322  2.0544
 5151TIP3   OH215458   3.198   3.171   3.698  0.4006  0.3944 -0.5028
 5151TIP3    H115459   3.198   3.081   3.730  0.0646 -0.0897 -1.7923
 5151TIP3    H215460   3.203   3.163   3.603 -3.2386  1.6028 -0.9427
 5152TIP3   OH215461   5.594   0.934   4.964 -0.4179  0.1206 -0.3651
 5152TIP3    H115462   5.679   0.929   5.007  0.1617  0.6116 -1.4273
 5152TIP3    H215463   5.555   0.848   4.979 -0.1096  0.1601  0.8481
 5153TIP3   OH215464   3.497   4.982   0.884 -0.3880  0.0504  0.5838
 5153TIP3    H115465   3.572   4.988   0.825  0.8077  1.1105  2.1330
 5153TIP3    H215466   3.479   4.888   0.891 -0.6190 -0.1003 -1.4799
 5154TIP3   OH215467   3.098   5.856   4.529 -0.5853  0.6769 -0.3377
 5154TIP3    H115468   3.081   5.845   4.623 -1.8761  1.7873 -0.4041
 5154TIP3    H215469   3.160   5.929   4.524  0.7457 -0.4067 -0.3106
 5155TIP3   OH215470   5.528   3.739   0.901  0.3546  0.0213  0.0516
 5155TIP3    H115471   5.437   3.713   0.911 -0.1881  0.5219 -2.6826
 5155TIP3    H215472   5.577   3.657   0.904 -0.3882 -0.4362 -0.1446
 5156TIP3   OH215473   2.867   0.733   1.243 -0.0114  0.5443 -0.1237
 5156TIP3    H115474   2.896   0.677   1.171 -1.8894  0.1385 -0.6060
 5156TIP3    H215475   2.819   0.804   1.201 -1.5403  0.0497  0.7102
 5157TIP3   OH215476   4.863   4.414   3.873 -0.4470  0.0608 -0.0075
 5157TIP3    H115477   4.873   4.444   3.782 -0.6711  0.8204  0.2180
 5157TIP3    H215478   4.928   4.344   3.882  0.7445  1.1018 -0.2623
 5158TIP3   OH215479   3.355   1.239   1.701 -0.2392 -0.2315 -0.2958
 5158TIP3    H115480   3.449   1.225   1.691 -0.2914 -0.7555 -0.0520
 5158TIP3    H215481   3.315   1.186   1.633 -0.3915 -0.5761  0.0585
 5159TIP3   OH215482   6.017   0.269   3.335  0.4290  0.4732 -0.1076
 5159TIP3    H115483   5.974   0.223   3.263 -0.8859  1.2909  0.1256
 5159TIP3    H215484   5.950   0.276   3.403  1.4639  0.2480  0.9824
 5160TIP3   OH215485   5.108   0.786   0.482 -0.0798  0.5307  0.4564
 5160TIP3    H115486   5.179   0.754   0.426 -0.4229  0.3546  0.1212
 5160TIP3    H215487   5.033   0.796   0.423 -0.3625  0.6251  0.8281
 5161TIP3   OH215488   6.129   0.153   4.103  0.4250 -0.3491 -0.5734
 5161TIP3    H115489   6.177   0.225   4.143  0.4056 -1.3533  1.4090
 5161TIP3    H215490   6.076   0.117   4.174 -4.0216  1.1678 -2.7554
 5162TIP3   OH215491   3.337   1.661   2.118 -0.2270  0.6553  0.3789
 5162TIP3    H115492   3.418   1.626   2.157 -0.6357  0.0561  0.7177
 5162TIP3    H215493   3.361   1.680   2.027  0.2608  0.3546  0.4370
 5163TIP3   OH215494   4.441   3.278   3.762 -0.1592  0.4798 -0.2124
 5163TIP3    H115495   4.376   3.266   3.693 -0.5438  0.0398  0.2179
 5163TIP3    H215496   4.493   3.199   3.761  0.3458  0.8149 -0.5277
 5164TIP3   OH215497   5.997   2.072   4.648  0.6056 -0.0160 -0.5802
 5164TIP3    H115498   5.905   2.088   4.670  0.5012  0.6634 -1.4645
 5164TIP3    H215499   6.040   2.155   4.666  0.9831 -0.2284 -0.5080
 5165TIP3   OH215500   0.190   3.128   2.664  0.2808 -0.2757 -0.3890
 5165TIP3    H115501   0.117   3.160   2.717  0.2286 -0.1991 -0.5073
 5165TIP3    H215502   0.203   3.037   2.693 -0.3157 -0.5167 -0.8422
 5166TIP3   OH215503   2.986   0.541   4.145 -0.6910  0.1347 -0.2239
 5166TIP3    H115504   2.918   0.608   4.157 -0.9503 -0.2035  0.2325
 5166TIP3    H215505   3.068   0.588   4.160 -0.8766  0.3191  0.2418
 5167TIP3   OH215506   5.037   5.627   2.501  0.1150  0.4870 -0.3498
 5167TIP3    H115507   4.997   5.597   2.420 -0.3424 -0.5375  0.2252
 5167TIP3    H215508   4.972   5.608   2.568  0.6150  1.0077  0.2964
 5168TIP3   OH215509   3.612   2.447   4.139  0.0364  0.1232 -0.0831
 5168TIP3    H115510   3.617   2.357   4.107  0.6336 -0.2144  0.9042
 5168TIP3    H215511   3.526   2.478   4.112 -0.2837 -0.8343 -0.1862
 5169TIP3   OH215512   2.126   2.644   4.426 -0.1066  0.6336  0.4288
 5169TIP3    H115513   2.166   2.677   4.346 -0.5142  0.0745 -0.0110
 5169TIP3    H215514   2.033   2.666   4.418 -0.3334 -0.3282  0.2615
 5170TIP3   OH215515   1.538   1.363   4.940  0.4830 -0.0446 -0.3345
 5170TIP3    H115516   1.572   1.449   4.965  0.1633 -0.1363  0.4514
 5170TIP3    H215517   1.584   1.342   4.859  0.8366  0.7026 -0.3408
 5171TIP3   OH215518   2.447   3.596   1.323  0.2544 -0.4278  0.2066
 5171TIP3    H115519   2.528   3.592   1.375 -0.1717 -0.2037  0.8936
 5171TIP3    H215520   2.477   3.623   1.236  1.1282 -2.0128 -0.0168
 5172TIP3   OH215521   1.762   2.758   3.847 -0.0539 -0.0719  0.1931
 5172TIP3    H115522   1.844   2.766   3.895  0.3003  0.1730 -0.4397
 5172TIP3    H215523   1.720   2.844   3.858  1.0319  0.7640 -1.7077
 5173TIP3   OH215524   5.172   1.958   4.966  0.4518  0.4756  0.0981
 5173TIP3    H115525   5.267   1.950   4.974  0.4819  1.2583  0.6970
 5173TIP3    H215526   5.159   2.048   4.938 -0.1715  0.8991  1.6360
 5174TIP3   OH215527   6.170   1.120   4.855  0.1351  0.1908  0.1066
 5174TIP3    H115528   6.254   1.146   4.893 -0.0094  0.4503  0.2443
 5174TIP3    H215529   6.174   1.150   4.764 -0.7357  2.2903  0.7148
 5175TIP3   OH215530   6.313   1.398   4.672 -0.0718 -0.4368  0.2839
 5175TIP3    H115531   6.372   1.360   4.737 -1.0153  0.4849  1.7336
 5175TIP3    H215532   6.299   1.488   4.701 -1.6177 -0.4162 -0.4226
 5176TIP3   OH215533   2.525   4.475   3.226 -0.6214 -0.5243  0.4274
 5176TIP3    H115534   2.619   4.483   3.212 -0.4660  0.4420  1.7823
 5176TIP3    H215535   2.486   4.527   3.155 -0.1600 -1.1835 -0.3212
 5177TIP3   OH215536   2.345   0.506   5.014 -0.2532  0.1017 -0.2008
 5177TIP3    H115537   2.320   0.599   5.016 -0.7328 -0.0267  0.6002
 5177TIP3    H215538   2.334   0.480   4.923 -1.8602  0.3993 -0.1347
 5178TIP3   OH215539   1.473   1.496   2.195 -0.1474  0.3253  0.2978
 5178TIP3    H115540   1.380   1.515   2.205 -0.1488 -0.0027  0.9586
 5178TIP3    H215541   1.502   1.469   2.283  0.3602 -0.4801 -0.1012
 5179TIP3   OH215542   2.871   1.038   0.866 -0.0365 -0.3132  0.1121
 5179TIP3    H115543   2.780   1.047   0.838 -0.1233 -0.3723  0.3709
 5179TIP3    H215544   2.922   1.083   0.798 -0.2044 -0.8774 -0.3876
 5180TIP3   OH215545   0.283   1.867   0.923  0.3877  0.0870 -0.3195
 5180TIP3    H115546   0.371   1.836   0.906  0.8604  0.5428  1.1311
 5180TIP3    H215547   0.283   1.890   1.016 -2.0198 -2.4141  0.4346
 5181TIP3   OH215548   3.626   1.271   0.802 -0.5786 -0.5793 -0.0137
 5181TIP3    H115549   3.654   1.350   0.757 -1.7445 -0.0887  0.0939
 5181TIP3    H215550   3.576   1.302   0.877  0.5586 -1.3998  1.1268
 5182TIP3   OH215551   2.364   3.263   0.050  0.3033 -0.3235 -0.5444
 5182TIP3    H115552   2.452   3.293   0.028  0.2245  0.1563 -0.2384
 5182TIP3    H215553   2.308   3.338   0.031  0.3674  0.6025  2.3434
 5183TIP3   OH215554   5.982   1.167   2.549  0.3731 -0.5329  0.3354
 5183TIP3    H115555   6.037   1.239   2.516 -1.1127  0.9669  0.9723
 5183TIP3    H215556   6.010   1.156   2.640 -1.6152  1.6734  1.3474
 5184TIP3   OH215557   1.944   3.481   1.009 -0.6344  0.2338  0.1034
 5184TIP3    H115558   1.907   3.397   1.038  1.4257 -0.2771  1.4233
 5184TIP3    H215559   2.022   3.457   0.959 -1.3024  1.3284 -1.5653
 5185TIP3   OH215560   4.109   4.595   4.741  0.1144  0.3514 -0.3959
 5185TIP3    H115561   4.182   4.646   4.706  0.2792 -0.5812 -1.4486
 5185TIP3    H215562   4.099   4.626   4.831  0.4820  1.9344 -0.8668
 5186TIP3   OH215563   4.195   0.975   5.054 -0.9316 -0.0287  0.3369
 5186TIP3    H115564   4.244   0.893   5.059 -1.4345 -0.3775 -0.2538
 5186TIP3    H215565   4.229   1.019   4.976 -0.4612  0.4657  0.8146
 5187TIP3   OH215566   3.034   3.004   1.268  0.0541 -0.0311 -0.0050
 5187TIP3    H115567   3.110   3.058   1.248  0.5734 -0.9967 -0.7020
 5187TIP3    H215568   2.963   3.067   1.283  0.1867  0.8163 -2.5628
 5188TIP3   OH215569   4.579   4.916   4.740  0.0565 -0.5600 -0.6013
 5188TIP3    H115570   4.618   4.880   4.820  1.7451 -1.9384 -1.9598
 5188TIP3    H215571   4.488   4.886   4.742  0.1695 -0.8661  0.6345
 5189TIP3   OH215572   5.611   1.156   4.104  0.5100  0.2930  0.0738
 5189TIP3    H115573   5.607   1.081   4.045  1.6072  1.2741 -1.3207
 5189TIP3    H215574   5.698   1.193   4.091  0.1223  1.6279  0.9523
 5190TIP3   OH215575   0.058   5.763   2.701 -0.0121 -0.4416 -0.0179
 5190TIP3    H115576   0.102   5.760   2.615  0.1084 -1.5801  0.0653
 5190TIP3    H215577  -0.035   5.761   2.680 -0.0233  0.6144 -0.1489
 5191TIP3   OH215578   3.796   5.486   2.400 -0.3825  0.4702  0.4850
 5191TIP3    H115579   3.869   5.425   2.390  0.8141  1.8216  0.5882
 5191TIP3    H215580   3.742   5.448   2.470  0.8232 -0.0107  1.1838
 5192TIP3   OH215581   4.971   5.471   1.251  0.3037  0.8044  0.3210
 5192TIP3    H115582   4.922   5.480   1.169  1.6423 -0.5314 -0.6927
 5192TIP3    H215583   4.960   5.554   1.296  0.6707  2.0965 -1.8662
 5193TIP3   OH215584   4.991   1.327   4.450 -0.2719 -1.0154  0.6968
 5193TIP3    H115585   4.956   1.417   4.448  0.0154 -0.8872  1.2043
 5193TIP3    H215586   5.069   1.334   4.504  1.0356 -1.1344 -1.1040
 5194TIP3   OH215587   0.280   3.307   1.827  0.0859 -0.0781  0.0463
 5194TIP3    H115588   0.256   3.332   1.916  1.7196 -0.2143  0.5610
 5194TIP3    H215589   0.340   3.234   1.838  0.4920  0.0538 -1.1556
 5195TIP3   OH215590   6.001   1.742   3.291  0.3033  0.4221 -0.4148
 5195TIP3    H115591   6.059   1.721   3.218  0.5948 -2.1434  0.4350
 5195TIP3    H215592   6.060   1.770   3.361  0.2314  0.6162 -0.4303
 5196TIP3   OH215593   1.219   0.779   0.445 -0.1871 -0.0576 -0.0881
 5196TIP3    H115594   1.255   0.823   0.521  0.4645 -0.7693  0.0207
 5196TIP3    H215595   1.249   0.831   0.370 -1.1310  0.8515  0.1397
 5197TIP3   OH215596   1.443   1.556   3.545 -0.0942 -0.7899 -0.5219
 5197TIP3    H115597   1.467   1.614   3.473 -0.4418 -0.9018 -0.7290
 5197TIP3    H215598   1.461   1.607   3.624 -0.7646 -0.2486 -0.7102
 5198TIP3   OH215599   5.609   4.147   3.632  0.2787 -0.0193 -0.1322
 5198TIP3    H115600   5.535   4.202   3.605 -0.2323 -0.2514  0.7661
 5198TIP3    H215601   5.660   4.135   3.551  0.0501  1.2202 -0.4923
 5199TIP3   OH215602   0.900   3.013   1.361  0.3925 -0.2650  0.4446
 5199TIP3    H115603   0.974   3.073   1.373  0.0971  0.0604  0.6768
 5199TIP3    H215604   0.823   3.071   1.354  0.2751 -0.5485 -0.8025
 5200TIP3   OH215605   4.441   3.711   1.367 -0.5848 -0.1375 -0.3719
 5200TIP3    H115606   4.380   3.677   1.301 -1.9043  3.4927 -1.2722
 5200TIP3    H215607   4.386   3.730   1.443  0.5710 -2.2890  1.1041
 5201TIP3   OH215608   4.861   0.507   1.282 -0.0094  0.0115 -0.3425
 5201TIP3    H115609   4.834   0.454   1.357  0.1275 -0.6274 -0.7354
 5201TIP3    H215610   4.807   0.586   1.288  0.0110 -0.0194  0.4326
 5202TIP3   OH215611   1.632   3.325   1.016 -0.4613  0.2969 -0.0641
 5202TIP3    H115612   1.715   3.290   0.985 -1.1155 -0.5750 -0.8925
 5202TIP3    H215613   1.599   3.259   1.078 -0.4803  0.6923  0.3512
 5203TIP3   OH215614   4.987   3.111   3.613  0.3604 -0.5374 -0.1870
 5203TIP3    H115615   5.064   3.093   3.666  0.5939 -1.6432 -0.8650
 5203TIP3    H215616   5.003   3.065   3.531 -0.5157  0.1665 -0.7780
 5204TIP3   OH215617   1.123   0.384   2.322 -0.3973  0.0547 -0.6779
 5204TIP3    H115618   1.064   0.422   2.387  1.3013  0.9566  0.3936
 5204TIP3    H215619   1.109   0.289   2.331  0.5467  0.0673  1.8387
 5205TIP3   OH215620   4.802   3.715   2.522  0.0623 -0.4092 -0.3678
 5205TIP3    H115621   4.775   3.772   2.450  0.1776 -0.9753 -0.8718
 5205TIP3    H215622   4.730   3.653   2.531 -0.2767  0.0891  0.4922
 5206TIP3   OH215623   2.399   2.687   3.998  0.3958 -0.1026  0.1224
 5206TIP3    H115624   2.340   2.677   3.924  0.3178  1.5959 -0.0698
 5206TIP3    H215625   2.485   2.701   3.959  0.1920  1.8599  0.2763
 5207TIP3   OH215626   5.344   2.148   3.919  0.8002  0.6018 -0.3366
 5207TIP3    H115627   5.258   2.150   3.960  0.0944 -1.1119 -1.5612
 5207TIP3    H215628   5.332   2.193   3.835  0.8364 -0.3497 -0.8741
 5208TIP3   OH215629   5.126   5.087   0.458  0.0420 -0.1968 -0.3070
 5208TIP3    H115630   5.052   5.038   0.493  0.1874 -0.5102 -0.4281
 5208TIP3    H215631   5.087   5.156   0.405 -0.1707  0.0255  0.1365
 5209TIP3   OH215632   3.543   0.497   1.162  0.3878 -0.1928  0.2760
 5209TIP3    H115633   3.615   0.434   1.166  0.8396  0.2276 -0.8123
 5209TIP3    H215634   3.577   0.574   1.207  0.5223 -0.0783 -0.0242
 5210TIP3   OH215635   3.114   5.408   2.921 -0.3635  0.3098  0.3295
 5210TIP3    H115636   3.140   5.335   2.864  0.1042  0.4923  0.2989
 5210TIP3    H215637   3.021   5.393   2.939 -0.7592  0.7095 -1.1902
 5211TIP3   OH215638   3.242   1.733   2.382  0.2506  0.2403 -0.3593
 5211TIP3    H115639   3.146   1.734   2.379  0.2303 -0.3464 -0.0959
 5211TIP3    H215640   3.269   1.736   2.291 -0.0273 -0.0452 -0.4526
 5212TIP3   OH215641   1.583   1.057   1.197  0.5363  0.4193 -0.1291
 5212TIP3    H115642   1.608   1.147   1.218  1.0103 -0.2235  2.4330
 5212TIP3    H215643   1.593   1.010   1.279  0.3238 -2.0112 -1.4086
 5213TIP3   OH215644   5.520   1.470   1.234 -0.4529 -0.0258 -0.7911
 5213TIP3    H115645   5.487   1.527   1.303  1.0210  0.8410 -0.7496
 5213TIP3    H215646   5.489   1.509   1.153  0.1294  0.5760 -0.7368
 5214TIP3   OH215647   3.958   0.265   2.389  0.3459 -0.0581 -0.0226
 5214TIP3    H115648   3.873   0.261   2.433  0.9973  0.7369  1.3903
 5214TIP3    H215649   3.985   0.357   2.397  1.6817 -0.4452  0.2607
 5215TIP3   OH215650   1.433   1.257   3.877 -0.0526  0.0600  0.1379
 5215TIP3    H115651   1.518   1.298   3.860  0.1860 -0.9288 -1.2478
 5215TIP3    H215652   1.425   1.256   3.972  1.0857  0.9703  0.2577
 5216TIP3   OH215653   2.574   2.996   2.213 -0.4363 -0.5073 -0.0615
 5216TIP3    H115654   2.537   2.966   2.296 -1.5132  0.8872  0.0201
 5216TIP3    H215655   2.498   3.016   2.159  0.1522  1.9262 -0.1073
 5217TIP3   OH215656   1.604   3.487   3.066 -0.3011  0.3076 -0.6758
 5217TIP3    H115657   1.630   3.557   3.005 -0.0024  2.4428  1.7244
 5217TIP3    H215658   1.684   3.467   3.115 -0.4992 -1.4657 -0.9954
 5218TIP3   OH215659   2.777   1.303   3.366 -0.0456 -0.2357  0.1747
 5218TIP3    H115660   2.787   1.354   3.447 -0.6324  0.6866 -0.3162
 5218TIP3    H215661   2.744   1.218   3.395 -1.9985  0.6780  0.7816
 5219TIP3   OH215662   0.318   2.977   5.042 -0.5208 -0.3017  0.2544
 5219TIP3    H115663   0.392   2.959   4.983  0.3559  1.5076  0.7246
 5219TIP3    H215664   0.264   3.039   4.993 -1.2736 -0.9359  0.2700
 5220TIP3   OH215665   2.911   5.670   1.919 -0.7822 -0.2351  0.2453
 5220TIP3    H115666   2.924   5.585   1.961 -0.2389 -0.4794 -0.4022
 5220TIP3    H215667   2.907   5.650   1.826  1.7735  0.6899 -0.1398
 5221TIP3   OH215668   4.081   4.988   5.061  0.1175  0.3724 -0.1154
 5221TIP3    H115669   4.044   4.921   5.003  2.0188 -0.4565 -0.4444
 5221TIP3    H215670   4.106   4.940   5.140 -1.4373  1.3056  0.9980
 5222TIP3   OH215671   4.131   0.720   1.026  0.1177  0.3157 -0.7538
 5222TIP3    H115672   4.078   0.798   1.012  0.1843  0.3552 -0.7823
 5222TIP3    H215673   4.106   0.660   0.956 -0.9978 -0.2563  0.0928
 5223TIP3   OH215674   5.781   3.744   4.432 -0.4885  0.3028  0.8761
 5223TIP3    H115675   5.783   3.655   4.396  0.7031  0.5111  0.3843
 5223TIP3    H215676   5.707   3.743   4.492 -0.9224 -0.8209  0.3620
 5224TIP3   OH215677   2.471   5.887   4.646  0.1985  0.6534 -0.0950
 5224TIP3    H115678   2.440   5.798   4.632  0.5287  0.0279  2.5295
 5224TIP3    H215679   2.567   5.879   4.649  0.1927  0.7790  1.5547
 5225TIP3   OH215680   4.951   5.028   4.721  0.2795 -0.1228  0.1237
 5225TIP3    H115681   4.882   4.991   4.776  0.0356  0.0578 -0.0595
 5225TIP3    H215682   4.977   5.109   4.765 -0.0141  0.0932 -0.1041
 5226TIP3   OH215683   2.474   2.470   0.348 -0.9151 -0.7068  0.9326
 5226TIP3    H115684   2.547   2.431   0.396 -0.2841 -0.4873  0.1790
 5226TIP3    H215685   2.490   2.446   0.256 -0.4312  1.3533  0.4165
 5227TIP3   OH215686   3.410   1.669   0.293 -0.1412 -0.1381  0.6281
 5227TIP3    H115687   3.385   1.732   0.360 -0.3134  2.1544 -1.4610
 5227TIP3    H215688   3.506   1.670   0.293 -0.0320 -2.2184  2.5798
 5228TIP3   OH215689   1.378   5.078   2.077 -0.7196 -0.0226  0.3329
 5228TIP3    H115690   1.431   5.077   2.157  0.5328 -0.8068 -0.4781
 5228TIP3    H215691   1.414   5.008   2.024 -3.1617 -1.1988  0.0910
 5229TIP3   OH215692   1.339   2.030   3.213 -0.6927 -0.0115  0.5206
 5229TIP3    H115693   1.407   2.028   3.145  1.0540 -0.7065  2.1908
 5229TIP3    H215694   1.312   2.121   3.218 -0.5177  0.1323 -0.7591
 5230TIP3   OH215695   3.868   5.713   4.426  0.3192  0.2155  0.3982
 5230TIP3    H115696   3.791   5.677   4.471  0.5043 -0.8904 -0.1399
 5230TIP3    H215697   3.941   5.660   4.456  0.5512 -0.0968 -0.6598
 5231TIP3   OH215698   0.715   1.951   0.491 -0.0967 -0.4192  0.1492
 5231TIP3    H115699   0.733   1.977   0.401 -0.1122  1.9042  0.7598
 5231TIP3    H215700   0.725   1.856   0.491  0.1926 -0.4389 -2.2226
 5232TIP3   OH215701   5.026   2.928   1.664 -0.2249  0.7521  0.0557
 5232TIP3    H115702   5.119   2.948   1.669 -0.6433  2.9430 -0.0028
 5232TIP3    H215703   5.015   2.851   1.719  2.0314 -1.3084 -2.1424
 5233TIP3   OH215704   0.890   4.748   3.944  0.2570 -0.1489  0.6951
 5233TIP3    H115705   0.898   4.843   3.932  0.8620 -0.1472  1.0530
 5233TIP3    H215706   0.847   4.717   3.865  0.5543  0.3603  0.3268
 5234TIP3   OH215707   4.748   1.469   2.496  0.2835  0.2335 -0.1796
 5234TIP3    H115708   4.762   1.563   2.510  1.4874  0.3130 -1.6135
 5234TIP3    H215709   4.739   1.432   2.584  2.7468  1.2780  0.6039
 5235TIP3   OH215710   0.868   4.646   0.517  0.3640  0.3241 -0.6681
 5235TIP3    H115711   0.875   4.578   0.585  0.0862 -0.9490 -1.8777
 5235TIP3    H215712   0.823   4.603   0.445  0.3308  1.7701 -1.5374
 5236TIP3   OH215713   5.597   2.919   1.551  0.0497 -0.1160  0.2442
 5236TIP3    H115714   5.527   2.854   1.548  0.2844 -0.3394 -0.8224
 5236TIP3    H215715   5.672   2.873   1.590  0.0201 -0.2974  0.0880
 5237TIP3   OH215716   0.083   3.772   1.180 -0.2609  0.1368 -0.6042
 5237TIP3    H115717   0.095   3.742   1.090 -1.1787  1.5892 -1.2555
 5237TIP3    H215718   0.021   3.711   1.218  0.4705 -0.7521 -0.8078
 5238TIP3   OH215719   3.226   5.064   0.403  0.2403  0.1986  0.4942
 5238TIP3    H115720   3.256   5.010   0.476 -1.1342 -0.4191  0.6337
 5238TIP3    H215721   3.254   5.016   0.325 -2.3741 -1.6962  0.5767
 5239TIP3   OH215722   5.293   5.823   0.810  0.1593 -0.1193 -0.0015
 5239TIP3    H115723   5.336   5.881   0.872  0.2449 -0.0889 -0.0893
 5239TIP3    H215724   5.295   5.737   0.852 -2.2806  0.3707  1.3212
 5240TIP3   OH215725   2.661   2.281   1.010  0.1228 -0.7133 -0.5792
 5240TIP3    H115726   2.577   2.315   0.979  0.7881  1.3431 -0.2901
 5240TIP3    H215727   2.715   2.275   0.931  0.5053  0.5231 -0.4357
 5241TIP3   OH215728   2.907   2.034   0.710  0.3421 -0.3357  0.1922
 5241TIP3    H115729   2.919   2.128   0.725  1.1690 -0.5716  1.0843
 5241TIP3    H215730   2.914   1.995   0.796  0.4853 -1.2774 -0.2350
 5242TIP3   OH215731   5.848   0.139   1.593 -0.2274  0.5988 -0.1586
 5242TIP3    H115732   5.940   0.149   1.568 -0.3051  0.9241 -0.3252
 5242TIP3    H215733   5.799   0.162   1.514 -0.4479  0.1890 -0.1431
 5243TIP3   OH215734   1.528   4.604   2.698 -0.6837 -0.2089  0.2747
 5243TIP3    H115735   1.495   4.515   2.713 -0.6038 -0.5385 -1.3393
 5243TIP3    H215736   1.619   4.601   2.727 -1.4949  0.2794  3.2708
 5244TIP3   OH215737   3.737   2.864   2.275  0.0796  0.1324  0.0976
 5244TIP3    H115738   3.786   2.790   2.241 -0.9629  0.1580 -1.6171
 5244TIP3    H215739   3.694   2.831   2.354  0.4711 -0.7558 -0.0507
 5245TIP3   OH215740   5.584   3.753   3.577 -0.1011 -0.1049  0.3297
 5245TIP3    H115741   5.652   3.714   3.632 -0.9098 -0.5744  1.0246
 5245TIP3    H215742   5.632   3.809   3.516  0.7444  2.2679  2.9395
 5246TIP3   OH215743   5.343   5.789   3.110  0.0872 -0.2939 -0.2117
 5246TIP3    H115744   5.301   5.819   3.030 -0.9484 -1.2834 -0.0800
 5246TIP3    H215745   5.315   5.697   3.118  0.8478 -0.4524  0.8368
 5247TIP3   OH215746   4.598   5.492   1.043  0.0473  0.0013  0.3029
 5247TIP3    H115747   4.644   5.425   1.094 -0.6247 -1.1279 -0.5111
 5247TIP3    H215748   4.525   5.519   1.099 -0.0464 -0.4209  0.3886
 5248TIP3   OH215749   3.317   3.595   4.788 -0.4508 -0.5470  0.5248
 5248TIP3    H115750   3.337   3.516   4.739 -0.0784 -0.2420  0.1797
 5248TIP3    H215751   3.301   3.662   4.721  0.1846 -0.0951  0.8158
 5249TIP3   OH215752   3.114   1.658   3.545  0.0268  0.0231 -0.3423
 5249TIP3    H115753   3.168   1.583   3.522  1.0580  0.0027  1.8836
 5249TIP3    H215754   3.116   1.661   3.640 -2.2139  1.2977 -0.2659
 5250TIP3   OH215755   1.881   1.495   1.849  0.1975  0.5149  0.3836
 5250TIP3    H115756   1.834   1.578   1.852  1.7635  1.4688 -0.0535
 5250TIP3    H215757   1.821   1.431   1.889 -2.0082  1.3417 -1.3867
 5251TIP3   OH215758   0.360   0.337   3.281 -0.3732  0.0340 -0.4544
 5251TIP3    H115759   0.420   0.405   3.249 -0.0214  0.2479  0.6252
 5251TIP3    H215760   0.417   0.275   3.327 -0.8455 -0.3694 -0.4084
 5252TIP3   OH215761   6.197   3.380   3.838  0.3697 -0.2926 -0.2287
 5252TIP3    H115762   6.262   3.320   3.802  0.6324  1.1311 -2.3471
 5252TIP3    H215763   6.158   3.422   3.761 -1.2547  0.7505  1.0778
 5253TIP3   OH215764   5.019   1.548   2.237  0.1625  0.2284  0.1675
 5253TIP3    H115765   5.049   1.531   2.327  0.5670  1.1819  0.2180
 5253TIP3    H215766   4.943   1.491   2.226  1.0911 -1.1436  0.5455
 5254TIP3   OH215767   3.166   3.828   3.151  0.6717 -0.2027  0.5823
 5254TIP3    H115768   3.213   3.886   3.211  0.6128 -0.0292  0.4592
 5254TIP3    H215769   3.141   3.753   3.206  2.5994 -1.1374  0.2575
 5255TIP3   OH215770   3.901   3.801   0.290 -0.1328 -0.3317 -0.1402
 5255TIP3    H115771   3.967   3.851   0.242  0.0997  1.7060  2.1011
 5255TIP3    H215772   3.817   3.833   0.255  0.0312  1.0194  0.6337
 5256TIP3   OH215773   0.463   4.597   1.849 -0.0147 -0.5903 -0.0358
 5256TIP3    H115774   0.460   4.501   1.846  0.6432 -0.6964  1.7873
 5256TIP3    H215775   0.405   4.624   1.778 -0.8265 -2.3441 -0.1009
 5257TIP3   OH215776   1.236   2.281   2.279  0.4588  0.1860  0.8130
 5257TIP3    H115777   1.205   2.205   2.329  1.5190 -0.7829  0.0776
 5257TIP3    H215778   1.318   2.305   2.321  0.3204  0.6816  0.7999
 5258TIP3   OH215779   5.850   3.136   3.170 -0.0102 -0.0017 -0.4962
 5258TIP3    H115780   5.832   3.072   3.239 -0.3427  0.3172 -0.2845
 5258TIP3    H215781   5.831   3.088   3.088  0.9884 -0.5764 -0.4096
 5259TIP3   OH215782   5.456   3.602   2.262 -0.3367 -0.2624  0.0938
 5259TIP3    H115783   5.493   3.689   2.276 -0.6749 -0.1532  0.3224
 5259TIP3    H215784   5.458   3.590   2.167 -2.0877  0.8013 -0.1216
 5260TIP3   OH215785   3.159   3.300   1.026  0.2392 -0.8390 -0.2108
 5260TIP3    H115786   3.192   3.244   1.096 -1.3737  0.1855  1.4423
 5260TIP3    H215787   3.188   3.388   1.050 -1.1013 -0.3452 -0.3029
 5261TIP3   OH215788   1.151   0.216   0.649 -0.0582  0.8816 -0.2248
 5261TIP3    H115789   1.223   0.192   0.708 -1.6947 -1.4654  0.9989
 5261TIP3    H215790   1.093   0.269   0.703 -0.4392  0.6705 -0.4260
 5262TIP3   OH215791   4.929   2.795   3.163  0.2106 -0.5238  0.1996
 5262TIP3    H115792   5.003   2.854   3.143 -0.6654  0.4058 -0.4113
 5262TIP3    H215793   4.877   2.794   3.083 -0.1795 -1.5751  0.4513
 5263TIP3   OH215794   5.169   3.844   2.170  0.0869 -0.5951 -0.5916
 5263TIP3    H115795   5.159   3.749   2.172 -0.0865 -0.5722 -0.1891
 5263TIP3    H215796   5.260   3.858   2.146  0.2277 -0.8734 -0.2373
 5264TIP3   OH215797   4.239   4.264   3.807  0.3112 -0.3134  0.3693
 5264TIP3    H115798   4.325   4.239   3.773  1.1371  2.1993  0.4295
 5264TIP3    H215799   4.259   4.321   3.882 -1.4085  0.1426  0.5142
 5265TIP3   OH215800   3.428   4.072   1.616 -0.2449  0.7474  0.2874
 5265TIP3    H115801   3.340   4.099   1.589 -0.1680  0.2098 -0.5347
 5265TIP3    H215802   3.420   4.058   1.711 -1.3608 -0.4055  0.0520
 5266TIP3   OH215803   5.713   4.530   4.775 -0.0390  0.5299 -0.7192
 5266TIP3    H115804   5.700   4.624   4.766 -1.1758  0.3004 -1.6899
 5266TIP3    H215805   5.789   4.522   4.832 -0.1068  2.0296 -0.3719
 5267TIP3   OH215806   5.115   1.752   4.468  0.2716  0.0657 -0.9082
 5267TIP3    H115807   5.028   1.729   4.501 -0.5186  3.7633  0.0356
 5267TIP3    H215808   5.104   1.760   4.374 -1.1949  2.7960 -0.6159
 5268TIP3   OH215809   0.371   3.628   0.641  0.3525  0.7963  0.1931
 5268TIP3    H115810   0.432   3.674   0.699  0.6517  0.2782  0.2943
 5268TIP3    H215811   0.426   3.588   0.574  0.1323  0.2691  0.3235
 5269TIP3   OH215812   1.388   0.417   3.381  0.0017 -0.0674  0.1004
 5269TIP3    H115813   1.293   0.417   3.373  0.0441  0.0550 -0.4354
 5269TIP3    H215814   1.419   0.383   3.297  0.4636  1.1348 -0.2371
 5270TIP3   OH215815   1.181   3.845   0.638  0.1959 -0.1815 -0.0620
 5270TIP3    H115816   1.225   3.813   0.560 -0.8759  0.1671 -0.8309
 5270TIP3    H215817   1.196   3.777   0.704  0.2338 -0.9777 -0.8822
 5271TIP3   OH215818   0.572   1.498   3.341 -0.4602  0.3494  0.3324
 5271TIP3    H115819   0.592   1.442   3.265 -1.2465 -0.3432  0.6160
 5271TIP3    H215820   0.517   1.568   3.306 -0.2754  0.4025  0.1473
 5272TIP3   OH215821   0.713   5.329   2.951  0.2330  0.2920  0.0135
 5272TIP3    H115822   0.804   5.336   2.922  0.3238  0.3476  0.3042
 5272TIP3    H215823   0.665   5.391   2.895  0.2055 -0.4442 -0.8014
 5273TIP3   OH215824   0.198   1.535   3.500  0.2278 -0.2039 -0.0441
 5273TIP3    H115825   0.282   1.492   3.487  2.7657  2.4949  4.6744
 5273TIP3    H215826   0.161   1.492   3.577 -1.1971  0.6956 -0.1797
 5274TIP3   OH215827   6.333   5.751   4.750  0.3665  0.5822  0.0870
 5274TIP3    H115828   6.384   5.766   4.670  1.4576 -0.9195  0.4594
 5274TIP3    H215829   6.268   5.685   4.725  0.2460  0.6410  0.2481
 5275TIP3   OH215830   4.879   0.445   0.591  0.1303 -0.2935 -0.1261
 5275TIP3    H115831   4.932   0.381   0.637  0.6915 -0.2461 -0.6870
 5275TIP3    H215832   4.804   0.460   0.648  1.4789  0.8298  1.4592
 5276TIP3   OH215833   5.034   2.217   4.930  0.3783  0.7618  0.0706
 5276TIP3    H115834   5.027   2.258   5.016  0.0270 -0.8759  0.8443
 5276TIP3    H215835   4.944   2.201   4.903  0.5214  0.2472 -0.1118
 5277TIP3   OH215836   4.248   4.903   0.340  0.2699 -0.1611  0.2399
 5277TIP3    H115837   4.327   4.874   0.386 -0.3683 -0.8144  0.9617
 5277TIP3    H215838   4.176   4.877   0.398 -0.5250 -0.4094 -0.8236
 5278TIP3   OH215839   5.204   5.589   0.088 -0.0717 -0.2287 -0.0137
 5278TIP3    H115840   5.118   5.619   0.115  1.1527  1.1952  2.5910
 5278TIP3    H215841   5.210   5.615  -0.004 -1.5953  1.5665  0.3367
 5279TIP3   OH215842   5.535   0.963   2.169 -0.2382  0.0156 -0.0091
 5279TIP3    H115843   5.544   0.872   2.198 -0.3641 -0.0523 -0.1753
 5279TIP3    H215844   5.456   0.962   2.114 -1.6868  0.7113  1.9433
 5280TIP3   OH215845   1.956   4.901   4.603 -0.2254  0.1706 -0.0320
 5280TIP3    H115846   1.949   4.845   4.526 -1.2662 -0.4168  0.4579
 5280TIP3    H215847   1.929   4.987   4.572 -4.1828 -0.7517  0.3541
 5281TIP3   OH215848   1.270   3.487   1.765  0.3380 -0.4519  0.5340
 5281TIP3    H115849   1.191   3.528   1.798 -0.2682 -0.7824 -0.4602
 5281TIP3    H215850   1.254   3.393   1.774  1.1103 -0.5181  1.4177
 5282TIP3   OH215851   2.617   1.864   3.500  0.1994 -0.4969  0.5976
 5282TIP3    H115852   2.642   1.876   3.591  1.5986 -0.2959  0.2116
 5282TIP3    H215853   2.600   1.770   3.492  0.3336 -0.5565  0.9923
 5283TIP3   OH215854   2.715   0.841   1.921  0.4064  0.9425 -0.4707
 5283TIP3    H115855   2.774   0.895   1.868  1.2650 -0.9974 -1.6003
 5283TIP3    H215856   2.746   0.752   1.907 -0.4851  0.1834  1.9240
 5284TIP3   OH215857   2.303   0.973   2.581  0.2261  0.0558 -1.0718
 5284TIP3    H115858   2.231   0.956   2.642  0.4213  0.0059 -0.8550
 5284TIP3    H215859   2.349   0.890   2.575  1.2016  0.4904  0.0205
 5285TIP3   OH215860   2.241   3.481   5.127 -0.1331 -0.2467  0.1094
 5285TIP3    H115861   2.308   3.529   5.175  2.1534 -0.0411 -2.9551
 5285TIP3    H215862   2.287   3.405   5.091 -1.1518  0.4074 -2.9119
 5286TIP3   OH215863   0.273   5.471   2.275  0.7167  0.5182 -0.1461
 5286TIP3    H115864   0.259   5.432   2.189 -0.9809 -1.9021  1.1119
 5286TIP3    H215865   0.207   5.431   2.331  3.3180  0.0050  2.8902
 5287TIP3   OH215866   2.709   4.908   4.387  0.0111 -0.4119 -0.2757
 5287TIP3    H115867   2.636   4.899   4.448  0.9485 -0.4965  0.8654
 5287TIP3    H215868   2.746   4.820   4.379 -1.1246 -0.7830 -2.3542
 5288TIP3   OH215869   6.203   0.293   4.600  0.1964 -0.2534 -0.3713
 5288TIP3    H115870   6.221   0.349   4.675 -0.7800 -0.9016  0.3694
 5288TIP3    H215871   6.179   0.353   4.530 -0.4193  0.2840  0.2876
 5289TIP3   OH215872   1.554   2.838   3.264  0.6249  0.4620 -0.5357
 5289TIP3    H115873   1.556   2.792   3.348 -0.5339  1.7778  0.2584
 5289TIP3    H215874   1.467   2.878   3.260  0.0735 -0.7863 -3.0662
 5290TIP3   OH215875   2.345   1.877   3.708  0.1150  0.3865 -0.0794
 5290TIP3    H115876   2.421   1.935   3.720  0.2786  0.6633 -2.0615
 5290TIP3    H215877   2.281   1.932   3.663 -1.6657  0.4125  2.2953
 5291TIP3   OH215878   0.848   0.803   3.706  0.4989  0.1284 -0.0019
 5291TIP3    H115879   0.893   0.745   3.644  1.3429  0.8529 -0.0962
 5291TIP3    H215880   0.777   0.842   3.656 -1.8576 -2.7917  0.7479
 5292TIP3   OH215881   2.358   2.042   5.008  0.5261  0.1582  0.1946
 5292TIP3    H115882   2.387   2.027   5.098  1.2337  0.2185 -0.0170
 5292TIP3    H215883   2.407   2.120   4.981 -0.0692  0.4403 -0.0685
 5293TIP3   OH215884   5.451   0.536   2.716  0.7598 -0.1822  0.0755
 5293TIP3    H115885   5.506   0.459   2.732 -0.1897 -0.9170 -0.0280
 5293TIP3    H215886   5.479   0.600   2.781  0.8111 -1.0371  0.9192
 5294TIP3   OH215887   5.089   3.666   3.135 -0.4764  0.0243  0.2052
 5294TIP3    H115888   5.059   3.576   3.146 -2.0209  0.2580 -1.5955
 5294TIP3    H215889   5.131   3.668   3.050 -1.1890  1.1646 -0.1501
 5295TIP3   OH215890   2.829   2.576   2.627 -0.6621  0.1639 -0.2571
 5295TIP3    H115891   2.914   2.604   2.661 -0.8305  0.4041 -0.0342
 5295TIP3    H215892   2.804   2.643   2.564 -0.4140 -0.2116 -0.7625
 5296TIP3   OH215893   3.445   2.675   2.351  0.5215  0.0923 -0.0986
 5296TIP3    H115894   3.514   2.610   2.337  1.3023  0.4105  2.0059
 5296TIP3    H215895   3.365   2.623   2.363  0.8273 -0.3899 -0.1281
 5297TIP3   OH215896   4.225   2.777   0.755 -0.1202 -0.0393 -0.4075
 5297TIP3    H115897   4.255   2.693   0.792 -0.6159 -0.2699 -0.5203
 5297TIP3    H215898   4.252   2.774   0.663 -0.0135 -0.0173 -0.3764
 5298TIP3   OH215899   5.484   5.526   2.749  0.2078  0.5759  0.2263
 5298TIP3    H115900   5.456   5.451   2.802  1.5940 -0.7091 -0.7795
 5298TIP3    H215901   5.450   5.508   2.662  1.3316  0.6306 -0.2426
 5299TIP3   OH215902   4.336   2.904   2.281 -0.1220 -0.6044 -0.3285
 5299TIP3    H115903   4.290   2.925   2.363  0.0154 -2.4937  0.2725
 5299TIP3    H215904   4.428   2.906   2.305  0.2030  2.5261 -1.3779
 5300TIP3   OH215905   2.238   0.198   3.924 -0.2234  0.0599  0.2765
 5300TIP3    H115906   2.281   0.136   3.982  0.3388 -2.2141 -2.3092
 5300TIP3    H215907   2.305   0.223   3.860 -1.5595 -0.1886 -1.3195
 5301TIP3   OH215908   1.119   1.574   3.793 -0.3299 -0.5267 -0.5516
 5301TIP3    H115909   1.208   1.578   3.828 -0.1174 -0.8066 -1.0482
 5301TIP3    H215910   1.101   1.480   3.785 -0.7214 -0.4714 -0.3233
 5302TIP3   OH215911   5.859   2.792   5.051 -0.3492  0.1251  0.2625
 5302TIP3    H115912   5.914   2.826   5.122 -1.7226 -1.7118  2.3315
 5302TIP3    H215913   5.847   2.867   4.993 -0.0848  2.0738  2.5540
 5303TIP3   OH215914   0.836   1.804   4.882  0.0903  0.4271 -0.4250
 5303TIP3    H115915   0.741   1.799   4.874  0.2348  0.7291 -3.3286
 5303TIP3    H215916   0.868   1.721   4.847  0.9338 -0.1349  1.5085
 5304TIP3   OH215917   3.773   5.063   3.235 -0.0695 -0.1158  0.0354
 5304TIP3    H115918   3.802   5.019   3.155  1.2692  0.3018  0.2607
 5304TIP3    H215919   3.791   5.155   3.220 -0.1784  0.0166  0.6636
 5305TIP3   OH215920   0.711   1.125   4.494 -0.1496  0.4332 -0.0806
 5305TIP3    H115921   0.629   1.086   4.523 -0.0204  0.0188 -0.2758
 5305TIP3    H215922   0.686   1.181   4.420 -0.4243  1.2060  0.5729
 5306TIP3   OH215923   0.825   1.839   2.696 -0.6585 -0.3456  0.0937
 5306TIP3    H115924   0.736   1.802   2.705 -0.0599 -1.9011 -0.0116
 5306TIP3    H215925   0.869   1.780   2.635  0.7206 -0.1005  0.8105
 5307TIP3   OH215926   2.127   0.943   1.424 -0.5460  0.1264  0.2402
 5307TIP3    H115927   2.096   0.856   1.451  1.3566 -0.3106  1.2673
 5307TIP3    H215928   2.176   0.974   1.500 -0.5510  1.7789 -0.4066
 5308TIP3   OH215929   2.502   0.345   0.633  0.1727  0.1735  0.2539
 5308TIP3    H115930   2.586   0.390   0.637 -0.5874  1.5710  1.8000
 5308TIP3    H215931   2.492   0.303   0.719 -0.4219 -0.5233 -0.1411
 5309TIP3   OH215932   5.179   3.421   2.645  1.0608 -0.2938 -0.0619
 5309TIP3    H115933   5.212   3.460   2.564 -1.0450  1.4337 -0.1846
 5309TIP3    H215934   5.145   3.495   2.695 -2.1230 -1.7943  0.2205
 5310TIP3   OH215935   6.233   4.267   2.055 -0.1429  0.3570 -0.0620
 5310TIP3    H115936   6.144   4.245   2.026 -0.8949  3.1159 -0.1085
 5310TIP3    H215937   6.277   4.182   2.061 -2.1058 -0.9431 -2.1358
 5311TIP3   OH215938   2.214   0.789   3.416 -0.3121  0.4606  0.1569
 5311TIP3    H115939   2.229   0.855   3.350 -0.6965 -0.4723 -0.8947
 5311TIP3    H215940   2.123   0.801   3.443 -0.0571  1.0536  0.7702
 5312TIP3   OH215941   0.376   3.591   1.358 -0.3748  0.8032  0.4068
 5312TIP3    H115942   0.471   3.602   1.356 -0.4417  1.8588  1.6934
 5312TIP3    H215943   0.342   3.677   1.381 -1.5305  0.0674  1.6157
 5313TIP3   OH215944   0.508   3.416   2.051 -0.4000  0.2413  0.3273
 5313TIP3    H115945   0.430   3.468   2.034 -1.8541 -2.1130 -0.7651
 5313TIP3    H215946   0.493   3.375   2.136 -0.7501 -0.8367 -0.2413
 5314TIP3   OH215947   3.457   3.483   0.846 -0.3154  0.0558  0.9399
 5314TIP3    H115948   3.511   3.552   0.883 -0.3850  0.6401 -0.0221
 5314TIP3    H215949   3.497   3.463   0.761 -0.6707 -0.6244  0.9232
 5315TIP3   OH215950   5.941   0.707   4.276  0.2606  0.2472 -0.7523
 5315TIP3    H115951   6.008   0.744   4.334 -2.1817 -0.8690  3.0855
 5315TIP3    H215952   5.901   0.783   4.234  1.6398  1.1541 -0.4877
 5316TIP3   OH215953   4.947   5.726   4.062 -0.1723  0.5525 -0.3778
 5316TIP3    H115954   5.018   5.708   4.124  0.2381  1.8894 -0.4379
 5316TIP3    H215955   4.884   5.779   4.111  0.0076  1.3606 -0.9985
 5317TIP3   OH215956   2.761   2.339   5.106  0.1527  0.0295  0.0707
 5317TIP3    H115957   2.674   2.322   5.070 -0.5096 -0.0235  1.5798
 5317TIP3    H215958   2.765   2.434   5.116  0.5502  0.0919 -0.6246
 5318TIP3   OH215959   5.234   0.696   4.783 -0.0474 -0.0891  0.2533
 5318TIP3    H115960   5.248   0.616   4.832 -1.3638  0.1256  1.0088
 5318TIP3    H215961   5.181   0.669   4.707  1.7090 -0.3642 -0.9423
 5319TIP3   OH215962   0.182   2.743   5.159 -0.2664  0.0238 -0.3110
 5319TIP3    H115963   0.198   2.699   5.075 -0.1871  2.1412 -1.4869
 5319TIP3    H215964   0.185   2.836   5.138  0.0718  0.6418  2.1327
 5320TIP3   OH215965   2.233   4.066   1.432 -0.0460 -0.1439  0.4801
 5320TIP3    H115966   2.243   4.092   1.523  0.8158  0.9401  0.1029
 5320TIP3    H215967   2.179   4.135   1.393 -1.4540 -1.2409  0.4250
 5321TIP3   OH215968   4.467   0.550   2.159  0.2769 -0.0004  0.1358
 5321TIP3    H115969   4.512   0.471   2.131 -1.7359 -1.5294  0.9744
 5321TIP3    H215970   4.408   0.571   2.086 -0.3311 -0.2202  0.5564
 5322TIP3   OH215971   5.323   0.791   2.398 -0.2920  0.5629  0.4092
 5322TIP3    H115972   5.344   0.779   2.305  0.4222  0.0078  0.6339
 5322TIP3    H215973   5.228   0.803   2.399 -0.6092 -1.4416 -0.2275
 5323TIP3   OH215974   4.806   0.104   2.487  0.3323  0.6669 -0.4169
 5323TIP3    H115975   4.863   0.033   2.518 -1.2399 -1.5104 -2.1532
 5323TIP3    H215976   4.732   0.103   2.548  0.1924  0.6376 -0.5868
 5324TIP3   OH215977   2.106   1.340   0.974  0.3838  0.2510  0.3812
 5324TIP3    H115978   2.036   1.295   1.022 -0.5222  0.8298 -0.3501
 5324TIP3    H215979   2.127   1.282   0.902 -0.5370  0.8013 -0.3580
 5325TIP3   OH215980  -0.001   3.839   0.234 -0.5284  0.1357 -0.0468
 5325TIP3    H115981   0.079   3.814   0.189  0.1078 -0.0106  1.1365
 5325TIP3    H215982  -0.059   3.870   0.164  0.2286 -0.5792 -1.0194
 5326TIP3   OH215983   2.280   5.479   1.506 -0.6013 -0.4889  0.1496
 5326TIP3    H115984   2.240   5.559   1.472 -0.8880 -0.4508  0.5643
 5326TIP3    H215985   2.216   5.445   1.569  0.2094 -0.1627  1.1896
 5327TIP3   OH215986   3.283   5.611   0.658  0.4033 -0.2625 -0.1000
 5327TIP3    H115987   3.280   5.693   0.706  0.3182  0.2170 -0.9059
 5327TIP3    H215988   3.258   5.635   0.569 -5.1676 -1.9170  0.6333
 5328TIP3   OH215989   6.163   0.455   0.104 -0.4541  0.5322  0.0261
 5328TIP3    H115990   6.230   0.435   0.038  0.0553  1.8427  0.1205
 5328TIP3    H215991   6.161   0.377   0.160  1.6391  0.7695  0.5414
 5329TIP3   OH215992   1.384   2.983   3.535  0.7479 -0.6281  0.2613
 5329TIP3    H115993   1.403   2.993   3.628  1.7842  0.5352 -0.0384
 5329TIP3    H215994   1.289   2.973   3.530  0.3631  1.8047  1.2995
 5330TIP3   OH215995   4.687   1.960   0.033 -0.6247  0.2000  0.4349
 5330TIP3    H115996   4.623   1.913   0.087 -0.5973 -1.1981 -0.6827
 5330TIP3    H215997   4.771   1.943   0.075 -0.7023 -0.1088  0.4674
 5331TIP3   OH215998   0.199   4.759   2.357 -0.1427  0.0808 -0.2393
 5331TIP3    H115999   0.198   4.682   2.414 -1.9143  0.5124  0.3778
 5331TIP3    H216000   0.292   4.773   2.338  0.3162 -1.4333  0.6735
 5332TIP3   OH216001   2.300   3.475   2.890 -0.4940  0.6393  0.3753
 5332TIP3    H116002   2.309   3.415   2.964 -0.2585 -0.3863 -0.4688
 5332TIP3    H216003   2.242   3.430   2.829  2.2120 -0.2540 -1.7378
 5333TIP3   OH216004   4.481   1.786   4.913 -0.1736  0.0125  0.2734
 5333TIP3    H116005   4.507   1.696   4.896  0.1512  0.4332 -1.7021
 5333TIP3    H216006   4.405   1.801   4.857  1.1001  1.5715 -1.1900
 5334TIP3   OH216007   2.263   1.786   2.391  0.0980  0.1534  0.2534
 5334TIP3    H116008   2.244   1.711   2.448 -0.1918  0.4945  0.6086
 5334TIP3    H216009   2.183   1.796   2.338 -0.4807  1.1762  1.2879
 5335TIP3   OH216010   2.598   0.236   3.057  0.3856  0.6260  0.4299
 5335TIP3    H116011   2.601   0.322   3.014  0.0705  0.3445 -0.1853
 5335TIP3    H216012   2.538   0.248   3.131  0.0270  0.8427  0.1100
 5336TIP3   OH216013   1.719   4.178   4.482 -0.3418  0.2834 -0.2674
 5336TIP3    H116014   1.749   4.163   4.572 -2.5901 -2.0053  0.2453
 5336TIP3    H216015   1.751   4.102   4.433 -1.0051  0.3808 -0.8718
 5337TIP3   OH216016   6.242   4.486   2.857 -0.0844 -0.4557 -0.2576
 5337TIP3    H116017   6.230   4.578   2.883 -0.2298 -0.8110  0.9980
 5337TIP3    H216018   6.288   4.491   2.774  1.4359  0.7522  0.5890
 5338TIP3   OH216019   5.547   4.761   3.883 -0.1996 -0.2162  0.2105
 5338TIP3    H116020   5.472   4.817   3.901  0.0269  0.4670 -0.9238
 5338TIP3    H216021   5.617   4.797   3.939 -0.4414 -0.2527  0.5400
 5339TIP3   OH216022   2.397   4.279   4.188  0.5809 -0.5837  0.4784
 5339TIP3    H116023   2.391   4.202   4.131  0.1894 -0.3486  0.2023
 5339TIP3    H216024   2.487   4.276   4.222  0.8156 -0.7201 -0.1509
 5340TIP3   OH216025   3.619   3.905   1.796  0.6354 -0.1069 -0.0491
 5340TIP3    H116026   3.684   3.901   1.866  0.6037 -0.1643 -0.0228
 5340TIP3    H216027   3.556   3.971   1.826  0.6299 -0.1206 -0.0301
 5341TIP3   OH216028   4.337   2.606   3.359 -0.0203 -0.2646  0.3913
 5341TIP3    H116029   4.372   2.695   3.363 -3.0401  1.0805  0.3291
 5341TIP3    H216030   4.305   2.589   3.447 -0.7383 -0.6888  0.0561
 5342TIP3   OH216031   5.095   2.263   0.432 -0.8300 -0.3779  0.1009
 5342TIP3    H116032   5.086   2.318   0.354  0.3360 -0.7599 -0.3087
 5342TIP3    H216033   5.181   2.222   0.424 -1.3339 -1.6436  0.8062
 5343TIP3   OH216034   3.893   0.104   0.266 -0.3857  0.4077  0.3887
 5343TIP3    H116035   3.832   0.159   0.217 -0.4862  0.6051  0.7333
 5343TIP3    H216036   3.980   0.135   0.239 -0.4390  0.4549  0.2694
 5344TIP3   OH216037   2.290   5.754   3.160 -0.6828 -0.0895  0.1942
 5344TIP3    H116038   2.312   5.661   3.165  1.0945  0.3434  2.1708
 5344TIP3    H216039   2.216   5.758   3.100  0.9116 -2.4601 -2.2195
 5345TIP3   OH216040   4.388   0.947   1.070 -0.0169  0.5633  0.6274
 5345TIP3    H116041   4.406   0.865   1.024 -0.1107  0.7122  0.3252
 5345TIP3    H216042   4.313   0.985   1.024 -0.0782  0.7411  0.8665
 5346TIP3   OH216043   2.509   5.579   2.970  0.5690 -0.0877 -0.0522
 5346TIP3    H116044   2.577   5.632   3.011  1.4173 -1.6019  0.6099
 5346TIP3    H216045   2.540   5.564   2.881 -0.0657  1.1626 -0.4965
 5347TIP3   OH216046   2.906   5.726   2.347  0.1285 -0.3844 -0.3344
 5347TIP3    H116047   2.843   5.665   2.386  0.8771 -0.4920  0.7696
 5347TIP3    H216048   2.874   5.741   2.258 -2.9150  1.5707  0.9225
 5348TIP3   OH216049   2.276   2.839   0.467 -1.1310 -0.2357 -0.8007
 5348TIP3    H116050   2.278   2.866   0.376  2.1051 -1.7052 -1.3371
 5348TIP3    H216051   2.361   2.866   0.502 -0.1003 -4.1176  0.2388
 5349TIP3   OH216052   4.218   0.563   2.718  0.2474  0.5617 -0.9526
 5349TIP3    H116053   4.307   0.531   2.706  0.1332 -0.3213  0.3190
 5349TIP3    H216054   4.199   0.546   2.810  0.0036  3.9510 -0.2629
 5350TIP3   OH216055   4.012   3.775   2.351  0.3215  0.8729  0.5373
 5350TIP3    H116056   3.968   3.848   2.395 -1.4841 -0.4638  1.0830
 5350TIP3    H216057   3.941   3.714   2.330  1.7598 -0.7145  0.0947
 5351TIP3   OH216058   1.110   5.407   0.420  0.1447  0.0336 -0.7915
 5351TIP3    H116059   1.123   5.344   0.490  0.4557  0.6494 -0.2866
 5351TIP3    H216060   1.108   5.354   0.340 -1.5785 -0.8326 -0.2324
 5352TIP3   OH216061   5.619   4.939   1.329  0.8399  0.0841  0.4291
 5352TIP3    H116062   5.549   4.962   1.267  0.3189  1.1526  1.3604
 5352TIP3    H216063   5.586   4.863   1.376  1.8236 -1.6049 -1.4936
 5353TIP3   OH216064   0.516   0.140   0.654 -0.2100 -0.5081  0.3717
 5353TIP3    H116065   0.555   0.076   0.595 -2.3328 -0.5824 -1.0760
 5353TIP3    H216066   0.588   0.168   0.710  1.1567 -2.9220 -0.0205
 5354TIP3   OH216067   1.011   2.625   2.205 -0.5523 -0.3765  0.1682
 5354TIP3    H116068   1.077   2.611   2.273  0.0426 -0.3059 -0.3839
 5354TIP3    H216069   1.041   2.704   2.159 -0.6595 -0.7221 -0.5067
 5355TIP3   OH216070   6.185   1.374   1.433  0.0073  0.1980  0.2014
 5355TIP3    H116071   6.244   1.304   1.463 -2.0302 -1.2848  0.9814
 5355TIP3    H216072   6.238   1.454   1.438  1.5923 -0.8809  1.9525
 5356TIP3   OH216073   4.605   0.032   2.287  0.3788  0.0383 -0.1440
 5356TIP3    H116074   4.636  -0.059   2.288  0.2248 -0.0196  1.2695
 5356TIP3    H216075   4.652   0.074   2.359 -0.1557  0.8672 -0.2722
 5357TIP3   OH216076   1.765   5.438   4.797 -0.5821 -0.0607  0.3480
 5357TIP3    H116077   1.763   5.401   4.886 -1.2364 -2.4477 -0.5924
 5357TIP3    H216078   1.719   5.522   4.805 -0.4034 -0.1014  2.3045
 5358TIP3   OH216079   1.663   5.338   4.558  0.2032  0.0654 -0.3604
 5358TIP3    H116080   1.614   5.420   4.562  0.6268  0.4739 -2.4276
 5358TIP3    H216081   1.721   5.341   4.634 -1.6409  0.4065  1.1156
 5359TIP3   OH216082   0.410   5.436   4.179  0.2635 -0.0713 -0.0180
 5359TIP3    H116083   0.345   5.478   4.235  0.7444 -0.5127  0.8888
 5359TIP3    H216084   0.480   5.502   4.169 -0.4015  0.4902 -1.1836
 5360TIP3   OH216085   5.367   1.616   4.556 -0.0716 -0.1073  0.0276
 5360TIP3    H116086   5.432   1.626   4.486  0.0522  3.1557  0.4237
 5360TIP3    H216087   5.295   1.674   4.529 -0.1155  1.0668  2.4167
 5361TIP3   OH216088   0.600   1.690   0.478 -0.0408 -0.1314 -0.1677
 5361TIP3    H116089   0.579   1.698   0.571 -0.0997 -0.8605 -0.1106
 5361TIP3    H216090   0.521   1.652   0.439 -0.7795  1.9875 -0.8731
 5362TIP3   OH216091   2.368   1.753   0.760  0.0572  0.4578 -0.0730
 5362TIP3    H116092   2.376   1.777   0.667  3.6558  0.2196  0.0099
 5362TIP3    H216093   2.397   1.831   0.807 -0.0319  0.0008  0.7466
 5363TIP3   OH216094   0.600   5.230   4.272  0.0002  0.0648  0.0245
 5363TIP3    H116095   0.520   5.281   4.260  0.2545  0.6876  0.8503
 5363TIP3    H216096   0.636   5.220   4.184 -0.9861 -0.2355 -0.3606
 5364TIP3   OH216097   3.282   2.105   0.364  0.3042 -0.0224 -0.3965
 5364TIP3    H116098   3.241   2.111   0.451  0.0827 -1.0587 -0.4197
 5364TIP3    H216099   3.230   2.165   0.310 -0.9059 -0.9533 -0.3084
 5365TIP3   OH216100   2.251   4.813   4.340  0.3344 -0.1047  0.2514
 5365TIP3    H116101   2.179   4.875   4.334  0.5853  0.1206 -0.6941
 5365TIP3    H216102   2.209   4.727   4.347 -0.0125  0.1471  1.2872
 5366TIP3   OH216103   5.582   5.140   4.853  0.3191 -0.0387  0.0637
 5366TIP3    H116104   5.620   5.085   4.785  0.1335 -0.9749  0.6894
 5366TIP3    H216105   5.658   5.176   4.900  0.4460 -0.7827  0.4377
 5367TIP3   OH216106   4.345  -0.007   0.217 -0.2640 -0.0143  0.1678
 5367TIP3    H116107   4.291   0.013   0.140 -0.7807  0.5627  0.6683
 5367TIP3    H216108   4.308   0.047   0.287 -0.0708 -0.8549  0.9329
 5368TIP3   OH216109   2.579   4.555   1.907  0.1907  0.0171  0.2688
 5368TIP3    H116110   2.660   4.603   1.898  1.1458 -1.3591  1.0504
 5368TIP3    H216111   2.592   4.500   1.985 -1.0562 -1.0395 -0.2221
 5369TIP3   OH216112   1.381   0.356   2.429  0.3216  0.1223 -0.1636
 5369TIP3    H116113   1.364   0.273   2.473 -0.6282 -0.1749 -1.0583
 5369TIP3    H216114   1.300   0.375   2.381  0.7042  1.3134 -0.3696
 5370TIP3   OH216115   2.498   1.549   2.608  0.1062  0.1604 -0.4015
 5370TIP3    H116116   2.517   1.470   2.557  1.9433  0.6156 -0.4608
 5370TIP3    H216117   2.418   1.584   2.568 -0.6394 -1.5271 -0.5009
 5371TIP3   OH216118   1.520   3.952   5.006 -0.0416  0.1002 -0.3689
 5371TIP3    H116119   1.463   4.027   5.024  1.9525  1.6723 -0.2918
 5371TIP3    H216120   1.590   3.987   4.953  1.3653 -1.5645  0.2796
 5372TIP3   OH216121   5.642   5.257   3.011 -0.1732  0.4446  0.0515
 5372TIP3    H116122   5.584   5.316   3.059 -0.2395  0.5195 -0.1195
 5372TIP3    H216123   5.589   5.179   2.994 -0.8517  1.2342 -1.7268
 5373TIP3   OH216124   3.960   0.433   4.144 -0.2608 -0.1433  0.1677
 5373TIP3    H116125   3.874   0.409   4.178  0.3191 -0.0279  1.7679
 5373TIP3    H216126   3.942   0.470   4.057 -1.7568 -0.6420  0.2425
 5374TIP3   OH216127   3.062   2.192   2.567  0.1028  0.0787 -0.0515
 5374TIP3    H116128   3.113   2.271   2.588  0.3795 -0.5109  1.6477
 5374TIP3    H216129   3.045   2.151   2.652 -2.5156 -0.1993 -0.6166
 5375TIP3   OH216130   1.732   5.577   1.869  0.0380 -0.2282  0.1940
 5375TIP3    H116131   1.722   5.671   1.857 -0.2453 -0.3537 -0.6303
 5375TIP3    H216132   1.802   5.552   1.809  0.1417 -0.5385  0.4375
 5376TIP3   OH216133   4.837   2.107   0.867 -0.1670  0.2384  0.4473
 5376TIP3    H116134   4.861   2.120   0.775 -0.0554  0.0002  0.4413
 5376TIP3    H216135   4.918   2.122   0.915 -0.5427  1.8370  0.6466
 5377TIP3   OH216136   0.917   1.344   2.592  0.6802  0.1681 -0.2376
 5377TIP3    H116137   0.907   1.257   2.554 -0.1382 -0.2468  0.8637
 5377TIP3    H216138   0.865   1.402   2.536  0.0173 -0.3134 -0.1231
 5378TIP3   OH216139   5.633   4.723   4.384 -0.7872  0.2839 -0.4042
 5378TIP3    H116140   5.641   4.636   4.344 -0.7898  0.1566 -0.1314
 5378TIP3    H216141   5.599   4.779   4.314 -2.4762 -0.3043 -0.1086
 5379TIP3   OH216142   0.377   3.299   3.067 -0.1850 -0.2821  0.0468
 5379TIP3    H116143   0.453   3.332   3.114 -0.6837 -1.6269  1.9002
 5379TIP3    H216144   0.314   3.372   3.069 -0.0386 -0.1655  1.1549
 5380TIP3   OH216145   0.551   4.163   2.283  0.4396  0.4342  0.1858
 5380TIP3    H116146   0.456   4.174   2.276  0.4866  0.3240 -0.7834
 5380TIP3    H216147   0.583   4.248   2.313 -0.0125  0.3068  1.0427
 5381TIP3   OH216148   4.167   2.752   4.212 -0.0674  0.2987  0.3877
 5381TIP3    H116149   4.177   2.660   4.237 -1.4467  0.3971  1.4363
 5381TIP3    H216150   4.227   2.800   4.269 -1.1324  0.2483  1.5935
 5382TIP3   OH216151   2.447   0.268   3.301 -0.1935 -0.4500  0.6005
 5382TIP3    H116152   2.437   0.320   3.380 -2.0668  0.7267 -0.3489
 5382TIP3    H216153   2.363   0.222   3.291 -0.6219  0.6346 -1.4801
 5383TIP3   OH216154   0.023   0.048   0.691 -0.5539  0.4551  0.1522
 5383TIP3    H116155   0.119   0.045   0.693 -0.4786  0.7718 -1.3332
 5383TIP3    H216156  -0.002  -0.034   0.649 -0.7671  1.3785 -1.6350
 5384TIP3   OH216157   1.497   5.153   4.120  0.2884 -0.5405  0.1063
 5384TIP3    H116158   1.500   5.234   4.170  1.5952 -0.0263 -0.7619
 5384TIP3    H216159   1.575   5.155   4.065 -0.9592 -1.1595 -1.8313
 5385TIP3   OH216160   1.347   5.818   4.656 -0.2949  0.0920 -0.8363
 5385TIP3    H116161   1.262   5.777   4.671 -0.2652 -0.6233 -2.4054
 5385TIP3    H216162   1.326   5.898   4.607 -0.1523  0.6511 -0.0072
 5386TIP3   OH216163   4.451   3.235   4.201 -0.1080  0.1285  0.0988
 5386TIP3    H116164   4.534   3.236   4.153  1.1142  0.4533  2.0765
 5386TIP3    H216165   4.393   3.291   4.151  0.7951 -0.2634 -1.4441
 5387TIP3   OH216166   0.328   1.876   4.922 -0.6598  0.3380 -0.1007
 5387TIP3    H116167   0.344   1.904   5.012 -1.2028  1.3207 -0.2961
 5387TIP3    H216168   0.289   1.953   4.879 -0.6035 -0.1822 -1.1157
 5388TIP3   OH216169   5.483   0.845   2.801  0.0399 -0.1984 -0.2904
 5388TIP3    H116170   5.505   0.839   2.708 -0.6185 -2.1027 -0.3594
 5388TIP3    H216171   5.566   0.866   2.843  0.4742  0.0714 -1.2441
 5389TIP3   OH216172   3.946   3.397   3.076  0.2721  0.3273  0.2634
 5389TIP3    H116173   3.866   3.445   3.051 -0.0211 -0.7612 -1.0168
 5389TIP3    H216174   3.913   3.313   3.109  0.8134  0.6944  1.8121
 5390TIP3   OH216175   5.389   3.804   3.289 -0.4215 -0.0857 -0.2956
 5390TIP3    H116176   5.459   3.828   3.350  0.0113 -0.6453 -0.5673
 5390TIP3    H216177   5.339   3.737   3.335 -0.4016 -0.1375 -0.3493
 5391TIP3   OH216178   1.894   4.287   0.772  0.2970 -0.2973  0.5706
 5391TIP3    H116179   1.982   4.296   0.737 -0.5634 -1.5172 -2.1323
 5391TIP3    H216180   1.855   4.374   0.761  0.3456 -0.4226 -0.7158
 5392TIP3   OH216181   0.890   3.804   4.606 -0.3697 -0.1649  0.5811
 5392TIP3    H116182   0.824   3.734   4.603 -1.2421  0.4873  2.5773
 5392TIP3    H216183   0.973   3.758   4.595 -0.9812 -1.4200  0.9551
 5393TIP3   OH216184   0.228   2.679   0.744  0.1758 -0.7656  1.0163
 5393TIP3    H116185   0.307   2.689   0.797  0.2746  1.0620  0.5879
 5393TIP3    H216186   0.156   2.700   0.804  0.3616  2.8324  0.2184
 5394TIP3   OH216187   3.789   4.392   4.846  0.1695  0.4748 -0.2207
 5394TIP3    H116188   3.806   4.403   4.753  0.8816  1.8328  0.0446
 5394TIP3    H216189   3.704   4.348   4.850  0.0174  0.6131 -1.5033
 5395TIP3   OH216190   4.847   5.222   1.564  0.2456 -0.1420  0.0349
 5395TIP3    H116191   4.934   5.239   1.529  1.2281 -1.9065  1.4189
 5395TIP3    H216192   4.788   5.272   1.508  2.0056 -0.0917 -1.8998
 5396TIP3   OH216193   6.319   2.107   3.682 -0.1709 -0.1368  0.4108
 5396TIP3    H116194   6.359   2.041   3.626 -2.6971  0.6804 -2.6332
 5396TIP3    H216195   6.236   2.068   3.711 -1.2091  1.2287 -0.5897
 5397TIP3   OH216196   2.682   5.834   5.036  0.4330 -0.2854  0.4118
 5397TIP3    H116197   2.776   5.845   5.018  0.2332  0.4901 -0.2065
 5397TIP3    H216198   2.667   5.884   5.116 -0.0860  2.5651 -1.3270
 5398TIP3   OH216199   5.826   4.349   0.680 -0.0192  0.4068 -0.4033
 5398TIP3    H116200   5.808   4.274   0.624  1.3900  0.4053 -0.9104
 5398TIP3    H216201   5.878   4.408   0.625 -3.0776  2.9262 -0.8340
 5399TIP3   OH216202   5.401   1.180   0.770 -0.1158 -0.0615 -0.1676
 5399TIP3    H116203   5.334   1.151   0.707  1.4119 -3.7474 -0.3464
 5399TIP3    H216204   5.364   1.160   0.856 -0.2542  0.3328 -0.1344
 5400TIP3   OH216205   2.696   0.831   1.525 -0.2013 -0.1487  0.2784
 5400TIP3    H116206   2.708   0.924   1.503 -1.9346  0.0984  0.2529
 5400TIP3    H216207   2.639   0.831   1.602 -0.0304 -1.1888  0.4225
 5401TIP3   OH216208   1.394   4.189   3.021  0.5016 -0.1974 -0.2618
 5401TIP3    H116209   1.456   4.165   3.089  2.0899  1.3140 -1.1028
 5401TIP3    H216210   1.313   4.209   3.068  1.1946 -0.3640  1.0378
 5402TIP3   OH216211   5.291   3.850   2.635 -0.2167 -0.1995  0.0381
 5402TIP3    H116212   5.274   3.845   2.729 -0.9062 -2.6728 -0.1277
 5402TIP3    H216213   5.213   3.811   2.595  0.5002 -0.1268 -1.4972
 5403TIP3   OH216214   3.389   4.884   2.369 -0.6428  0.6067 -0.1661
 5403TIP3    H116215   3.298   4.897   2.340 -1.4370 -1.3525  1.2191
 5403TIP3    H216216   3.393   4.792   2.393  1.8511  0.5757 -0.5040
 5404TIP3   OH216217   5.063   2.160   1.035  0.1569 -0.1799  0.5703
 5404TIP3    H116218   5.151   2.149   0.998 -0.1754 -0.1902 -0.2357
 5404TIP3    H216219   5.077   2.215   1.112  1.0044 -1.0218  1.0431
 5405TIP3   OH216220   6.074   5.660   3.547 -0.4776 -0.3975  0.4613
 5405TIP3    H116221   6.091   5.567   3.534  0.2974 -0.2024 -0.0008
 5405TIP3    H216222   5.988   5.664   3.591 -0.1628 -1.3510  1.1903
 5406TIP3   OH216223   1.653   2.181   2.780 -0.6024  0.6471  0.0278
 5406TIP3    H116224   1.584   2.190   2.714 -0.6561  2.2185  0.2546
 5406TIP3    H216225   1.695   2.267   2.783  0.4247  0.1468  0.9361
 5407TIP3   OH216226   5.199   5.671   1.024  0.1751 -0.5554 -0.6783
 5407TIP3    H116227   5.276   5.715   1.061  0.9686 -1.7286 -0.8945
 5407TIP3    H216228   5.194   5.587   1.070 -2.0362  0.1926  0.5886
 5408TIP3   OH216229   4.678   3.710   4.507  0.5481 -0.0579 -0.0839
 5408TIP3    H116230   4.597   3.748   4.539  0.5317 -0.5792  0.5106
 5408TIP3    H216231   4.737   3.785   4.496 -0.1214  0.3701 -0.8926
 5409TIP3   OH216232   1.213   2.117   3.620 -0.0512  0.1126 -0.3241
 5409TIP3    H116233   1.128   2.160   3.623  0.3695  1.0188 -1.0884
 5409TIP3    H216234   1.198   2.032   3.662 -1.0517  0.7120  0.5869
 5410TIP3   OH216235   4.038   2.030   2.564  0.0668  0.3303 -0.0367
 5410TIP3    H116236   4.061   2.021   2.471  3.0289  0.6822  0.5565
 5410TIP3    H216237   4.046   1.942   2.600 -3.2456 -0.2414 -0.4386
 5411TIP3   OH216238   5.057   2.284   1.510  0.3069  0.8693 -0.0268
 5411TIP3    H116239   5.035   2.358   1.453  0.6012  0.8280 -0.1944
 5411TIP3    H216240   4.973   2.257   1.547 -0.0541  0.1964 -1.2800
 5412TIP3   OH216241   4.711   4.590   1.010  0.0355  0.2706  0.0292
 5412TIP3    H116242   4.740   4.513   0.962  0.6831 -0.0294  0.8788
 5412TIP3    H216243   4.787   4.647   1.012 -0.4039  0.8960 -0.4881
 5413TIP3   OH216244   3.389   4.261   3.307 -0.4384  0.3623 -0.2178
 5413TIP3    H116245   3.469   4.278   3.358 -0.8285  0.5346  0.3461
 5413TIP3    H216246   3.357   4.177   3.339  0.9651 -1.0782 -2.3441
 5414TIP3   OH216247   1.280   4.702   2.605 -0.6574 -0.5006 -0.0827
 5414TIP3    H116248   1.374   4.687   2.610 -0.6652 -0.9684 -1.1679
 5414TIP3    H216249   1.271   4.790   2.569 -0.6389 -0.5420 -0.1869
 5415TIP3   OH216250   3.747   2.391   2.060 -0.3637 -0.0422 -0.0731
 5415TIP3    H116251   3.656   2.379   2.032 -0.0260  0.4642 -1.4452
 5415TIP3    H216252   3.787   2.305   2.048  0.0507  0.3968 -2.3009
 5416TIP3   OH216253   1.205   1.484   2.406  0.3893  0.2358 -0.6256
 5416TIP3    H116254   1.262   1.470   2.482  2.1151  1.0623 -1.7085
 5416TIP3    H216255   1.215   1.404   2.354  0.4518  0.3183 -0.7413
 5417TIP3   OH216256   6.346   2.590   4.579  0.0717 -0.5228 -0.2061
 5417TIP3    H116257   6.293   2.520   4.616  0.1499  0.1370  1.1965
 5417TIP3    H216258   6.359   2.564   4.488  0.4303 -2.5055  0.3716
 5418TIP3   OH216259   3.087   3.748   4.979 -0.2641  0.2547 -0.1316
 5418TIP3    H116260   3.156   3.708   4.926 -0.6490 -2.8093  1.4792
 5418TIP3    H216261   3.005   3.712   4.945 -0.6559 -0.2268  1.2476
 5419TIP3   OH216262   0.292   0.808   3.093 -0.1569 -0.4480  0.2471
 5419TIP3    H116263   0.318   0.719   3.070 -1.2773  0.0033 -3.3332
 5419TIP3    H216264   0.369   0.862   3.072 -0.4924 -0.2536 -0.5007
 5420TIP3   OH216265   4.647   1.853   0.540  0.0144  0.4928 -0.3423
 5420TIP3    H116266   4.664   1.812   0.624  0.3211 -0.9954 -1.0883
 5420TIP3    H216267   4.600   1.787   0.490  0.1421  1.2071 -1.4574
 5421TIP3   OH216268   1.652   2.860   0.287  0.7113 -0.0410  0.2793
 5421TIP3    H116269   1.651   2.931   0.223 -0.7043  1.4091  1.7848
 5421TIP3    H216270   1.738   2.867   0.329  0.8943  0.2644 -0.1398
 5422TIP3   OH216271   1.424   2.969   3.808  0.2534 -0.3093 -0.5504
 5422TIP3    H116272   1.416   2.875   3.821  2.2008 -0.4977 -0.4974
 5422TIP3    H216273   1.506   2.993   3.850 -0.1023  1.3918 -0.7442
 5423TIP3   OH216274   6.183   0.638   1.504 -0.5241 -0.0641  1.3178
 5423TIP3    H116275   6.255   0.604   1.452 -0.5584 -0.1963  1.3566
 5423TIP3    H216276   6.138   0.700   1.446  0.1330  0.6780  1.5788
 5424TIP3   OH216277   4.397   5.570   1.227  0.1891 -0.0562 -0.3571
 5424TIP3    H116278   4.340   5.496   1.246  0.2683  0.0578  0.3364
 5424TIP3    H216279   4.338   5.639   1.198  0.2082 -0.7166 -2.0866
 5425TIP3   OH216280   3.784   0.491   4.476  0.1900 -0.5451 -0.1025
 5425TIP3    H116281   3.739   0.499   4.392 -0.2541 -2.6113 -0.1128
 5425TIP3    H216282   3.714   0.495   4.541  0.3267 -0.7962  0.0603
 5426TIP3   OH216283   4.974   3.504   1.144  0.0249  0.1946  0.2141
 5426TIP3    H116284   4.992   3.552   1.224  0.9593  1.1620 -0.5438
 5426TIP3    H216285   4.884   3.474   1.154 -0.7168  2.3527  0.6125
 5427TIP3   OH216286   1.251   0.716   2.282  0.2349  0.4815 -0.1065
 5427TIP3    H116287   1.277   0.805   2.259  0.9640  0.6994  1.4629
 5427TIP3    H216288   1.317   0.660   2.241  1.3253  0.8445  1.0737
 5428TIP3   OH216289   4.793   3.874   2.960 -0.0220  0.1029 -0.6909
 5428TIP3    H116290   4.845   3.954   2.950  0.6741  0.2025  2.7286
 5428TIP3    H216291   4.742   3.888   3.040 -1.6064 -2.0244 -1.2294
 5429TIP3   OH216292   4.051   5.640   0.729 -0.5381 -0.6858 -0.5407
 5429TIP3    H116293   4.032   5.718   0.782  2.9510  0.9225 -1.3618
 5429TIP3    H216294   4.135   5.609   0.761 -0.9287 -2.9806 -1.5731
 5430TIP3   OH216295   4.217   5.355   1.286  0.7038 -1.2824  0.7379
 5430TIP3    H116296   4.124   5.379   1.276  0.9013 -1.0672 -0.9064
 5430TIP3    H216297   4.228   5.342   1.380 -1.4666 -3.2879  0.8045
 5431TIP3   OH216298   2.613   0.476   2.955  0.8243  0.6238 -0.4711
 5431TIP3    H116299   2.524   0.508   2.968  0.6543  0.7268 -1.7774
 5431TIP3    H216300   2.669   0.551   2.972  0.7168  0.4391  0.8276
 5432TIP3   OH216301   0.302   4.664   0.203 -0.1426 -0.0507 -0.4153
 5432TIP3    H116302   0.308   4.707   0.289  1.3990 -0.4444 -0.2927
 5432TIP3    H216303   0.249   4.724   0.150  0.4329  1.1226  0.2814
 5433TIP3   OH216304   1.639   5.927   3.847 -0.6911 -0.3187 -0.2405
 5433TIP3    H116305   1.725   5.889   3.865 -1.0421 -1.9031 -1.6970
 5433TIP3    H216306   1.622   5.984   3.923  0.7261 -1.5531  1.0718
 5434TIP3   OH216307   6.151   3.526   5.156  0.3594 -0.0273 -0.1174
 5434TIP3    H116308   6.184   3.529   5.067  0.2865  1.5837 -0.1251
 5434TIP3    H216309   6.096   3.604   5.164  0.5876  0.0181  1.4136
 5435TIP3   OH216310   1.495   2.391   2.357  0.0237  0.1188  0.7310
 5435TIP3    H116311   1.533   2.465   2.404  1.7688  0.0943 -0.5465
 5435TIP3    H216312   1.554   2.377   2.283 -1.0497 -1.6652  0.1584
 5436TIP3   OH216313   1.081   4.527   2.653  0.5804  0.0571  0.0623
 5436TIP3    H116314   1.020   4.543   2.581  1.8968 -2.1583 -1.6774
 5436TIP3    H216315   1.152   4.590   2.639  0.4120  0.2243 -0.0486
 5437TIP3   OH216316   1.751   3.705   2.959 -0.5392  0.2438 -0.0611
 5437TIP3    H116317   1.747   3.799   2.975  0.1272  0.3205 -0.3446
 5437TIP3    H216318   1.833   3.677   2.998  0.4058  0.1822 -1.9756
 5438TIP3   OH216319   0.902   4.921   2.163  0.2863  0.4345 -0.0602
 5438TIP3    H116320   0.922   5.014   2.149  1.7574  0.0022 -1.0641
 5438TIP3    H216321   0.938   4.902   2.249  0.1970  0.7342  0.0464
 5439TIP3   OH216322   6.064   3.135   2.735 -0.1673 -0.9416  0.1304
 5439TIP3    H116323   6.028   3.108   2.819 -0.3460 -0.9881  0.0383
 5439TIP3    H216324   6.155   3.159   2.754 -0.1411 -1.1720  0.2936
 5440TIP3   OH216325   5.447   3.591   0.142 -0.1635  0.5521  0.2392
 5440TIP3    H116326   5.376   3.627   0.195 -0.7666 -1.6935  1.0725
 5440TIP3    H216327   5.416   3.504   0.116  0.9412  0.7997 -2.1819
 5441TIP3   OH216328   1.314   5.080   0.395  0.1876  0.5614 -0.4346
 5441TIP3    H116329   1.345   5.170   0.388  1.8307  0.1736  1.1124
 5441TIP3    H216330   1.374   5.029   0.340  0.0158  0.2503 -0.3390
 5442TIP3   OH216331   1.163   2.004   5.105  0.1149 -0.6443 -0.1646
 5442TIP3    H116332   1.104   2.011   5.030 -0.5620 -0.0240  0.4089
 5442TIP3    H216333   1.248   1.982   5.066 -0.4475 -1.4147 -1.0153
 5443TIP3   OH216334   4.120   0.052   1.179  0.3543  0.3603 -0.3398
 5443TIP3    H116335   4.190   0.109   1.146  0.4629  0.1812 -0.4247
 5443TIP3    H216336   4.146  -0.036   1.150 -0.3311  0.3929 -1.0957
 5444TIP3   OH216337   0.506   1.111   4.669  0.2487  0.1672  0.7668
 5444TIP3    H116338   0.481   1.198   4.636  1.2552  0.1257 -0.1480
 5444TIP3    H216339   0.426   1.078   4.711 -0.1535  1.5357  1.1521
 5445TIP3   OH216340   3.399   3.385   2.353  0.4918  0.0759  0.2356
 5445TIP3    H116341   3.413   3.405   2.261 -1.6667  1.8172  0.2061
 5445TIP3    H216342   3.477   3.418   2.397  1.6956 -1.0619 -0.9369
 5446TIP3   OH216343   2.629   4.113   0.006  0.3845  0.6655 -0.8485
 5446TIP3    H116344   2.671   4.195   0.032 -0.6334  0.6891  0.8541
 5446TIP3    H216345   2.541   4.118   0.044  0.4377 -1.4038 -0.3388
 5447TIP3   OH216346   5.339   5.013   2.061 -0.1884  0.5716 -0.3593
 5447TIP3    H116347   5.407   5.080   2.050  1.2035 -0.7396 -0.0304
 5447TIP3    H216348   5.373   4.936   2.016 -0.7212 -0.5959  1.1348
 5448TIP3   OH216349   4.458   1.195   0.217 -0.2505  0.8721  0.0371
 5448TIP3    H116350   4.427   1.229   0.133 -1.7365  0.2179  0.2866
 5448TIP3    H216351   4.503   1.114   0.196  0.3020  1.2434 -0.2234
 5449TIP3   OH216352   4.645   5.239   1.193 -0.1358 -0.5232  0.2771
 5449TIP3    H116353   4.668   5.232   1.100 -1.4424  0.3155 -0.1427
 5449TIP3    H216354   4.557   5.203   1.199 -0.2955 -0.0283  1.0835
 5450TIP3   OH216355   4.742   5.883   2.791  0.3800 -0.0934 -0.0999
 5450TIP3    H116356   4.684   5.916   2.859 -1.0653  0.3228 -1.4658
 5450TIP3    H216357   4.818   5.850   2.838  0.7593  2.7876  1.5279
 5451TIP3   OH216358   0.597   0.852   1.243 -0.3273 -0.2217  0.4742
 5451TIP3    H116359   0.595   0.775   1.187  1.3824  0.1688 -0.2092
 5451TIP3    H216360   0.506   0.869   1.265 -0.9581 -1.0360 -1.3101
 5452TIP3   OH216361   2.788   5.297   3.369  0.3094 -0.5344  0.0477
 5452TIP3    H116362   2.736   5.346   3.433 -1.3782 -1.5540 -0.4799
 5452TIP3    H216363   2.799   5.358   3.295 -0.3772 -0.4013  0.0509
 5453TIP3   OH216364   2.507   4.247   0.354 -0.3522  0.1698 -0.0883
 5453TIP3    H116365   2.574   4.314   0.365  0.3225 -0.6723  1.1481
 5453TIP3    H216366   2.550   4.165   0.377 -1.6159 -0.4773  0.0789
 5454TIP3   OH216367   5.271   3.054   1.014 -0.5728  0.0679  0.2136
 5454TIP3    H116368   5.300   2.962   1.019 -0.2573  0.0615 -1.2386
 5454TIP3    H216369   5.285   3.088   1.103 -0.3558 -1.1868  0.6882
 5455TIP3   OH216370   2.425   2.559   0.673  0.1531 -0.4859 -0.4690
 5455TIP3    H116371   2.338   2.573   0.635  0.4038 -0.0743 -0.8975
 5455TIP3    H216372   2.451   2.472   0.642  0.4130 -0.0987 -1.3684
 5456TIP3   OH216373   4.334   1.687   2.569 -0.0904  0.2789  0.6502
 5456TIP3    H116374   4.303   1.668   2.657 -1.4407  1.9136  0.5777
 5456TIP3    H216375   4.324   1.782   2.559  1.2216  0.3118 -0.8240
 5457TIP3   OH216376   4.868   5.194   4.103 -0.1674 -0.3377  0.1837
 5457TIP3    H116377   4.897   5.279   4.136 -0.5744  0.4064 -1.2451
 5457TIP3    H216378   4.892   5.131   4.171  0.4439  0.8762  1.1253
 5458TIP3   OH216379   0.298   2.262   1.052  0.0791  0.5774  0.1597
 5458TIP3    H116380   0.357   2.187   1.048  0.0741  0.5776  0.0624
 5458TIP3    H216381   0.352   2.335   1.081 -0.2594  0.1966  1.8165
 5459TIP3   OH216382   2.138   4.130   4.252 -0.1056  0.3460 -0.5851
 5459TIP3    H116383   2.203   4.201   4.252 -0.5920  0.8070 -1.4259
 5459TIP3    H216384   2.172   4.067   4.315  1.3482  0.4117 -1.2675
 5460TIP3   OH216385   2.414   5.963   4.923  0.6067  0.0736 -0.0148
 5460TIP3    H116386   2.420   5.986   4.830 -0.7482 -1.2014 -0.4583
 5460TIP3    H216387   2.501   5.928   4.945 -0.0353 -3.0234 -1.8287
 5461TIP3   OH216388   5.436   3.518   5.002 -0.5042  1.3032 -0.1730
 5461TIP3    H116389   5.463   3.558   5.085  1.2663  0.4745 -0.2981
 5461TIP3    H216390   5.354   3.473   5.023  0.5842 -0.0598  1.5352
 5462TIP3   OH216391   3.523   5.386   4.512  0.6323  0.2576 -0.0991
 5462TIP3    H116392   3.544   5.414   4.423  0.1842  1.3578  0.1268
 5462TIP3    H216393   3.534   5.291   4.511  1.1275  0.3170 -1.1896
 5463TIP3   OH216394   3.956   1.402   2.602 -0.6271 -0.0969 -0.5983
 5463TIP3    H116395   3.918   1.383   2.688 -0.5783 -0.7770 -0.7209
 5463TIP3    H216396   3.905   1.348   2.541 -0.1710 -0.1937 -0.8995
 5464TIP3   OH216397   1.798   1.118   3.115 -0.3860  0.4522  0.2822
 5464TIP3    H116398   1.842   1.155   3.192  0.2865  1.3457 -0.5200
 5464TIP3    H216399   1.836   1.030   3.107  0.6663  0.9058  0.0916
 5465TIP3   OH216400   4.003   1.650   1.708 -0.1293  0.2305 -0.3632
 5465TIP3    H116401   4.008   1.726   1.650  0.0315  1.3068  1.0150
 5465TIP3    H216402   4.094   1.627   1.725 -0.1774 -0.0577 -0.4822
 5466TIP3   OH216403   0.803   1.097   3.369 -0.1997 -0.0603 -0.4971
 5466TIP3    H116404   0.891   1.079   3.338  0.2594 -0.3780  0.9037
 5466TIP3    H216405   0.767   1.161   3.307  0.4037 -1.1547 -2.0004
 5467TIP3   OH216406   4.693   5.250   2.506 -0.0357  0.1919  0.0417
 5467TIP3    H116407   4.663   5.229   2.594  0.2425  0.6780  0.2568
 5467TIP3    H216408   4.662   5.340   2.492  0.4468  0.3350 -0.1205
 5468TIP3   OH216409   0.976   1.635   1.863  0.4385 -0.6248  0.0272
 5468TIP3    H116410   1.015   1.670   1.943 -1.4463 -0.5651  0.9637
 5468TIP3    H216411   0.883   1.655   1.870  0.3284  0.2053 -2.6193
 5469TIP3   OH216412   0.042   3.539   0.085 -0.2733 -0.1012  0.2705
 5469TIP3    H116413  -0.027   3.498   0.032 -1.4583  1.3918  0.5787
 5469TIP3    H216414   0.085   3.466   0.129 -0.1286 -1.2708 -1.6955
 5470TIP3   OH216415   0.955   3.355   1.475  0.3729  0.3220  0.3160
 5470TIP3    H116416   0.972   3.448   1.490 -0.4126  0.1935  2.3324
 5470TIP3    H216417   0.864   3.352   1.444 -0.4850  0.1342  2.6236
 5471TIP3   OH216418   3.639   5.601   2.200 -0.6653  0.3059  0.3627
 5471TIP3    H116419   3.692   5.607   2.121 -0.9779 -0.7275  0.0554
 5471TIP3    H216420   3.701   5.579   2.270 -0.7553 -1.6911 -0.1333
 5472TIP3   OH216421   1.772   0.973   4.499 -0.0762  0.4082 -0.2997
 5472TIP3    H116422   1.708   0.935   4.439 -0.4848  2.7378 -1.4619
 5472TIP3    H216423   1.830   0.901   4.522 -1.9357 -1.3392 -0.7572
 5473TIP3   OH216424   4.990   3.611   4.382 -0.3255  0.1444 -0.2486
 5473TIP3    H116425   4.940   3.606   4.300  0.1447  1.7143 -0.6572
 5473TIP3    H216426   4.927   3.641   4.447 -1.1704 -2.7690  0.4591
 5474TIP3   OH216427   4.989   3.854   3.275 -0.0227  0.4386  0.1151
 5474TIP3    H116428   5.045   3.927   3.247  0.1870  0.0294 -0.5685
 5474TIP3    H216429   5.031   3.776   3.238  1.1950 -0.3786  2.9603
 5475TIP3   OH216430   3.609   3.353   4.865  0.7093 -0.4560 -0.1427
 5475TIP3    H116431   3.566   3.270   4.845 -0.0451  0.0757 -0.7977
 5475TIP3    H216432   3.551   3.397   4.927 -0.5117  0.8841 -2.1036
 5476TIP3   OH216433   3.549   2.773   3.884 -0.2520 -0.2214 -0.1144
 5476TIP3    H116434   3.585   2.687   3.864  2.9311  0.7922  0.6001
 5476TIP3    H216435   3.540   2.816   3.799  1.7358 -0.0493 -0.2874
 5477TIP3   OH216436   3.308   3.428   2.062  0.2512 -0.8561  0.1624
 5477TIP3    H116437   3.280   3.492   2.127  0.4870 -0.4151 -0.1638
 5477TIP3    H216438   3.403   3.439   2.057  0.2182 -0.7830 -0.3596
 5478TIP3   OH216439   1.043   1.311   3.616  0.3752 -0.4214 -0.4995
 5478TIP3    H116440   1.007   1.398   3.595  0.0430 -0.1906  0.9245
 5478TIP3    H216441   1.138   1.325   3.619  0.4082 -0.3921 -1.4862
 5479TIP3   OH216442   3.527   3.411   3.149 -0.0782 -0.0743 -0.5699
 5479TIP3    H116443   3.483   3.399   3.233 -1.5064 -0.1902 -1.3160
 5479TIP3    H216444   3.527   3.325   3.108 -0.4432  0.2092 -1.1843
 5480TIP3   OH216445   2.887   1.465   1.988 -0.5730 -0.3813  0.1545
 5480TIP3    H116446   2.926   1.393   2.037  0.6094  0.6982  0.8616
 5480TIP3    H216447   2.796   1.469   2.020 -0.6510 -1.5256  0.1107
 5481TIP3   OH216448   5.502   1.343   4.300  0.2939  0.8938  0.8827
 5481TIP3    H116449   5.515   1.279   4.369 -1.8336  0.0252  0.5589
 5481TIP3    H216450   5.568   1.321   4.234  0.2853 -0.2863  1.2430
 5482TIP3   OH216451   2.001   5.964   4.704  0.5447 -0.3500  0.3172
 5482TIP3    H116452   1.924   5.923   4.664 -0.2306 -0.2371  1.6434
 5482TIP3    H216453   2.068   5.895   4.704  0.2176 -0.6727 -0.1873
 5483TIP3   OH216454   1.090   5.865   0.274  0.8136 -0.1043 -0.2480
 5483TIP3    H116455   1.132   5.905   0.197  0.6322 -0.7040 -0.6707
 5483TIP3    H216456   1.096   5.771   0.258 -0.1437 -0.2169 -0.0173
 5484TIP3   OH216457   5.699   2.027   4.956 -0.2301 -0.5928 -0.2655
 5484TIP3    H116458   5.762   1.957   4.935  0.5735 -0.1679  0.6290
 5484TIP3    H216459   5.754   2.101   4.981 -1.0934 -0.0885  0.1782
 5485TIP3   OH216460   2.215   2.805   0.864  0.5053  0.4421  0.1585
 5485TIP3    H116461   2.190   2.853   0.943 -0.4198  2.2441 -1.1698
 5485TIP3    H216462   2.308   2.785   0.877  0.7067  1.8359  1.1581
 5486TIP3   OH216463   2.799   1.184   4.542  0.0769  0.2301  0.6726
 5486TIP3    H116464   2.794   1.272   4.579 -1.7884  0.2326  0.5313
 5486TIP3    H216465   2.745   1.130   4.600 -0.5772 -0.3539 -0.4410
 5487TIP3   OH216466   0.820   2.677   4.817  0.3508 -0.3915 -0.2128
 5487TIP3    H116467   0.806   2.696   4.725 -1.2177 -0.4612 -0.0071
 5487TIP3    H216468   0.764   2.739   4.864  2.9395  1.3665  0.8342
 5488TIP3   OH216469   3.715   5.517   0.048 -0.1522  0.0477  0.0386
 5488TIP3    H116470   3.793   5.565   0.018 -0.7821  0.3824 -1.1202
 5488TIP3    H216471   3.738   5.425   0.036 -0.3277  0.1600 -1.4401
 5489TIP3   OH216472   2.685   1.709   0.611  0.2548  0.7319  0.4234
 5489TIP3    H116473   2.771   1.668   0.620 -0.0423  0.3205  1.4849
 5489TIP3    H216474   2.625   1.637   0.596  0.0130  0.9691  0.2362
 5490TIP3   OH216475   4.320   1.436   1.806  0.2105  0.4209 -0.4897
 5490TIP3    H116476   4.288   1.362   1.857 -1.2314  1.2439 -0.1429
 5490TIP3    H216477   4.299   1.413   1.715  2.1015 -0.7103 -0.6777
 5491TIP3   OH216478   5.333   4.939   3.859 -0.5023  0.1622 -0.2394
 5491TIP3    H116479   5.363   4.936   3.768  0.7868 -0.9079  0.1813
 5491TIP3    H216480   5.286   5.022   3.866  0.4290  0.8442 -1.5635
 5492TIP3   OH216481   3.621   3.997   2.695 -0.3744 -0.2074  0.3016
 5492TIP3    H116482   3.526   4.010   2.689 -0.5126 -0.4962  1.4892
 5492TIP3    H216483   3.633   3.951   2.779  0.9249  0.9482  0.7795
 5493TIP3   OH216484   2.668   0.193   1.126  0.1895 -0.3366  0.2195
 5493TIP3    H116485   2.709   0.221   1.044  0.8863 -3.2224 -0.5119
 5493TIP3    H216486   2.729   0.221   1.194  0.8945 -0.2069 -0.4584
 5494TIP3   OH216487   4.723   4.692   3.054 -0.0745  0.4965 -0.3844
 5494TIP3    H116488   4.775   4.758   3.100 -0.8652  0.4307  0.6512
 5494TIP3    H216489   4.752   4.698   2.963  1.3879  0.7850  0.0681
 5495TIP3   OH216490   4.195   3.275   3.376  0.4346 -0.5044 -0.0895
 5495TIP3    H116491   4.189   3.186   3.340  0.6146 -1.1188  1.3092
 5495TIP3    H216492   4.211   3.261   3.469 -0.8978  1.0008  0.4038
 5496TIP3   OH216493   0.364   4.984   2.825  0.0378  0.4715 -0.1334
 5496TIP3    H116494   0.325   5.069   2.843 -1.6403 -0.5746  1.4920
 5496TIP3    H216495   0.373   4.942   2.911 -0.7600 -1.6426 -1.0003
 5497TIP3   OH216496   3.310   3.164   1.763  0.1769  0.0508 -0.0763
 5497TIP3    H116497   3.301   3.259   1.760 -2.6253 -0.1377 -0.2646
 5497TIP3    H216498   3.269   3.139   1.846  1.7457 -0.9755  0.4383
 5498TIP3   OH216499   3.607   3.103   3.779 -0.0789  0.3553  0.2070
 5498TIP3    H116500   3.591   3.167   3.710  1.9550  2.0026  1.1198
 5498TIP3    H216501   3.649   3.029   3.735 -1.1203  0.2640 -0.6514
 5499TIP3   OH216502   4.154   3.118   2.963  0.2622 -0.0167  0.7092
 5499TIP3    H116503   4.149   3.065   2.883  0.9831  1.7977 -0.6202
 5499TIP3    H216504   4.066   3.155   2.972 -0.3604 -1.6803  1.8728
 5500TIP3   OH216505   5.965   4.859   4.119  0.7746 -0.0853  0.5409
 5500TIP3    H116506   5.909   4.792   4.081 -1.3433  1.1481  1.2894
 5500TIP3    H216507   6.052   4.820   4.121 -0.0716 -2.1667 -0.5230
 5501TIP3   OH216508   5.323   2.903   4.612  0.3881 -0.2314  0.2020
 5501TIP3    H116509   5.299   2.964   4.542  0.1704  1.6677  1.8206
 5501TIP3    H216510   5.415   2.881   4.594  1.0574  2.0517  0.5104
 5502TIP3   OH216511   5.646   2.471   0.712 -0.2916 -0.7959  0.5649
 5502TIP3    H116512   5.716   2.418   0.674  0.9216  1.5901 -0.7602
 5502TIP3    H216513   5.682   2.502   0.795  0.3491  0.5227 -0.1682
 5503TIP3   OH216514   0.586   0.446   3.476 -0.2450  0.4478 -0.5846
 5503TIP3    H116515   0.582   0.480   3.386  1.3179 -0.7122 -1.1313
 5503TIP3    H216516   0.567   0.353   3.468 -1.4849  0.5782  0.5031
 5504TIP3   OH216517   1.155   4.116   2.835  0.7928  0.4398  0.6050
 5504TIP3    H116518   1.187   4.101   2.746 -0.9702  1.4797 -0.2402
 5504TIP3    H216519   1.231   4.097   2.890  1.7817 -0.7342 -1.0612
 5505TIP3   OH216520   0.917   1.654   0.526  0.3123  0.2825 -0.5365
 5505TIP3    H116521   0.834   1.605   0.524  0.8320 -0.7609  1.0287
 5505TIP3    H216522   0.962   1.620   0.604  0.3620  3.8795  1.2058
 5506TIP3   OH216523   1.148   1.156   3.376  0.4314  0.3544 -0.1096
 5506TIP3    H116524   1.128   1.225   3.439  2.4796 -0.3626  1.4095
 5506TIP3    H216525   1.188   1.201   3.302 -0.8649  1.0667 -0.4095
 5507TIP3   OH216526   1.152   4.676   1.676 -0.1869 -0.7496  1.2173
 5507TIP3    H116527   1.188   4.661   1.764  0.2226 -1.5477  0.9217
 5507TIP3    H216528   1.152   4.590   1.635  2.7031  0.0150 -0.7417
 5508TIP3   OH216529   5.595   0.475   4.664  0.0705 -0.2241  0.4476
 5508TIP3    H116530   5.505   0.495   4.639  0.6972  0.9426 -1.0309
 5508TIP3    H216531   5.636   0.561   4.676  1.2663 -0.7175  0.0432
 5509TIP3   OH216532   1.874   2.736   1.592 -0.2732 -0.1604  0.6949
 5509TIP3    H116533   1.950   2.771   1.546 -1.2328  0.6217 -0.3578
 5509TIP3    H216534   1.818   2.813   1.607 -1.1390 -0.8102  0.8847
 5510TIP3   OH216535   2.256   4.624   0.805  0.0045 -0.0321 -0.2659
 5510TIP3    H116536   2.330   4.587   0.853 -0.3407 -1.0433 -0.4689
 5510TIP3    H216537   2.204   4.547   0.780 -2.7046  0.7060  2.3920
 5511TIP3   OH216538   2.728   5.188   0.528 -0.0605 -0.1836 -0.3273
 5511TIP3    H116539   2.786   5.214   0.457  0.8655 -1.9080 -0.2703
 5511TIP3    H216540   2.766   5.227   0.607  2.1148 -2.6412 -0.0284
 5512TIP3   OH216541   3.127   2.437   0.877  0.1806  0.5266  0.5905
 5512TIP3    H116542   3.164   2.407   0.960 -1.0935 -0.7503  0.7287
 5512TIP3    H216543   3.136   2.533   0.880  0.0987  0.5094  2.2289
 5513TIP3   OH216544   1.274   1.858   1.400 -0.0223  0.5132  0.4414
 5513TIP3    H116545   1.234   1.772   1.408  1.2768 -0.0032  1.8847
 5513TIP3    H216546   1.200   1.918   1.385 -0.9591 -0.7871 -0.3696
 5514TIP3   OH216547   1.309   5.710   4.168  0.4342 -0.1651  0.4212
 5514TIP3    H116548   1.332   5.803   4.162  1.8647 -0.5800 -2.3454
 5514TIP3    H216549   1.390   5.664   4.145 -0.6530 -2.0761  0.1968
 5515TIP3   OH216550   1.228   0.729   2.899  0.1498 -0.0783 -0.4456
 5515TIP3    H116551   1.141   0.738   2.858  0.6331 -0.0896 -1.5076
 5515TIP3    H216552   1.275   0.807   2.870  0.3020  0.2562  0.6541
 5516TIP3   OH216553   4.257   3.765   1.589  0.0317  0.3447  0.6233
 5516TIP3    H116554   4.212   3.691   1.631 -2.1674  0.0164 -1.9980
 5516TIP3    H216555   4.260   3.833   1.656  0.0849 -1.3147  2.4079
 5517TIP3   OH216556   1.761   0.041   0.358  0.2943  0.0217 -0.2155
 5517TIP3    H116557   1.722   0.068   0.442  1.4565 -0.8644  0.6449
 5517TIP3    H216558   1.819   0.113   0.335  0.0881  0.1981 -0.1969
 5518TIP3   OH216559   0.337   0.796   1.679  0.0698  0.3201  0.4838
 5518TIP3    H116560   0.351   0.799   1.774  0.2266  2.0189  0.4279
 5518TIP3    H216561   0.420   0.823   1.641 -0.8077  2.5579 -0.0256
 5519TIP3   OH216562   3.051   2.310   3.425 -0.2226 -0.1863 -0.2218
 5519TIP3    H116563   2.987   2.239   3.425 -1.5401  0.9738 -0.3103
 5519TIP3    H216564   3.000   2.389   3.407  1.5086  0.5306 -2.6082
 5520TIP3   OH216565   5.528   4.843   3.041  0.1490  0.2769 -0.1780
 5520TIP3    H116566   5.528   4.808   2.952  0.2156  0.7886 -0.3786
 5520TIP3    H216567   5.618   4.869   3.057 -0.1948  1.8009 -0.6025
 5521TIP3   OH216568   2.480   2.272   3.836  0.3118 -0.0908 -0.0262
 5521TIP3    H116569   2.481   2.343   3.901 -0.0907 -1.4478  1.5261
 5521TIP3    H216570   2.387   2.263   3.813  0.2398 -0.7295  0.5001
 5522TIP3   OH216571   5.497   4.250   4.172  0.5565  0.4700  0.3033
 5522TIP3    H116572   5.412   4.205   4.173  0.1217  1.2447  2.0511
 5522TIP3    H216573   5.512   4.269   4.079 -0.4893 -0.9240 -0.1985
 5523TIP3   OH216574   1.383   1.974   0.478 -0.5287 -0.4472  0.1075
 5523TIP3    H116575   1.340   1.906   0.529  0.3572 -0.7021  0.5295
 5523TIP3    H216576   1.364   1.951   0.387  0.7468 -1.9494  0.1826
 5524TIP3   OH216577   5.619   4.975   2.114  0.3940 -0.2089 -0.0959
 5524TIP3    H116578   5.623   5.062   2.075  0.6669  0.9057  2.2597
 5524TIP3    H216579   5.684   4.924   2.065 -0.2501  0.6612 -1.9584
 5525TIP3   OH216580   6.332   3.353   1.133 -0.1178 -0.3250 -0.3218
 5525TIP3    H116581   6.396   3.283   1.150  1.5415  0.8553 -1.3679
 5525TIP3    H216582   6.288   3.326   1.052  1.8040  0.6179 -1.7623
 5526TIP3   OH216583   3.368   4.212   1.157  0.2843 -0.2411  0.4770
 5526TIP3    H116584   3.430   4.266   1.207  0.8326  0.2720 -0.7200
 5526TIP3    H216585   3.404   4.124   1.160  0.5569 -0.1255  0.6066
 5527TIP3   OH216586   0.238   5.581   0.871 -0.3120  0.8282 -0.6743
 5527TIP3    H116587   0.286   5.615   0.947 -0.9942  0.9808 -0.3045
 5527TIP3    H216588   0.146   5.585   0.897 -0.4330 -1.5380 -0.5158
 5528TIP3   OH216589   1.982   1.473   2.459  0.0551 -0.0613 -0.1511
 5528TIP3    H116590   1.942   1.421   2.389 -0.5557 -0.9653  0.8428
 5528TIP3    H216591   1.955   1.563   2.440 -0.4981 -0.3583 -0.8142
 5529TIP3   OH216592   1.694   4.459   1.602  0.0665 -0.5185  0.0720
 5529TIP3    H116593   1.615   4.511   1.591  0.4858  0.0546 -0.2432
 5529TIP3    H216594   1.765   4.523   1.608  0.7184 -1.0614 -1.3695
 5530TIP3   OH216595   2.744   4.178   3.524  0.0991 -0.4191 -0.1493
 5530TIP3    H116596   2.683   4.246   3.494 -1.4504 -1.0183  1.4602
 5530TIP3    H216597   2.699   4.095   3.504  0.7410 -0.9010  0.3669
 5531TIP3   OH216598   0.697   4.425   5.123 -0.2968 -0.7489 -0.1109
 5531TIP3    H116599   0.705   4.393   5.213 -2.9432 -1.2356  0.0346
 5531TIP3    H216600   0.756   4.369   5.073  2.4440  0.5259  1.4302
 5532TIP3   OH216601   3.945   2.148   3.574  0.2500 -0.5201 -0.0050
 5532TIP3    H116602   4.015   2.212   3.568  0.4408 -0.6658  0.6696
 5532TIP3    H216603   3.980   2.069   3.533  0.3285 -0.4641 -0.0442
 5533TIP3   OH216604   4.053   3.596   1.385 -0.0763  0.2884 -0.5814
 5533TIP3    H116605   4.009   3.521   1.426  1.4120 -0.4189 -0.2131
 5533TIP3    H216606   4.001   3.672   1.411  0.7803 -0.1253  2.6767
 5534TIP3   OH216607   1.144   1.420   3.298 -0.0932 -0.7315 -0.0907
 5534TIP3    H116608   1.168   1.406   3.207  0.8321 -2.5115  0.3742
 5534TIP3    H216609   1.227   1.420   3.346 -0.5644  0.1325  0.7655
 5535TIP3   OH216610   5.727   4.168   0.508  0.3073  0.4321 -0.0642
 5535TIP3    H116611   5.796   4.106   0.482 -1.2821 -2.3697  1.8575
 5535TIP3    H216612   5.660   4.159   0.441 -0.4024 -0.8240  0.7919
 5536TIP3   OH216613   1.456   1.264   0.213 -0.5807 -0.1872 -0.3983
 5536TIP3    H116614   1.378   1.293   0.260  0.0380 -0.5366  0.8957
 5536TIP3    H216615   1.527   1.316   0.251 -0.1081 -0.2712 -1.1594
 5537TIP3   OH216616   3.647   0.830   3.631 -0.0763 -0.4129 -0.2575
 5537TIP3    H116617   3.585   0.903   3.635 -2.1512 -2.1113  0.5372
 5537TIP3    H216618   3.695   0.843   3.550  1.2217  3.0030  0.8780
 5538TIP3   OH216619   3.079   0.395   0.855  0.0785 -0.5216 -0.0989
 5538TIP3    H116620   3.161   0.423   0.895  0.6925 -2.2047 -0.0964
 5538TIP3    H216621   3.102   0.376   0.764  0.2226 -2.9729  0.3855
 5539TIP3   OH216622   2.146   2.985   4.870  0.1580 -0.3528  0.1919
 5539TIP3    H116623   2.053   2.987   4.848 -0.3031  1.2694  2.0403
 5539TIP3    H216624   2.162   2.894   4.895 -1.5226 -0.1992  2.0638
 5540TIP3   OH216625   6.275   4.194   4.603 -0.2221 -0.4697 -0.3121
 5540TIP3    H116626   6.233   4.274   4.635 -0.3811 -0.1055 -1.3963
 5540TIP3    H216627   6.288   4.141   4.681 -0.8323  0.2857  0.3170
 5541TIP3   OH216628   4.640   0.338   2.265  0.1578  0.1793  0.0863
 5541TIP3    H116629   4.671   0.362   2.353  1.6951 -2.2020  0.2725
 5541TIP3    H216630   4.715   0.355   2.208 -0.5314  0.8495 -0.6490
 5542TIP3   OH216631   1.151   1.946   1.795  0.2434  0.1560 -0.1692
 5542TIP3    H116632   1.152   1.861   1.750 -1.7327 -0.9253  1.6344
 5542TIP3    H216633   1.101   1.930   1.875 -1.2430  3.3208 -0.3122
 5543TIP3   OH216634   0.245   4.669   1.216  0.5332  0.2337  0.0239
 5543TIP3    H116635   0.192   4.727   1.271  0.8890  0.4839  0.1073
 5543TIP3    H216636   0.214   4.685   1.127  0.4002  0.3080  0.0832
 5544TIP3   OH216637   5.179   2.281   3.079 -0.1379 -0.3064  0.3411
 5544TIP3    H116638   5.187   2.252   3.170  1.9545 -2.7964 -0.4883
 5544TIP3    H216639   5.129   2.212   3.036 -2.7772  1.7696 -0.1206
 5545TIP3   OH216640   4.222   1.499   3.916 -0.0900 -0.5423  0.5194
 5545TIP3    H116641   4.264   1.413   3.928 -1.0227 -0.8444  1.8586
 5545TIP3    H216642   4.133   1.486   3.949 -1.1447  0.1928 -1.8357
 5546TIP3   OH216643   1.940   3.957   2.294 -0.0019  0.3020  0.7502
 5546TIP3    H116644   1.990   3.887   2.252 -0.8481 -0.4651  0.9882
 5546TIP3    H216645   1.984   3.973   2.377 -0.1795 -0.4117  0.9873
 5547TIP3   OH216646   1.982   2.169   2.911 -0.2033 -0.1203 -0.4524
 5547TIP3    H116647   2.040   2.122   2.970  0.4526  0.3071 -0.7471
 5547TIP3    H216648   1.908   2.194   2.966  1.4437  2.3056  0.8433
 5548TIP3   OH216649   0.175   3.219   4.210  0.0434  0.2579 -0.1693
 5548TIP3    H116650   0.122   3.242   4.286 -1.3741 -1.4444 -0.5760
 5548TIP3    H216651   0.216   3.136   4.234  0.7241  0.4199 -0.7364
 5549TIP3   OH216652   1.371   0.173   4.910 -0.4651 -0.0466  0.2770
 5549TIP3    H116653   1.335   0.248   4.862 -0.1271  0.6629  1.0923
 5549TIP3    H216654   1.428   0.129   4.847 -0.9122  0.1931 -0.3077
 5550TIP3   OH216655   3.907   4.164   1.846  0.1300  0.7393 -0.3256
 5550TIP3    H116656   3.888   4.082   1.890  2.5425  0.3399  0.1035
 5550TIP3    H216657   3.833   4.178   1.788 -1.3416 -0.6312  1.1323
 5551TIP3   OH216658   5.365   2.576   4.031  0.2069  0.0461 -0.0355
 5551TIP3    H116659   5.342   2.591   4.122  0.4272 -2.5040  0.5046
 5551TIP3    H216660   5.281   2.582   3.984 -0.3017 -0.9466  0.7069
 5552TIP3   OH216661   0.327   1.170   2.276 -0.6558  0.2317 -0.2247
 5552TIP3    H116662   0.375   1.247   2.246 -0.6682  0.3054 -0.0559
 5552TIP3    H216663   0.393   1.100   2.277 -1.0115 -0.1753 -2.0010
 5553TIP3   OH216664   3.162   4.599   0.511 -0.0093  0.4228 -0.3741
 5553TIP3    H116665   3.220   4.666   0.547 -0.2001  1.4630 -1.8951
 5553TIP3    H216666   3.105   4.575   0.584  0.7946  1.0885  0.5075
 5554TIP3   OH216667   1.436   4.711   1.770 -0.1220  0.4636 -0.0576
 5554TIP3    H116668   1.421   4.687   1.679 -1.0589  0.5852  0.0580
 5554TIP3    H216669   1.454   4.805   1.768 -0.4774  0.5308 -0.0806
 5555TIP3   OH216670   5.338   5.202   3.579  0.4630 -0.1093 -0.2928
 5555TIP3    H116671   5.421   5.249   3.581  1.0355 -1.0579 -1.3936
 5555TIP3    H216672   5.293   5.235   3.501 -0.5205  0.8840  0.6434
 5556TIP3   OH216673   5.824   5.028   3.418 -0.9716  0.2461  0.4658
 5556TIP3    H116674   5.831   5.092   3.348 -0.1840 -1.3449 -0.9783
 5556TIP3    H216675   5.809   5.080   3.497 -2.3325  2.0620 -0.9160
 5557TIP3   OH216676   2.023   1.888   0.124 -0.1629 -0.5656  0.2506
 5557TIP3    H116677   1.951   1.863   0.183  1.4662  0.0736  2.6720
 5557TIP3    H216678   2.060   1.966   0.165  0.6745  0.3034 -2.0531
 5558TIP3   OH216679   0.270   5.553   4.753 -0.1057  0.2065  0.2831
 5558TIP3    H116680   0.210   5.575   4.824 -1.2935 -0.5420 -0.4482
 5558TIP3    H216681   0.355   5.543   4.795 -0.4017  1.6779  1.2915
 5559TIP3   OH216682   2.917   4.282   4.438  0.0698 -0.0659 -0.4072
 5559TIP3    H116683   3.011   4.268   4.439 -0.1758 -2.6653  3.0967
 5559TIP3    H216684   2.904   4.364   4.484  0.5805 -0.1451 -0.1197
 5560TIP3   OH216685   2.848   1.733   1.480 -0.1858  0.5622 -0.6059
 5560TIP3    H116686   2.867   1.678   1.555 -0.1032 -1.2480 -1.8976
 5560TIP3    H216687   2.909   1.704   1.412 -1.0899  1.2892 -1.7696
 5561TIP3   OH216688   3.967   2.361   4.228 -0.1749 -0.1691  0.3203
 5561TIP3    H116689   3.886   2.313   4.210 -0.6641  1.3408 -1.9802
 5561TIP3    H216690   4.026   2.336   4.158  0.7445  0.0945  0.9792
 5562TIP3   OH216691   5.977   3.154   0.079 -0.8514  0.2093  0.6555
 5562TIP3    H116692   5.923   3.075   0.084 -0.1061 -0.4354 -0.8306
 5562TIP3    H216693   6.049   3.136   0.141 -0.0087 -0.8677 -0.5805
 5563TIP3   OH216694   1.524   5.107   4.920 -0.0261  0.1819  0.3702
 5563TIP3    H116695   1.543   5.051   4.846  1.9664  0.1860  0.8192
 5563TIP3    H216696   1.585   5.180   4.912 -1.7113  1.7048  0.4772
 5564TIP3   OH216697   0.240   2.875   2.690  0.2111 -0.2525  1.1181
 5564TIP3    H116698   0.270   2.795   2.733  2.7014  1.0356  1.9962
 5564TIP3    H216699   0.252   2.857   2.596 -2.2687 -1.9452  1.0284
 5565TIP3   OH216700   5.689   0.566   4.375 -0.0182 -1.1467  0.2079
 5565TIP3    H116701   5.745   0.535   4.446  1.5753 -2.5102 -1.5406
 5565TIP3    H216702   5.750   0.610   4.315 -1.6472  2.1243  0.7404
 5566TIP3   OH216703   3.894   5.951   2.967 -0.0369 -0.1143 -0.0687
 5566TIP3    H116704   3.823   5.999   3.011  0.3792  2.0237 -1.5663
 5566TIP3    H216705   3.967   5.955   3.028  0.0354  1.3913 -0.2021
 5567TIP3   OH216706   3.685   4.265   1.399 -0.6107  0.3421  0.0291
 5567TIP3    H116707   3.703   4.307   1.484 -1.0269 -0.4647  0.5365
 5567TIP3    H216708   3.599   4.300   1.373 -1.8967 -1.5570  1.3987
 5568TIP3   OH216709   4.072   0.976   0.262 -0.3649  0.1329 -0.4294
 5568TIP3    H116710   4.056   1.011   0.175 -0.9640  2.8143  0.6797
 5568TIP3    H216711   4.092   1.052   0.316 -2.5197 -1.0865  2.3505
 5569TIP3   OH216712   4.452   4.600   4.554 -0.5872 -0.1344  0.1348
 5569TIP3    H116713   4.404   4.673   4.594 -2.0685 -0.4872 -0.9228
 5569TIP3    H216714   4.439   4.613   4.459  2.4956  0.4742 -0.3076
 5570TIP3   OH216715   5.563   2.560   1.917  0.2599  0.5671  0.4590
 5570TIP3    H116716   5.637   2.540   1.975  0.2072 -1.5059 -0.0933
 5570TIP3    H216717   5.599   2.552   1.829 -0.8061 -1.6850  0.1485
 5571TIP3   OH216718   6.126   1.999   1.542 -0.3088  0.3086  0.5073
 5571TIP3    H116719   6.167   2.057   1.477 -0.6012 -1.4679 -1.3847
 5571TIP3    H216720   6.032   2.008   1.526 -0.3381 -1.1168 -0.2710
 5572TIP3   OH216721   5.550   4.424   0.593  0.4108 -0.3422 -0.2301
 5572TIP3    H116722   5.586   4.511   0.609  1.0049 -0.5107 -0.6101
 5572TIP3    H216723   5.626   4.371   0.571 -0.0134 -0.8349 -0.5181
 5573TIP3   OH216724   4.411   5.198   3.452 -0.1195  0.2041  0.3058
 5573TIP3    H116725   4.432   5.205   3.545 -1.4582  0.0982  0.6421
 5573TIP3    H216726   4.478   5.249   3.408  1.6083 -1.2064  1.1743
 5574TIP3   OH216727   3.721   4.076   3.513 -0.5338 -0.1886  0.2985
 5574TIP3    H116728   3.776   4.072   3.434 -0.1148 -1.5837  0.6411
 5574TIP3    H216729   3.682   4.163   3.509 -0.4635 -0.1894 -1.4088
 5575TIP3   OH216730   0.090   4.163   1.490 -0.5025 -0.2244  0.7692
 5575TIP3    H116731   0.072   4.143   1.582 -2.3821  0.6262  0.6300
 5575TIP3    H216732   0.065   4.084   1.443 -0.0602 -0.4659  0.9366
 5576TIP3   OH216733   1.551   5.595   0.374 -0.3833  0.6619 -0.1336
 5576TIP3    H116734   1.562   5.663   0.307  2.5931 -0.7474 -1.2109
 5576TIP3    H216735   1.633   5.596   0.423  0.5436 -3.1413 -1.2615
 5577TIP3   OH216736   2.258   2.198   4.308  0.4252  0.1442 -0.2147
 5577TIP3    H116737   2.270   2.263   4.377  1.2208  0.4076 -0.5927
 5577TIP3    H216738   2.344   2.190   4.267  0.7668 -2.3653  0.8703
 5578TIP3   OH216739   4.580   0.622   0.395  0.0770 -0.1623 -0.3678
 5578TIP3    H116740   4.668   0.615   0.359  0.1487  0.0445 -0.2359
 5578TIP3    H216741   4.542   0.698   0.351 -0.4612 -0.9559 -1.3089
 5579TIP3   OH216742   2.748   4.375   0.102 -0.1019 -0.5184  0.2088
 5579TIP3    H116743   2.706   4.453   0.067 -0.2003  0.0911  1.6318
 5579TIP3    H216744   2.824   4.362   0.045  0.7591  1.5033  0.7928
 5580TIP3   OH216745   3.639   0.196   3.724 -0.3845 -0.5037  0.5040
 5580TIP3    H116746   3.679   0.109   3.724 -0.8097 -0.7015  0.6853
 5580TIP3    H216747   3.704   0.252   3.681 -0.9423 -1.3102 -1.5236
 5581TIP3   OH216748   0.225   3.356   1.328  0.1442 -0.1481  0.5906
 5581TIP3    H116749   0.224   3.297   1.403  0.6914 -0.2995  0.4804
 5581TIP3    H216750   0.272   3.434   1.358 -0.7543  0.3280  0.8005
 5582TIP3   OH216751   5.954   5.439   1.492  0.4250 -0.1305 -0.0021
 5582TIP3    H116752   5.884   5.464   1.431  0.1150 -3.8279 -1.4465
 5582TIP3    H216753   5.914   5.444   1.578 -0.2686  1.8233 -0.4003
 5583TIP3   OH216754   2.382   4.797   2.430  0.0637  0.0967  0.0606
 5583TIP3    H116755   2.476   4.788   2.415 -0.1223 -0.5988 -0.8079
 5583TIP3    H216756   2.366   4.747   2.510  0.5266  0.8031  0.6103
 5584TIP3   OH216757   4.831   4.496   2.461 -0.0413 -0.4338  0.3166
 5584TIP3    H116758   4.900   4.430   2.467 -0.0109 -0.2780  2.5815
 5584TIP3    H216759   4.869   4.566   2.408  0.8808 -1.0885  0.0909
 5585TIP3   OH216760   3.889   2.482   1.172  0.0875  0.6676 -0.4392
 5585TIP3    H116761   3.918   2.555   1.117  1.3952  1.8088  1.6326
 5585TIP3    H216762   3.839   2.523   1.243 -0.3023 -0.5836  0.0448
 5586TIP3   OH216763   1.818   4.538   2.711  0.1017  0.3988 -0.2438
 5586TIP3    H116764   1.805   4.460   2.657  1.3605  0.5218 -0.7634
 5586TIP3    H216765   1.879   4.509   2.779 -1.8346  0.1134  1.4548
 5587TIP3   OH216766   3.480   2.918   2.211  0.1384  0.2666 -0.0615
 5587TIP3    H116767   3.575   2.917   2.218  0.2316 -0.3141 -1.2376
 5587TIP3    H216768   3.451   2.851   2.274  0.5635 -0.2393 -0.3933
 5588TIP3   OH216769   6.215   4.187   1.702  0.6021  0.2011 -0.4196
 5588TIP3    H116770   6.153   4.180   1.775  0.4245 -1.8900 -0.7090
 5588TIP3    H216771   6.296   4.218   1.742  0.4182 -0.6279  0.6359
 5589TIP3   OH216772   5.282   0.114   0.528  0.3281 -0.1730  0.1228
 5589TIP3    H116773   5.360   0.068   0.499  0.1972  0.8970 -2.2246
 5589TIP3    H216774   5.305   0.207   0.521 -1.1861  0.1721 -0.9191
 5590TIP3   OH216775   1.216   5.296   2.020 -0.1738 -0.3783 -0.3168
 5590TIP3    H116776   1.179   5.283   1.932  1.6091  0.2693 -1.2101
 5590TIP3    H216777   1.253   5.211   2.043 -0.0574 -0.3667 -0.4647
 5591TIP3   OH216778   4.997   1.934   1.942  0.2175 -0.3778 -0.6598
 5591TIP3    H116779   4.931   1.880   1.985 -0.5669  0.5141 -0.7226
 5591TIP3    H216780   5.071   1.874   1.927 -0.3604 -1.2488 -0.1076
 5592TIP3   OH216781   2.101   4.703   4.720 -0.0742 -0.5599 -0.2342
 5592TIP3    H116782   2.057   4.627   4.682  0.7675 -0.4419 -1.4707
 5592TIP3    H216783   2.056   4.778   4.682  0.5473 -0.4384 -0.7273
 5593TIP3   OH216784   0.831   2.388   1.089 -0.3621  0.3180  0.4571
 5593TIP3    H116785   0.841   2.483   1.096  0.3123  0.3550 -0.7255
 5593TIP3    H216786   0.919   2.357   1.067 -0.5564 -0.5964  0.9597
 5594TIP3   OH216787   1.698   5.183   3.668  0.4945 -0.3698  0.9187
 5594TIP3    H116788   1.724   5.210   3.756 -0.4754  0.9963  0.8016
 5594TIP3    H216789   1.781   5.175   3.620  0.9850 -0.5223  1.7737
 5595TIP3   OH216790   0.152   1.790   3.180  0.2301 -0.2095  0.4518
 5595TIP3    H116791   0.110   1.711   3.213 -1.2010 -0.1204 -1.0617
 5595TIP3    H216792   0.150   1.781   3.085 -0.0291  1.6805  0.2395
 5596TIP3   OH216793   3.527   3.170   0.778  0.0347 -0.2558  0.0653
 5596TIP3    H116794   3.619   3.170   0.754 -0.0282  0.0800 -0.1823
 5596TIP3    H216795   3.489   3.242   0.728  0.4715  2.5708  3.4538
 5597TIP3   OH216796   1.701   2.419   0.838 -0.5324 -0.2474  0.0458
 5597TIP3    H116797   1.752   2.358   0.786  1.8417 -0.2840  2.1965
 5597TIP3    H216798   1.738   2.505   0.817 -0.4957 -0.1180  0.6092
 5598TIP3   OH216799   3.457   0.777   2.984  0.0440 -0.0379 -0.2561
 5598TIP3    H116800   3.480   0.774   2.891  0.2580 -1.4201 -0.1816
 5598TIP3    H216801   3.449   0.685   3.010 -0.5489  0.3295  0.9681
 5599TIP3   OH216802   2.172   5.001   0.451  0.5093  0.0473  0.4921
 5599TIP3    H116803   2.180   5.071   0.515  2.5965 -0.0512  0.3896
 5599TIP3    H216804   2.261   4.966   0.441 -0.3306 -2.1600  0.0300
 5600TIP3   OH216805   0.823   1.523   2.112 -0.7955 -0.5036 -0.1150
 5600TIP3    H116806   0.770   1.446   2.094 -1.1401 -0.9530  2.4181
 5600TIP3    H216807   0.901   1.488   2.156 -0.6553  0.5370  0.4865
 5601TIP3   OH216808   4.896   2.864   4.728  0.2640  0.7925 -0.6455
 5601TIP3    H116809   4.831   2.933   4.735 -0.0564  0.3464  1.3045
 5601TIP3    H216810   4.889   2.815   4.810  2.9897  0.6681 -0.3901
 5602TIP3   OH216811   0.097   3.114   1.094  0.3732  0.3273 -0.0202
 5602TIP3    H116812   0.184   3.083   1.118 -0.3995 -0.7458  1.5687
 5602TIP3    H216813   0.063   3.045   1.036  0.0221 -0.0350  0.6022
 5603TIP3   OH216814   2.567   0.559   1.292  0.1622  0.1402 -0.2528
 5603TIP3    H116815   2.643   0.595   1.337  0.1063  0.0997 -0.1237
 5603TIP3    H216816   2.590   0.560   1.200  0.2940  0.1885 -0.2191
 5604TIP3   OH216817   4.020   0.872   3.655  0.0578 -0.5736 -0.0082
 5604TIP3    H116818   4.069   0.954   3.663  0.1758 -0.4617 -1.5370
 5604TIP3    H216819   3.980   0.860   3.741  1.7367 -0.0228  0.8906
 5605TIP3   OH216820   3.018   0.967   2.970 -0.1848 -0.0985 -0.0421
 5605TIP3    H116821   3.061   0.889   2.934 -1.3439  1.1157 -4.6978
 5605TIP3    H216822   3.088   1.013   3.017  1.0218 -2.8296  1.0752
 5606TIP3   OH216823   0.392   2.702   4.791  0.1841 -0.2458  0.5321
 5606TIP3    H116824   0.451   2.777   4.781  0.6830 -0.6886  0.0333
 5606TIP3    H216825   0.331   2.708   4.718  0.6771 -0.7135  0.0710
 5607TIP3   OH216826   4.992   5.487   2.251 -0.8830 -0.5900  0.0779
 5607TIP3    H116827   4.971   5.481   2.157 -1.4374 -1.0836  0.2259
 5607TIP3    H216828   4.921   5.440   2.294 -0.4464 -0.6666  0.7266
 5608TIP3   OH216829   5.166   4.048   4.432 -0.1669  0.1569  0.3595
 5608TIP3    H116830   5.210   4.121   4.476  1.7185 -1.1768  0.8326
 5608TIP3    H216831   5.208   4.042   4.347  0.0931 -0.6862  0.5334
 5609TIP3   OH216832   1.462   1.910   3.549  0.3049 -0.3092 -0.0633
 5609TIP3    H116833   1.408   1.969   3.495  1.0943  0.7102  0.2283
 5609TIP3    H216834   1.497   1.847   3.486  1.0706  0.7536 -0.7559
 5610TIP3   OH216835   0.063   1.252   0.893  0.1550 -0.0046 -0.3675
 5610TIP3    H116836   0.129   1.285   0.954  0.1918 -0.6702 -0.0355
 5610TIP3    H216837  -0.015   1.238   0.947 -0.4503  1.3200 -0.8645
 5611TIP3   OH216838   5.325   5.665   4.290  0.5542  0.0427 -0.2549
 5611TIP3    H116839   5.367   5.654   4.204  3.1823  1.5135  0.7217
 5611TIP3    H216840   5.278   5.748   4.283  0.2927 -0.1173 -0.4259
 5612TIP3   OH216841   1.772   1.180   3.557  0.5907  0.9014  0.2025
 5612TIP3    H116842   1.787   1.131   3.638  2.3865  1.7126  0.3818
 5612TIP3    H216843   1.680   1.161   3.536  0.6842 -1.0498  1.2468
 5613TIP3   OH216844   0.829   3.825   3.266 -0.4876  0.4574 -0.5782
 5613TIP3    H116845   0.775   3.793   3.193 -2.3126  2.6141 -0.2889
 5613TIP3    H216846   0.897   3.877   3.224  0.8287 -1.3860 -0.8787
 5614TIP3   OH216847   4.445   1.809   1.246 -0.1484 -0.2439 -0.0381
 5614TIP3    H116848   4.509   1.822   1.316 -0.7546  0.2173  0.4485
 5614TIP3    H216849   4.369   1.771   1.291 -0.9614  1.0899 -0.2289
 5615TIP3   OH216850   2.372   5.483   3.196 -0.2888  0.1663  0.6174
 5615TIP3    H116851   2.424   5.515   3.122 -0.1744 -2.9242 -0.7859
 5615TIP3    H216852   2.430   5.421   3.240 -1.8283 -1.3620  0.5947
 5616TIP3   OH216853   2.150   4.222   4.984 -0.2537 -0.1162  0.0618
 5616TIP3    H116854   2.231   4.188   4.946  0.2573  0.9038  0.2119
 5616TIP3    H216855   2.178   4.267   5.063 -1.0762 -0.4821  0.5734
 5617TIP3   OH216856   4.111   1.901   4.022 -0.3650  0.0239  0.3456
 5617TIP3    H116857   4.117   1.815   4.064  0.3003 -0.8887 -1.5146
 5617TIP3    H216858   4.199   1.938   4.031  0.2263 -0.8474 -1.5453
 5618TIP3   OH216859   0.274   0.409   4.898  0.3875  0.0103 -0.1182
 5618TIP3    H116860   0.269   0.492   4.945  1.0513 -0.1163  0.1943
 5618TIP3    H216861   0.297   0.433   4.809 -0.0722  0.2014 -0.1862
 5619TIP3   OH216862   1.879   2.493   3.976 -0.0224  0.0947  0.6501
 5619TIP3    H116863   1.967   2.478   4.010 -0.1967 -0.0311  1.0543
 5619TIP3    H216864   1.892   2.518   3.885  0.3866 -0.5709  0.5271
 5620TIP3   OH216865   2.794   2.644   0.914  0.2712  0.2868  0.0226
 5620TIP3    H116866   2.847   2.676   0.841 -0.3598  2.5342  0.4505
 5620TIP3    H216867   2.857   2.610   0.977  1.1573  1.7133 -0.0322
 5621TIP3   OH216868   2.684   4.393   1.401 -0.1505  0.0092  0.0716
 5621TIP3    H116869   2.753   4.386   1.335 -0.0126 -0.8365  0.2889
 5621TIP3    H216870   2.614   4.337   1.367 -1.1854  1.7027 -0.6830
 5622TIP3   OH216871   2.217   5.135   0.083 -0.3685  0.0224 -0.0540
 5622TIP3    H116872   2.150   5.076   0.117  1.3703 -2.5882 -0.8238
 5622TIP3    H216873   2.192   5.149  -0.009 -0.6388  0.2677  0.0562
 5623TIP3   OH216874   6.191   0.148   3.606  0.0372  0.5045 -0.3185
 5623TIP3    H116875   6.099   0.145   3.578  0.0107 -0.3946 -0.1704
 5623TIP3    H216876   6.190   0.203   3.684 -0.6920 -0.9804  0.7674
 5624TIP3   OH216877   0.413   4.091   3.164 -0.4486 -0.0418  0.2118
 5624TIP3    H116878   0.364   4.009   3.161 -0.3554 -0.1119  0.5125
 5624TIP3    H216879   0.458   4.096   3.080  0.2243 -0.7243  0.5184
 5625TIP3   OH216880   3.075   1.106   2.693  0.3814 -0.7547 -0.2879
 5625TIP3    H116881   3.132   1.152   2.754  0.5606 -0.4756 -0.6680
 5625TIP3    H216882   3.116   1.020   2.683 -0.0133 -1.0558  0.5051
 5626TIP3   OH216883   1.847   4.262   1.096  0.1331  0.0037  0.7117
 5626TIP3    H116884   1.773   4.321   1.106 -0.2132 -0.5012  1.2604
 5626TIP3    H216885   1.892   4.291   1.017 -1.2699 -0.3540 -0.2481
 5627TIP3   OH216886   3.927   1.107   3.413  0.3045  0.3483 -0.4319
 5627TIP3    H116887   3.939   1.195   3.376 -0.9364  1.1541  0.9707
 5627TIP3    H216888   3.909   1.122   3.506 -1.2762 -1.2816 -0.4110
 5628TIP3   OH216889   4.635   4.544   3.274 -0.0083  0.3827  0.0850
 5628TIP3    H116890   4.649   4.605   3.201  0.6655  0.2632  0.1076
 5628TIP3    H216891   4.713   4.489   3.275  0.0337  0.4420  0.9560
 5629TIP3   OH216892   6.090   4.754   4.784 -0.3166 -0.0388 -0.3467
 5629TIP3    H116893   6.103   4.846   4.810 -1.7999 -0.0111  0.4225
 5629TIP3    H216894   5.998   4.750   4.758 -0.0622 -1.1544 -1.1288
 5630TIP3   OH216895   3.412   5.466   3.957 -0.2088  0.6075 -0.4202
 5630TIP3    H116896   3.398   5.485   3.864  1.1619  0.7637 -0.6231
 5630TIP3    H216897   3.463   5.541   3.989  0.8433 -0.2527  0.0103
 5631TIP3   OH216898   1.603   3.489   3.858 -0.0119  0.9253 -0.7640
 5631TIP3    H116899   1.564   3.414   3.814  1.4244 -1.5680  1.8634
 5631TIP3    H216900   1.528   3.543   3.882 -1.2949 -0.5704 -1.2019
 5632TIP3   OH216901   4.860   0.521   0.979  1.1941 -0.5097  0.7877
 5632TIP3    H116902   4.866   0.515   1.074  0.3848  1.4889  1.0187
 5632TIP3    H216903   4.919   0.593   0.956  0.1221  0.1337 -0.0294
 5633TIP3   OH216904   5.975   1.782   4.182  0.3380  0.4596  0.0314
 5633TIP3    H116905   5.942   1.863   4.143 -2.0859 -0.0597  0.7708
 5633TIP3    H216906   5.993   1.805   4.273 -1.1210  0.0649  0.4579
 5634TIP3   OH216907   3.400   5.295   0.665  0.0468 -0.2117 -0.0541
 5634TIP3    H116908   3.386   5.387   0.686 -0.3678 -0.3239  0.1808
 5634TIP3    H216909   3.364   5.247   0.740 -0.5007 -0.5856 -0.5387
 5635TIP3   OH216910   3.247   2.945   2.824  0.1819  0.0162  0.3038
 5635TIP3    H116911   3.258   2.876   2.759 -2.7134 -3.1477  2.7679
 5635TIP3    H216912   3.302   2.917   2.898 -0.7747  0.5140  1.2291
 5636TIP3   OH216913   1.605   4.939   3.864  0.5035  0.4658 -0.0189
 5636TIP3    H116914   1.572   4.885   3.936  0.2703  0.0037 -0.4677
 5636TIP3    H216915   1.680   4.985   3.901  0.0179  0.7095  0.7006
 5637TIP3   OH216916   0.243   3.969   2.798 -0.5006 -0.5271 -0.3703
 5637TIP3    H116917   0.232   4.044   2.739 -0.8714  0.7647  1.2633
 5637TIP3    H216918   0.188   3.900   2.761 -1.2115  0.4560 -1.1853
 5638TIP3   OH216919   6.122   2.809   4.792 -0.4188  0.2979 -0.1509
 5638TIP3    H116920   6.057   2.778   4.729 -1.5788 -0.6866  1.4708
 5638TIP3    H216921   6.184   2.736   4.800 -0.7884  0.0472  0.5088
 5639TIP3   OH216922   0.569   4.181   5.113  0.4007  0.2094 -0.3570
 5639TIP3    H116923   0.505   4.166   5.043  0.8267  0.2238 -0.7566
 5639TIP3    H216924   0.571   4.276   5.124 -0.9438  0.1345  0.8966
 5640TIP3   OH216925   0.241   4.498   0.826 -0.1866  0.2461  0.1209
 5640TIP3    H116926   0.301   4.446   0.879  1.7376  1.1190 -1.1192
 5640TIP3    H216927   0.250   4.462   0.737 -1.5536  0.3683 -0.0920
 5641TIP3   OH216928   5.397   0.896   1.573  0.0851  0.4542  0.2565
 5641TIP3    H116929   5.400   0.904   1.478 -0.1782 -0.5894  0.1470
 5641TIP3    H216930   5.459   0.825   1.593 -1.1863 -0.5750  0.6827
 5642TIP3   OH216931   0.381   0.714   0.489  0.0753  0.0541  0.3435
 5642TIP3    H116932   0.462   0.711   0.438  0.3516  1.2949  0.6774
 5642TIP3    H216933   0.324   0.774   0.440 -0.6568 -0.8164  0.1044
 5643TIP3   OH216934   1.880   5.148   4.504  0.4617  0.0987 -0.3568
 5643TIP3    H116935   1.818   5.218   4.483  0.2194  0.4516  1.4000
 5643TIP3    H216936   1.953   5.162   4.444 -1.1046 -0.3271 -2.4965
 5644TIP3   OH216937   2.531   2.120   2.020 -0.5420  0.7441 -0.9107
 5644TIP3    H116938   2.522   2.109   2.115  0.6784  3.5035 -0.3757
 5644TIP3    H216939   2.624   2.108   2.003 -0.8068 -0.1155 -1.8590
 5645TIP3   OH216940   5.284   2.242   1.187 -0.1659  0.3580  0.2704
 5645TIP3    H116941   5.346   2.247   1.114 -0.3086 -1.1084  0.0212
 5645TIP3    H216942   5.308   2.315   1.245  3.1266 -1.3133  1.2176
 5646TIP3   OH216943   4.092   0.885   3.004 -0.0340  0.0326  0.0758
 5646TIP3    H116944   4.089   0.974   2.969  0.2168 -0.1488 -0.4060
 5646TIP3    H216945   4.061   0.894   3.094  1.1630  0.8094  0.4312
 5647TIP3   OH216946   4.104   0.575   3.340  0.1573 -0.2136 -0.6771
 5647TIP3    H116947   4.141   0.658   3.311  2.1584 -0.4218  1.0661
 5647TIP3    H216948   4.038   0.599   3.404 -0.5403  0.0681 -1.4871
 5648TIP3   OH216949   3.679   0.356   1.549  0.1789  0.1536  0.2510
 5648TIP3    H116950   3.773   0.372   1.546 -0.1821  2.3709 -1.5328
 5648TIP3    H216951   3.653   0.387   1.636  0.6319  2.9181 -0.5070
 5649TIP3   OH216952   0.148   2.031   3.044  0.9490 -0.1909  0.2811
 5649TIP3    H116953   0.163   1.952   2.993 -0.5735 -0.0718 -0.3878
 5649TIP3    H216954   0.142   2.000   3.135 -0.7286 -1.0134 -0.0856
 5650TIP3   OH216955   0.674   1.285   0.927 -0.1615  0.5052 -0.0524
 5650TIP3    H116956   0.700   1.238   1.006  0.1360  0.2343 -0.3099
 5650TIP3    H216957   0.579   1.274   0.922 -0.1156  0.1020 -0.0066
 5651TIP3   OH216958   4.793   3.375   0.846 -0.1992  0.6328 -0.6513
 5651TIP3    H116959   4.871   3.325   0.869  0.2792  1.1423 -1.1380
 5651TIP3    H216960   4.811   3.410   0.759  0.9809  4.5058  0.9440
 5652TIP3   OH216961   3.964   1.032   4.433 -0.7782 -0.5045 -0.0660
 5652TIP3    H116962   4.051   1.064   4.456 -2.1293  1.2955  3.1207
 5652TIP3    H216963   3.916   1.111   4.407 -1.6288 -1.4111 -1.3663
 5653TIP3   OH216964   3.395   5.970   0.489 -0.2800 -0.2051  0.2923
 5653TIP3    H116965   3.390   5.953   0.395 -0.8645 -0.2441  0.3258
 5653TIP3    H216966   3.472   5.920   0.519 -0.6847 -1.0175  0.0108
 5654TIP3   OH216967   4.988   5.885   5.066  0.1926 -0.2395 -0.7252
 5654TIP3    H116968   5.045   5.887   4.989  1.3819  0.1137  0.1440
 5654TIP3    H216969   5.047   5.896   5.140 -1.0806  0.8986  0.1738
 5655TIP3   OH216970   0.562   4.585   4.056  0.1136  0.0401 -0.8040
 5655TIP3    H116971   0.583   4.647   3.986  0.3879 -0.0461 -0.7974
 5655TIP3    H216972   0.617   4.509   4.038  0.1048 -0.0249 -0.5567
 5656TIP3   OH216973   1.123   0.349   5.005 -0.0484  0.0412  0.7924
 5656TIP3    H116974   1.169   0.339   5.089  1.0830  0.3256  0.2145
 5656TIP3    H216975   1.074   0.267   4.995  0.4429 -0.3266  1.3443
 5657TIP3   OH216976   0.537   4.674   1.117  0.2341 -0.2456  0.2483
 5657TIP3    H116977   0.467   4.651   1.179  0.6733 -0.1019  0.8072
 5657TIP3    H216978   0.535   4.769   1.112  0.1805 -0.2584  0.0174
 5658TIP3   OH216979   3.972   5.300   2.229  0.1651  0.4187 -0.4394
 5658TIP3    H116980   4.013   5.267   2.308  1.1262  1.8939 -0.2822
 5658TIP3    H216981   3.887   5.256   2.225 -0.0558  0.5753  1.6085
 5659TIP3   OH216982   0.761   5.634   3.006  0.1959  0.2278 -0.2516
 5659TIP3    H116983   0.761   5.568   2.936  0.6618  1.0422 -1.0326
 5659TIP3    H216984   0.847   5.626   3.047  0.0019 -0.0995  0.1101
 5660TIP3   OH216985   3.850   4.328   4.603 -0.2393  0.3733 -0.7497
 5660TIP3    H116986   3.779   4.306   4.542 -0.3310 -1.3570 -0.0786
 5660TIP3    H216987   3.916   4.261   4.587  0.0424  0.3237  0.5464
 5661TIP3   OH216988   0.726   4.549   1.262  0.5500  0.1157  0.3579
 5661TIP3    H116989   0.787   4.512   1.198 -1.1630 -0.7497 -0.8602
 5661TIP3    H216990   0.653   4.583   1.210  1.2632  3.9122  1.5151
 5662TIP3   OH216991   3.219   1.080   4.717  0.0153 -0.0322 -0.0038
 5662TIP3    H116992   3.165   1.003   4.702  0.7707 -0.4047 -0.9240
 5662TIP3    H216993   3.211   1.131   4.636 -0.5491  0.9079  0.6298
 5663TIP3   OH216994   4.237   1.338   2.795  0.0670 -0.2375  0.0715
 5663TIP3    H116995   4.189   1.356   2.715 -0.7830 -0.8335  0.4415
 5663TIP3    H216996   4.323   1.380   2.781  0.7399 -2.1155 -2.0208
 5664TIP3   OH216997   3.452   2.816   2.968 -0.4153 -0.4851 -0.1542
 5664TIP3    H116998   3.491   2.902   2.984 -2.1636  0.1812  0.8778
 5664TIP3    H216999   3.526   2.760   2.946  1.1599  0.6569  1.8480
 5665TIP3   OH217000   1.215   1.738   4.733  0.1116 -0.4896  0.1382
 5665TIP3    H117001   1.282   1.738   4.665  0.4410  0.4152  0.4517
 5665TIP3    H217002   1.169   1.821   4.721  0.9295  0.2372  1.7342
 5666TIP3   OH217003   3.975   4.930   0.828 -0.0650  0.3762 -0.5699
 5666TIP3    H117004   3.995   5.024   0.827  1.6274  0.0427 -0.9767
 5666TIP3    H217005   4.057   4.888   0.804 -0.9296 -1.2046 -0.8701
 5667TIP3   OH217006   0.099   0.665   2.544  0.2768 -0.0156  0.1295
 5667TIP3    H117007   0.034   0.628   2.604  0.1867 -1.5566 -0.8577
 5667TIP3    H217008   0.051   0.682   2.463  0.8696 -0.1157 -0.2523
 5668TIP3   OH217009   3.374   3.268   2.644  0.2275  0.3361 -0.3040
 5668TIP3    H117010   3.338   3.179   2.643 -1.8601  1.0484  1.6862
 5668TIP3    H217011   3.297   3.324   2.631  1.2101  1.8859  0.3659
 5669TIP3   OH217012   1.488   4.615   1.507  0.3532 -0.4007  0.2009
 5669TIP3    H117013   1.465   4.696   1.461 -0.2278 -0.4440  0.4083
 5669TIP3    H217014   1.450   4.545   1.454  2.9554 -0.7603 -1.3518
 5670TIP3   OH217015   2.023   4.773   1.841  0.2426  0.3284  0.3645
 5670TIP3    H117016   2.108   4.814   1.855  0.3094 -0.5104  2.8584
 5670TIP3    H217017   2.041   4.680   1.836 -0.4984  0.1568  0.7005
 5671TIP3   OH217018   2.097   1.827   2.995 -0.5382 -0.0851 -0.5998
 5671TIP3    H117019   2.132   1.915   2.987  0.1651 -0.1887  1.0024
 5671TIP3    H217020   2.143   1.777   2.927 -0.3800  0.5910 -1.0058
 5672TIP3   OH217021   5.837   2.685   1.935 -0.0495 -0.1578 -0.1604
 5672TIP3    H117022   5.932   2.689   1.922  0.3489 -2.2668  1.4220
 5672TIP3    H217023   5.824   2.716   2.024 -0.5590 -1.6827  0.3315
 5673TIP3   OH217024   4.949   1.137   5.084 -0.0755  0.2819 -0.6642
 5673TIP3    H117025   4.998   1.211   5.119  0.9531 -1.1970  1.1560
 5673TIP3    H217026   4.918   1.089   5.161 -2.4609 -0.1178 -1.7761
 5674TIP3   OH217027   2.477   4.649   1.278 -0.5306  0.1186 -0.1295
 5674TIP3    H117028   2.409   4.632   1.344  0.5243 -2.7354  0.3804
 5674TIP3    H217029   2.539   4.708   1.321 -0.3561 -0.9384  1.1204
 5675TIP3   OH217030   6.171   0.258   2.704  0.6022 -0.3793  0.5499
 5675TIP3    H117031   6.224   0.214   2.771  2.1797  0.8357  0.1607
 5675TIP3    H217032   6.140   0.187   2.649 -0.6819 -1.4055  2.4927
 5676TIP3   OH217033   3.851   3.248   3.970 -0.2338 -0.0669 -0.4053
 5676TIP3    H117034   3.839   3.169   3.918 -1.5484  0.5044 -1.0104
 5676TIP3    H217035   3.831   3.320   3.910  1.3398  0.7676  0.0120
 5677TIP3   OH217036   6.097   0.553   1.153  0.3517  0.2800 -0.6555
 5677TIP3    H117037   6.041   0.611   1.204  2.3760  1.2572  0.5706
 5677TIP3    H217038   6.165   0.611   1.117  0.6745 -0.8698 -1.9759
 5678TIP3   OH217039   3.642   4.721   4.233  0.4970 -0.8496 -0.3860
 5678TIP3    H117040   3.644   4.772   4.153  0.4365 -0.8927 -0.4144
 5678TIP3    H217041   3.715   4.660   4.224 -0.4995 -1.9732 -1.1357
 5679TIP3   OH217042   3.315   0.430   0.975  0.1354 -0.4345  0.3828
 5679TIP3    H117043   3.388   0.458   1.030 -1.1962  0.8246  1.6074
 5679TIP3    H217044   3.264   0.371   1.030 -0.0146 -0.9455 -0.2942
 5680TIP3   OH217045   6.247   4.516   2.550 -0.1641 -0.5394  0.2458
 5680TIP3    H117046   6.260   4.523   2.456  2.7480  3.3693  0.7011
 5680TIP3    H217047   6.167   4.566   2.566  1.8583  3.1327  0.0500
 5681TIP3   OH217048   6.313   3.239   2.805  0.0923 -0.0538 -0.0219
 5681TIP3    H117049   6.264   3.321   2.806 -1.6550 -1.0436  0.1998
 5681TIP3    H217050   6.317   3.213   2.897 -0.2432 -0.6979 -0.1852
 5682TIP3   OH217051   6.164   3.022   4.063 -0.2468  0.3724 -0.1424
 5682TIP3    H117052   6.166   2.970   3.982 -0.7478  0.3373 -0.1377
 5682TIP3    H217053   6.216   3.100   4.043  2.3449 -1.0612  0.5348
 5683TIP3   OH217054   1.556   4.876   3.581 -0.2286  0.5071  0.1702
 5683TIP3    H117055   1.601   4.881   3.665  0.4684  2.3723 -0.2696
 5683TIP3    H217056   1.501   4.954   3.578 -0.0686  0.5913 -1.1960
 5684TIP3   OH217057   5.065   1.571   2.510 -0.5009  0.1656  0.6565
 5684TIP3    H117058   5.115   1.523   2.575 -0.8081 -0.7338  0.2374
 5684TIP3    H217059   4.992   1.609   2.560 -1.3613 -1.4371  0.6735
 5685TIP3   OH217060   5.071   0.704   5.134  0.3526 -0.2753  0.4329
 5685TIP3    H117061   5.087   0.642   5.205  4.4543 -0.0555 -0.0974
 5685TIP3    H217062   5.149   0.700   5.080 -1.2126  2.0070 -2.2622
 5686TIP3   OH217063   4.897   4.734   1.824 -0.0830  1.0275  0.2998
 5686TIP3    H117064   4.964   4.800   1.839 -1.0653  2.7671 -2.3368
 5686TIP3    H217065   4.903   4.714   1.731  0.7925 -3.4280  1.0389
 5687TIP3   OH217066   1.768   0.222   0.630 -0.4696 -0.4419 -0.6540
 5687TIP3    H117067   1.700   0.155   0.642 -1.0236  0.1459 -0.4602
 5687TIP3    H217068   1.754   0.283   0.702  0.1951 -0.2467 -0.6831
 5688TIP3   OH217069   5.510   4.397   2.421  0.5265  0.3766 -0.3461
 5688TIP3    H117070   5.576   4.364   2.482 -0.2174 -1.1575 -0.3179
 5688TIP3    H217071   5.484   4.320   2.370 -1.8471  0.7221  0.2178
 5689TIP3   OH217072   5.349   1.905   1.330 -0.3597 -0.7761  0.0322
 5689TIP3    H117073   5.335   1.882   1.238  1.1281 -0.6003 -0.2512
 5689TIP3    H217074   5.269   1.952   1.355 -1.1733 -1.6276 -0.8958
 5690TIP3   OH217075   3.294   4.574   0.802  0.2059  0.2782  0.1718
 5690TIP3    H117076   3.383   4.609   0.801 -0.4371  2.0780  0.8264
 5690TIP3    H217077   3.285   4.533   0.888  0.4628 -0.0638  0.0343
 5691TIP3   OH217078   2.250   1.568   1.669 -0.4350  0.8130  0.2343
 5691TIP3    H117079   2.237   1.508   1.742  1.7117 -0.3980 -0.2796
 5691TIP3    H217080   2.290   1.514   1.600  0.6357  2.5884 -0.6386
 5692TIP3   OH217081   1.804   5.196   0.889  0.3046 -0.3683  0.1482
 5692TIP3    H117082   1.740   5.263   0.913 -0.2023 -0.5816 -0.5700
 5692TIP3    H217083   1.879   5.212   0.947 -0.2830  0.0656  0.7986
 5693TIP3   OH217084   4.913   0.991   0.300  0.5782  0.1430 -0.1623
 5693TIP3    H117085   4.998   1.035   0.294  0.8624 -0.3732 -0.0260
 5693TIP3    H217086   4.926   0.908   0.255  0.6858 -0.7383  1.4295
 5694TIP3   OH217087   2.460   5.282   1.422  0.4011  0.1631  0.1884
 5694TIP3    H117088   2.410   5.356   1.458 -2.8294 -0.8208 -1.7703
 5694TIP3    H217089   2.485   5.312   1.334 -0.2175 -0.7085 -0.3032
 5695TIP3   OH217090  -0.009   3.244   1.454 -0.0727 -0.0185  0.0168
 5695TIP3    H117091   0.025   3.307   1.390  0.0089  1.3547  1.3523
 5695TIP3    H217092   0.024   3.276   1.538 -0.8057 -1.3402  0.8348
 5696TIP3   OH217093   2.385   1.283   0.813 -0.2637  0.0289  0.7185
 5696TIP3    H117094   2.374   1.189   0.827 -0.5054  0.0600  0.7357
 5696TIP3    H217095   2.472   1.302   0.849 -0.0438 -0.2604  0.3430
 5697TIP3   OH217096   5.875   2.232   1.526 -0.0706  0.3407  0.1240
 5697TIP3    H117097   5.840   2.265   1.608  1.5026 -0.6284  1.2368
 5697TIP3    H217098   5.841   2.142   1.519  0.8022 -0.0176  0.3688
 5698TIP3   OH217099   5.727   1.036   1.645 -0.0457 -0.4135  0.5956
 5698TIP3    H117100   5.635   1.049   1.667  0.0246  1.1715  0.0861
 5698TIP3    H217101   5.725   0.996   1.558 -0.2523 -0.6463  0.7059
 5699TIP3   OH217102   4.189   5.424   0.337 -0.2835 -1.0661 -0.3074
 5699TIP3    H117103   4.105   5.449   0.298  0.4731  0.9577 -0.7549
 5699TIP3    H217104   4.224   5.357   0.278 -1.0687 -1.0966 -0.7504
 5700TIP3   OH217105   4.972   3.361   0.461  0.5959 -1.0110 -0.0767
 5700TIP3    H117106   4.877   3.363   0.461  0.5611  0.4514  1.6016
 5700TIP3    H217107   4.997   3.396   0.547  2.6256  2.2362 -1.7625
 5701TIP3   OH217108   5.978   0.575   4.843  0.4666  0.0343 -0.5358
 5701TIP3    H117109   5.982   0.665   4.810 -0.8477 -0.0676 -1.0511
 5701TIP3    H217110   5.949   0.584   4.934  1.6060  0.1832 -0.1738
 5702TIP3   OH217111   5.366   4.318   0.035 -0.2105  0.4184  0.5874
 5702TIP3    H117112   5.424   4.393   0.028  1.5555 -1.0142 -1.3549
 5702TIP3    H217113   5.336   4.319   0.126  1.6694  2.0632  1.2552
 5703TIP3   OH217114   3.744   3.331   1.279 -0.5290  0.0684  0.2659
 5703TIP3    H117115   3.772   3.418   1.250 -0.7815  0.4307  1.0662
 5703TIP3    H217116   3.826   3.283   1.293 -0.2418  1.0605  2.3949
 5704TIP3   OH217117   4.873   2.361   3.084 -0.0188 -0.2833  0.3066
 5704TIP3    H117118   4.926   2.422   3.136  0.0342  0.4496 -0.5758
 5704TIP3    H217119   4.938   2.306   3.040 -0.0620 -2.5052  2.7536
 5705TIP3   OH217120   0.487   0.469   4.321  0.1900 -0.0060  0.3537
 5705TIP3    H117121   0.506   0.375   4.320 -0.6368 -0.2047  1.3739
 5705TIP3    H217122   0.471   0.491   4.229 -1.2349 -1.2291  0.2678
 5706TIP3   OH217123   1.101   4.267   2.338  0.4827 -0.1885 -0.2205
 5706TIP3    H117124   1.082   4.348   2.290  1.2327 -0.7422 -1.4926
 5706TIP3    H217125   1.190   4.279   2.371  0.9576 -0.8509 -1.2170
 5707TIP3   OH217126   0.883   1.992   1.042 -0.3947 -0.0765  0.0700
 5707TIP3    H117127   0.854   1.973   0.953 -1.1986  0.7285  0.1464
 5707TIP3    H217128   0.861   1.912   1.091  1.7282 -1.2712 -0.7762
 5708TIP3   OH217129   4.037   3.685   3.878 -0.0205 -0.1197 -0.6205
 5708TIP3    H117130   4.028   3.775   3.845 -3.6891  0.1985  0.7426
 5708TIP3    H217131   4.084   3.639   3.808 -0.1422  2.3100 -2.4706
 5709TIP3   OH217132   4.288   5.335   3.879  0.2179  0.3156  0.2981
 5709TIP3    H117133   4.365   5.392   3.871  1.7359 -1.6140  0.3334
 5709TIP3    H217134   4.324   5.250   3.905 -2.0672 -0.3612  1.5227
 5710TIP3   OH217135   0.618   3.824   0.067 -0.2412 -0.1811 -0.2922
 5710TIP3    H117136   0.697   3.793   0.024 -0.2997  0.8004 -1.1336
 5710TIP3    H217137   0.547   3.793   0.011 -0.4148 -0.2296 -0.0509
 5711TIP3   OH217138   3.471   0.849   1.174  0.3041 -0.4767 -0.3432
 5711TIP3    H117139   3.556   0.890   1.158 -0.5583  1.7080  0.3380
 5711TIP3    H217140   3.432   0.839   1.087  0.4855  0.3317 -0.5273
 5712TIP3   OH217141   0.312   3.841   0.179 -0.5542 -0.0657 -0.5679
 5712TIP3    H117142   0.307   3.933   0.152 -1.3417  0.3748  0.9729
 5712TIP3    H217143   0.395   3.834   0.225 -0.6815 -0.0177 -0.3290
 5713TIP3   OH217144   3.024   4.819   1.385 -0.2173 -0.3910 -0.0934
 5713TIP3    H117145   3.058   4.768   1.312  1.3174 -1.1661  1.1019
 5713TIP3    H217146   3.041   4.910   1.360  1.2864 -0.6905 -0.2715
 5714TIP3   OH217147   0.130   3.265   2.419  0.8703  0.0212  0.0555
 5714TIP3    H117148   0.132   3.361   2.427  1.1820  0.0305 -0.1379
 5714TIP3    H217149   0.186   3.234   2.490 -0.7420 -0.0948  1.3425
 5715TIP3   OH217150   1.876   3.487   3.912  0.1505  0.2110  0.2904
 5715TIP3    H117151   1.894   3.534   3.993 -0.4253 -0.7389  0.9783
 5715TIP3    H217152   1.781   3.485   3.905  0.1830  1.5732 -1.1893
 5716TIP3   OH217153   6.291   3.991   4.424  0.0128 -0.3494  0.4437
 5716TIP3    H117154   6.240   4.053   4.476  0.2102  1.0425 -0.9472
 5716TIP3    H217155   6.380   3.998   4.459  0.1584  0.6231 -0.0804
 5717TIP3   OH217156   5.729   5.515   2.845 -0.0597 -0.3591  0.5085
 5717TIP3    H117157   5.641   5.537   2.815 -0.8063 -0.2574  2.5897
 5717TIP3    H217158   5.717   5.433   2.894  1.4251 -1.5941 -1.0748
 5718TIP3   OH217159   2.804   3.562   5.178  0.4196 -0.3967 -0.2584
 5718TIP3    H117160   2.825   3.530   5.090  0.8775 -0.2808 -0.1895
 5718TIP3    H217161   2.708   3.570   5.177  0.5498  2.1358 -1.6597
 5719TIP3   OH217162   6.211   3.928   3.570  0.0272 -0.4699  0.1764
 5719TIP3    H117163   6.230   3.836   3.588  2.2031 -0.0584  0.2320
 5719TIP3    H217164   6.169   3.960   3.650 -1.4332 -1.5557 -0.1117
 5720TIP3   OH217165   4.388   3.121   1.939 -0.6326  0.1716 -0.2059
 5720TIP3    H117166   4.309   3.080   1.904 -0.4546 -1.1187  0.8175
 5720TIP3    H217167   4.450   3.120   1.866 -0.6584 -1.3867 -0.2481
 5721TIP3   OH217168   2.608   0.111   5.035 -0.4112  0.3830 -0.2356
 5721TIP3    H117169   2.528   0.125   4.984  0.1222 -0.1935 -1.2563
 5721TIP3    H217170   2.639   0.025   5.007  1.2530  1.1347 -0.7894
 5722TIP3   OH217171   0.946   5.743   3.659  0.2776  0.1140  0.5352
 5722TIP3    H117172   0.873   5.723   3.600  0.4549  1.5134 -0.1780
 5722TIP3    H217173   0.905   5.746   3.746 -0.1045 -1.2672  0.4313
 5723TIP3   OH217174   5.806   5.726   2.633  0.2130 -0.1460 -0.4892
 5723TIP3    H117175   5.768   5.660   2.692 -1.1195  0.1765 -0.9589
 5723TIP3    H217176   5.732   5.761   2.585  1.0367  0.9904 -0.9785
 5724TIP3   OH217177   5.053   0.830   2.344  0.2984  0.2030 -0.3734
 5724TIP3    H117178   5.036   0.737   2.359 -0.4880  0.3620 -0.2247
 5724TIP3    H217179   4.974   0.861   2.299 -0.4824  1.2935  1.6275
 5725TIP3   OH217180   5.332   0.421   4.590 -0.4840 -0.4426  0.3147
 5725TIP3    H117181   5.300   0.348   4.644  0.0321  0.1770  1.4987
 5725TIP3    H217182   5.284   0.497   4.621  0.4429  0.0786  0.5069
 5726TIP3   OH217183   0.114   1.770   2.178 -0.1841 -0.5590  0.0742
 5726TIP3    H117184   0.198   1.787   2.221 -0.7162  1.0056  0.5265
 5726TIP3    H217185   0.138   1.753   2.087  0.7651 -1.9034  0.5400
 5727TIP3   OH217186   5.464   4.766   3.319 -0.4679 -0.1920 -0.0082
 5727TIP3    H117187   5.558   4.775   3.334 -0.7177 -0.3870  2.0788
 5727TIP3    H217188   5.448   4.811   3.236  1.3911  0.2311 -0.1794
 5728TIP3   OH217189   4.976   5.800   2.928 -0.0495  0.1845  0.6295
 5728TIP3    H117190   5.047   5.856   2.896  0.3586 -0.1960  0.8458
 5728TIP3    H217191   4.953   5.838   3.013 -0.6383  0.7651  0.2182
 5729TIP3   OH217192   6.126   1.963   0.156  0.4071  0.8564  0.1844
 5729TIP3    H117193   6.111   1.868   0.152  0.6333  0.8476 -1.1307
 5729TIP3    H217194   6.107   1.993   0.067  1.1105  1.9296  0.3835
 5730TIP3   OH217195   2.930   2.913   0.770 -0.3872 -0.2048  0.2131
 5730TIP3    H117196   2.957   2.979   0.706 -1.7367  0.1398 -0.0459
 5730TIP3    H217197   3.001   2.910   0.834 -0.7002  2.2317  0.7764
 5731TIP3   OH217198   1.665   1.728   2.674  0.0665  0.0464  0.1604
 5731TIP3    H117199   1.696   1.750   2.586  0.8720 -0.1609  0.3879
 5731TIP3    H217200   1.703   1.795   2.731 -0.4495  0.1794  0.3589
 5732TIP3   OH217201   5.658   5.039   0.471 -0.2882 -0.0513  0.0068
 5732TIP3    H117202   5.631   4.960   0.424  0.6046 -0.1200 -0.4064
 5732TIP3    H217203   5.745   5.019   0.503 -0.1634  0.6731  0.1272
 5733TIP3   OH217204   5.959   5.250   1.304 -0.3873  0.0366 -0.0858
 5733TIP3    H117205   5.956   5.301   1.384 -0.5378 -0.5367  0.2837
 5733TIP3    H217206   6.048   5.260   1.271 -0.2709  0.1104  0.2564
 5734TIP3   OH217207   1.503   4.104   1.181 -0.0681 -0.0183  0.7923
 5734TIP3    H117208   1.541   4.065   1.102  0.0266  1.1283  0.2470
 5734TIP3    H217209   1.413   4.072   1.182 -0.3771  0.7384 -0.3536
 5735TIP3   OH217210   1.592   2.160   3.706 -0.2419  0.2767  0.0497
 5735TIP3    H117211   1.527   2.176   3.637  0.5531 -1.1407 -1.0754
 5735TIP3    H217212   1.570   2.074   3.740  0.4350  0.2299  0.3814
 5736TIP3   OH217213   1.482   3.621   1.839 -0.2079  0.2663  0.0792
 5736TIP3    H117214   1.405   3.576   1.804 -0.4105  1.7456 -1.4934
 5736TIP3    H217215   1.530   3.651   1.761  1.0826  0.8387  1.0535
 5737TIP3   OH217216   0.536   1.932   0.065 -0.1994  0.3934  0.2945
 5737TIP3    H117217   0.465   1.965   0.009 -1.8159 -1.1211  1.3237
 5737TIP3    H217218   0.498   1.854   0.107  0.6980  1.7295  3.9175
 5738TIP3   OH217219   1.786   2.966   1.991 -0.4731  0.3022 -0.2621
 5738TIP3    H117220   1.830   3.003   1.914  0.9887  1.0022  0.8481
 5738TIP3    H217221   1.824   2.879   1.999 -0.6615  0.2114 -0.3652
 5739TIP3   OH217222   1.453   2.801   1.726 -0.1032  0.3751  0.3814
 5739TIP3    H117223   1.382   2.763   1.674 -0.1378  0.6300  0.2362
 5739TIP3    H217224   1.417   2.805   1.815 -1.0299  2.2499  0.0016
 5740TIP3   OH217225   1.385   3.955   4.724  0.3540  0.6165 -0.4115
 5740TIP3    H117226   1.435   3.992   4.652  2.8765  0.6505  1.2609
 5740TIP3    H217227   1.367   3.865   4.697 -0.8358  1.2906 -2.0353
 5741TIP3   OH217228   4.236   2.262   2.563  0.1155 -0.1900  0.2476
 5741TIP3    H117229   4.233   2.348   2.604 -0.5858  0.0131 -0.2112
 5741TIP3    H217230   4.224   2.280   2.470 -0.3627 -0.8102  0.1852
 5742TIP3   OH217231   3.454   2.130   4.664 -0.3942  0.1990  0.4854
 5742TIP3    H117232   3.383   2.066   4.668 -1.0446  0.7850 -1.0763
 5742TIP3    H217233   3.421   2.199   4.607  1.3716  0.5656 -0.1546
 5743TIP3   OH217234   1.015   2.204   2.637  0.3798 -0.2378 -0.1886
 5743TIP3    H117235   0.948   2.175   2.699 -0.0928 -0.6974 -0.8935
 5743TIP3    H217236   0.988   2.292   2.611 -1.6435 -1.4342 -2.6544
 5744TIP3   OH217237   2.562   3.371   3.053  0.2921 -0.1276 -0.1434
 5744TIP3    H117238   2.522   3.291   3.088  0.7308 -1.0709 -1.7238
 5744TIP3    H217239   2.649   3.344   3.024 -0.1512  0.5184 -2.1990
 5745TIP3   OH217240   5.350   1.098   3.861  0.1251 -0.2157 -0.3138
 5745TIP3    H117241   5.336   1.150   3.940 -1.5799 -3.1195  1.4601
 5745TIP3    H217242   5.435   1.056   3.876 -0.0322 -0.4863 -0.1707
 5746TIP3   OH217243   4.185   5.637   2.340  0.1526 -0.6119 -0.0147
 5746TIP3    H117244   4.272   5.659   2.373  0.1214 -0.9434  0.2980
 5746TIP3    H217245   4.200   5.568   2.276  0.2546  0.3201 -1.0206
 5747TIP3   OH217246   1.638   5.225   2.051 -0.3097  0.2015 -0.0309
 5747TIP3    H117247   1.646   5.161   2.121 -0.0686  1.0965  0.7728
 5747TIP3    H217248   1.678   5.182   1.975 -0.7035 -0.8295  0.3274
 5748TIP3   OH217249   6.170   4.159   1.261 -0.1459 -0.0126  0.1867
 5748TIP3    H117250   6.183   4.064   1.259  1.2524  0.1695 -0.2833
 5748TIP3    H217251   6.141   4.181   1.173 -0.6259 -0.0043  0.3401
 5749TIP3   OH217252   0.727   3.770   2.749  0.3171  0.4844  0.0179
 5749TIP3    H117253   0.719   3.767   2.653  1.1549 -2.6050 -0.0410
 5749TIP3    H217254   0.811   3.814   2.764  0.4549  0.4707 -0.6683
 5750TIP3   OH217255   1.717   0.463   3.426  0.9186 -0.2989 -0.0812
 5750TIP3    H117256   1.621   0.460   3.431  1.0054 -1.8225  1.1581
 5750TIP3    H217257   1.746   0.450   3.516  2.3190 -0.5376 -0.5496
 5751TIP3   OH217258   6.228   0.438   4.832  0.2711 -0.4483  0.4901
 5751TIP3    H117259   6.281   0.512   4.863 -2.0536  0.5350  2.4578
 5751TIP3    H217260   6.138   0.470   4.836 -0.6029 -2.4567 -1.5059
 5752TIP3   OH217261   1.297   1.710   0.559 -0.1635  0.6982  0.5978
 5752TIP3    H117262   1.235   1.640   0.580  0.3085  0.5724  1.6772
 5752TIP3    H217263   1.361   1.669   0.501  0.0838  0.2229  1.1865
 5753TIP3   OH217264   6.005   1.569   2.035  0.2120 -0.3860  0.4837
 5753TIP3    H117265   5.929   1.564   1.977  0.3742 -0.7960  0.3070
 5753TIP3    H217266   6.064   1.631   1.993  0.6191 -1.1696 -0.1344
 5754TIP3   OH217267   0.414   0.596   0.061 -0.1272 -0.5243 -0.2021
 5754TIP3    H117268   0.371   0.680   0.046 -0.5330 -0.6262  0.3751
 5754TIP3    H217269   0.367   0.557   0.135  0.1309 -1.2064 -0.3832
 5755TIP3   OH217270   2.940   5.423   4.040  0.4620 -0.0848  0.0078
 5755TIP3    H117271   3.024   5.382   4.056 -0.1240 -1.2772  0.1428
 5755TIP3    H217272   2.958   5.517   4.042  1.3768 -0.2507  2.3239
 5756TIP3   OH217273   6.285   4.897   2.128 -0.0876 -0.2912  0.4620
 5756TIP3    H117274   6.319   4.810   2.110  0.0447 -0.4201  1.2921
 5756TIP3    H217275   6.341   4.930   2.199 -1.0349 -0.1040  1.1392
 5757TIP3   OH217276   5.118   5.942   0.577 -0.1665  0.3474  0.3890
 5757TIP3    H117277   5.132   5.849   0.556  1.3439  1.0318 -1.9161
 5757TIP3    H217278   5.174   5.958   0.653 -0.4622 -0.5997  0.8262
 5758TIP3   OH217279   6.163   3.370   4.129 -0.3646 -0.0258  0.2970
 5758TIP3    H117280   6.102   3.438   4.101  1.5218  1.5486 -0.2611
 5758TIP3    H217281   6.207   3.343   4.048  1.5486  0.8902  0.9521
 5759TIP3   OH217282   1.742   5.472   3.927 -0.5598 -0.4957  0.3222
 5759TIP3    H117283   1.675   5.483   3.994  0.6466 -0.0384  1.4851
 5759TIP3    H217284   1.693   5.472   3.844 -1.9427  0.2995  1.1004
 5760TIP3   OH217285   1.563   3.702   1.365 -0.2651  0.1664 -0.1847
 5760TIP3    H117286   1.636   3.740   1.413  0.0386 -1.5982  0.8219
 5760TIP3    H217287   1.602   3.671   1.283 -0.2516  0.7554 -0.4088
 5761TIP3   OH217288   2.530   0.846   4.291  0.2649  0.1341 -0.3003
 5761TIP3    H117289   2.601   0.896   4.331  1.9571 -2.0537 -0.4381
 5761TIP3    H217290   2.474   0.821   4.365  2.7123 -2.8313  0.7751
 5762TIP3   OH217291   3.951   3.632   4.521 -0.4775  0.2482  0.3676
 5762TIP3    H117292   4.002   3.641   4.601 -1.5700 -1.1922  1.2839
 5762TIP3    H217293   3.894   3.556   4.537  0.3699 -1.0997 -2.3850
 5763TIP3   OH217294   0.568   1.795   4.823 -0.0737 -0.7059 -0.2727
 5763TIP3    H117295   0.560   1.782   4.729  0.3651  0.3845 -0.4780
 5763TIP3    H217296   0.485   1.763   4.859 -0.0310 -1.6401 -0.9553
 5764TIP3   OH217297   1.477   2.137   4.093 -0.1421  0.0271 -0.0889
 5764TIP3    H117298   1.488   2.043   4.080  0.5393 -0.1201  1.4059
 5764TIP3    H217299   1.388   2.146   4.127 -0.8474  0.1282 -1.8481
 5765TIP3   OH217300   6.339   5.106   0.295 -0.0045 -0.3043 -0.1978
 5765TIP3    H117301   6.336   5.199   0.318 -0.8967  0.1183 -1.8928
 5765TIP3    H217302   6.251   5.073   0.313  0.3817 -0.9068  0.6533
 5766TIP3   OH217303   2.297   1.889   1.931 -0.1012 -0.0851 -0.6519
 5766TIP3    H117304   2.371   1.863   1.986 -0.2247  0.5479 -0.1688
 5766TIP3    H217305   2.328   1.878   1.842  0.5369  0.0429 -0.4524
 5767TIP3   OH217306   4.741   5.088   3.702  0.0894  0.0399 -0.5461
 5767TIP3    H117307   4.749   5.011   3.647  1.4343 -1.6447  1.8333
 5767TIP3    H217308   4.828   5.128   3.702  0.0186  0.2130  0.0262
 5768TIP3   OH217309   4.546   4.689   4.049 -0.0065 -0.0453  0.3079
 5768TIP3    H117310   4.535   4.703   4.143  0.1690 -2.2245  0.7229
 5768TIP3    H217311   4.457   4.679   4.016 -0.0282 -0.9340  0.5868
 5769TIP3   OH217312   5.093   4.220   0.685  0.2238  0.2599  0.1098
 5769TIP3    H117313   5.008   4.263   0.681  0.2674  0.2629 -1.2081
 5769TIP3    H217314   5.156   4.292   0.688  0.2223  0.2675 -0.0398
 5770TIP3   OH217315   4.833   3.927   4.911  0.6058 -0.2335  0.0202
 5770TIP3    H117316   4.928   3.925   4.925  0.4986 -1.3826  0.6942
 5770TIP3    H217317   4.809   3.836   4.893 -0.2880  0.1411 -0.7323
 5771TIP3   OH217318   5.211   0.899   0.086  0.2801 -0.0431 -0.2954
 5771TIP3    H117319   5.143   0.961   0.060  0.6102  0.1129 -0.7942
 5771TIP3    H217320   5.239   0.929   0.173 -0.6659 -0.4323  0.1548
 5772TIP3   OH217321   4.974   1.179   4.782  0.1195 -0.4611  0.6719
 5772TIP3    H117322   4.972   1.137   4.868 -0.7906 -1.5729  0.1422
 5772TIP3    H217323   4.936   1.114   4.723 -0.9587  0.9783 -0.2791
 5773TIP3   OH217324   1.250   4.515   0.372 -0.0634  0.5720  0.4017
 5773TIP3    H117325   1.316   4.504   0.304  1.2632  1.0213  1.5514
 5773TIP3    H217326   1.190   4.441   0.360  1.9394 -1.2208  0.6901
 5774TIP3   OH217327   4.336   4.914   1.870  0.2591  0.0143 -0.5684
 5774TIP3    H117328   4.354   4.932   1.963 -0.2263  1.4466 -0.7290
 5774TIP3    H217329   4.322   5.000   1.831 -1.4989 -0.6795 -1.5724
 5775TIP3   OH217330   2.914   5.590   0.064  1.1296 -0.1702  0.2553
 5775TIP3    H117331   2.905   5.660  -0.001 -0.1906 -0.3963  0.1764
 5775TIP3    H217332   2.993   5.614   0.113 -0.2342  2.4107  1.4272
 5776TIP3   OH217333   4.226   3.176   3.611 -0.1478  0.7526  0.0579
 5776TIP3    H117334   4.193   3.088   3.595  0.8878  0.6959 -2.1643
 5776TIP3    H217335   4.192   3.199   3.698 -2.1761 -0.9879 -0.1971
 5777TIP3   OH217336   2.330   2.364   1.346 -0.2797 -0.5474  0.0535
 5777TIP3    H117337   2.321   2.298   1.277  1.1196 -1.5679  0.8033
 5777TIP3    H217338   2.421   2.360   1.373 -0.5694  0.4792  1.3333
 5778TIP3   OH217339   0.401   0.316   3.891  0.0154 -0.2123 -0.1422
 5778TIP3    H117340   0.384   0.382   3.824  2.3205  0.0910 -0.5072
 5778TIP3    H217341   0.325   0.259   3.889 -1.1526  1.3237 -1.1584
 5779TIP3   OH217342   0.404   5.599   1.868  0.6522  0.0695 -0.3313
 5779TIP3    H117343   0.355   5.613   1.949  0.2072 -2.1011 -0.1567
 5779TIP3    H217344   0.342   5.621   1.799  0.2226 -0.3467 -0.0844
 5780TIP3   OH217345   3.125   5.823   3.124  0.3244 -0.8748 -0.5071
 5780TIP3    H117346   3.217   5.838   3.144  0.9195 -3.0174 -1.2954
 5780TIP3    H217347   3.124   5.798   3.032 -1.0918 -0.5874 -0.5958
 5781TIP3   OH217348   4.775   3.136   4.220  0.3144  0.0813 -0.0073
 5781TIP3    H117349   4.771   3.210   4.280  2.7285  1.2527 -1.1530
 5781TIP3    H217350   4.726   3.164   4.143 -1.6291 -0.9088  0.7730
 5782TIP3   OH217351   1.362   2.618   3.185  0.2000 -0.2652  0.4226
 5782TIP3    H117352   1.302   2.688   3.213  0.4562 -0.5833  1.8648
 5782TIP3    H217353   1.391   2.644   3.098  0.1874  1.3579  0.8785
 5783TIP3   OH217354   3.430   5.046   4.007 -0.0099  0.0297 -0.3394
 5783TIP3    H117355   3.394   5.097   3.935 -1.7406 -3.8679 -2.5552
 5783TIP3    H217356   3.380   5.074   4.084 -2.7996 -0.0982 -1.9622
 5784TIP3   OH217357   2.805   3.115   4.281 -0.2307 -0.3064 -0.2922
 5784TIP3    H117358   2.794   3.151   4.193  1.1097  0.0113 -0.3596
 5784TIP3    H217359   2.814   3.021   4.268 -1.2349 -0.4021 -0.3648
 5785TIP3   OH217360   1.141   3.363   1.041 -0.1684 -0.1688  0.0715
 5785TIP3    H117361   1.207   3.336   0.977 -0.4732 -0.0792 -0.2823
 5785TIP3    H217362   1.190   3.412   1.107 -0.0503  0.8767 -0.7736
 5786TIP3   OH217363   5.947   2.237   2.537  0.4996 -0.8814 -0.3264
 5786TIP3    H117364   5.886   2.166   2.559  0.5939 -1.5775 -2.1476
 5786TIP3    H217365   5.892   2.314   2.530  0.1398 -1.0994  0.0301
 5787TIP3   OH217366   5.864   1.549   1.784  0.3625  0.4702 -0.5118
 5787TIP3    H117367   5.825   1.464   1.805  0.5108  0.4560 -0.2927
 5787TIP3    H217368   5.912   1.534   1.703  1.4850  0.0118  0.2202
 5788TIP3   OH217369   2.030   0.383   3.945  1.2986  0.0110  0.5162
 5788TIP3    H117370   1.951   0.352   3.989  1.1989  0.3936  0.6097
 5788TIP3    H217371   2.084   0.305   3.934  1.2908 -0.1026  1.2420
 5789TIP3   OH217372   0.563   0.263   1.192 -0.0106 -0.1441 -0.2317
 5789TIP3    H117373   0.578   0.290   1.283 -0.4496  0.1497 -0.2443
 5789TIP3    H217374   0.478   0.219   1.193 -0.6413  1.0186 -0.7222
 5790TIP3   OH217375   3.552   2.335   4.460  0.5565 -0.2438  0.1833
 5790TIP3    H117376   3.579   2.359   4.371  0.5940  1.9016  0.7253
 5790TIP3    H217377   3.607   2.260   4.482  0.8322 -0.5536 -1.4376
 5791TIP3   OH217378   5.039   3.780   0.501 -0.0738 -0.5046  0.3191
 5791TIP3    H117379   4.967   3.749   0.557  0.0058 -0.3445  0.5127
 5791TIP3    H217380   5.077   3.853   0.550 -1.2598  0.9618 -0.8071
 5792TIP3   OH217381   1.786   3.789   1.491 -0.4986  0.4131  0.3558
 5792TIP3    H117382   1.860   3.849   1.479 -0.2738  0.0088 -0.3019
 5792TIP3    H217383   1.732   3.831   1.558  0.5834  0.4673  1.2241
 5793TIP3   OH217384   3.245   5.711   4.188  0.2461 -0.0113 -0.2296
 5793TIP3    H117385   3.337   5.737   4.187  0.0862  0.5880 -0.3255
 5793TIP3    H217386   3.237   5.653   4.263  0.2990  1.5436  1.0391
 5794TIP3   OH217387   0.891   1.044   0.252  0.4392  0.6452 -0.1181
 5794TIP3    H117388   0.952   1.038   0.179  1.4224  0.2743  0.7177
 5794TIP3    H217389   0.895   0.958   0.294 -0.7074  0.5944 -0.0826
 5795TIP3   OH217390   2.532   1.655   4.635 -0.1150  0.4556  0.4615
 5795TIP3    H117391   2.487   1.574   4.658 -0.0887 -0.4764 -2.3486
 5795TIP3    H217392   2.463   1.721   4.629 -0.6202 -0.1355 -0.3477
 5796TIP3   OH217393   2.857   0.538   1.905 -0.3741 -0.0429  0.2582
 5796TIP3    H117394   2.799   0.551   1.830  0.9033 -0.1754 -0.7959
 5796TIP3    H217395   2.925   0.478   1.872 -0.5698 -1.2657  1.9559
 5797TIP3   OH217396   4.651   2.596   2.517 -0.1859 -0.1335  0.2008
 5797TIP3    H117397   4.674   2.662   2.583  1.0429  0.5973 -0.9195
 5797TIP3    H217398   4.683   2.514   2.554  0.5908  0.2826  0.4940
 5798TIP3   OH217399   4.583   5.116   4.217 -0.5260  0.0490 -0.6150
 5798TIP3    H117400   4.562   5.081   4.304  0.4244  0.5327 -0.1747
 5798TIP3    H217401   4.655   5.061   4.187 -0.3691  0.3444 -0.7815
 5799TIP3   OH217402   3.520   3.461   4.064 -0.0926 -0.2354 -0.0823
 5799TIP3    H117403   3.610   3.451   4.096  0.1093 -0.0845 -0.5937
 5799TIP3    H217404   3.490   3.543   4.102  0.5073  0.4766 -1.0853
 5800TIP3   OH217405   3.754   3.221   3.265 -0.2711 -0.7963  0.0054
 5800TIP3    H117406   3.837   3.184   3.295  0.3099  0.6061  0.2002
 5800TIP3    H217407   3.714   3.151   3.214  0.1063 -2.1844  1.5549
 5801TIP3   OH217408   5.161   3.843   2.919  0.0242  0.0129  0.6679
 5801TIP3    H117409   5.110   3.914   2.880  0.8196 -0.2747 -0.9740
 5801TIP3    H217410   5.138   3.846   3.012 -0.0203  2.3890  0.6550
 5802TIP3   OH217411   0.312   3.996   1.660  0.3645  0.1593  0.3941
 5802TIP3    H117412   0.328   3.922   1.602  2.0479 -0.4984  1.6085
 5802TIP3    H217413   0.392   4.049   1.653  0.3890  0.3318  1.6888
 5803TIP3   OH217414   1.947   2.918   2.949 -0.5223  0.6186  0.8381
 5803TIP3    H117415   1.923   2.931   3.041 -1.0730  1.5475  0.5714
 5803TIP3    H217416   1.894   2.982   2.901 -0.3099  0.0773 -0.1374
 5804TIP3   OH217417   3.547   3.569   0.232  0.6029 -0.3311  0.7004
 5804TIP3    H117418   3.534   3.661   0.253 -0.1627 -0.4920  0.9766
 5804TIP3    H217419   3.639   3.551   0.253  0.5390  0.1683  1.3998
 5805TIP3   OH217420   1.091   4.893   4.205 -0.0675 -0.4810  0.2301
 5805TIP3    H117421   1.161   4.878   4.268  1.6418 -0.3488 -1.5332
 5805TIP3    H217422   1.119   4.972   4.157 -1.3234 -0.5305 -0.6323
 5806TIP3   OH217423   6.099   0.811   2.513 -0.1989 -0.2024 -0.0345
 5806TIP3    H117424   6.114   0.736   2.571 -2.0098 -1.4677 -1.0782
 5806TIP3    H217425   6.012   0.842   2.536  1.1596  2.8040  1.5773
 5807TIP3   OH217426   5.886   0.474   1.706  0.3074 -0.1358 -0.0228
 5807TIP3    H117427   5.797   0.454   1.735 -0.4929  1.2010 -1.4471
 5807TIP3    H217428   5.875   0.543   1.641  2.5524  1.8039  1.4869
 5808TIP3   OH217429   5.523   1.911   4.072  0.1378  0.2900  0.0097
 5808TIP3    H117430   5.429   1.927   4.083  0.1206  1.0724 -1.0340
 5808TIP3    H217431   5.565   1.964   4.139 -0.1308  0.8015 -0.2222
 5809TIP3   OH217432   4.449   1.685   0.424 -0.2124  0.6281  0.1266
 5809TIP3    H117433   4.410   1.601   0.400  1.7622 -0.4325  0.4747
 5809TIP3    H217434   4.373   1.742   0.440 -1.6088 -0.5668 -1.7276
 5810TIP3   OH217435   3.598   1.204   4.123 -0.4250  0.4425 -0.1508
 5810TIP3    H117436   3.534   1.147   4.165 -0.0357  0.7944  0.9661
 5810TIP3    H217437   3.564   1.292   4.137  0.3099  0.6374  0.5119
 5811TIP3   OH217438   2.787   3.870   2.466 -0.1973 -0.6773  0.0070
 5811TIP3    H117439   2.703   3.896   2.505 -1.5908  0.2382 -3.2915
 5811TIP3    H217440   2.765   3.840   2.378  2.8988 -1.0758 -0.7554
 5812TIP3   OH217441   0.582   3.292   4.482  0.4472 -0.6919 -0.0092
 5812TIP3    H117442   0.536   3.341   4.414  0.9008  2.5045  1.7603
 5812TIP3    H217443   0.512   3.245   4.529 -0.7195  1.6960  0.8009
 5813TIP3   OH217444   0.976   3.808   4.259 -0.0176 -0.1512 -0.1429
 5813TIP3    H117445   0.995   3.844   4.345 -0.3012 -1.2893  0.4060
 5813TIP3    H217446   0.931   3.725   4.276  0.1924 -0.5417 -1.3719
 5814TIP3   OH217447   2.247   5.521   0.885 -0.0125 -0.2217 -0.0628
 5814TIP3    H117448   2.189   5.468   0.830 -0.0450 -1.7059  1.3355
 5814TIP3    H217449   2.192   5.592   0.917 -0.6472 -0.7350  0.0028
 5815TIP3   OH217450   2.843   2.463   0.101 -0.1904 -0.1365 -0.4285
 5815TIP3    H117451   2.856   2.517   0.179 -0.2644  0.3684 -0.7607
 5815TIP3    H217452   2.827   2.526   0.030  2.4907 -0.3983 -1.4098
 5816TIP3   OH217453   3.326   5.165   3.802 -0.5781  0.4625 -0.0293
 5816TIP3    H117454   3.257   5.232   3.802 -0.0093  1.0878 -1.5496
 5816TIP3    H217455   3.350   5.155   3.710  0.2460 -0.9249  0.3100
 5817TIP3   OH217456   1.799   0.046   0.996 -0.1333  0.3908  0.4474
 5817TIP3    H117457   1.826  -0.040   0.964  0.0890 -0.2047  2.1268
 5817TIP3    H217458   1.722   0.068   0.944 -0.2755 -0.8866  0.0814
 5818TIP3   OH217459   4.275   3.883   2.870 -0.2743  0.0282 -0.6191
 5818TIP3    H117460   4.193   3.903   2.825  0.7962 -0.1545 -2.7923
 5818TIP3    H217461   4.330   3.960   2.857  0.6494 -0.6839 -1.1185
 5819TIP3   OH217462   4.331   5.477   4.791 -0.7222  0.6328 -0.1040
 5819TIP3    H117463   4.321   5.385   4.763 -0.4934  0.1045  1.4590
 5819TIP3    H217464   4.268   5.487   4.862 -0.7313  1.6949 -0.2545
 5820TIP3   OH217465   0.710   4.995   2.952 -0.2793 -0.4212 -0.1117
 5820TIP3    H117466   0.770   5.037   3.013  0.3397 -1.7791  0.2569
 5820TIP3    H217467   0.728   5.036   2.868 -0.0047  0.3380  0.3016
 5821TIP3   OH217468   5.542   4.368   2.903 -0.2097 -0.0287  0.6352
 5821TIP3    H117469   5.459   4.322   2.919  0.4995 -0.5791  3.1896
 5821TIP3    H217470   5.519   4.461   2.908 -0.7220 -0.1751  1.1200
 5822TIP3   OH217471   0.388   0.464   3.661 -0.3568  0.2947  1.0240
 5822TIP3    H117472   0.455   0.464   3.593 -0.3421  0.4860  1.0363
 5822TIP3    H217473   0.353   0.553   3.660 -0.3010  0.3205  1.3211
 5823TIP3   OH217474   4.334   2.515   5.112 -0.3295  0.5588  0.0557
 5823TIP3    H117475   4.274   2.441   5.099 -0.4515  0.9211 -1.6276
 5823TIP3    H217476   4.418   2.474   5.134 -1.0977  0.0432  2.2496
 5824TIP3   OH217477   1.806   4.645   0.295 -0.3854 -0.4118 -0.2776
 5824TIP3    H117478   1.745   4.572   0.291 -0.2250 -0.6303  0.9203
 5824TIP3    H217479   1.755   4.716   0.335 -0.1063 -0.3342 -0.0564
 5825TIP3   OH217480   4.106   2.482   1.530  1.0419  0.1538 -0.3599
 5825TIP3    H117481   4.035   2.466   1.469  1.7110  1.7843 -1.6298
 5825TIP3    H217482   4.098   2.412   1.595 -3.0180  1.4369  0.8218
 5826TIP3   OH217483   0.221   5.302   1.051  0.2275 -0.1826 -0.5933
 5826TIP3    H117484   0.184   5.311   0.964 -2.5350  0.6386  0.5613
 5826TIP3    H217485   0.189   5.379   1.099  0.5203 -1.2969  1.5127
 5827TIP3   OH217486   4.409   4.679   0.819  0.4591  0.0121 -0.0650
 5827TIP3    H117487   4.409   4.626   0.899  1.2930  0.2690  0.1188
 5827TIP3    H217488   4.455   4.760   0.844  0.6673  0.1211 -0.7860
 5828TIP3   OH217489   2.735   0.288   1.425  0.2369 -0.1232 -0.3808
 5828TIP3    H117490   2.778   0.364   1.464  0.9363  0.0931 -1.5106
 5828TIP3    H217491   2.693   0.244   1.498 -2.4626  2.7487  0.0217
 5829TIP3   OH217492   0.905   5.023   2.719 -0.3525  0.3701  0.0318
 5829TIP3    H117493   0.984   5.018   2.773 -0.7323 -0.7068  0.5191
 5829TIP3    H217494   0.893   4.934   2.686 -1.7169  0.3573  0.4948
 5830TIP3   OH217495   1.924   1.265   3.336  0.5226 -0.0526 -0.9037
 5830TIP3    H117496   1.961   1.346   3.371  1.9634 -0.5887 -1.1194
 5830TIP3    H217497   1.891   1.219   3.414  4.2231 -1.5043  0.0424
 5831TIP3   OH217498   0.418   3.563   2.788  0.0901 -0.2735 -0.5721
 5831TIP3    H117499   0.399   3.606   2.704 -0.4907 -0.6510 -0.6383
 5831TIP3    H217500   0.418   3.469   2.767 -1.4559 -0.4611  0.0986
 5832TIP3   OH217501   1.477   3.466   5.129 -0.1393 -0.2707 -0.3493
 5832TIP3    H117502   1.463   3.541   5.072 -0.1415  0.4863  0.6201
 5832TIP3    H217503   1.563   3.432   5.103  0.4400  0.8471  0.0511
 5833TIP3   OH217504   1.184   5.573   2.698  0.8234  0.1123  0.2410
 5833TIP3    H117505   1.166   5.499   2.641 -0.5474  0.7712 -0.2250
 5833TIP3    H217506   1.175   5.650   2.642 -0.4593  0.7652  1.2862
 5834TIP3   OH217507   1.061   1.610   5.086 -0.6158  0.1996  0.0703
 5834TIP3    H117508   1.148   1.627   5.123 -0.4262 -1.6572  0.5496
 5834TIP3    H217509   1.060   1.661   5.005  0.6889  0.7327  0.3560
 5835TIP3   OH217510   2.693   1.472   4.953 -0.3746  0.1661  0.5183
 5835TIP3    H117511   2.751   1.482   5.029  0.3963  0.6559 -0.1096
 5835TIP3    H217512   2.684   1.561   4.919  0.7002 -0.2673 -0.9622
 5836TIP3   OH217513   6.263   1.301   1.145 -0.1691  0.4487  0.5896
 5836TIP3    H117514   6.234   1.326   1.232 -1.5221 -2.8239  1.2101
 5836TIP3    H217515   6.182   1.283   1.097  0.6235 -0.3561 -0.4950
 5837TIP3   OH217516   4.464   5.182   4.502 -0.0296 -0.2686  0.0595
 5837TIP3    H117517   4.411   5.231   4.439 -0.7342 -0.1225  0.7593
 5837TIP3    H217518   4.550   5.225   4.500 -0.4106  0.5080  0.0948
 5838TIP3   OH217519   1.107   4.058   5.005 -0.5087  0.7484  0.3770
 5838TIP3    H117520   1.127   3.979   5.056 -0.0220 -0.0341 -0.9686
 5838TIP3    H217521   1.062   4.025   4.928  1.2491  1.5938 -1.0667
 5839TIP3   OH217522   6.294   4.419   1.188  0.4770  0.2573 -0.5633
 5839TIP3    H117523   6.289   4.358   1.262  0.5616  2.2843  1.1999
 5839TIP3    H217524   6.371   4.390   1.139  2.4199  0.7019  1.9776
 5840TIP3   OH217525   2.203   5.190   3.600  0.5757 -0.3021  0.2243
 5840TIP3    H117526   2.256   5.149   3.669 -1.5096  0.1534  2.2388
 5840TIP3    H217527   2.171   5.116   3.548  4.2801 -0.5144 -2.0699
 5841TIP3   OH217528   4.658   4.058   3.139 -0.0583  0.7243  0.0880
 5841TIP3    H117529   4.624   4.144   3.114 -1.1991  0.0426 -0.8611
 5841TIP3    H217530   4.606   3.996   3.086  0.8698 -0.5291  0.5977
 5842TIP3   OH217531   4.851   1.726   4.964 -0.5399 -0.1324  0.2528
 5842TIP3    H117532   4.786   1.751   4.898  0.0455 -0.8734 -0.6515
 5842TIP3    H217533   4.927   1.698   4.912  0.1380 -0.2141  1.2628
 5843TIP3   OH217534   2.399   2.271   3.421 -0.0392  0.1193 -0.2058
 5843TIP3    H117535   2.343   2.293   3.496 -1.4826  0.6949 -1.4018
 5843TIP3    H217536   2.484   2.251   3.460 -0.8797 -0.1123  1.6239
 5844TIP3   OH217537   3.453   1.679   3.008 -0.3046  0.4879  0.1483
 5844TIP3    H117538   3.503   1.623   2.948 -1.3916 -0.2002 -0.1504
 5844TIP3    H217539   3.409   1.741   2.950 -1.3627 -0.1818  0.2233
 5845TIP3   OH217540   6.308   3.922   0.496  0.8101 -0.1698  0.1250
 5845TIP3    H117541   6.308   3.898   0.403  0.2967 -2.9253  0.7396
 5845TIP3    H217542   6.373   3.864   0.536 -0.9595 -1.0720  1.8884
 5846TIP3   OH217543   0.571   2.879   0.733  0.1598  0.3097 -0.5863
 5846TIP3    H117544   0.591   2.815   0.802 -0.5221 -0.7173 -1.3198
 5846TIP3    H217545   0.509   2.940   0.773 -0.3526 -0.3728 -0.3416
 5847TIP3   OH217546   2.339   4.365   4.781 -0.6182  1.0329  0.3972
 5847TIP3    H117547   2.362   4.447   4.738 -0.5100  1.4277  1.1847
 5847TIP3    H217548   2.269   4.389   4.842  0.4529  0.8629  1.7443
 5848TIP3   OH217549   3.982   5.402   3.495  0.2500  0.0653  0.0313
 5848TIP3    H117550   3.910   5.348   3.464  0.0333 -0.5451  1.5338
 5848TIP3    H217551   4.020   5.352   3.567  0.9361  1.2841  0.5367
 5849TIP3   OH217552   0.564   2.013   0.824 -0.2332 -0.1131  0.2120
 5849TIP3    H117553   0.630   2.082   0.815  0.3185 -0.6523  0.0816
 5849TIP3    H217554   0.558   1.999   0.919 -2.3276  1.9800  0.5041
 5850TIP3   OH217555   1.184   3.942   4.474  0.2732  0.3625  0.3449
 5850TIP3    H117556   1.183   4.017   4.534 -0.4755  0.7323 -0.1213
 5850TIP3    H217557   1.168   3.867   4.531  1.2713  0.5171  0.8516
 5851TIP3   OH217558   3.610   5.442   4.274  0.5879 -0.0433  0.0737
 5851TIP3    H117559   3.621   5.537   4.270  0.9344 -0.1000 -0.3770
 5851TIP3    H217560   3.617   5.413   4.183 -0.9012 -0.3523  0.0371
 5852TIP3   OH217561   3.709   2.800   0.006 -0.5330 -0.7682  0.3444
 5852TIP3    H117562   3.743   2.815   0.094 -0.9850 -0.8996  0.5426
 5852TIP3    H217563   3.787   2.791  -0.048 -0.2297  0.8048  0.4685
 5853TIP3   OH217564   1.602   0.054   0.802  0.0140 -0.9796  0.2993
 5853TIP3    H117565   1.580  -0.027   0.847 -0.6403 -1.3277 -0.6179
 5853TIP3    H217566   1.550   0.052   0.722  1.7089 -0.7602 -0.8612
 5854TIP3   OH217567   5.598   1.839   2.442  0.2560 -0.4571  0.5086
 5854TIP3    H117568   5.503   1.835   2.447  0.2064 -2.1831 -0.9148
 5854TIP3    H217569   5.617   1.929   2.415 -1.2106 -0.8634 -2.2525
 5855TIP3   OH217570   5.713   3.832   0.401 -0.8730  0.1215  0.3626
 5855TIP3    H117571   5.766   3.778   0.342 -1.0608  0.0208  0.2847
 5855TIP3    H217572   5.622   3.808   0.381 -1.2268  3.0061 -2.2670
 5856TIP3   OH217573   3.560   5.860   3.509  0.2454 -0.0808  0.4321
 5856TIP3    H117574   3.474   5.855   3.551  0.0295 -1.0183 -0.1019
 5856TIP3    H217575   3.620   5.879   3.581 -0.6387  2.8558  0.5145
 5857TIP3   OH217576   5.824   3.637   2.325  0.5132  0.1810 -0.8301
 5857TIP3    H117577   5.791   3.723   2.354 -0.1134  0.4296 -2.2198
 5857TIP3    H217578   5.899   3.658   2.270  0.4701 -0.1749 -1.0226
 5858TIP3   OH217579   5.363   0.682   0.401 -0.2399 -0.4904  0.5021
 5858TIP3    H117580   5.441   0.648   0.445  0.5403  0.4404 -0.1279
 5858TIP3    H217581   5.336   0.611   0.343  1.0479 -0.2644 -0.4023
 5859TIP3   OH217582   5.799   5.212   1.079  0.0175 -0.2893 -0.0136
 5859TIP3    H117583   5.854   5.172   1.011  0.9047 -1.2736  1.2182
 5859TIP3    H217584   5.855   5.213   1.157 -0.9090  0.9665  0.6698
 5860TIP3   OH217585   5.543   4.573   0.909 -0.5145  0.1949 -0.0059
 5860TIP3    H117586   5.604   4.575   0.836  0.1730  0.5047  0.5680
 5860TIP3    H217587   5.511   4.482   0.911  1.7999 -0.6762  1.1778
 5861TIP3   OH217588   3.322   1.895   4.412 -0.8166  0.6481  0.2883
 5861TIP3    H117589   3.284   1.945   4.484 -0.0721 -0.5280  1.5310
 5861TIP3    H217590   3.256   1.828   4.392 -0.3765  0.0145  0.9274
 5862TIP3   OH217591   2.225   5.218   3.198  0.4486 -0.6491  0.0717
 5862TIP3    H117592   2.161   5.146   3.200  0.3897 -0.5815  1.0613
 5862TIP3    H217593   2.184   5.284   3.143  0.5730 -1.4250 -0.9900
 5863TIP3   OH217594   0.108   4.694   4.493 -0.0384  0.3463 -0.6860
 5863TIP3    H117595   0.072   4.782   4.480 -1.6475 -0.2317 -0.4209
 5863TIP3    H217596   0.190   4.708   4.540 -0.1972  1.7061 -0.7689
 5864TIP3   OH217597   2.211   5.197   1.256  0.3275 -0.0061 -0.4060
 5864TIP3    H117598   2.302   5.213   1.281  0.0925 -0.8698  1.1401
 5864TIP3    H217599   2.166   5.179   1.338 -1.3405  0.7620 -1.1001
 5865TIP3   OH217600   2.286   3.554   2.037 -0.1414 -0.3116  0.2515
 5865TIP3    H117601   2.242   3.530   2.118 -0.8883 -1.2743 -0.4162
 5865TIP3    H217602   2.237   3.508   1.968  1.2050 -0.4893 -0.6294
 5866TIP3   OH217603   3.039   3.161   4.438 -0.0638 -0.3947  0.2047
 5866TIP3    H117604   2.957   3.139   4.393  0.1098 -1.7838  0.5438
 5866TIP3    H217605   3.060   3.249   4.406 -1.5805 -0.0872 -0.0314
 5867TIP3   OH217606   2.632   0.964   0.269  0.1656  0.0765  0.0075
 5867TIP3    H117607   2.675   0.912   0.337 -0.7596  1.9595  2.1968
 5867TIP3    H217608   2.701   1.024   0.238  0.5253 -0.6127 -0.5359
 5868TIP3   OH217609   5.624   1.355   3.907 -0.3020 -0.2478 -0.0570
 5868TIP3    H117610   5.569   1.301   3.963  1.0894 -1.2074  0.4193
 5868TIP3    H217611   5.680   1.294   3.860 -0.2045  0.6525 -1.1690
 5869TIP3   OH217612   1.536   3.049   1.887  0.0692  0.1342  0.0579
 5869TIP3    H117613   1.547   2.997   1.807  1.8342  0.2544  0.1999
 5869TIP3    H217614   1.616   3.034   1.937 -0.5739  0.8636  1.3526
 5870TIP3   OH217615   4.679   0.034   0.379  0.5731 -0.1658  0.3709
 5870TIP3    H117616   4.730   0.114   0.363 -0.1415  0.0028 -1.1994
 5870TIP3    H217617   4.690  -0.018   0.299 -1.0851 -0.4589  0.2994
 5871TIP3   OH217618   3.653   2.715   1.900  0.0212  0.5724  0.9558
 5871TIP3    H117619   3.727   2.734   1.958  1.0370  1.5515 -0.5697
 5871TIP3    H217620   3.645   2.793   1.845 -1.0659 -0.2011 -0.0460
 5872TIP3   OH217621   3.184   5.034   3.497 -0.1751 -0.6987  0.2188
 5872TIP3    H117622   3.278   5.055   3.501 -0.4491  0.6759 -0.1441
 5872TIP3    H217623   3.140   5.119   3.495 -1.4340 -1.3230  0.2128
 5873TIP3   OH217624   1.785   5.613   3.007  0.4063  0.1001 -0.0740
 5873TIP3    H117625   1.807   5.674   3.078 -0.6356  0.0150  0.3479
 5873TIP3    H217626   1.766   5.669   2.932 -1.2083  0.3707  0.4927
 5874TIP3   OH217627   2.591   5.160   4.026 -0.4948 -0.1419 -0.0980
 5874TIP3    H117628   2.670   5.208   3.999 -2.1849  1.4601 -2.7209
 5874TIP3    H217629   2.550   5.134   3.944 -3.0693 -0.2717  1.1413
 5875TIP3   OH217630   3.763   0.323   1.228 -0.1921  0.6693 -0.4015
 5875TIP3    H117631   3.735   0.257   1.165 -0.5141  0.9407 -0.5510
 5875TIP3    H217632   3.785   0.274   1.307  0.1777  0.3277 -0.7137
 5876TIP3   OH217633   0.747   4.031   1.490  0.1686  0.3424  0.4162
 5876TIP3    H117634   0.736   3.950   1.442 -4.0687  1.7114 -1.4710
 5876TIP3    H217635   0.810   4.082   1.439  0.3429 -0.5423 -0.2618
 5877TIP3   OH217636   4.409   3.997   0.796  0.0983  0.1143 -0.4061
 5877TIP3    H117637   4.423   3.985   0.890  0.5669  0.6315 -0.4063
 5877TIP3    H217638   4.318   4.027   0.790 -0.6558 -1.9951 -0.3034
 5878TIP3   OH217639   5.217   2.547   2.996 -0.4161 -0.2353 -0.0090
 5878TIP3    H117640   5.207   2.452   3.006  0.7159 -0.4759 -0.9440
 5878TIP3    H217641   5.222   2.580   3.086  0.7978 -1.2601  0.3287
 5879TIP3   OH217642   3.895   3.836   1.466  0.0406 -0.2322 -0.1435
 5879TIP3    H117643   3.840   3.897   1.417 -1.4626 -1.8409 -0.5899
 5879TIP3    H217644   3.903   3.874   1.553 -0.2390  0.9302 -0.6098
 5880TIP3   OH217645   2.353   4.891   0.031 -0.3892 -0.1126 -0.3367
 5880TIP3    H117646   2.328   4.976   0.066 -0.6843 -0.1279 -0.5069
 5880TIP3    H217647   2.277   4.862  -0.020  0.3427  0.2991 -1.7224
 5881TIP3   OH217648   2.574   2.529   2.717  0.6681  0.5941  0.6672
 5881TIP3    H117649   2.655   2.530   2.665 -1.7903  2.4876 -3.6913
 5881TIP3    H217650   2.530   2.449   2.690 -0.4139  1.3210  0.2252
 5882TIP3   OH217651   3.899   2.023   1.349  0.1628  0.8382  0.1471
 5882TIP3    H117652   3.851   1.940   1.341  1.1289  0.1692  1.0598
 5882TIP3    H217653   3.842   2.079   1.402 -0.7347  0.9684 -0.9118
 5883TIP3   OH217654   5.965   3.332   5.100 -0.0127  0.3041  0.2351
 5883TIP3    H117655   6.009   3.371   5.175  0.0743 -0.2548  0.4771
 5883TIP3    H217656   5.876   3.314   5.131 -0.3682  1.2512 -0.1932
 5884TIP3   OH217657   0.882   3.081   0.079  0.2614 -0.1121 -0.3410
 5884TIP3    H117658   0.966   3.034   0.079  0.3144 -0.0628 -1.7175
 5884TIP3    H217659   0.838   3.052   0.159  1.9406  0.5353  0.8914
 5885TIP3   OH217660   5.147   0.483   2.854  0.1156 -0.0157  0.5149
 5885TIP3    H117661   5.234   0.454   2.883  0.2363  0.3721  0.5443
 5885TIP3    H217662   5.117   0.542   2.924  0.3529  0.8225 -0.0865
 5886TIP3   OH217663   1.417   0.863   3.133  0.2155 -0.6273 -0.1289
 5886TIP3    H117664   1.449   0.952   3.148  0.4266 -0.4769 -1.3932
 5886TIP3    H217665   1.357   0.872   3.059  1.1815 -1.7245 -1.0757
 5887TIP3   OH217666   3.137   3.382   2.610  0.8593  0.5012  0.7121
 5887TIP3    H117667   3.058   3.348   2.651  0.9545  0.1122  0.5761
 5887TIP3    H217668   3.108   3.412   2.524  0.8917  0.1887  0.5901
 5888TIP3   OH217669   3.637   2.610   4.602  0.5022 -0.0053 -0.0375
 5888TIP3    H117670   3.692   2.610   4.681  0.3887  0.3447  0.0444
 5888TIP3    H217671   3.689   2.563   4.537  0.4901 -0.5179  0.3164
 5889TIP3   OH217672   1.402   2.115   4.503  0.0601  0.1691  0.5991
 5889TIP3    H117673   1.413   2.201   4.462  0.4759  0.3216  1.0298
 5889TIP3    H217674   1.491   2.087   4.524 -0.1256 -0.0585  1.0901
 5890TIP3   OH217675   4.162   3.279   4.962 -0.7148  0.1995  0.4474
 5890TIP3    H117676   4.189   3.371   4.952 -0.1375 -0.1750 -2.0089
 5890TIP3    H217677   4.067   3.281   4.953 -0.6133  0.4534 -0.6181
 5891TIP3   OH217678   2.469   2.050   1.517 -0.2681  0.4920  0.2756
 5891TIP3    H117679   2.547   2.004   1.547  1.1010  2.4030 -0.1733
 5891TIP3    H217680   2.502   2.118   1.459 -2.3011  1.2572 -0.0754
 5892TIP3   OH217681   5.944   3.998   0.437 -0.2361 -0.1993 -0.2050
 5892TIP3    H117682   5.973   3.992   0.346 -0.6184  0.9334 -0.4153
 5892TIP3    H217683   5.885   3.923   0.448 -1.0567  0.2716 -1.2227
 5893TIP3   OH217684   0.093   5.246   1.423 -0.2496 -0.1822 -0.4412
 5893TIP3    H117685   0.124   5.177   1.364  0.9149 -0.8920  0.9511
 5893TIP3    H217686   0.054   5.198   1.496  0.0043  0.6473  0.2454
 5894TIP3   OH217687   1.314   3.436   1.228 -0.2291  0.3561 -0.3450
 5894TIP3    H117688   1.308   3.402   1.317 -2.9423 -0.5598 -0.7822
 5894TIP3    H217689   1.408   3.446   1.213  0.3353  0.1693  2.4481
 5895TIP3   OH217690   4.776   2.286   2.278  0.4460  0.2477 -0.3377
 5895TIP3    H117691   4.848   2.330   2.232  1.3161  0.8072  1.4582
 5895TIP3    H217692   4.780   2.196   2.248  1.7626  0.3243 -0.4638
 5896TIP3   OH217693   5.312   2.447   2.184 -0.4886  1.3065  0.2157
 5896TIP3    H117694   5.389   2.499   2.207  0.7341 -0.5646  0.5481
 5896TIP3    H217695   5.271   2.496   2.112  1.7008  1.7536 -0.8143
 5897TIP3   OH217696   2.985   4.186   3.276  0.3495  0.5421  0.2531
 5897TIP3    H117697   2.954   4.179   3.366  1.6736  0.4788  0.7249
 5897TIP3    H217698   3.025   4.272   3.270  1.7688 -0.1020  0.2290
 5898TIP3   OH217699   5.036   0.605   4.600 -0.1534 -1.0175 -0.2223
 5898TIP3    H117700   4.941   0.591   4.590 -0.2366 -0.6375  0.0369
 5898TIP3    H217701   5.051   0.693   4.566  0.3311 -1.5795 -1.5685
 5899TIP3   OH217702   1.293   0.112   3.471 -0.2910  0.3850  0.7839
 5899TIP3    H117703   1.254   0.065   3.398 -0.4510  1.6272  0.0236
 5899TIP3    H217704   1.387   0.091   3.466 -0.4989 -0.6588  1.1104
 5900TIP3   OH217705   3.851   3.921   0.525 -0.2618 -0.0430 -0.3293
 5900TIP3    H117706   3.927   3.955   0.572  0.0617 -0.7960 -0.3092
 5900TIP3    H217707   3.885   3.852   0.469 -1.1164 -1.4067  0.7513
 5901TIP3   OH217708   1.510   4.688   0.868  0.0726 -0.5173  0.1698
 5901TIP3    H117709   1.494   4.714   0.777  0.6345 -1.1821 -0.1278
 5901TIP3    H217710   1.555   4.762   0.907 -0.5186 -0.0694  0.0244
 5902TIP3   OH217711   0.948   1.266   0.427 -0.1124  0.2676 -0.1300
 5902TIP3    H117712   0.869   1.309   0.459 -0.3271 -0.8099  0.8555
 5902TIP3    H217713   0.915   1.196   0.369 -0.0810 -1.7670  2.1532
 5903TIP3   OH217714   5.755   3.730   3.105 -0.1300  0.5934  0.2122
 5903TIP3    H117715   5.823   3.666   3.125  0.4674  0.8847 -0.7667
 5903TIP3    H217716   5.688   3.680   3.060 -1.1897  0.0601  2.2787
 5904TIP3   OH217717   1.083   1.182   2.809  0.1601  0.3432  0.2271
 5904TIP3    H117718   1.019   1.243   2.773 -0.7212 -0.7969 -0.1933
 5904TIP3    H217719   1.031   1.116   2.856  0.9894 -0.6584 -0.2077
 5905TIP3   OH217720   0.808   0.128   2.797  0.3266  0.1529  0.0690
 5905TIP3    H117721   0.768   0.124   2.710  1.7153  2.5401 -0.7596
 5905TIP3    H217722   0.738   0.158   2.854  0.0581  1.1072 -0.7345
 5906TIP3   OH217723   0.167   1.083   0.375  0.0894  0.3640 -0.5398
 5906TIP3    H117724   0.141   0.992   0.367  1.1527 -0.0161  0.1001
 5906TIP3    H217725   0.263   1.081   0.369  0.2801  1.1845  1.5294
 5907TIP3   OH217726   2.333   3.200   3.736  0.1753 -0.4612 -0.3852
 5907TIP3    H117727   2.418   3.243   3.746  0.9092 -2.0722  0.7500
 5907TIP3    H217728   2.276   3.268   3.698  1.0114  1.7867  2.0554
 5908TIP3   OH217729   3.424   4.377   1.389 -0.5795  0.0777  0.0613
 5908TIP3    H117730   3.436   4.378   1.483  0.2270  0.2683 -0.0367
 5908TIP3    H217731   3.331   4.399   1.376 -0.4978  0.9033  0.7716
 5909TIP3   OH217732   2.990   2.823   1.092 -0.4993 -0.1396  0.1661
 5909TIP3    H117733   2.895   2.815   1.093 -0.6660  1.5198 -0.1803
 5909TIP3    H217734   3.010   2.881   1.165  0.1065  0.6749 -0.6288
 5910TIP3   OH217735   3.134   0.747   2.869  0.0918 -0.2306  0.2609
 5910TIP3    H117736   3.179   0.676   2.915  1.8682 -0.2706 -1.4524
 5910TIP3    H217737   3.067   0.703   2.817  0.6476 -0.5660 -0.1720
 5911TIP3   OH217738   4.722   0.026   3.602 -0.5298 -0.5707  0.0606
 5911TIP3    H117739   4.797   0.084   3.616  0.2692 -1.2134 -1.3890
 5911TIP3    H217740   4.745  -0.055   3.649 -1.0716 -0.1891  1.0039
 5912TIP3   OH217741   0.583   5.450   3.924  0.4843 -0.0687 -0.4486
 5912TIP3    H117742   0.630   5.531   3.945 -1.2723  0.6540  0.9588
 5912TIP3    H217743   0.568   5.455   3.830  2.0806  0.2789 -0.7098
 5913TIP3   OH217744   4.215   3.084   1.213 -0.2391 -0.0875  0.2177
 5913TIP3    H117745   4.291   3.142   1.219 -0.2473  0.1352 -1.3324
 5913TIP3    H217746   4.140   3.139   1.236 -0.0235 -0.0689  0.8762
 5914TIP3   OH217747   5.290   4.514   2.599  0.1195 -0.0270  0.0832
 5914TIP3    H117748   5.282   4.608   2.587  1.1252 -0.0421 -0.8084
 5914TIP3    H217749   5.340   4.483   2.524 -1.9152 -1.5913 -0.7576
 5915TIP3   OH217750   1.805   2.291   4.574 -0.4611  0.1389 -0.4330
 5915TIP3    H117751   1.823   2.286   4.480 -1.9698 -0.0794 -0.7470
 5915TIP3    H217752   1.866   2.356   4.607 -0.6396  1.0348 -1.7758
 5916TIP3   OH217753   4.622   2.615   1.809 -0.3356  0.3009 -0.2282
 5916TIP3    H117754   4.593   2.680   1.872  0.1208 -0.6423  0.9992
 5916TIP3    H217755   4.649   2.666   1.733  0.7765  1.6298  0.9955
 5917TIP3   OH217756   1.917   5.708   3.271 -0.3186  0.3621 -0.0025
 5917TIP3    H117757   1.918   5.612   3.277 -1.1518  0.4399  2.3368
 5917TIP3    H217758   1.957   5.737   3.353  0.4126  2.0426 -0.9118
 5918TIP3   OH217759   1.405   5.437   1.584  0.1277  0.4183 -0.0167
 5918TIP3    H117760   1.310   5.434   1.586  0.1037 -2.2244 -1.3198
 5918TIP3    H217761   1.433   5.372   1.648  1.0432  0.6929 -0.1178
 5919TIP3   OH217762   3.194   2.635   4.522 -0.3822 -0.2493 -0.0792
 5919TIP3    H117763   3.261   2.620   4.589 -0.3366 -0.1212 -0.0959
 5919TIP3    H217764   3.112   2.641   4.571 -0.2239  0.8237  0.0616
 5920TIP3   OH217765   6.099   0.488   4.442  0.8914  0.2870  0.1942
 5920TIP3    H117766   6.105   0.578   4.472 -1.1730 -0.0098  1.7073
 5920TIP3    H217767   6.010   0.460   4.466  0.0041 -0.9244 -3.7413
 5921TIP3   OH217768   0.480   1.705   1.862  0.1406  0.0444 -0.0024
 5921TIP3    H117769   0.475   1.628   1.806  1.4818 -0.1729  0.1382
 5921TIP3    H217770   0.479   1.670   1.951  1.0925  0.1474  0.0591
 5922TIP3   OH217771   2.418   0.755   3.641  0.0779  0.3049  0.3643
 5922TIP3    H117772   2.408   0.817   3.714 -4.2471 -0.8625  1.0495
 5922TIP3    H217773   2.333   0.757   3.597  0.3785 -3.6976 -0.7350
 5923TIP3   OH217774   5.357   4.689   1.163  0.3716 -0.5162  0.0474
 5923TIP3    H117775   5.417   4.614   1.152  0.8079 -0.7089  2.8775
 5923TIP3    H217776   5.413   4.766   1.155  0.6841 -0.6422  0.9249
 5924TIP3   OH217777   5.438   5.662   0.209  0.1083 -0.2390 -0.2088
 5924TIP3    H117778   5.513   5.604   0.199  0.3950  0.2612 -0.9965
 5924TIP3    H217779   5.365   5.614   0.171 -0.4176 -1.5172  2.1723
 5925TIP3   OH217780   6.100   1.174   3.974 -0.0564 -0.7711 -0.7781
 5925TIP3    H117781   6.134   1.154   3.887  1.5898  0.4651 -0.4452
 5925TIP3    H217782   6.025   1.115   3.983 -0.9622 -0.1840 -3.4433
 5926TIP3   OH217783   3.670   3.126   4.398  0.5017 -0.1674  0.3725
 5926TIP3    H117784   3.763   3.116   4.380  0.1712  0.0425 -1.8295
 5926TIP3    H217785   3.626   3.084   4.323 -1.1473  0.3319  1.0042
 5927TIP3   OH217786   4.608   5.101   1.883 -0.2091  0.0711  0.6634
 5927TIP3    H117787   4.626   5.007   1.885  0.4322  0.2069  1.9155
 5927TIP3    H217788   4.694   5.142   1.880 -0.4914  0.6292 -0.4152
 5928TIP3   OH217789   5.821   3.976   2.998  0.0700  0.7121  0.6422
 5928TIP3    H117790   5.776   3.905   3.044  0.1843 -0.2048 -0.6158
 5928TIP3    H217791   5.830   4.045   3.063 -2.3857  0.5975  1.1869
 5929TIP3   OH217792   2.460   1.430   3.240 -0.1123 -0.2034 -0.1587
 5929TIP3    H117793   2.521   1.459   3.173  2.1927  0.1872  1.9640
 5929TIP3    H217794   2.410   1.508   3.263 -0.6860 -0.2659 -1.1383
 5930TIP3   OH217795   0.067   5.630   3.317 -0.2923 -0.4506 -0.1372
 5930TIP3    H117796  -0.003   5.616   3.253 -0.7731 -0.7058  0.4372
 5930TIP3    H217797   0.036   5.703   3.371  0.7693  0.7436 -1.1024
 5931TIP3   OH217798   4.618   0.271   3.434  0.2523 -0.8344  0.3811
 5931TIP3    H117799   4.632   0.177   3.435  3.1332 -0.4872 -0.1171
 5931TIP3    H217800   4.572   0.289   3.516  1.4120 -2.4551  1.4395
 5932TIP3   OH217801   1.810   4.293   1.775 -0.0534 -0.4592  0.1087
 5932TIP3    H117802   1.745   4.334   1.719 -0.1777  1.7714  1.7455
 5932TIP3    H217803   1.785   4.317   1.864  1.4296 -1.9156  1.0010
 5933TIP3   OH217804   5.992   5.222   2.806 -0.3112  0.1091 -0.2474
 5933TIP3    H117805   6.007   5.253   2.717 -0.1754  0.2319 -0.1824
 5933TIP3    H217806   5.908   5.177   2.802  0.0414 -0.5444 -0.6095
 5934TIP3   OH217807   4.054   2.927   3.590  0.0544  0.2745 -0.1214
 5934TIP3    H117808   3.995   2.923   3.516 -0.1259 -0.6452  0.0528
 5934TIP3    H217809   4.001   2.898   3.665  0.2975  0.9470  0.3231
 5935TIP3   OH217810   5.753   0.285   1.344 -0.5266  0.2362  0.3187
 5935TIP3    H117811   5.751   0.263   1.251  2.0061 -1.3000  0.5465
 5935TIP3    H217812   5.768   0.380   1.345 -2.1331  0.5594 -0.7578
 5936TIP3   OH217813   3.400   3.480   5.023 -0.2790  0.0473  0.2742
 5936TIP3    H117814   3.323   3.431   5.050 -0.2585 -0.2065 -0.1241
 5936TIP3    H217815   3.372   3.530   4.946  0.1581 -0.6522 -0.3532
 5937TIP3   OH217816   2.432   4.539   2.966 -0.8363  0.0926 -0.5632
 5937TIP3    H117817   2.355   4.527   2.910  0.1883  2.6113 -2.7170
 5937TIP3    H217818   2.501   4.488   2.924 -1.3998 -3.0123  1.9282
 5938TIP3   OH217819   4.956   1.352   0.203  0.0267  0.1792  0.1235
 5938TIP3    H117820   5.001   1.294   0.264 -1.0173  1.5634  2.3608
 5938TIP3    H217821   4.864   1.349   0.230 -0.4221  1.1265 -1.1789
 5939TIP3   OH217822   1.365   4.661   1.082  0.1064 -0.1386  0.2959
 5939TIP3    H117823   1.441   4.646   1.025 -0.1902 -0.1225 -0.1032
 5939TIP3    H217824   1.296   4.692   1.024 -0.4886 -1.0057  0.5117
 5940TIP3   OH217825   1.277   5.133   5.059 -0.0375 -0.2901  0.5042
 5940TIP3    H117826   1.306   5.162   5.145  0.4446 -0.4759  0.4080
 5940TIP3    H217827   1.357   5.132   5.006 -0.5709  1.5776 -0.4557
 5941TIP3   OH217828   2.534   3.325   2.006  0.2414  0.6791  0.8051
 5941TIP3    H117829   2.523   3.311   2.100 -0.5009  0.2084  0.6565
 5941TIP3    H217830   2.628   3.318   1.992  0.1912 -1.8029  1.1411
 5942TIP3   OH217831   0.699   4.569   2.040  0.3086  0.0284 -0.4319
 5942TIP3    H117832   0.630   4.564   1.973 -0.2483 -2.0537  0.2148
 5942TIP3    H217833   0.748   4.648   2.018 -0.7348  0.1905 -2.4353
 5943TIP3   OH217834   0.903   4.554   2.432  0.4653  0.0660 -0.5971
 5943TIP3    H117835   0.839   4.538   2.362  1.9155 -0.9390 -1.7684
 5943TIP3    H217836   0.972   4.604   2.389 -0.1270  2.4213  1.0062
 5944TIP3   OH217837   3.489   0.649   3.858 -0.1015  0.0542 -0.6690
 5944TIP3    H117838   3.491   0.623   3.766  2.6420 -0.1692 -0.6286
 5944TIP3    H217839   3.459   0.740   3.857  0.3801  0.2084 -1.8311
 5945TIP3   OH217840   1.098   0.509   4.445 -0.3680 -0.7588 -0.2326
 5945TIP3    H117841   1.081   0.429   4.495  1.6685 -0.0300  1.8455
 5945TIP3    H217842   1.156   0.482   4.375 -1.5501 -1.4569 -0.9602
 5946TIP3   OH217843   2.054   0.625   3.723 -0.1703  0.2050 -0.3600
 5946TIP3    H117844   2.059   0.548   3.779 -0.5436  2.0081  2.3331
 5946TIP3    H217845   2.133   0.675   3.742 -0.8437  1.4055 -0.5451
 5947TIP3   OH217846   2.680   1.310   0.338  0.0402 -0.5785  0.1657
 5947TIP3    H117847   2.727   1.385   0.302  1.3057 -0.8272  1.1807
 5947TIP3    H217848   2.712   1.235   0.287 -1.2968 -0.4332 -0.9139
 5948TIP3   OH217849   4.714   1.309   0.320  0.4864  0.4827  0.3873
 5948TIP3    H117850   4.759   1.254   0.383 -0.0717 -0.4772 -0.0256
 5948TIP3    H217851   4.630   1.265   0.305  1.6757 -0.9781 -3.1514
 5949TIP3   OH217852   0.240   3.537   3.018 -0.3593  0.2239  0.2101
 5949TIP3    H117853   0.299   3.558   2.946  0.7948 -0.9214  0.7913
 5949TIP3    H217854   0.274   3.587   3.092 -0.4294 -0.0392  0.4203
 5950TIP3   OH217855   4.767   2.085   4.634  0.2459 -0.2855  0.6846
 5950TIP3    H117856   4.692   2.143   4.634  0.7975  0.4578  1.2991
 5950TIP3    H217857   4.791   2.078   4.727 -0.8155 -2.8480  0.8532
 5951TIP3   OH217858   0.191   5.059   1.222 -0.0211 -0.5009  0.3532
 5951TIP3    H117859   0.173   4.966   1.236  0.5400 -0.6624  0.0369
 5951TIP3    H217860   0.181   5.071   1.128  1.1750 -0.5284  0.2157
 5952TIP3   OH217861   1.039   3.097   2.909  0.3235 -0.4937  0.4053
 5952TIP3    H117862   0.982   3.022   2.928  1.6781 -1.1330  2.2958
 5952TIP3    H217863   1.003   3.168   2.963  0.5162 -0.4969  0.5355
 5953TIP3   OH217864   3.051   4.949   0.181  0.6088  0.0118  0.0543
 5953TIP3    H117865   3.051   4.922   0.273  2.1180 -0.1571  0.0379
 5953TIP3    H217866   3.023   4.870   0.134 -0.3362  0.1495  0.3665
 5954TIP3   OH217867   4.723   5.891   5.041  0.1248  0.1519 -0.4682
 5954TIP3    H117868   4.681   5.869   5.124  1.7224 -2.6549 -0.2726
 5954TIP3    H217869   4.816   5.898   5.063  0.3968  0.9873 -1.7763
 5955TIP3   OH217870   1.728   4.211   1.471  0.4085  0.2843  0.0496
 5955TIP3    H117871   1.718   4.294   1.517 -1.9093  1.1203 -1.7759
 5955TIP3    H217872   1.818   4.212   1.439  0.6999  1.6541  0.8377
 5956TIP3   OH217873   6.010   0.716   1.810  0.3814  0.3451  0.3377
 5956TIP3    H117874   6.074   0.646   1.818 -0.5689 -0.7220 -0.8078
 5956TIP3    H217875   5.949   0.701   1.882 -0.2242 -0.4989 -0.3189
 5957TIP3   OH217876   0.598   5.020   1.757 -0.3169  0.2533 -0.1751
 5957TIP3    H117877   0.682   5.056   1.786 -0.6930  0.5697  0.5462
 5957TIP3    H217878   0.573   5.074   1.683  0.6318 -0.5297 -1.1008
 5958TIP3   OH217879   3.708   0.384   4.199 -0.1962 -0.3377  0.4491
 5958TIP3    H117880   3.693   0.304   4.149  1.2485 -0.7314  0.5931
 5958TIP3    H217881   3.665   0.453   4.148  0.8389 -0.7978 -1.1098
 5959TIP3   OH217882   6.325   0.507   3.378  0.0086  0.0693 -0.1646
 5959TIP3    H117883   6.242   0.536   3.417 -1.0295 -0.7067 -1.6736
 5959TIP3    H217884   6.374   0.587   3.363 -0.6057  0.5776  0.4603
 5960TIP3   OH217885   0.553   4.021   1.175 -0.2485  0.4120 -0.2146
 5960TIP3    H117886   0.494   4.089   1.143 -1.1532 -0.4832 -0.4973
 5960TIP3    H217887   0.624   4.069   1.218 -1.6266  1.5059  0.9311
 5961TIP3   OH217888   1.023   1.601   4.389 -0.1588 -0.5682  0.3221
 5961TIP3    H117889   1.041   1.628   4.299 -1.7552  1.5270  0.5592
 5961TIP3    H217890   1.109   1.583   4.427  0.6754  0.3016 -1.0772
 5962TIP3   OH217891   5.024   1.896   4.239 -0.6965 -0.0381  0.3802
 5962TIP3    H117892   4.934   1.877   4.213 -1.0035  1.2783  0.4317
 5962TIP3    H217893   5.016   1.965   4.305  0.4503  1.6693 -1.1782
 5963TIP3   OH217894   3.473   5.520   1.840 -0.1357 -0.1054 -0.3046
 5963TIP3    H117895   3.404   5.582   1.818  0.0060  0.1820  0.0581
 5963TIP3    H217896   3.428   5.447   1.883 -0.1253  0.4510  0.6729
 5964TIP3   OH217897   1.011   1.550   3.491  0.6651 -0.5016 -0.1504
 5964TIP3    H117898   1.056   1.509   3.417  0.7274 -1.1450  0.2383
 5964TIP3    H217899   1.040   1.641   3.489  1.8351 -0.8592 -0.0223
 5965TIP3   OH217900   6.361   4.427   3.763 -0.5084  0.0931  0.3063
 5965TIP3    H117901   6.299   4.439   3.835 -0.1535  0.5022  0.5529
 5965TIP3    H217902   6.358   4.510   3.716  0.0865  0.2407  0.5129
 5966TIP3   OH217903   0.710   5.608   3.563  0.1274  0.5422  0.5186
 5966TIP3    H117904   0.640   5.617   3.498  1.2223  0.3909 -0.7265
 5966TIP3    H217905   0.700   5.519   3.597 -0.8933  0.8692  1.0896
 5967TIP3   OH217906   5.610   2.537   1.372  0.2650 -0.5850  0.0220
 5967TIP3    H117907   5.616   2.586   1.290 -1.7241 -0.6879 -0.2186
 5967TIP3    H217908   5.586   2.448   1.346 -0.8137 -0.5165  0.7146
 5968TIP3   OH217909   0.552   0.852   4.230  0.5917  0.1520  0.2892
 5968TIP3    H117910   0.597   0.880   4.310  1.1177  2.0150 -0.6131
 5968TIP3    H217911   0.622   0.844   4.165 -0.0618  0.6503 -0.4885
 5969TIP3   OH217912   1.159   3.439   5.072 -0.5788 -0.6298  0.4269
 5969TIP3    H117913   1.184   3.501   5.139 -0.9932 -0.1965  0.1851
 5969TIP3    H217914   1.139   3.493   4.995  0.0338 -1.1236 -0.0895
 5970TIP3   OH217915   5.558   4.843   0.969 -0.8286  0.0996  1.2065
 5970TIP3    H117916   5.550   4.755   0.933  0.2588  0.7098 -0.6416
 5970TIP3    H217917   5.652   4.855   0.983 -0.9595  0.9541  1.4554
 5971TIP3   OH217918   6.143   0.364   0.464 -0.4167 -0.2762 -0.6237
 5971TIP3    H117919   6.065   0.385   0.515 -0.0249  1.7535 -0.7556
 5971TIP3    H217920   6.115   0.295   0.404 -1.4043 -1.3370  0.9823
 5972TIP3   OH217921   1.422   2.440   0.217 -0.2959  0.0853  0.1884
 5972TIP3    H117922   1.332   2.459   0.242 -0.0851  0.2607  0.8280
 5972TIP3    H217923   1.418   2.356   0.172 -0.7335 -0.0598  0.4951
 5973TIP3   OH217924   2.548   2.399   0.092  0.0541  0.1387  0.7220
 5973TIP3    H117925   2.641   2.404   0.068 -0.0841  1.5056  0.3792
 5973TIP3    H217926   2.502   2.407   0.009 -0.3858  0.8055  1.0275
 5974TIP3   OH217927   0.817   5.874   2.917  0.6520 -0.3576 -0.2112
 5974TIP3    H117928   0.804   5.796   2.972  0.1475  1.0195  1.7396
 5974TIP3    H217929   0.734   5.921   2.923  1.3999  1.0029 -0.2334
 5975TIP3   OH217930   0.571   2.588   4.438  0.1141  0.7344 -0.3617
 5975TIP3    H117931   0.485   2.551   4.419  0.1800 -0.2702  1.1104
 5975TIP3    H217932   0.588   2.564   4.529  1.6820  1.4650 -0.4242
 5976TIP3   OH217933   4.607   5.743   0.924  0.5765  0.2247  0.1005
 5976TIP3    H117934   4.611   5.651   0.950  0.1435  0.0218 -0.5065
 5976TIP3    H217935   4.626   5.792   1.004  2.4567 -0.3978  0.0811
 5977TIP3   OH217936   1.072   1.052   0.896  0.3392  0.2939 -0.7035
 5977TIP3    H117937   1.053   1.036   0.804 -0.4215  2.2252 -0.9264
 5977TIP3    H217938   0.988   1.038   0.941  1.3779 -4.0815  0.3258
 5978TIP3   OH217939   0.242   2.724   0.035 -0.1303 -0.4319  0.4679
 5978TIP3    H117940   0.149   2.703   0.039 -0.1276 -0.2512  2.0255
 5978TIP3    H217941   0.265   2.714  -0.058 -1.6517 -0.6270  0.0880
 5979TIP3   OH217942   2.451   1.452   4.802  0.7479  0.5813  0.2829
 5979TIP3    H117943   2.484   1.380   4.856  0.9148  0.3177 -0.1685
 5979TIP3    H217944   2.452   1.528   4.860 -0.7811 -0.0616  1.2084
 5980TIP3   OH217945   4.913   0.354   2.761 -0.0282 -0.0617  0.5669
 5980TIP3    H117946   4.845   0.391   2.817 -0.9604  0.2692 -0.7272
 5980TIP3    H217947   4.994   0.395   2.791 -0.4946  0.0640  1.6865
 5981TIP3   OH217948   1.130   1.314   4.324  0.5321  0.1069 -0.2760
 5981TIP3    H117949   1.060   1.317   4.390  1.3636  2.5775  0.6057
 5981TIP3    H217950   1.094   1.364   4.250  1.2932  1.3086  0.1459
 5982TIP3   OH217951   4.433   5.916   0.427  0.1252 -0.4112 -0.5151
 5982TIP3    H117952   4.395   5.841   0.381  2.9592 -1.1979 -1.8375
 5982TIP3    H217953   4.472   5.879   0.506 -1.2394  0.2919  0.5412
 5983TIP3   OH217954   2.228   0.581   3.955 -0.7223 -0.1044 -0.0209
 5983TIP3    H117955   2.309   0.534   3.935 -0.4559 -0.5077  1.8131
 5983TIP3    H217956   2.160   0.513   3.957 -0.8948  0.0563 -0.4067
 5984TIP3   OH217957   0.546   0.553   3.214  0.2995  0.0879  0.4830
 5984TIP3    H117958   0.551   0.648   3.212 -1.7900  0.2247 -1.7405
 5984TIP3    H217959   0.549   0.526   3.122 -0.2856 -1.9170  0.9978
 5985TIP3   OH217960   6.104   5.615   4.669  0.3650  0.2666  0.1324
 5985TIP3    H117961   6.042   5.677   4.708  0.5662  1.1948 -0.9727
 5985TIP3    H217962   6.100   5.634   4.575  0.3381 -1.4926 -0.2567
 5986TIP3   OH217963   2.307   3.612   4.058 -0.2874  0.3433 -0.1666
 5986TIP3    H117964   2.377   3.621   3.993  1.9364 -0.9203  1.8909
 5986TIP3    H217965   2.264   3.698   4.059  1.2718  1.1831 -1.4925
 5987TIP3   OH217966   1.960   3.936   4.579 -0.4289 -0.7255 -0.0620
 5987TIP3    H117967   1.984   3.891   4.660  0.2433  0.2420  0.2940
 5987TIP3    H217968   2.028   4.003   4.567 -0.8694 -0.4335 -1.0841
 5988TIP3   OH217969   2.015   1.493   2.782  0.0555  0.7194 -0.6888
 5988TIP3    H117970   1.979   1.480   2.694 -1.5356  0.4845 -0.0411
 5988TIP3    H217971   2.069   1.572   2.774  0.5484  0.2790 -2.0316
 5989TIP3   OH217972   4.527   3.978   0.020 -0.0439 -0.0572 -0.4651
 5989TIP3    H117973   4.503   3.984   0.112 -1.6083 -2.8575 -0.5895
 5989TIP3    H217974   4.619   3.951   0.021  0.7593  2.3969  0.1344
 5990TIP3   OH217975   6.366   0.860   4.605  0.1391 -0.0686 -0.1318
 5990TIP3    H117976   6.282   0.901   4.626  0.4256  1.4848 -1.7809
 5990TIP3    H217977   6.352   0.818   4.520  0.5869 -1.2959  0.3705
 5991TIP3   OH217978   5.844   3.003   4.856 -0.1439 -0.8127  0.5742
 5991TIP3    H117979   5.802   3.087   4.835  0.0308 -0.8785 -0.0531
 5991TIP3    H217980   5.895   2.982   4.778 -0.2197 -1.5277  0.7167
 5992TIP3   OH217981   3.910   5.831   1.810  0.6057 -0.0476  0.0257
 5992TIP3    H117982   3.948   5.888   1.877 -1.1979  1.1112  0.1499
 5992TIP3    H217983   3.930   5.743   1.840  1.5784  0.4849  1.0270
 5993TIP3   OH217984   5.051   0.702   0.886 -0.6399  0.3835  0.3297
 5993TIP3    H117985   4.982   0.762   0.858 -0.3032  1.3285  1.4363
 5993TIP3    H217986   5.068   0.727   0.977  2.2326  1.2272 -0.3612
 5994TIP3   OH217987   4.657   3.387   4.828  0.3838 -0.4577  0.0231
 5994TIP3    H117988   4.667   3.316   4.892  1.0302  0.5754  1.1176
 5994TIP3    H217989   4.577   3.365   4.781  0.2086 -1.5703  0.7831
 5995TIP3   OH217990   1.673   3.304   2.461  0.1556 -0.1786  0.4878
 5995TIP3    H117991   1.677   3.219   2.417  0.1110 -0.8192  1.6601
 5995TIP3    H217992   1.584   3.336   2.444  0.8361  0.6877 -1.7777
 5996TIP3   OH217993   4.918   1.444   3.946  0.0850 -0.5738 -0.4192
 5996TIP3    H117994   4.824   1.445   3.962  0.4276 -1.4706  2.2558
 5996TIP3    H217995   4.949   1.529   3.976  0.1698 -0.4015 -0.9875
 5997TIP3   OH217996   2.869   4.852   3.146 -0.5043  0.5333 -0.0252
 5997TIP3    H117997   2.834   4.941   3.156  0.8952  0.9473  1.7351
 5997TIP3    H217998   2.921   4.838   3.225  0.4927 -1.3235 -0.9479
 5998TIP3   OH217999   0.814   0.497   0.976 -0.3716  0.1504  0.0350
 5998TIP3    H118000   0.723   0.526   0.981 -0.9710 -1.5722  0.0133
 5998TIP3    H218001   0.819   0.422   1.036  0.4865 -1.0403 -1.4336
 5999TIP3   OH218002   0.987   2.738   3.620 -0.2406 -0.1319  0.3942
 5999TIP3    H118003   0.983   2.673   3.550 -0.1599 -1.8724  1.9215
 5999TIP3    H218004   0.900   2.737   3.659 -0.0820  0.2694  0.7688
 6000TIP3   OH218005   5.147   1.389   2.694  0.0376  0.1745 -0.1170
 6000TIP3    H118006   5.225   1.412   2.744 -0.0032 -0.2561  0.1446
 6000TIP3    H218007   5.083   1.361   2.760 -0.1125 -0.1220 -0.3867
 6001TIP3   OH218008   2.440   2.462   1.949  1.2063  1.2387 -0.0134
 6001TIP3    H118009   2.532   2.463   1.978  1.3893  0.9799 -0.5703
 6001TIP3    H218010   2.399   2.393   2.002  1.8404 -0.1321 -1.2420
 6002TIP3   OH218011   4.967   1.289   1.086 -0.3746 -0.7810 -0.3177
 6002TIP3    H118012   4.997   1.343   1.012 -0.6965  0.5434  0.4814
 6002TIP3    H218013   5.019   1.209   1.080  1.0759  0.1547 -0.7849
 6003TIP3   OH218014   5.312   5.088   4.921 -0.5988  0.2916 -0.0834
 6003TIP3    H118015   5.284   5.018   4.862 -2.7769 -1.9380  3.2114
 6003TIP3    H218016   5.407   5.095   4.908 -0.5311 -2.2798 -1.5673
 6004TIP3   OH218017   0.914   4.349   4.148  0.2254 -0.0209 -0.1959
 6004TIP3    H118018   0.830   4.303   4.143  0.3928 -0.2594 -1.0539
 6004TIP3    H218019   0.936   4.367   4.056  1.3012 -0.2973  0.0036
 6005TIP3   OH218020   2.204   2.583   3.801 -0.3691 -0.0607  0.8451
 6005TIP3    H118021   2.268   2.543   3.743 -0.2947  0.0115  0.8763
 6005TIP3    H218022   2.171   2.511   3.855 -1.0512 -0.2826  0.1527
 6006TIP3   OH218023   0.504   4.846   4.047  0.0583  0.9355  0.3771
 6006TIP3    H118024   0.487   4.756   4.076  2.2390 -0.0655 -1.1478
 6006TIP3    H218025   0.577   4.875   4.102 -0.7361  1.8663  0.9645
 6007TIP3   OH218026   0.973   4.372   2.867 -0.4640  0.1677  0.2294
 6007TIP3    H118027   1.033   4.304   2.898 -2.9305 -2.0274  0.5278
 6007TIP3    H218028   1.017   4.410   2.791  1.1529 -1.5467  0.2330
 6008TIP3   OH218029   2.536   0.788   0.078  0.0399 -0.8532  0.2645
 6008TIP3    H118030   2.565   0.852   0.143  0.8300 -1.6488  0.7332
 6008TIP3    H218031   2.444   0.774   0.097 -0.4693  1.0073 -0.6166
 6009TIP3   OH218032   0.104   0.525   2.966  0.1644 -0.1651  0.2028
 6009TIP3    H118033   0.067   0.594   2.910 -0.7305 -0.7986 -0.0062
 6009TIP3    H218034   0.199   0.539   2.962 -0.0136  2.5305  2.0251
 6010TIP3   OH218035   5.963   4.721   1.152 -0.4093  0.4133 -0.3704
 6010TIP3    H118036   5.996   4.646   1.103  0.4830 -0.3877  1.3563
 6010TIP3    H218037   5.919   4.683   1.227 -0.9292  1.6049 -0.0466
 6011TIP3   OH218038   4.508   2.827   3.424  0.0461 -0.1060 -0.2214
 6011TIP3    H118039   4.547   2.890   3.484  1.5816 -0.9389 -0.3200
 6011TIP3    H218040   4.580   2.798   3.368 -0.7519 -1.5119 -0.5698
 6012TIP3   OH218041   3.348   0.278   4.345  0.2180 -0.0200 -0.7132
 6012TIP3    H118042   3.334   0.289   4.251  0.1817  0.8127 -0.6118
 6012TIP3    H218043   3.272   0.319   4.386  0.8096  0.6598 -0.2873
 6013TIP3   OH218044   5.023   4.528   0.925  0.9715 -0.2373  0.3818
 6013TIP3    H118045   4.955   4.465   0.902  0.2808  1.0682 -1.3528
 6013TIP3    H218046   5.076   4.483   0.991 -1.3875 -1.3998  1.5913
 6014TIP3   OH218047   3.801   3.954   1.998 -0.3619 -0.3354 -0.3757
 6014TIP3    H118048   3.804   4.006   2.078  1.5216  2.1651 -1.9427
 6014TIP3    H218049   3.854   3.877   2.018  1.6377  1.1248  0.2916
 6015TIP3   OH218050   3.807   2.800   4.382 -0.0848 -0.7854  0.4838
 6015TIP3    H118051   3.808   2.708   4.408 -1.8284 -0.8243  0.5162
 6015TIP3    H218052   3.789   2.798   4.288 -1.3472 -0.4714  0.7026
 6016TIP3   OH218053   3.245   2.073   0.039  0.4122 -0.4236 -0.1035
 6016TIP3    H118054   3.313   2.139   0.052  0.7981 -0.8234 -0.0636
 6016TIP3    H218055   3.293   1.991   0.028  0.0070 -0.4921 -1.6058
 6017TIP3   OH218056   4.631   4.301   2.472  0.6319 -0.0315 -0.0840
 6017TIP3    H118057   4.703   4.361   2.455  1.8698 -1.2477  0.6711
 6017TIP3    H218058   4.552   4.350   2.449  1.4488  2.4561  2.0053
 6018TIP3   OH218059   6.124   3.656   1.896  0.3879  0.8487  0.0106
 6018TIP3    H118060   6.209   3.615   1.913  0.4719 -0.3354 -2.7105
 6018TIP3    H218061   6.086   3.604   1.825 -2.0664  2.1331  0.2699
 6019TIP3   OH218062   2.174   5.633   3.850  0.0216  0.1955 -0.3107
 6019TIP3    H118063   2.135   5.652   3.935 -0.3148 -2.0489  0.0985
 6019TIP3    H218064   2.126   5.557   3.818  2.6938 -1.5165 -0.6650
 6020TIP3   OH218065   2.968   0.167   3.011 -0.1614 -0.1287 -0.5865
 6020TIP3    H118066   2.992   0.075   3.001 -0.4189 -0.0932 -1.6463
 6020TIP3    H218067   3.030   0.202   3.075  0.1933 -0.9354 -0.4862
 6021TIP3   OH218068   3.061   3.974   4.521 -0.3261 -0.5901  0.4414
 6021TIP3    H118069   3.131   4.028   4.560 -1.4991  0.0396  1.7441
 6021TIP3    H218070   3.108   3.905   4.474  1.1876  0.2888  0.5851
 6022TIP3   OH218071   2.696   4.260   2.373 -0.6285 -0.1562  0.3269
 6022TIP3    H118072   2.617   4.272   2.425 -0.0389  2.1357  0.8113
 6022TIP3    H218073   2.761   4.227   2.435 -1.2029 -2.3237 -0.1329
 6023TIP3   OH218074   4.575   3.634   1.739  0.5956  0.1779 -0.2145
 6023TIP3    H118075   4.579   3.729   1.731 -2.0458  0.3516 -0.3475
 6023TIP3    H218076   4.622   3.614   1.820  1.4231  1.5318 -0.3380
 6024TIP3   OH218077   0.084   3.642   0.943  0.8210  0.1430 -0.1414
 6024TIP3    H118078   0.147   3.587   0.989  0.2636 -0.2476  0.1635
 6024TIP3    H218079   0.027   3.581   0.896  0.3671  0.4557 -0.0153
 6025TIP3   OH218080   5.626   2.957   0.871 -0.0288 -0.4672  0.2814
 6025TIP3    H118081   5.542   3.002   0.861  0.6250  1.1270  1.5408
 6025TIP3    H218082   5.632   2.900   0.794 -1.6785  0.3561 -0.5021
 6026TIP3   OH218083   1.235   2.662   1.850  0.3486  0.4700 -0.7686
 6026TIP3    H118084   1.155   2.659   1.798 -1.1134  1.5613  1.2816
 6026TIP3    H218085   1.222   2.595   1.918  1.2280  0.5954 -0.4662
 6027TIP3   OH218086   5.596   2.583   2.538 -0.1320  0.1235 -0.9217
 6027TIP3    H118087   5.538   2.539   2.601  0.0694 -1.0697 -1.5312
 6027TIP3    H218088   5.614   2.668   2.578  0.5991 -0.8627  0.9952
 6028TIP3   OH218089   5.359   2.565   0.761 -0.1473  0.0970  0.1684
 6028TIP3    H118090   5.290   2.502   0.781  0.3138 -0.2572  0.6767
 6028TIP3    H218091   5.432   2.511   0.730  0.7309  0.2433  1.9046
 6029TIP3   OH218092   4.884   4.081   3.741 -0.3818  0.1345 -0.1463
 6029TIP3    H118093   4.889   4.127   3.825 -1.1666 -2.2834  1.3257
 6029TIP3    H218094   4.790   4.072   3.725 -0.2361  0.1386 -1.0739
 6030TIP3   OH218095   6.146   1.731   1.509 -0.0386  0.2428 -0.1467
 6030TIP3    H118096   6.137   1.813   1.557  0.6829 -0.2546  0.8752
 6030TIP3    H218097   6.063   1.686   1.522  0.0471  0.2378  0.4131
 6031TIP3   OH218098   1.607   1.103   2.386  0.7378 -0.6123  0.1400
 6031TIP3    H118099   1.559   1.117   2.304 -0.4568 -0.9132  0.7676
 6031TIP3    H218100   1.604   1.008   2.400  1.9378 -0.6932 -0.0412
 6032TIP3   OH218101   5.094   2.301   2.253  0.3807  0.4246  0.1323
 6032TIP3    H118102   5.094   2.242   2.179  2.3916 -1.4906  1.5435
 6032TIP3    H218103   5.157   2.370   2.230 -0.8957  1.2793 -0.9183
 6033TIP3   OH218104   6.282   2.703   4.186 -0.1776 -0.4593  0.4686
 6033TIP3    H118105   6.326   2.698   4.102  1.0405  0.2481  1.0471
 6033TIP3    H218106   6.308   2.623   4.232  1.3966  0.4548  1.2160
 6034TIP3   OH218107   1.007   2.654   3.125  0.0722  0.3058 -0.1354
 6034TIP3    H118108   1.078   2.611   3.078  0.9691 -1.2026  2.4137
 6034TIP3    H218109   1.042   2.740   3.149  0.9376 -0.2889  0.7924
 6035TIP3   OH218110   3.731   3.187   0.189 -0.3567 -0.1909  0.2785
 6035TIP3    H118111   3.667   3.189   0.118 -1.4904 -2.8339  1.1106
 6035TIP3    H218112   3.814   3.208   0.146 -1.1578 -0.7108 -1.6478
 6036TIP3   OH218113   0.403   2.242   3.062  0.1421 -0.3650 -0.2458
 6036TIP3    H118114   0.314   2.239   3.097 -0.0988 -0.0732 -0.8257
 6036TIP3    H218115   0.458   2.266   3.138 -0.3909  0.4264 -0.0979
 6037TIP3   OH218116   6.203   5.371   3.492  0.6683 -0.0379 -0.6490
 6037TIP3    H118117   6.225   5.283   3.521  0.4524  0.3461  0.7480
 6037TIP3    H218118   6.142   5.358   3.419 -0.7302 -1.0408  0.6503
 6038TIP3   OH218119   3.322   5.471   2.132 -0.3149 -0.2519  0.7230
 6038TIP3    H118120   3.228   5.478   2.150 -0.0289  0.1720  2.1873
 6038TIP3    H218121   3.360   5.548   2.174  0.6144 -0.0023 -0.5288
 6039TIP3   OH218122   1.638   1.173   1.882 -0.2689 -0.0915  0.0228
 6039TIP3    H118123   1.610   1.252   1.929  0.9629 -1.0921  2.5909
 6039TIP3    H218124   1.717   1.200   1.836 -0.3593  0.3902  0.1416
 6040TIP3   OH218125   2.536   3.938   2.312  0.1197  0.2102 -0.2825
 6040TIP3    H118126   2.441   3.934   2.320  0.1031 -0.8971 -0.9335
 6040TIP3    H218127   2.552   4.013   2.254 -0.4076 -0.1075 -0.8506
 6041TIP3   OH218128   2.488   1.944   2.338  0.7571  0.4692 -0.2412
 6041TIP3    H118129   2.409   1.964   2.288  0.8039  1.6824  0.1483
 6041TIP3    H218130   2.461   1.876   2.399 -0.2476  1.5465  0.5449
 6042TIP3   OH218131   1.594   3.046   1.121  0.2227  0.2624  0.2118
 6042TIP3    H118132   1.629   3.014   1.038  1.0041  1.5291  0.0245
 6042TIP3    H218133   1.502   3.019   1.121  0.2614  0.1060 -0.9779
 6043TIP3   OH218134   5.149   2.091   1.353 -0.2032 -0.2215  0.5424
 6043TIP3    H118135   5.208   2.137   1.292 -0.8491 -1.2557 -0.9328
 6043TIP3    H218136   5.121   2.158   1.415  1.1006  0.6982  0.1730
 6044TIP3   OH218137   4.190   5.339   0.625  0.0437  0.2476  0.0081
 6044TIP3    H118138   4.226   5.418   0.667  1.7039  0.0844 -1.0173
 6044TIP3    H218139   4.189   5.360   0.532 -2.1567  0.0491 -0.0532
 6045TIP3   OH218140   0.201   4.694   1.747 -0.0320 -0.6991  0.1393
 6045TIP3    H118141   0.157   4.656   1.671 -1.0487 -0.2147  0.4807
 6045TIP3    H218142   0.253   4.766   1.711 -1.8411  0.6465  0.0790
 6046TIP3   OH218143   6.213   4.282   3.550  0.1805  0.0928 -0.5178
 6046TIP3    H118144   6.244   4.296   3.640  1.8953  1.5816 -1.2523
 6046TIP3    H218145   6.206   4.187   3.541 -0.6113 -0.0662  1.3524
 6047TIP3   OH218146   1.535   4.863   5.050  0.0309  0.5084  0.3648
 6047TIP3    H118147   1.630   4.866   5.064  0.2293 -0.5542 -0.6152
 6047TIP3    H218148   1.513   4.950   5.017  1.1123  0.0277 -1.8259
 6048TIP3   OH218149   4.596   4.648   2.582  0.1996  0.6078  0.1784
 6048TIP3    H118150   4.642   4.675   2.662  0.8539  0.3029 -0.0871
 6048TIP3    H218151   4.666   4.616   2.525 -0.3417  0.2118 -0.2606
 6049TIP3   OH218152   1.531   2.325   4.410 -0.4200  0.4295 -0.3822
 6049TIP3    H118153   1.548   2.414   4.441  1.0509  0.8083 -2.0937
 6049TIP3    H218154   1.617   2.289   4.390 -1.1287 -0.5192 -1.9532
 6050TIP3   OH218155   0.813   2.192   3.413 -0.3042 -0.2912 -0.0635
 6050TIP3    H118156   0.731   2.234   3.388  0.6402  1.5041 -0.2429
 6050TIP3    H218157   0.814   2.111   3.362  0.7463  2.3666 -4.8760
 6051TIP3   OH218158   0.027   3.672   2.916 -0.3420  0.4833  0.0447
 6051TIP3    H118159  -0.004   3.707   2.999 -0.2415 -2.5907  1.4860
 6051TIP3    H218160   0.095   3.609   2.939 -0.4125 -0.5937 -2.3317
 6052TIP3   OH218161   4.179   5.358   0.970 -0.7063 -0.0892 -0.1695
 6052TIP3    H118162   4.146   5.324   0.886 -1.2822  2.0320 -0.8600
 6052TIP3    H218163   4.195   5.450   0.954 -1.5303  0.5585  2.2635
 6053TIP3   OH218164   0.832   4.424   1.035 -0.0432 -0.5661  0.5734
 6053TIP3    H118165   0.800   4.342   0.998  0.7779 -1.1934  1.2085
 6053TIP3    H218166   0.927   4.414   1.034  0.1511  1.0342 -0.8069
 6054TIP3   OH218167   0.393   2.427   1.854  0.1561  0.3108 -0.6396
 6054TIP3    H118168   0.416   2.364   1.922 -0.4061 -1.0147 -1.6190
 6054TIP3    H218169   0.317   2.473   1.888 -0.1972 -0.4249 -0.4149
 6055TIP3   OH218170   0.014   3.936   0.824  0.5470  0.4052  0.1236
 6055TIP3    H118171  -0.001   3.847   0.855 -0.2408  0.8639  1.1262
 6055TIP3    H218172   0.002   3.932   0.729  0.5438 -0.5537  0.1624
 6056TIP3   OH218173   2.225   2.055   1.294  0.0787 -0.0321 -0.1055
 6056TIP3    H118174   2.272   2.034   1.374  1.1247 -0.7025 -0.8756
 6056TIP3    H218175   2.281   2.024   1.223 -0.5136  1.1272 -1.1419
 6057TIP3   OH218176   4.161   3.746   1.837  0.0908 -0.4380 -0.1847
 6057TIP3    H118177   4.248   3.723   1.871 -0.1175 -0.1777  0.5405
 6057TIP3    H218178   4.121   3.799   1.906 -0.4804 -0.1823 -0.6972
 6058TIP3   OH218179   4.271   0.380   1.747 -0.2707 -0.2494 -0.1981
 6058TIP3    H118180   4.338   0.380   1.679  0.1662  1.2410  0.1874
 6058TIP3    H218181   4.306   0.324   1.816 -0.1272 -0.7062 -0.6347
 6059TIP3   OH218182   3.099   5.935   1.066  0.7870  0.0293 -0.1517
 6059TIP3    H118183   3.165   5.916   0.999  0.1524 -2.7312 -0.0948
 6059TIP3    H218184   3.138   5.904   1.147  0.6183  1.2661  0.4366
 6060TIP3   OH218185   4.385   2.541   2.501  0.2780  0.3173 -0.1731
 6060TIP3    H118186   4.384   2.453   2.462  1.4991 -1.3176  3.1083
 6060TIP3    H218187   4.454   2.587   2.453 -0.3036 -0.4964 -1.8881
 6061TIP3   OH218188   5.651   5.804   1.966 -0.6690 -0.4717  0.5912
 6061TIP3    H118189   5.688   5.881   1.923 -0.1140 -0.6460  0.7492
 6061TIP3    H218190   5.561   5.799   1.934 -0.1046 -0.9285 -1.0025
 6062TIP3   OH218191   0.692   2.569   2.529 -0.0996 -0.5770 -0.1696
 6062TIP3    H118192   0.650   2.489   2.558  0.1143 -0.3751  0.7546
 6062TIP3    H218193   0.687   2.567   2.434 -0.1672 -1.6436 -0.1503
 6063TIP3   OH218194   0.923   0.392   1.968 -0.0964  0.1007 -0.0713
 6063TIP3    H118195   0.891   0.332   2.035 -0.9835 -0.8297 -1.2720
 6063TIP3    H218196   1.012   0.361   1.950 -0.6959 -1.2103 -1.0008
 6064TIP3   OH218197   6.213   3.302   1.877  0.0211 -1.0820  0.3418
 6064TIP3    H118198   6.122   3.305   1.848  0.0067  1.8157  0.4858
 6064TIP3    H218199   6.263   3.336   1.802  0.9152 -1.8414  0.5761
 6065TIP3   OH218200   2.310   2.971   0.241 -0.1731 -0.7555 -0.0438
 6065TIP3    H118201   2.265   2.925   0.171  0.1739 -0.6436 -0.3432
 6065TIP3    H218202   2.270   3.058   0.243 -1.8608 -1.4978  1.4919
 6066TIP3   OH218203   5.285   4.399   0.284 -0.1502 -0.1441 -0.1246
 6066TIP3    H118204   5.189   4.398   0.279 -0.1623  1.1109 -0.2694
 6066TIP3    H218205   5.306   4.473   0.341  0.7567 -0.1957 -0.3767
 6067TIP3   OH218206   4.332   4.026   0.330 -0.2906  0.2331 -0.6740
 6067TIP3    H118207   4.373   3.942   0.349 -0.7698 -0.1095 -1.1299
 6067TIP3    H218208   4.259   4.005   0.273  0.5587  1.1304 -2.1596
 6068TIP3   OH218209   5.902   3.234   2.116  0.8135 -0.1895 -0.1863
 6068TIP3    H118210   5.962   3.302   2.147 -1.0844  1.4349  0.0998
 6068TIP3    H218211   5.822   3.247   2.168 -0.3250 -1.2867 -1.5886
 6069TIP3   OH218212   6.148   2.551   1.632 -0.0140  0.0226  0.7916
 6069TIP3    H118213   6.059   2.516   1.636  0.6871 -1.8381  1.0005
 6069TIP3    H218214   6.204   2.474   1.624  1.4816  1.2401 -1.7372
 6070TIP3   OH218215   0.760   0.147   4.757  0.5734  0.0524 -0.3178
 6070TIP3    H118216   0.668   0.128   4.775  0.7222 -0.9164 -0.5278
 6070TIP3    H218217   0.758   0.219   4.693 -0.0364 -0.1428 -0.5231
 6071TIP3   OH218218   2.052   5.394   2.977 -0.0476 -0.0832  0.4977
 6071TIP3    H118219   2.028   5.450   3.051 -0.8568  0.9876 -0.5373
 6071TIP3    H218220   1.973   5.343   2.958  0.3981 -0.9285  0.8416
 6072TIP3   OH218221   0.530   2.391   1.128 -0.0353 -1.2329  0.0163
 6072TIP3    H118222   0.580   2.374   1.048 -0.7803  2.3996 -1.4110
 6072TIP3    H218223   0.593   2.431   1.188 -0.2445 -0.6850 -0.1244
 6073TIP3   OH218224   0.183   0.182   3.825 -0.2158 -0.4048 -0.2033
 6073TIP3    H118225   0.113   0.127   3.859 -0.5988 -0.6915 -1.4073
 6073TIP3    H218226   0.150   0.215   3.741  1.0881 -0.5613 -0.8033
 6074TIP3   OH218227   2.270   0.093   5.056 -0.0805 -0.1839  0.1478
 6074TIP3    H118228   2.356   0.068   5.022 -0.1185  1.4901 -1.3421
 6074TIP3    H218229   2.287   0.175   5.103 -0.8108  0.0169  0.0652
 6075TIP3   OH218230   1.937   0.285   1.861 -0.1521  0.4791 -0.3601
 6075TIP3    H118231   1.911   0.292   1.769 -0.0837  1.9490 -0.3019
 6075TIP3    H218232   1.856   0.266   1.907 -0.0221 -1.3333 -0.7995
 6076TIP3   OH218233   3.289   3.903   3.835  0.5819  0.2576 -0.1019
 6076TIP3    H118234   3.381   3.874   3.837  0.2972 -0.6600  0.9150
 6076TIP3    H218235   3.260   3.882   3.746  0.9135 -0.9649  0.0543
 6077TIP3   OH218236   2.455   5.766   1.071  0.1601 -0.2912 -0.8826
 6077TIP3    H118237   2.513   5.690   1.064  1.4157  0.4275  0.7800
 6077TIP3    H218238   2.488   5.814   1.147 -2.9740 -0.0921  0.5154
 6078TIP3   OH218239   0.128   5.783   4.984 -0.2966  0.0149 -0.0088
 6078TIP3    H118240   0.130   5.700   5.032  1.1418  0.6770  1.1575
 6078TIP3    H218241   0.069   5.767   4.911 -0.3929 -1.9005  0.4386
 6079TIP3   OH218242   0.203   1.008   3.276  0.7708 -0.5015  0.3458
 6079TIP3    H118243   0.217   0.938   3.212  0.1267 -0.7411  0.4604
 6079TIP3    H218244   0.279   1.003   3.334  0.5468 -1.3420  0.5752
 6080TIP3   OH218245   2.837   4.610   1.839 -0.3155  0.3208  0.4691
 6080TIP3    H118246   2.864   4.696   1.871  0.8171  0.5372 -0.9532
 6080TIP3    H218247   2.895   4.548   1.884  1.5458  0.6545 -1.2980
 6081TIP3   OH218248   3.188   5.687   0.188 -0.6728  0.3370  0.0607
 6081TIP3    H118249   3.189   5.612   0.128  0.6346 -0.0052  0.4895
 6081TIP3    H218250   3.257   5.668   0.252 -0.6517  1.6840  0.4667
 6082TIP3   OH218251   1.956   5.306   2.469  0.8842 -0.0698  0.2512
 6082TIP3    H118252   2.028   5.368   2.482  0.0172  1.1542 -0.5565
 6082TIP3    H218253   1.902   5.346   2.401 -0.2538 -1.2375  0.4269
 6083TIP3   OH218254   6.120   3.661   0.224  0.3563 -0.1219 -0.2846
 6083TIP3    H118255   6.214   3.645   0.226  0.4251  0.1989 -0.8465
 6083TIP3    H218256   6.098   3.669   0.131 -0.2766 -0.4872 -0.1706
 6084TIP3   OH218257   3.358   1.234   1.342  0.1908  0.2404  0.4096
 6084TIP3    H118258   3.290   1.173   1.368 -0.7521  1.7105  1.5870
 6084TIP3    H218259   3.439   1.196   1.375 -0.1204 -1.2367 -0.4789
 6085TIP3   OH218260   5.824   5.478   3.456 -0.7041  0.6963  0.0702
 6085TIP3    H118261   5.878   5.447   3.384 -0.5526  1.3760 -0.1237
 6085TIP3    H218262   5.860   5.436   3.534 -1.7661 -1.1835 -0.3862
 6086TIP3   OH218263   5.301   2.657   4.297  0.0255  0.4100  0.0778
 6086TIP3    H118264   5.230   2.665   4.360  0.2928 -0.1507  0.4593
 6086TIP3    H218265   5.379   2.687   4.344  0.1224  0.5713 -0.1845
 6087TIP3   OH218266   3.769   5.771   2.564  0.4061  0.6045  0.1429
 6087TIP3    H118267   3.776   5.676   2.575  0.2724  0.8027  2.5907
 6087TIP3    H218268   3.766   5.785   2.470  2.6976 -1.6554 -0.3576
 6088TIP3   OH218269   3.624   2.218   3.995  0.1232  0.0127 -0.6430
 6088TIP3    H118270   3.673   2.231   3.914 -0.2607  0.4946 -0.8060
 6088TIP3    H218271   3.572   2.139   3.979  1.3575 -0.9053 -0.2063
 6089TIP3   OH218272   5.007   3.242   4.075  0.1547  0.3740 -0.4496
 6089TIP3    H118273   4.995   3.333   4.045  0.2175 -0.4229 -3.1220
 6089TIP3    H218274   4.931   3.225   4.131 -0.8284  1.5007 -1.4041
 6090TIP3   OH218275   0.871   5.478   1.993  0.1407 -0.8396  0.4091
 6090TIP3    H118276   0.825   5.427   1.926 -0.5809 -0.7099  0.7925
 6090TIP3    H218277   0.856   5.569   1.968  0.0899 -0.7944  0.6024
 6091TIP3   OH218278   2.868   1.636   1.740  0.2107  0.2871 -0.0422
 6091TIP3    H118279   2.836   1.565   1.796 -0.0912  1.0580  0.7754
 6091TIP3    H218280   2.802   1.704   1.747  0.3206  0.5188 -1.1152
 6092TIP3   OH218281   1.939   3.492   0.566  0.5996 -0.2603  0.3430
 6092TIP3    H118282   1.975   3.415   0.610  1.1736  0.3204  0.8927
 6092TIP3    H218283   1.847   3.494   0.593 -0.1235 -2.2043 -1.6926
 6093TIP3   OH218284   2.801   0.168   0.480  0.4314 -0.1360 -0.1052
 6093TIP3    H118285   2.767   0.232   0.417 -1.3818 -1.7123 -0.8411
 6093TIP3    H218286   2.853   0.108   0.427 -1.0170 -1.4139 -0.1554
 6094TIP3   OH218287   1.762   2.357   1.220 -0.4492  0.1695  0.2631
 6094TIP3    H118288   1.831   2.407   1.264 -0.6602 -0.9013  1.8725
 6094TIP3    H218289   1.757   2.396   1.132  1.2383  1.1729  0.5672
 6095TIP3   OH218290   4.224   4.852   3.609  0.2685  0.3461  0.1348
 6095TIP3    H118291   4.314   4.884   3.614  0.0792  0.9190 -0.0538
 6095TIP3    H218292   4.207   4.840   3.516  0.0963  0.4089  0.1566
 6096TIP3   OH218293   3.968   4.607   2.122  0.0056  0.3511 -0.3544
 6096TIP3    H118294   4.006   4.681   2.075  2.2972 -0.4578  0.0732
 6096TIP3    H218295   4.042   4.549   2.140 -1.7371 -2.3117 -1.0811
 6097TIP3   OH218296   1.127   5.332   1.136 -0.3681  0.0687  0.2059
 6097TIP3    H118297   1.093   5.316   1.048  0.0108  0.2157  0.0345
 6097TIP3    H218298   1.116   5.426   1.149  0.7059  0.2478 -0.1535
 6098TIP3   OH218299   0.829   3.816   2.028  0.3395 -0.4361  0.5202
 6098TIP3    H118300   0.824   3.865   2.110 -0.2230 -1.2709  1.0020
 6098TIP3    H218301   0.815   3.881   1.960 -1.5345 -0.0794  1.1824
 6099TIP3   OH218302   3.071   5.212   2.733  0.2529 -0.4180  0.1229
 6099TIP3    H118303   3.030   5.130   2.705  2.9257 -1.4416 -1.1392
 6099TIP3    H218304   3.145   5.185   2.787 -0.3500  1.3374  1.9777
 6100TIP3   OH218305   6.110   4.422   3.147 -0.3309  0.0710  0.2242
 6100TIP3    H118306   6.120   4.426   3.242 -1.5474 -2.6009  0.5388
 6100TIP3    H218307   6.023   4.459   3.131 -0.3360  0.0476  0.1989
 6101TIP3   OH218308   3.034   1.229   2.165 -0.0692  0.3789 -0.1866
 6101TIP3    H118309   3.038   1.136   2.189 -0.7491 -0.0044 -1.4657
 6101TIP3    H218310   3.121   1.263   2.186  0.5929 -0.8484 -0.8078
 6102TIP3   OH218311   2.818   0.252   3.611  0.8544 -0.0257 -0.2056
 6102TIP3    H118312   2.890   0.193   3.586  1.9742  1.6303 -1.0918
 6102TIP3    H218313   2.773   0.271   3.529 -1.6079 -2.2046  0.5382
 6103TIP3   OH218314   5.211   4.004   3.951 -0.1753  0.3238 -0.1483
 6103TIP3    H118315   5.250   3.984   4.036  1.5911  1.0823 -0.7435
 6103TIP3    H218316   5.217   3.922   3.901  1.6356  0.6863 -0.5738
 6104TIP3   OH218317   2.787   3.467   3.515  0.4595 -0.1430  0.3047
 6104TIP3    H118318   2.762   3.546   3.561 -0.4122 -0.3865  0.2568
 6104TIP3    H218319   2.721   3.456   3.446 -1.5001 -2.7142  2.3670
 6105TIP3   OH218320   1.293   1.261   1.620  0.4511 -0.1428 -0.1656
 6105TIP3    H118321   1.206   1.226   1.603  0.8614 -0.0152 -2.9918
 6105TIP3    H218322   1.346   1.184   1.643  0.2509 -0.7130 -1.5149
 6106TIP3   OH218323   0.687   1.201   4.921  0.7763  0.0536  0.1848
 6106TIP3    H118324   0.751   1.141   4.884  2.0353  1.1716  0.4780
 6106TIP3    H218325   0.603   1.170   4.887  1.4432 -1.5130 -0.1176
 6107TIP3   OH218326   2.035   2.794   3.897  0.4647 -0.2583 -0.1935
 6107TIP3    H118327   2.090   2.869   3.873 -0.1805  0.4185  0.4157
 6107TIP3    H218328   2.087   2.717   3.872  1.7458  0.3569  0.4946
 6108TIP3   OH218329   4.403   1.714   0.861 -1.2625  0.2905  0.1524
 6108TIP3    H118330   4.361   1.628   0.856 -3.1514  1.1865 -0.3815
 6108TIP3    H218331   4.399   1.737   0.954 -0.0795 -0.4877  0.4129
 6109TIP3   OH218332   2.471   3.089   1.845 -0.0716 -0.2651 -0.8579
 6109TIP3    H118333   2.530   3.101   1.770  1.4882 -0.9528  0.2143
 6109TIP3    H218334   2.465   3.175   1.886  1.4719 -0.4867 -0.0901
 6110TIP3   OH218335   4.586   3.838   4.219 -0.3848 -0.3487 -0.1141
 6110TIP3    H118336   4.607   3.907   4.281  0.3215 -0.0062 -0.7137
 6110TIP3    H218337   4.590   3.881   4.133  1.1966 -1.3635 -0.5966
 6111TIP3   OH218338   1.278   3.497   3.634 -0.0557 -0.1158 -0.0370
 6111TIP3    H118339   1.340   3.556   3.590 -0.0758  1.0281  1.3893
 6111TIP3    H218340   1.333   3.428   3.669  0.3862  0.6274  0.7868
 6112TIP3   OH218341   5.662   5.677   4.979 -0.4037  0.2299 -0.2581
 6112TIP3    H118342   5.707   5.724   5.050  1.4993 -0.8097 -0.6944
 6112TIP3    H218343   5.661   5.738   4.906 -0.1589  0.4627 -0.0679
 6113TIP3   OH218344   4.812   3.383   2.827 -0.6496 -0.2194 -0.3848
 6113TIP3    H118345   4.833   3.476   2.819  0.2902 -0.4411 -0.5945
 6113TIP3    H218346   4.717   3.380   2.824 -0.6848  0.7173 -0.5963
 6114TIP3   OH218347   0.242   2.393   3.386 -0.3134 -0.0203 -0.2114
 6114TIP3    H118348   0.149   2.414   3.371 -0.2393  0.2196 -0.3289
 6114TIP3    H218349   0.244   2.361   3.476 -0.6725 -0.9698 -0.5314
 6115TIP3   OH218350   1.446   4.187   4.000 -0.1840  0.0144 -0.1098
 6115TIP3    H118351   1.472   4.277   3.978  0.6654 -0.2179 -0.0836
 6115TIP3    H218352   1.515   4.156   4.058 -1.2282 -0.1706  1.0657
 6116TIP3   OH218353   5.038   4.193   3.945 -0.2035  0.6636 -0.1913
 6116TIP3    H118354   5.100   4.121   3.935 -2.9979 -1.8132 -1.2286
 6116TIP3    H218355   4.998   4.179   4.031  0.3911  2.0307  0.3284
 6117TIP3   OH218356   1.579   5.963   1.349 -0.3878  0.5899  0.0926
 6117TIP3    H118357   1.611   5.928   1.432 -0.4423 -1.1354 -0.5728
 6117TIP3    H218358   1.631   5.919   1.282  0.6716  3.0279 -0.8030
 6118TIP3   OH218359   5.649   4.987   4.599 -0.1723 -0.2820 -0.1363
 6118TIP3    H118360   5.665   5.035   4.518  1.6131 -1.2894 -0.4440
 6118TIP3    H218361   5.576   4.929   4.578 -0.9393  0.7623 -0.4209
 6119TIP3   OH218362   3.667   1.420   2.596  0.3497  0.0883 -0.1461
 6119TIP3    H118363   3.661   1.324   2.593  0.2933  0.1081 -0.9134
 6119TIP3    H218364   3.649   1.447   2.506 -1.8321  0.9590  0.4934
 6120TIP3   OH218365   4.146   2.776   4.598 -0.0517  0.1997 -0.3806
 6120TIP3    H118366   4.097   2.698   4.573  0.1490 -0.8722  2.3039
 6120TIP3    H218367   4.228   2.770   4.549 -1.2019  0.3217 -2.4340
 6121TIP3   OH218368   6.191   3.505   3.539  0.4460 -0.1030  0.2280
 6121TIP3    H118369   6.203   3.449   3.462 -0.9100  0.0515 -0.1138
 6121TIP3    H218370   6.102   3.487   3.568  0.1077  1.5980  0.3357
 6122TIP3   OH218371   1.340   5.069   3.794 -0.2549 -0.2270 -0.7497
 6122TIP3    H118372   1.300   5.113   3.869  1.0248  0.0328 -0.1801
 6122TIP3    H218373   1.406   5.012   3.832 -0.1657 -0.7336 -1.6369
 6123TIP3   OH218374   3.998   0.191   3.446 -0.1945 -0.2860 -0.1665
 6123TIP3    H118375   3.932   0.125   3.465  0.3597 -0.7048  0.3218
 6123TIP3    H218376   4.080   0.142   3.439  0.2673  0.3819  0.5024
 6124TIP3   OH218377   4.676   0.404   1.977  0.4431  0.5251  0.4366
 6124TIP3    H118378   4.676   0.490   1.936  0.5127  0.2390 -0.1753
 6124TIP3    H218379   4.755   0.362   1.944  1.0043  0.6213  1.5895
 6125TIP3   OH218380   1.369   4.689   3.478  0.1884 -0.2180 -0.4311
 6125TIP3    H118381   1.354   4.768   3.530  0.0877 -0.7813  0.4277
 6125TIP3    H218382   1.461   4.667   3.493 -0.1063 -0.9733  0.3871
 6126TIP3   OH218383   3.389   5.786   1.682  0.9487 -0.4918 -0.2931
 6126TIP3    H118384   3.372   5.794   1.776  0.6523 -2.6064 -0.1274
 6126TIP3    H218385   3.435   5.867   1.660  0.2029  0.4852  1.4606
 6127TIP3   OH218386   3.357   5.001   1.688  0.1500 -0.4573 -0.1778
 6127TIP3    H118387   3.436   5.055   1.692  0.4556 -0.9353  0.2510
 6127TIP3    H218388   3.293   5.050   1.740  0.6436 -0.8511  0.8258
 6128TIP3   OH218389   1.737   5.141   1.586 -0.3529  0.0766 -0.2210
 6128TIP3    H118390   1.749   5.221   1.536 -0.5345  0.6188  0.5786
 6128TIP3    H218391   1.753   5.167   1.677 -1.4251 -0.5613  0.1638
 6129TIP3   OH218392   4.098   4.426   0.985  0.3546  0.4920  0.0395
 6129TIP3    H118393   4.115   4.359   0.918  0.6795  0.8853 -0.2728
 6129TIP3    H218394   4.041   4.382   1.048 -3.8436  1.3575 -2.7438
 6130TIP3   OH218395   2.968   4.995   2.574  0.3792 -0.1436 -0.3090
 6130TIP3    H118396   2.930   4.911   2.600  0.5920 -0.0027  0.4978
 6130TIP3    H218397   2.936   5.010   2.485  1.9273 -2.0143 -1.2626
 6131TIP3   OH218398   5.623   0.092   3.355 -0.2190  0.4949 -0.0233
 6131TIP3    H118399   5.656   0.164   3.409  2.8349 -0.3575 -0.5499
 6131TIP3    H218400   5.637   0.014   3.408  0.6477 -0.1141 -1.1000
 6132TIP3   OH218401   4.072   2.329   2.341 -0.2519 -0.7694  0.2344
 6132TIP3    H118402   3.989   2.290   2.368  0.7636 -2.0791  1.6732
 6132TIP3    H218403   4.071   2.417   2.380 -0.4487 -1.2493  1.3663
 6133TIP3   OH218404   2.939   1.429   5.135  0.3455  0.5520  0.4360
 6133TIP3    H118405   2.928   1.337   5.157  0.6963  0.5978  0.8164
 6133TIP3    H218406   2.932   1.475   5.219 -1.7668  1.0755  0.0525
 6134TIP3   OH218407   5.818   4.981   2.415  0.7213 -0.4342  0.4877
 6134TIP3    H118408   5.851   5.030   2.490 -1.9234  0.1818  1.3477
 6134TIP3    H218409   5.777   5.046   2.359  1.0908 -1.1201 -0.6105
 6135TIP3   OH218410   5.880   0.180   2.136 -0.6007 -0.1054  0.4595
 6135TIP3    H118411   5.906   0.236   2.063 -1.3620 -1.3654 -0.8095
 6135TIP3    H218412   5.962   0.141   2.166 -0.2789  0.4511  0.3206
 6136TIP3   OH218413   3.835   2.954   2.633  0.4635 -0.1854 -0.4602
 6136TIP3    H118414   3.767   3.016   2.661  1.6320  0.8137  0.2347
 6136TIP3    H218415   3.785   2.877   2.603 -0.9679  0.1926  0.7877
 6137TIP3   OH218416   5.431   3.876   2.097 -0.3674  0.1190 -0.4920
 6137TIP3    H118417   5.471   3.859   2.012  0.5818 -0.7493  0.0984
 6137TIP3    H218418   5.478   3.952   2.131 -0.6097  0.3419 -0.6504
 6138TIP3   OH218419   2.730   3.056   1.697  0.2379 -0.8875  0.3330
 6138TIP3    H118420   2.653   3.024   1.649 -0.4584  0.6324  0.3751
 6138TIP3    H218421   2.784   3.098   1.631 -0.6564  1.0881  0.7799
 6139TIP3   OH218422   1.435   2.808   2.548  0.3055  0.1028  0.0520
 6139TIP3    H118423   1.436   2.833   2.455 -1.2332 -1.0811 -0.3251
 6139TIP3    H218424   1.490   2.730   2.553 -0.8529 -0.7526 -0.1853
 6140TIP3   OH218425   2.819   4.581   2.377 -0.3433 -0.0165 -0.1624
 6140TIP3    H118426   2.742   4.524   2.388 -0.3980  0.0368 -0.2645
 6140TIP3    H218427   2.892   4.530   2.412 -0.2774 -0.4278 -0.8727
 6141TIP3   OH218428   5.462   5.391   4.885  0.4146 -0.0194  0.1763
 6141TIP3    H118429   5.438   5.355   4.970  0.7755  0.0999  0.3320
 6141TIP3    H218430   5.478   5.315   4.829  0.9133 -0.1000  0.4274
 6142TIP3   OH218431   4.764   0.848   4.285  0.4404 -0.0040 -0.4986
 6142TIP3    H118432   4.683   0.897   4.296  0.1358 -0.2688 -1.4288
 6142TIP3    H218433   4.804   0.885   4.206 -1.1216 -2.9237 -2.8869
 6143TIP3   OH218434   1.568   0.363   4.650  0.2466 -0.1758  0.7041
 6143TIP3    H118435   1.637   0.369   4.716 -0.4713 -1.7249  1.6465
 6143TIP3    H218436   1.526   0.449   4.651  2.3257  0.9114 -0.1249
 6144TIP3   OH218437   2.963   0.240   0.204  0.2460 -0.1911 -0.5913
 6144TIP3    H118438   2.903   0.270   0.137  0.2229  2.0627  0.3564
 6144TIP3    H218439   2.998   0.320   0.244  2.6220 -1.4101  0.0123
 6145TIP3   OH218440   5.170   0.182   2.028 -0.0209 -0.0026 -0.5681
 6145TIP3    H118441   5.120   0.106   1.998  0.0488 -0.6952  0.9874
 6145TIP3    H218442   5.241   0.145   2.080 -0.2798  1.1266  0.6526
 6146TIP3   OH218443   3.459   3.296   3.658  0.3605 -0.4000  0.8059
 6146TIP3    H118444   3.452   3.380   3.702 -0.1621 -0.4204  0.7677
 6146TIP3    H218445   3.378   3.249   3.682 -0.5304  0.0330 -1.1252
 6147TIP3   OH218446   3.243   4.456   1.064 -0.2113  0.7050  0.1131
 6147TIP3    H118447   3.304   4.510   1.114  0.5774 -0.1651  0.1231
 6147TIP3    H218448   3.243   4.372   1.110 -0.8374  0.4569 -0.3288
 6148TIP3   OH218449   4.880   4.405   5.041  0.0056 -0.0952 -0.3316
 6148TIP3    H118450   4.855   4.454   4.963 -1.9207 -1.1069 -0.4077
 6148TIP3    H218451   4.797   4.381   5.082  0.9102 -1.7044  0.6826
 6149TIP3   OH218452   4.514   1.301   2.188 -0.2905  0.4963  0.2634
 6149TIP3    H118453   4.601   1.316   2.226 -0.7185 -0.3391  1.6340
 6149TIP3    H218454   4.532   1.250   2.109  0.3952 -1.3069  1.5036
 6150TIP3   OH218455   1.795   3.368   1.324  0.1142  0.3460  0.7107
 6150TIP3    H118456   1.826   3.397   1.409 -1.2186 -1.3408  1.8283
 6150TIP3    H218457   1.716   3.317   1.342 -1.1159  1.1907 -1.6598
 6151TIP3   OH218458   5.618   0.345   0.302 -0.3672 -0.3773  0.2230
 6151TIP3    H118459   5.637   0.299   0.220 -0.3436 -0.7297  0.4214
 6151TIP3    H218460   5.522   0.340   0.309 -0.6573  2.0147 -1.1334
 6152TIP3   OH218461   5.715   1.363   2.389 -0.2073  0.3018 -0.4742
 6152TIP3    H118462   5.792   1.320   2.354  0.4131  0.7184  0.3371
 6152TIP3    H218463   5.645   1.342   2.328 -0.3480 -3.2051  0.6700
 6153TIP3   OH218464   6.100   3.970   4.245  0.2878 -0.0375 -0.1274
 6153TIP3    H118465   6.157   3.992   4.318  1.0183 -1.4439 -0.2433
 6153TIP3    H218466   6.159   3.951   4.173 -0.4210  2.3721 -1.4696
 6154TIP3   OH218467   0.296   5.532   1.575  0.4635 -0.3113  0.4731
 6154TIP3    H118468   0.308   5.458   1.516  2.1817  1.5797 -1.7407
 6154TIP3    H218469   0.209   5.567   1.553  0.0615 -1.0526  0.8407
 6155TIP3   OH218470   6.175   2.365   1.228  0.1728 -0.2164 -0.3365
 6155TIP3    H118471   6.209   2.279   1.252  0.4403  0.0568  0.2864
 6155TIP3    H218472   6.087   2.367   1.265  1.1919  0.8621  2.2672
 6156TIP3   OH218473   3.620   2.583   0.929  0.3916 -0.4029  0.2126
 6156TIP3    H118474   3.713   2.603   0.923  0.3899 -0.5183 -0.2460
 6156TIP3    H218475   3.617   2.489   0.950  0.4008  0.0434  2.3980
 6157TIP3   OH218476   1.883   3.999   4.274 -0.1254 -0.1015  0.2904
 6157TIP3    H118477   1.897   3.941   4.349  0.4370 -0.9156 -0.4242
 6157TIP3    H218478   1.961   4.054   4.271 -0.5271  0.5101  0.7923
 6158TIP3   OH218479   3.593   2.415   3.273 -0.4085 -0.6646  0.0276
 6158TIP3    H118480   3.523   2.390   3.334 -0.5314  0.5471  0.4088
 6158TIP3    H218481   3.621   2.332   3.234 -1.5225 -1.2601  0.4396
 6159TIP3   OH218482   2.594   2.973   0.497 -0.0022 -0.0825  0.3335
 6159TIP3    H118483   2.654   2.899   0.491  3.7252  2.5466  1.7055
 6159TIP3    H218484   2.588   3.007   0.408  2.7697  1.0426  0.4732
 6160TIP3   OH218485   5.255   3.221   1.490 -0.5030  0.0744  0.0853
 6160TIP3    H118486   5.160   3.216   1.479 -0.4949 -0.5041  0.2376
 6160TIP3    H218487   5.272   3.176   1.573 -0.1258  0.4653  0.2257
 6161TIP3   OH218488   5.077   2.323   1.804  0.5125  0.2818 -0.0001
 6161TIP3    H118489   5.032   2.258   1.857  1.0033 -1.2457 -1.3750
 6161TIP3    H218490   5.009   2.387   1.781 -0.0900  0.0113  0.9779
 6162TIP3   OH218491   0.220   2.910   0.452  0.4746  0.2257  0.2647
 6162TIP3    H118492   0.209   2.981   0.388  0.2197 -1.3218 -1.4956
 6162TIP3    H218493   0.311   2.918   0.481  0.6576  0.8467 -0.4416
 6163TIP3   OH218494   6.063   0.849   1.354  0.0225  0.4438 -0.2519
 6163TIP3    H118495   6.101   0.937   1.358  2.5480 -0.5784 -0.1647
 6163TIP3    H218496   6.013   0.849   1.272  2.2219  1.1719 -1.7009
 6164TIP3   OH218497   3.042   0.727   1.673 -0.2882  0.3563 -0.5857
 6164TIP3    H118498   3.015   0.803   1.724  0.1624  0.2319 -0.1479
 6164TIP3    H218499   3.054   0.760   1.584  1.6472  1.2127 -0.0504
 6165TIP3   OH218500   3.498   4.700   2.993  0.0557 -0.1569 -0.9665
 6165TIP3    H118501   3.442   4.623   2.990  1.5354 -1.2515 -1.6883
 6165TIP3    H218502   3.473   4.745   3.074 -1.6724 -0.7127 -1.1543
 6166TIP3   OH218503   2.290   3.227   4.322  0.4562  0.2294 -0.4080
 6166TIP3    H118504   2.228   3.208   4.393  1.8889 -0.5445  0.7047
 6166TIP3    H218505   2.236   3.228   4.243 -0.7817 -1.8588  0.3192
 6167TIP3   OH218506   4.460   4.734   2.985  0.2466 -0.3722  0.3932
 6167TIP3    H118507   4.541   4.707   3.028  0.8393  1.0498  0.2454
 6167TIP3    H218508   4.396   4.742   3.056  0.1278 -1.7814  0.4738
 6168TIP3   OH218509   5.194   1.050   2.211 -0.0727 -0.0240  0.0720
 6168TIP3    H118510   5.159   1.121   2.265 -2.4465 -0.7196 -0.4651
 6168TIP3    H218511   5.164   0.970   2.254  1.8443 -0.7401  0.1880
 6169TIP3   OH218512   3.570   3.869   2.932  0.4457 -0.4190 -0.3838
 6169TIP3    H118513   3.479   3.856   2.906  0.1360  0.6673  0.0990
 6169TIP3    H218514   3.567   3.874   3.028  1.1453 -1.3076 -0.3067
 6170TIP3   OH218515   4.261   4.717   1.696 -0.7342 -0.4251 -0.4710
 6170TIP3    H118516   4.285   4.793   1.750 -0.5435  0.5967 -1.9199
 6170TIP3    H218517   4.341   4.696   1.648 -0.7456 -1.6752  0.0368
 6171TIP3   OH218518   0.589   2.605   0.844 -0.7224  0.8016  0.1665
 6171TIP3    H118519   0.560   2.514   0.841 -1.3587  1.0101 -1.0604
 6171TIP3    H218520   0.659   2.610   0.779 -0.3410  1.0745  0.5977
 6172TIP3   OH218521   2.693   5.440   2.176 -0.2792  0.6347  0.8127
 6172TIP3    H118522   2.706   5.496   2.252 -0.0782  1.3120  0.2903
 6172TIP3    H218523   2.644   5.494   2.114 -0.1000  0.2259  0.3045
 6173TIP3   OH218524   0.352   4.226   1.347  0.3086 -0.2793 -0.0278
 6173TIP3    H118525   0.274   4.171   1.348  1.0836 -1.4351  0.9950
 6173TIP3    H218526   0.319   4.316   1.347 -1.0015 -0.7317 -0.7565
 6174TIP3   OH218527   0.285   2.601   2.741 -0.7155 -0.0973  0.0542
 6174TIP3    H118528   0.329   2.531   2.789  0.3006  1.0688  0.9103
 6174TIP3    H218529   0.192   2.590   2.761 -0.3654  0.1320  2.0704
 6175TIP3   OH218530   2.714   0.558   2.458  0.1553  0.4669  0.1465
 6175TIP3    H118531   2.700   0.624   2.390 -1.4046 -1.6373 -1.7487
 6175TIP3    H218532   2.628   0.545   2.497 -0.0475 -1.7486 -0.8803
 6176TIP3   OH218533   0.997   4.602   0.161  0.1087 -0.2811 -0.1637
 6176TIP3    H118534   1.027   4.512   0.172 -3.9284 -1.9003 -0.9661
 6176TIP3    H218535   1.020   4.645   0.243  0.5855 -2.5326  0.9445
 6177TIP3   OH218536   3.329   0.002   0.056  0.5563  0.1124  0.5093
 6177TIP3    H118537   3.315   0.096   0.046 -1.5765 -0.1903  0.2791
 6177TIP3    H218538   3.318  -0.034  -0.032 -0.1942 -0.5262  0.8569
 6178TIP3   OH218539   6.155   5.784   0.840 -0.1598 -0.2059 -0.4808
 6178TIP3    H118540   6.199   5.700   0.857 -0.5239 -0.2070  0.4550
 6178TIP3    H218541   6.160   5.793   0.744  0.0237 -1.2193 -0.5866
 6179TIP3   OH218542   1.023   4.488   3.920  0.0447  0.9103 -0.3256
 6179TIP3    H118543   1.005   4.455   3.832  0.3935  1.4554 -0.6069
 6179TIP3    H218544   1.005   4.582   3.915 -0.2139  0.8940  0.2638
 6180TIP3   OH218545   4.966   3.497   3.964  0.0922  0.2092  0.0136
 6180TIP3    H118546   4.972   3.589   3.940  0.7466  0.2744  0.4024
 6180TIP3    H218547   4.920   3.456   3.891  0.1588  0.7724 -0.3463
 6181TIP3   OH218548   3.822   5.560   4.752 -0.2890  0.7049  0.8170
 6181TIP3    H118549   3.805   5.468   4.775 -0.4994  0.9108  1.5133
 6181TIP3    H218550   3.914   5.561   4.726 -0.9815 -0.2314 -2.0108
 6182TIP3   OH218551   3.678   0.290   2.407 -0.4862 -0.1858  0.0211
 6182TIP3    H118552   3.592   0.303   2.446 -1.0520  1.5177 -1.6113
 6182TIP3    H218553   3.670   0.209   2.357 -0.5050 -1.0561  1.3764
 6183TIP3   OH218554   3.486   5.631   2.925  0.1467  0.1270 -0.0664
 6183TIP3    H118555   3.549   5.693   2.963  0.7778 -0.3856 -0.2574
 6183TIP3    H218556   3.444   5.680   2.854  0.5235  0.3986 -0.1079
 6184TIP3   OH218557   2.251   5.260   0.566  0.1994 -0.4390  0.4595
 6184TIP3    H118558   2.214   5.328   0.510  1.0328 -0.3570 -0.0218
 6184TIP3    H218559   2.339   5.292   0.588  0.3376 -1.0322  0.8165
 6185TIP3   OH218560   0.188   2.804   4.637  0.5674 -0.0983 -0.2181
 6185TIP3    H118561   0.133   2.744   4.587  0.3238 -0.6459  0.6787
 6185TIP3    H218562   0.129   2.875   4.663  0.5373 -0.1483 -0.1500
 6186TIP3   OH218563   2.260   3.961   1.955  0.0643  0.1710 -0.0654
 6186TIP3    H118564   2.254   4.033   2.018  1.1465  0.4809 -0.2958
 6186TIP3    H218565   2.169   3.941   1.933 -0.3093  0.4726  1.1183
 6187TIP3   OH218566   6.043   2.620   1.110  0.0252  0.0234 -0.8734
 6187TIP3    H118567   6.038   2.707   1.150 -0.5751 -0.2552 -0.3276
 6187TIP3    H218568   6.077   2.564   1.179 -0.2844 -0.3172 -0.9946
 6188TIP3   OH218569   3.946   0.844   0.594 -0.0711 -0.0288  0.0128
 6188TIP3    H118570   4.016   0.821   0.534  1.9624  0.9893  1.8777
 6188TIP3    H218571   3.866   0.810   0.552  1.2776  0.1942 -2.9480
 6189TIP3   OH218572   6.214   0.882   1.904  0.1276  0.1017 -0.4782
 6189TIP3    H118573   6.127   0.853   1.875 -0.0137  1.3297 -1.3849
 6189TIP3    H218574   6.200   0.915   1.993 -0.1362 -0.5818 -0.2613
 6190TIP3   OH218575   3.100   5.738   0.454  0.1782  0.2600 -0.1062
 6190TIP3    H118576   3.121   5.720   0.362 -2.7899 -1.3000 -0.5913
 6190TIP3    H218577   3.048   5.662   0.482 -2.0902  2.3423  1.7440
 6191TIP3   OH218578   5.827   5.318   0.516 -0.1832  0.0355 -0.5115
 6191TIP3    H118579   5.743   5.361   0.530  0.5599  1.2501  0.5559
 6191TIP3    H218580   5.855   5.290   0.604  1.0663  0.7672 -0.6429
 6192TIP3   OH218581   0.476   2.234   4.139  0.3518 -0.5147 -0.1522
 6192TIP3    H118582   0.507   2.219   4.228  0.3841 -1.9775 -0.3817
 6192TIP3    H218583   0.383   2.213   4.142  0.1016  0.5149 -0.2326
 6193TIP3   OH218584   3.865   4.417   1.850  0.0389 -0.8809 -0.0442
 6193TIP3    H118585   3.956   4.445   1.840 -0.5242  0.4619 -1.9744
 6193TIP3    H218586   3.868   4.322   1.841  1.1541 -0.7689 -1.0584
 6194TIP3   OH218587   5.589   3.457   3.176  0.4207  0.3877 -0.4945
 6194TIP3    H118588   5.668   3.406   3.155 -0.0383 -0.0420 -1.2216
 6194TIP3    H218589   5.591   3.465   3.271  1.5285  0.6880 -0.5185
 6195TIP3   OH218590   6.172   4.392   0.715  0.2286 -0.4346 -0.4686
 6195TIP3    H118591   6.193   4.358   0.802  0.0721 -0.4249 -0.4266
 6195TIP3    H218592   6.170   4.314   0.659  3.4697 -0.1621 -1.1274
 6196TIP3   OH218593   3.183   4.295   4.458 -0.4955 -0.2955  0.5026
 6196TIP3    H118594   3.242   4.225   4.485 -0.7488 -0.0129  1.8472
 6196TIP3    H218595   3.237   4.353   4.405  0.4378 -0.0946  1.6297
 6197TIP3   OH218596   2.534   4.785   3.164 -0.2157 -0.0138 -0.5466
 6197TIP3    H118597   2.578   4.842   3.100 -1.1604  0.3449 -0.8977
 6197TIP3    H218598   2.444   4.778   3.132 -0.0183 -2.1386 -0.8038
 6198TIP3   OH218599   2.018   4.142   1.711  0.0228 -0.1527  0.6740
 6198TIP3    H118600   1.936   4.180   1.744 -0.0390  0.7730 -0.4830
 6198TIP3    H218601   2.038   4.193   1.633  0.3781 -1.9988 -0.5107
 6199TIP3   OH218602   3.787   3.831   2.565  0.1730  0.0828  0.1275
 6199TIP3    H118603   3.745   3.907   2.605  2.6887  1.1455  0.9401
 6199TIP3    H218604   3.785   3.764   2.634  0.8688  0.5462  0.6110
 6200TIP3   OH218605   4.407   3.980   1.092 -0.5852  0.3047  0.0050
 6200TIP3    H118606   4.346   3.916   1.128 -1.5842  0.7639 -0.8119
 6200TIP3    H218607   4.492   3.937   1.093 -1.6112 -2.2231 -3.1881
 6201TIP3   OH218608   0.508   1.642   4.274  0.2796  0.0677  0.2556
 6201TIP3    H118609   0.520   1.713   4.336  0.8052 -0.1550  0.4142
 6201TIP3    H218610   0.591   1.593   4.277 -0.1871 -0.7276  0.3752
 6202TIP3   OH218611   2.074   1.056   4.990 -0.2084 -0.0680 -0.0816
 6202TIP3    H118612   2.048   1.028   5.077  0.7669 -2.4917 -0.4894
 6202TIP3    H218613   2.054   0.982   4.933 -0.0033  1.1021 -1.7836
 6203TIP3   OH218614   5.346   1.322   2.400 -0.5309  0.3249  0.4626
 6203TIP3    H118615   5.256   1.290   2.400 -0.2171 -0.5979 -0.1951
 6203TIP3    H218616   5.339   1.412   2.370 -1.2311  0.2525  0.3847
 6204TIP3   OH218617   1.082   4.667   4.774 -0.1422  0.3479 -0.4204
 6204TIP3    H118618   1.172   4.699   4.783  0.0266 -0.0577 -0.6269
 6204TIP3    H218619   1.033   4.713   4.842  0.3086  0.2531 -0.0301
 6205TIP3   OH218620   3.009   4.834   3.379  0.3339 -0.0812 -0.1175
 6205TIP3    H118621   3.065   4.757   3.375 -0.4362 -0.6090 -0.8625
 6205TIP3    H218622   3.064   4.901   3.421  1.7643 -0.3826 -1.4234
 6206TIP3   OH218623   0.181   2.016   0.259  0.0169  1.0279 -0.4866
 6206TIP3    H118624   0.210   2.095   0.304 -0.4641 -0.1902  2.1765
 6206TIP3    H218625   0.174   1.950   0.328  0.6806 -1.4708 -2.6287
 6207TIP3   OH218626   4.459   0.199   4.777  0.0283 -0.2410  1.2513
 6207TIP3    H118627   4.554   0.209   4.767 -0.2474  1.2312 -0.3827
 6207TIP3    H218628   4.446   0.194   4.871  1.9058 -3.0284  1.5082
 6208TIP3   OH218629   3.125   2.115   4.122  0.0336 -0.4231 -0.0185
 6208TIP3    H118630   3.170   2.163   4.052  3.0580 -0.7099  1.5662
 6208TIP3    H218631   3.098   2.182   4.184  3.0623 -0.5049  1.5391
 6209TIP3   OH218632   0.339   2.347   4.942  0.0808 -0.0767  0.3625
 6209TIP3    H118633   0.336   2.297   4.861 -0.3604 -0.7031  0.7524
 6209TIP3    H218634   0.429   2.337   4.973  0.3898  0.5820 -0.2950
 6210TIP3   OH218635   4.774   3.654   4.164 -0.1261  0.1010 -0.4409
 6210TIP3    H118636   4.719   3.717   4.211  1.0288 -0.1469  1.3055
 6210TIP3    H218637   4.794   3.698   4.081 -0.7303  1.3179  0.0289
 6211TIP3   OH218638   4.515   4.456   4.780  0.1321 -0.1673 -0.1976
 6211TIP3    H118639   4.486   4.365   4.775 -2.3151  0.5005  0.5036
 6211TIP3    H218640   4.474   4.499   4.705 -0.8441  0.8531  0.8784
 6212TIP3   OH218641   0.708   5.894   2.455 -0.4136 -0.6139  0.3318
 6212TIP3    H118642   0.709   5.886   2.360 -1.7122 -0.8477  0.3236
 6212TIP3    H218643   0.650   5.968   2.473  0.1334 -0.3157  0.9438
 6213TIP3   OH218644   3.346   1.309   4.258  0.3152 -0.0928  0.1374
 6213TIP3    H118645   3.256   1.276   4.250 -0.7647  2.0454  2.2165
 6213TIP3    H218646   3.356   1.370   4.184 -0.2133  0.2138  0.3163
 6214TIP3   OH218647   3.124   5.327   5.146  0.2027 -0.0075 -0.3686
 6214TIP3    H118648   3.110   5.290   5.233 -0.2756 -0.4335 -0.6217
 6214TIP3    H218649   3.161   5.256   5.095  1.3556  0.5067 -0.2788
 6215TIP3   OH218650   3.758   4.533   1.611  0.0933  0.1854  0.5765
 6215TIP3    H118651   3.849   4.561   1.598  0.2786 -0.9675 -0.9199
 6215TIP3    H218652   3.755   4.504   1.703  1.3149 -0.0078  0.5762
 6216TIP3   OH218653   4.859   4.743   0.094  0.3307 -0.0960  0.0219
 6216TIP3    H118654   4.796   4.679   0.061  0.0136 -0.5549  1.4303
 6216TIP3    H218655   4.901   4.778   0.016  0.4771 -2.0017 -0.8203
 6217TIP3   OH218656   3.499   1.172   3.360  0.5950  0.3553  0.2681
 6217TIP3    H118657   3.476   1.211   3.276  1.6266  0.0210 -0.1837
 6217TIP3    H218658   3.476   1.079   3.350  1.2024  0.2121  0.1574
 6218TIP3   OH218659   4.570   2.297   4.737  0.2135 -0.1947 -0.3663
 6218TIP3    H118660   4.663   2.301   4.762  0.4352  1.6734 -1.3546
 6218TIP3    H218661   4.532   2.378   4.771 -0.3925  0.4288 -2.4075
 6219TIP3   OH218662   2.558   4.308   3.769  0.2213  0.0902 -0.5689
 6219TIP3    H118663   2.587   4.337   3.682  1.5539 -0.5599 -0.3613
 6219TIP3    H218664   2.633   4.263   3.806  0.3794  2.0369  1.7446
 6220TIP3   OH218665   3.462   3.536   3.797  0.0501  0.3141 -0.2689
 6220TIP3    H118666   3.465   3.507   3.888 -1.0881 -0.7288 -0.5366
 6220TIP3    H218667   3.485   3.629   3.801 -0.4232  0.3962  1.1273
 6221TIP3   OH218668   4.397   2.450   1.852 -0.1259  0.2563  0.0806
 6221TIP3    H118669   4.369   2.540   1.863 -1.3026  0.0310 -0.8658
 6221TIP3    H218670   4.493   2.454   1.857 -0.1410  1.6130 -0.3881
 6222TIP3   OH218671   0.975   1.329   4.878  0.2129 -0.0611 -0.2394
 6222TIP3    H118672   0.965   1.317   4.972  1.1476 -1.2710 -0.2736
 6222TIP3    H218673   0.983   1.424   4.867 -0.1911  0.1159  0.8620
 6223TIP3   OH218674   0.413   1.849   4.460 -0.0716 -0.2422  0.0805
 6223TIP3    H118675   0.340   1.900   4.495 -0.3598 -0.6641  0.0996
 6223TIP3    H218676   0.489   1.875   4.513 -0.5383 -1.0264  1.1569
 6224TIP3   OH218677   4.493   1.773   0.172 -0.1391  0.3128  0.1717
 6224TIP3    H118678   4.549   1.703   0.140 -1.8194 -0.9780 -0.0821
 6224TIP3    H218679   4.465   1.743   0.259 -0.3497  0.9943  0.3446
 6225TIP3   OH218680   3.890   2.498   0.497  0.0976  0.0670  0.2518
 6225TIP3    H118681   3.839   2.425   0.460  0.1631  0.3169 -0.3390
 6225TIP3    H218682   3.932   2.539   0.421 -1.8853  2.2473  0.2116
 6226TIP3   OH218683   1.163   0.646   3.714 -0.3638 -0.0670 -0.0720
 6226TIP3    H118684   1.182   0.666   3.806 -0.7162 -1.4932  0.3318
 6226TIP3    H218685   1.247   0.655   3.669  0.0861 -0.6268  0.6360
 6227TIP3   OH218686   3.937   3.435   0.869  0.2616  0.1242 -0.3443
 6227TIP3    H118687   3.895   3.383   0.800 -1.5646  2.7531 -1.3780
 6227TIP3    H218688   3.944   3.523   0.832  2.3230  0.8947  1.6498
 6228TIP3   OH218689   2.330   3.817   2.698 -0.1170 -0.1176 -0.5004
 6228TIP3    H118690   2.403   3.755   2.688 -1.1152 -1.0889 -2.3790
 6228TIP3    H218691   2.371   3.899   2.725  1.4883 -1.0386 -0.0215
 6229TIP3   OH218692   5.048   3.513   0.703  0.1973 -0.1913  0.5388
 6229TIP3    H118693   5.117   3.564   0.660 -2.6119  2.5092 -1.1625
 6229TIP3    H218694   5.039   3.554   0.789 -0.8061  1.0733 -0.1333
 6230TIP3   OH218695   0.020   5.668   4.161  0.6427 -0.5127  0.1501
 6230TIP3    H118696  -0.022   5.682   4.077  2.3488  1.1809 -0.4944
 6230TIP3    H218697   0.049   5.576   4.159  0.0377 -0.6906 -0.7888
 6231TIP3   OH218698   0.373   1.375   4.968 -0.0738 -0.0656  0.1180
 6231TIP3    H118699   0.467   1.359   4.961  0.0294  0.7591 -0.6730
 6231TIP3    H218700   0.366   1.470   4.977 -0.7816 -0.2205  1.4499
 6232TIP3   OH218701   0.506   5.114   4.791  0.2602  0.5237 -0.4517
 6232TIP3    H118702   0.461   5.059   4.855 -0.5437  1.1684 -0.4395
 6232TIP3    H218703   0.595   5.079   4.788 -0.0116 -0.2625  0.1396
 6233TIP3   OH218704   0.515   2.567   5.026 -0.4747 -0.3045 -0.7243
 6233TIP3    H118705   0.473   2.560   4.941 -3.0199  1.7730  0.2216
 6233TIP3    H218706   0.590   2.507   5.021 -1.8619 -2.0178 -3.5552
 6234TIP3   OH218707   0.779   3.612   1.673  0.5612 -0.0719 -0.7412
 6234TIP3    H118708   0.782   3.518   1.694  1.4255  0.1319  0.1622
 6234TIP3    H218709   0.860   3.628   1.625  0.4342  0.2136 -0.8599
 6235TIP3   OH218710   3.889   4.720   2.375 -0.6359  0.4265  0.2144
 6235TIP3    H118711   3.912   4.654   2.440 -0.4575  1.3154  1.0718
 6235TIP3    H218712   3.886   4.671   2.292  4.1486  0.0772 -0.0678
 6236TIP3   OH218713   0.220   2.396   3.887  0.2364 -0.4111 -0.7811
 6236TIP3    H118714   0.236   2.483   3.853  1.4537 -0.7747 -1.1813
 6236TIP3    H218715   0.224   2.338   3.810  0.4220 -0.9337 -0.3863
 6237TIP3   OH218716   5.867   2.998   3.993  0.2985 -0.0582 -0.0955
 6237TIP3    H118717   5.839   2.939   3.924 -2.0456  0.7564  0.0768
 6237TIP3    H218718   5.914   3.068   3.948  0.7816 -0.6850 -0.5797
 6238TIP3   OH218719   5.110   5.888   4.267  0.2626 -0.0896 -0.0115
 6238TIP3    H118720   5.083   5.968   4.312  0.1400  0.5074 -1.1182
 6238TIP3    H218721   5.053   5.820   4.303 -2.0841  0.9454 -1.5020
 6239TIP3   OH218722   0.927   5.489   4.620  0.5645 -0.1554 -0.0332
 6239TIP3    H118723   0.882   5.476   4.704  1.6146  0.2597  0.6153
 6239TIP3    H218724   0.903   5.413   4.567  0.0315 -0.5092  0.7033
 6240TIP3   OH218725   4.846   5.764   2.341  0.5212 -0.3215 -1.0035
 6240TIP3    H118726   4.933   5.772   2.380  0.3605  0.6870 -0.8243
 6240TIP3    H218727   4.789   5.814   2.399 -0.5372 -2.3947 -0.1215
 6241TIP3   OH218728   1.085   4.506   2.202 -0.2207 -0.6753 -0.1195
 6241TIP3    H118729   1.056   4.506   2.110  0.2829 -0.5673 -0.2813
 6241TIP3    H218730   1.140   4.584   2.209  0.3012 -1.0587  0.0960
 6242TIP3   OH218731   3.213   1.888   2.963 -0.4946  0.3929 -0.2212
 6242TIP3    H118732   3.169   1.962   2.921 -1.4018 -0.1810 -0.3277
 6242TIP3    H218733   3.204   1.816   2.900  0.0817  0.1062  0.0191
 6243TIP3   OH218734   2.079   4.828   2.550  0.2361 -0.6210  0.4409
 6243TIP3    H118735   2.146   4.785   2.496  1.1072 -1.1704  1.8863
 6243TIP3    H218736   2.097   4.921   2.539  2.0403 -0.7576  1.6646
 6244TIP3   OH218737   3.147   2.547   0.284 -0.1739 -0.5983 -0.0681
 6244TIP3    H118738   3.136   2.639   0.308 -0.2839  0.1382 -2.6490
 6244TIP3    H218739   3.237   2.541   0.251  0.4224 -1.8508  1.6520
 6245TIP3   OH218740   3.448   4.709   0.293 -0.0967 -0.2796  0.0193
 6245TIP3    H118741   3.450   4.754   0.377  0.4300  0.1358 -0.2095
 6245TIP3    H218742   3.427   4.618   0.315  1.0412 -0.4080  0.7141
 6246TIP3   OH218743   4.512   4.501   3.733  0.0844  0.1988  0.2620
 6246TIP3    H118744   4.543   4.411   3.718 -0.8101 -0.1105  0.2482
 6246TIP3    H218745   4.435   4.509   3.677  1.6578  1.8614 -1.8330
 6247TIP3   OH218746   2.440   3.500   2.625 -0.1183  0.0040  0.8902
 6247TIP3    H118747   2.516   3.559   2.627  2.0459 -2.6380  1.4677
 6247TIP3    H218748   2.419   3.485   2.717 -1.4914  0.8042  0.7345
 6248TIP3   OH218749   4.829   0.510   0.317  0.7116 -0.4384 -0.4814
 6248TIP3    H118750   4.852   0.492   0.409 -0.0371 -0.3079 -0.2659
 6248TIP3    H218751   4.852   0.429   0.271 -0.5278 -1.1639  0.1105
 6249TIP3   OH218752   1.217   4.342   4.103 -0.3961  0.5764 -0.5201
 6249TIP3    H118753   1.159   4.376   4.036 -1.4715  1.9522  1.0274
 6249TIP3    H218754   1.242   4.255   4.072 -0.5887  1.2814 -2.8106
 6250TIP3   OH218755   3.842   3.664   4.075 -0.0699 -0.0004  0.0326
 6250TIP3    H118756   3.916   3.661   4.015  0.7439 -0.8057  1.0435
 6250TIP3    H218757   3.827   3.758   4.090  0.0172  0.1930 -1.0466
 6251TIP3   OH218758   1.057   4.053   2.084  0.2371 -0.2775 -0.1705
 6251TIP3    H118759   1.152   4.041   2.079  0.0738 -1.9681  0.2845
 6251TIP3    H218760   1.024   3.971   2.121 -1.2121  1.0748  1.7645
 6252TIP3   OH218761   4.827   3.780   3.928 -0.0723 -0.1594 -0.1794
 6252TIP3    H118762   4.744   3.826   3.916 -1.0835 -1.9111 -0.2389
 6252TIP3    H218763   4.848   3.745   3.841  0.7571  0.3083 -0.1754
 6253TIP3   OH218764   0.076   3.237   2.073 -0.3513 -0.0310 -0.2520
 6253TIP3    H118765   0.020   3.184   2.130  0.0749  0.6634  0.8541
 6253TIP3    H218766   0.017   3.270   2.005 -0.7462 -1.3928 -0.6168
 6254TIP3   OH218767   4.778   0.895   2.282 -0.1872  0.2329  0.0995
 6254TIP3    H118768   4.730   0.932   2.356 -0.1934 -0.0069  0.2189
 6254TIP3    H218769   4.769   0.800   2.293  0.5752  0.1736  0.3002
 6255TIP3   OH218770   3.554   5.273   5.015 -0.0463 -0.2550  0.3125
 6255TIP3    H118771   3.523   5.337   5.079  0.6440  0.1595  0.2521
 6255TIP3    H218772   3.510   5.192   5.038 -0.8549  0.2161  0.4623
 6256TIP3   OH218773   5.707   1.101   2.531 -0.1262 -0.0216  0.3038
 6256TIP3    H118774   5.675   1.190   2.546 -0.1424  0.0004  0.1388
 6256TIP3    H218775   5.801   1.106   2.552 -0.0550  0.1175 -0.0348
 6257TIP3   OH218776   2.483   2.710   0.077 -0.3996  0.0967 -0.1107
 6257TIP3    H118777   2.460   2.633   0.128 -0.3165  1.3584  1.9505
 6257TIP3    H218778   2.401   2.736   0.035 -0.7154 -0.3972  0.1890
 6258TIP3   OH218779   3.992   5.109   0.189  0.2067 -0.5210  0.3802
 6258TIP3    H118780   3.941   5.031   0.210 -1.6333  0.6516  0.5218
 6258TIP3    H218781   4.062   5.078   0.132 -0.1211 -2.3556  0.9249
 6259TIP3   OH218782   3.868   3.061   0.971  0.2641  0.5184 -0.0283
 6259TIP3    H118783   3.933   3.010   0.923 -1.8372 -1.1861 -1.2758
 6259TIP3    H218784   3.857   3.141   0.919 -0.2482 -0.2348 -1.1406
 6260TIP3   OH218785   0.396   2.721   4.034  0.3728 -0.0259 -0.7484
 6260TIP3    H118786   0.478   2.674   4.023  0.1141 -0.4889 -0.7270
 6260TIP3    H218787   0.355   2.679   4.110  0.2213  0.3579 -0.6120
 6261TIP3   OH218788   4.582   3.814   2.749  0.2804 -0.8891  0.1602
 6261TIP3    H118789   4.537   3.732   2.731 -0.5700 -0.3178 -0.3563
 6261TIP3    H218790   4.582   3.822   2.844 -2.2383 -0.0745  0.1422
 6262TIP3   OH218791   1.455   5.683   0.066 -0.1088  0.2490 -0.1120
 6262TIP3    H118792   1.506   5.713  -0.009  1.6163 -0.6178  0.6481
 6262TIP3    H218793   1.422   5.763   0.106 -1.8857  0.6923 -2.2779
 6263TIP3   OH218794   0.108   0.829   1.506  0.4809 -0.9313  0.3222
 6263TIP3    H118795   0.198   0.836   1.537  0.7994 -1.3882 -0.4819
 6263TIP3    H218796   0.090   0.735   1.505  0.4359 -0.9194 -0.7481
 6264TIP3   OH218797   1.798   4.894   3.376  0.0869 -1.1163 -0.0100
 6264TIP3    H118798   1.756   4.901   3.461  0.9336 -1.1766  0.4217
 6264TIP3    H218799   1.763   4.967   3.325  2.9588  1.8213  1.8663
 6265TIP3   OH218800   2.385   1.476   5.112  0.4195 -0.3122 -0.3328
 6265TIP3    H118801   2.315   1.414   5.091 -0.4392  0.5720 -0.1745
 6265TIP3    H218802   2.438   1.432   5.178 -0.6268 -0.5826  0.3452
 6266TIP3   OH218803   2.018   3.243   3.895 -0.0855 -0.0390  0.2371
 6266TIP3    H118804   1.996   3.200   3.813 -0.8162 -0.9588  0.8852
 6266TIP3    H218805   1.958   3.318   3.900  1.0983  1.0331 -0.8294
 6267TIP3   OH218806   3.859   4.365   4.030  0.2243 -0.0926 -0.2981
 6267TIP3    H118807   3.873   4.340   4.121 -0.0733 -0.0884 -0.2490
 6267TIP3    H218808   3.764   4.365   4.020  0.2029  1.3183 -0.2239
 6268TIP3   OH218809   3.015   0.896   1.439  0.3903 -0.5020  0.6070
 6268TIP3    H118810   3.081   0.859   1.381 -1.0908 -1.0400 -0.8227
 6268TIP3    H218811   2.939   0.839   1.427 -1.4752  2.0490 -0.4820
 6269TIP3   OH218812   0.157   5.486   4.042 -0.0622  0.6181  0.4229
 6269TIP3    H118813   0.198   5.513   3.960  2.7448  1.6617  2.0250
 6269TIP3    H218814   0.220   5.425   4.081 -0.5040  1.3891  2.4974
 6270TIP3   OH218815   3.782   2.692   4.850 -0.4844 -0.2069 -0.5502
 6270TIP3    H118816   3.781   2.775   4.897 -0.0066  0.0701 -1.0175
 6270TIP3    H218817   3.766   2.626   4.918 -0.3602  0.2255 -0.0930
 6271TIP3   OH218818   4.517   1.091   3.189 -0.4311  0.2261  0.2055
 6271TIP3    H118819   4.540   1.140   3.268 -0.1669  1.1490 -0.4293
 6271TIP3    H218820   4.425   1.113   3.172 -0.2313  0.7422 -0.2397
 6272TIP3   OH218821   5.431   5.891   0.571  0.3889  0.2298  0.1850
 6272TIP3    H118822   5.407   5.848   0.653  0.7721 -0.4983 -0.0743
 6272TIP3    H218823   5.400   5.981   0.581  0.3917  0.1375  1.1067
 6273TIP3   OH218824   6.260   2.598   1.358  0.4033 -0.3353  0.5381
 6273TIP3    H118825   6.230   2.511   1.330 -1.1453 -0.0159  1.0936
 6273TIP3    H218826   6.194   2.626   1.421 -0.5989  2.3375 -1.5124
 6274TIP3   OH218827   5.176   4.439   3.980 -0.1838 -0.1164 -0.2041
 6274TIP3    H118828   5.246   4.454   4.043  1.5380 -0.9926 -1.8034
 6274TIP3    H218829   5.156   4.345   3.988 -0.1990 -0.1597 -0.7130
 6275TIP3   OH218830   1.237   4.072   4.240  0.2661 -0.2411 -0.3882
 6275TIP3    H118831   1.231   4.025   4.323 -1.6912 -0.5608 -0.6649
 6275TIP3    H218832   1.185   4.152   4.254  0.1646 -0.1521 -1.2095
 6276TIP3   OH218833   6.248   0.568   1.748 -0.2469 -0.1221  0.0368
 6276TIP3    H118834   6.213   0.610   1.669 -0.0506  0.3449  0.1907
 6276TIP3    H218835   6.343   0.574   1.737 -0.1785  1.4682  1.0676
 6277TIP3   OH218836   3.872   1.923   1.649  0.0171 -0.2812 -0.1279
 6277TIP3    H118837   3.907   2.006   1.683 -0.1164  0.8733 -2.5878
 6277TIP3    H218838   3.805   1.950   1.586  0.4307 -2.2386 -1.4784
 6278TIP3   OH218839   3.593   1.104   1.455  0.6390 -0.0896  0.6048
 6278TIP3    H118840   3.606   1.141   1.543  0.8167  1.1772  0.0655
 6278TIP3    H218841   3.651   1.156   1.399 -0.9473  0.4840 -0.5880
 6279TIP3   OH218842   4.569   1.396   1.099 -0.5516 -0.5119  0.0520
 6279TIP3    H118843   4.489   1.443   1.123 -0.5258  0.2294 -1.2327
 6279TIP3    H218844   4.572   1.322   1.159 -1.1310  0.5618  1.4812
 6280TIP3   OH218845   3.157   2.694   2.126 -0.0356 -0.0616  0.2479
 6280TIP3    H118846   3.243   2.692   2.084  0.4859  0.6948  1.2306
 6280TIP3    H218847   3.166   2.761   2.194 -1.9928  1.4499 -0.8982
 6281TIP3   OH218848   3.900   2.963   0.156  0.4350  0.3128 -0.4817
 6281TIP3    H118849   3.962   2.906   0.201  0.2298  0.9020  0.5855
 6281TIP3    H218850   3.885   3.035   0.218 -2.0323 -0.2679 -0.2969
 6282TIP3   OH218851   1.040   5.507   2.187 -0.1933  0.1429  0.1582
 6282TIP3    H118852   0.978   5.497   2.259 -0.8573  1.1305 -0.2501
 6282TIP3    H218853   0.994   5.475   2.110  0.5146 -0.9131  0.1587
 6283TIP3   OH218854   3.948   3.319   4.365  0.5609 -0.3246 -0.0805
 6283TIP3    H118855   3.966   3.242   4.311  0.8298 -0.8567  0.7433
 6283TIP3    H218856   3.868   3.356   4.328  0.1965 -1.2425 -0.2452
 6284TIP3   OH218857   3.358   0.325   3.346  0.7085  0.4781  0.3055
 6284TIP3    H118858   3.398   0.280   3.420  0.7727  1.7982  1.1040
 6284TIP3    H218859   3.425   0.322   3.277  0.0686 -2.1677 -0.3501
 6285TIP3   OH218860   1.988   4.499   4.577 -0.4022 -0.2519 -0.2212
 6285TIP3    H118861   1.896   4.487   4.553 -0.0173 -2.1605 -0.9483
 6285TIP3    H218862   2.004   4.433   4.644  0.4023  0.1837  0.0247
 6286TIP3   OH218863   0.342   3.589   3.278  0.0295 -0.0426 -0.0519
 6286TIP3    H118864   0.436   3.603   3.280  0.1837 -0.6065 -1.7968
 6286TIP3    H218865   0.314   3.599   3.369  1.6066  1.1553  0.3441
 6287TIP3   OH218866   4.235   1.889   0.715  0.1608 -0.8254 -0.0706
 6287TIP3    H118867   4.289   1.968   0.703 -0.8518  0.1271  1.3547
 6287TIP3    H218868   4.286   1.834   0.774  0.8482 -1.2348 -1.0276
 6288TIP3   OH218869   2.981   5.446   4.452 -0.5632 -0.1286 -0.6795
 6288TIP3    H118870   2.957   5.373   4.396 -2.2406 -1.5356  1.7183
 6288TIP3    H218871   2.902   5.500   4.457 -1.0916 -0.9914  1.6394
 6289TIP3   OH218872   2.576   4.245   0.986 -0.1327 -0.1487  0.0927
 6289TIP3    H118873   2.586   4.170   1.045 -0.0415 -0.1050  0.1320
 6289TIP3    H218874   2.617   4.216   0.904 -0.5622 -0.3371 -0.0599
 6290TIP3   OH218875   6.108   1.939   3.795  0.0808 -0.3638 -0.2665
 6290TIP3    H118876   6.110   1.865   3.856 -0.2861 -0.1993 -0.0515
 6290TIP3    H218877   6.015   1.953   3.777  0.1455  0.0734 -0.2705
 6291TIP3   OH218878   2.103   2.378   0.798 -0.4217 -0.3395 -0.5150
 6291TIP3    H118879   2.163   2.396   0.870  0.2858 -1.1761 -0.8694
 6291TIP3    H218880   2.027   2.434   0.814  0.0745  0.0730  0.4303
 6292TIP3   OH218881   1.518   2.044   5.191  0.1716  0.9057  0.3468
 6292TIP3    H118882   1.544   1.955   5.216  0.4211  1.1909  1.1339
 6292TIP3    H218883   1.561   2.059   5.107 -0.0059  0.2220  0.1307
 6293TIP3   OH218884   1.603   2.527   2.940  0.2720  0.0394  0.0262
 6293TIP3    H118885   1.604   2.515   3.035 -0.4612 -0.9415 -0.0798
 6293TIP3    H218886   1.570   2.617   2.928 -0.0400  0.0187  0.6826
 6294TIP3   OH218887   4.584   0.445   5.109  0.6249 -0.5954  0.5635
 6294TIP3    H118888   4.666   0.396   5.112  0.7478 -0.4677 -0.5762
 6294TIP3    H218889   4.527   0.399   5.170  0.7743 -2.0839 -0.3687
 6295TIP3   OH218890   3.760   2.130   0.827 -0.2594 -0.5784 -0.3125
 6295TIP3    H118891   3.829   2.074   0.792 -0.1022 -0.3425 -0.3860
 6295TIP3    H218892   3.694   2.132   0.758 -0.0008 -0.2047 -0.5524
 6296TIP3   OH218893   3.027   5.087   2.016  0.1494 -0.0000  0.1469
 6296TIP3    H118894   2.939   5.123   2.030  0.4025  0.8826 -0.5115
 6296TIP3    H218895   3.050   5.047   2.100 -0.8243 -0.1187  0.3641
 6297TIP3   OH218896   0.269   3.686   1.675  0.5457  0.7832 -0.1568
 6297TIP3    H118897   0.352   3.703   1.631 -0.0995  1.5651 -1.1465
 6297TIP3    H218898   0.204   3.687   1.604 -0.4556  1.4363  0.7328
 6298TIP3   OH218899   1.142   1.864   3.756  0.0148 -0.0054 -0.2656
 6298TIP3    H118900   1.145   1.770   3.769  1.0200  0.0009 -0.3563
 6298TIP3    H218901   1.113   1.900   3.840  0.2903 -0.3469 -0.0276
 6299TIP3   OH218902   2.957   3.026   0.435 -0.1665 -0.0696  0.2676
 6299TIP3    H118903   3.010   3.104   0.453  1.9968 -1.3684 -0.0862
 6299TIP3    H218904   2.900   3.052   0.362  0.4327  1.1925  0.2214
 6300TIP3   OH218905   4.519   4.910   0.884 -0.6710 -0.2242 -0.0538
 6300TIP3    H118906   4.553   4.965   0.814 -0.1884 -0.8972 -0.3667
 6300TIP3    H218907   4.507   4.969   0.958  1.8090 -0.0485  0.2817
 6301TIP3   OH218908   4.617   4.029   5.055 -0.7527  0.0092 -0.6279
 6301TIP3    H118909   4.711   4.011   5.062 -0.5964  0.8878 -0.3650
 6301TIP3    H218910   4.581   3.950   5.014  0.4153  0.5296 -2.8006
 6302TIP3   OH218911   2.543   2.452   4.653 -0.3224  0.4686  0.6410
 6302TIP3    H118912   2.450   2.455   4.632 -1.1338  2.1603  3.8135
 6302TIP3    H218913   2.581   2.393   4.587 -3.6291 -0.4485 -0.6372
 6303TIP3   OH218914   1.242   0.962   3.541 -0.2688 -0.0125  0.2645
 6303TIP3    H118915   1.198   1.028   3.488  0.4252  1.3438  1.3364
 6303TIP3    H218916   1.213   0.979   3.631 -0.2868 -1.3474  0.5437
 6304TIP3   OH218917   3.644   4.260   0.672  0.8848  0.1322  0.4727
 6304TIP3    H118918   3.579   4.249   0.740  0.8862 -0.1538  0.4297
 6304TIP3    H218919   3.629   4.348   0.637  1.1705  0.4481  1.1390
 6305TIP3   OH218920   0.770   4.273   0.410  0.0127 -0.0546 -0.0173
 6305TIP3    H118921   0.788   4.360   0.375 -0.4143  0.9653  2.1397
 6305TIP3    H218922   0.686   4.249   0.371 -0.7269  1.2807  0.6741
 6306TIP3   OH218923   5.776   5.061   2.764  0.6635  0.0646  0.3975
 6306TIP3    H118924   5.691   5.065   2.720  1.1399 -1.1386 -0.7198
 6306TIP3    H218925   5.770   4.985   2.822  1.9688 -2.1960 -2.1489
 6307TIP3   OH218926   2.360   0.439   4.756 -0.4881 -0.1592 -0.0623
 6307TIP3    H118927   2.333   0.505   4.692  0.2682  1.3234  1.0782
 6307TIP3    H218928   2.369   0.358   4.705  1.2543  1.1927 -2.1058
 6308TIP3   OH218929   5.272   2.003   4.210  0.1306 -0.0943 -0.1376
 6308TIP3    H118930   5.221   2.074   4.172  0.2481 -0.2025 -0.4990
 6308TIP3    H218931   5.213   1.927   4.207 -0.1951  0.1107  0.7571
 6309TIP3   OH218932   5.184   3.610   5.054  0.8406 -0.0048 -0.4392
 6309TIP3    H118933   5.140   3.550   4.994  0.9422 -1.2265  0.6677
 6309TIP3    H218934   5.117   3.634   5.118  0.5599  1.7793 -1.3416
 6310TIP3   OH218935   2.844   3.586   3.804  0.8209 -0.2545  0.8159
 6310TIP3    H118936   2.820   3.495   3.822  0.1963 -0.3422 -0.3434
 6310TIP3    H218937   2.906   3.609   3.872  1.3163 -1.6983  0.8703
 6311TIP3   OH218938   1.965   1.494   5.001 -0.0418  0.3648 -0.4790
 6311TIP3    H118939   1.871   1.497   5.016 -0.2954 -0.8428 -1.7034
 6311TIP3    H218940   1.991   1.586   4.996 -1.1482  0.7133 -0.1692
 6312TIP3   OH218941   1.402   1.045   1.763  0.2778 -0.5165  0.8165
 6312TIP3    H118942   1.476   1.061   1.822 -1.1973 -0.5515  2.7502
 6312TIP3    H218943   1.393   0.949   1.762  1.1517 -0.6241 -0.6451
 6313TIP3   OH218944   4.935   5.055   2.096 -0.3320 -0.4191  0.7497
 6313TIP3    H118945   4.848   5.015   2.109 -0.8976  0.3137 -0.5606
 6313TIP3    H218946   4.926   5.104   2.014  0.8744  0.9309  1.3896
 6314TIP3   OH218947   1.513   0.935   3.886  0.3501  0.2969  0.0537
 6314TIP3    H118948   1.472   0.993   3.822  0.7993 -0.7307 -1.2056
 6314TIP3    H218949   1.599   0.974   3.902 -0.0398  0.9545  0.6114
 6315TIP3   OH218950   5.933   5.137   3.762 -0.5434  0.5080  0.5238
 6315TIP3    H118951   5.860   5.088   3.800  0.5795  0.7018  3.1032
 6315TIP3    H218952   5.893   5.217   3.728 -2.2641 -1.5673 -2.9102
 6316TIP3   OH218953   1.628   4.142   3.671 -0.0266 -0.7227 -0.0007
 6316TIP3    H118954   1.602   4.051   3.683  0.0617 -1.0186 -1.7528
 6316TIP3    H218955   1.667   4.144   3.583 -0.3937  1.0775 -0.1539
 6317TIP3   OH218956   3.985   5.231   2.525 -0.3648  0.1450 -0.0548
 6317TIP3    H118957   3.908   5.252   2.578 -2.2425 -0.8180 -2.2355
 6317TIP3    H218958   3.968   5.143   2.493  0.0842  1.0694 -3.1262
 6318TIP3   OH218959   4.670   1.804   1.381  0.0596  0.7950  0.8815
 6318TIP3    H118960   4.753   1.852   1.376  0.4066  0.0916 -0.9142
 6318TIP3    H218961   4.664   1.757   1.298 -2.6201  1.6021  0.4979
 6319TIP3   OH218962   3.539   4.166   3.028  0.3055 -0.2103 -1.3471
 6319TIP3    H118963   3.629   4.142   3.008  0.9513  1.1576 -0.1975
 6319TIP3    H218964   3.514   4.109   3.100  1.1231  1.0593 -0.0170
 6320TIP3   OH218965   3.161   0.279   4.081  0.2810  0.2671  0.3148
 6320TIP3    H118966   3.105   0.219   4.031  0.3269 -0.5619  1.2183
 6320TIP3    H218967   3.124   0.366   4.064 -0.4799 -0.1287 -0.1400
 6321TIP3   OH218968   2.679   4.930   2.790 -0.0488  0.5132  0.3288
 6321TIP3    H118969   2.761   4.966   2.823  0.3350  0.7897 -0.8741
 6321TIP3    H218970   2.628   5.007   2.763  0.0691  0.2592 -0.6562
 6322TIP3   OH218971   6.202   3.112   0.230  0.4165 -0.1703  0.7396
 6322TIP3    H118972   6.245   3.122   0.315  2.3084 -0.4184 -0.1271
 6322TIP3    H218973   6.227   3.024   0.200  0.7256  0.3231 -0.5434
 6323TIP3   OH218974   1.150   5.278   2.508  0.4860  0.0579 -0.0167
 6323TIP3    H118975   1.175   5.187   2.523 -1.4637 -0.8752 -1.8000
 6323TIP3    H218976   1.054   5.276   2.505  0.4334  1.8598 -1.5911
 6324TIP3   OH218977   3.662   3.018   1.159 -0.3015 -0.1715  0.0056
 6324TIP3    H118978   3.608   3.096   1.150  1.4457  1.0283 -0.5137
 6324TIP3    H218979   3.744   3.040   1.115  0.8847 -1.6849  1.3388
 6325TIP3   OH218980   0.530   4.138   2.912  0.8167  0.4274  0.2972
 6325TIP3    H118981   0.512   4.230   2.894 -3.2339  0.1109  1.6373
 6325TIP3    H218982   0.508   4.093   2.830 -1.0397  0.4199  0.7488
 6326TIP3   OH218983   2.398   4.569   0.202 -0.5910 -0.0423  0.3517
 6326TIP3    H118984   2.403   4.548   0.295  0.4452  0.0281  0.3242
 6326TIP3    H218985   2.319   4.622   0.193 -1.6754 -1.4877  0.8961
 6327TIP3   OH218986   4.268   1.692   1.438 -0.0359 -0.0353  0.1870
 6327TIP3    H118987   4.223   1.675   1.356 -0.3623 -0.0906  0.3736
 6327TIP3    H218988   4.257   1.786   1.453  0.3764  0.0485 -0.0376
 6328TIP3   OH218989   4.555   0.226   4.315 -0.2061 -0.1967 -0.1770
 6328TIP3    H118990   4.629   0.282   4.340 -1.1760  0.5067  1.2636
 6328TIP3    H218991   4.568   0.147   4.367 -0.2955 -0.2022 -0.1642
 6329TIP3   OH218992   1.461   4.313   2.771  0.7311 -0.2970 -0.1178
 6329TIP3    H118993   1.444   4.280   2.859 -0.3632 -1.6952 -0.8216
 6329TIP3    H218994   1.495   4.237   2.723  1.6405  0.5328 -0.8300
 6330TIP3   OH218995   1.300   5.671   1.286  0.0255 -0.0176 -0.5946
 6330TIP3    H118996   1.329   5.752   1.243  1.4262 -0.1489  0.0367
 6330TIP3    H218997   1.230   5.638   1.230 -0.1706  1.3169 -1.1910
 6331TIP3   OH218998   3.261   2.105   0.793 -0.2169 -0.3219  1.0860
 6331TIP3    H118999   3.335   2.100   0.853  1.2470  1.2445 -0.4478
 6331TIP3    H219000   3.233   2.196   0.797 -0.6976 -0.4168  0.1220
 6332TIP3   OH219001   3.160   3.192   0.774 -0.1722 -0.4102 -0.0587
 6332TIP3    H119002   3.190   3.105   0.799  0.1798 -0.0383  0.8658
 6332TIP3    H219003   3.184   3.248   0.848 -3.0122 -0.0447  0.7452
 6333TIP3   OH219004   0.787   4.721   3.067 -0.1889 -0.5353 -0.1704
 6333TIP3    H119005   0.771   4.635   3.029  1.6604 -0.1624 -1.9420
 6333TIP3    H219006   0.749   4.782   3.004  2.6477  0.0869 -1.4121
 6334TIP3   OH219007   2.012   0.641   1.496 -0.4913 -0.1606 -0.4118
 6334TIP3    H119008   1.953   0.584   1.545 -0.3258 -0.5962 -0.7071
 6334TIP3    H219009   1.961   0.666   1.418 -1.5494  2.2557  0.9603
 6335TIP3   OH219010   3.483   2.113   0.983 -0.2397 -0.2905  0.3105
 6335TIP3    H119011   3.535   2.191   0.966  0.3754 -0.9538 -0.9358
 6335TIP3    H219012   3.527   2.070   1.056  0.0012  0.0044  0.3410
 6336TIP3   OH219013   1.767   2.736   1.070  0.8483 -0.5729 -0.0285
 6336TIP3    H119014   1.813   2.729   1.153 -0.9708 -1.5670  0.9528
 6336TIP3    H219015   1.680   2.769   1.093  1.2926  2.3423 -1.9285
 6337TIP3   OH219016   2.403   2.409   3.186  0.1473  0.2217 -0.0140
 6337TIP3    H119017   2.432   2.353   3.114 -0.7548  0.7609 -0.8276
 6337TIP3    H219018   2.387   2.348   3.259  2.3785 -0.1747  0.2008
 6338TIP3   OH219019   0.962   3.396   3.476 -0.4207  0.1435  0.0788
 6338TIP3    H119020   0.983   3.444   3.396  0.2946  0.7075  0.5943
 6338TIP3    H219021   1.036   3.412   3.534 -0.8000 -0.4894  0.7598
 6339TIP3   OH219022   2.166   5.443   0.096  0.3992 -0.1640 -0.1586
 6339TIP3    H119023   2.226   5.374   0.070 -0.7298 -0.8258 -1.0687
 6339TIP3    H219024   2.079   5.405   0.085 -0.2304  1.1971 -0.0904
 6340TIP3   OH219025   6.288   5.852   1.517  0.1908  0.2222  0.2732
 6340TIP3    H119026   6.377   5.886   1.515  0.3354 -0.0885  1.3087
 6340TIP3    H219027   6.251   5.883   1.599  0.0978 -1.5265  0.9424
 6341TIP3   OH219028   4.170   5.084   1.391 -0.3203  0.0907 -0.4968
 6341TIP3    H119029   4.184   5.174   1.359 -0.1187  0.1699 -0.1914
 6341TIP3    H219030   4.244   5.035   1.355 -0.8640 -0.1317 -1.3350
 6342TIP3   OH219031   4.857   2.862   0.145 -0.0091 -0.1777  0.5150
 6342TIP3    H119032   4.783   2.918   0.173  1.2806  1.8561  0.1026
 6342TIP3    H219033   4.935   2.912   0.171  1.2782 -2.7362  1.8748
 6343TIP3   OH219034   3.248   2.805   0.616 -0.0850 -0.4965 -0.4352
 6343TIP3    H119035   3.341   2.780   0.621 -0.0694 -0.4105 -0.3047
 6343TIP3    H219036   3.226   2.832   0.705 -0.9296 -3.0054  0.2118
 6344TIP3   OH219037   4.298   0.078   3.161 -0.2381  1.1382  0.4098
 6344TIP3    H119038   4.373   0.033   3.122 -1.2171 -0.1368 -0.0495
 6344TIP3    H219039   4.287   0.038   3.247 -0.2876  1.4489  0.5494
 6345TIP3   OH219040   1.160   2.241   3.161  0.0060 -0.2648  0.1358
 6345TIP3    H119041   1.069   2.221   3.142 -0.2013  0.0070  0.8124
 6345TIP3    H219042   1.203   2.242   3.075 -0.3505 -1.6809 -0.0804
 6346TIP3   OH219043   2.430   5.449   0.331 -0.4076 -0.1232  0.2275
 6346TIP3    H119044   2.461   5.428   0.419  1.1103 -0.0642 -0.2701
 6346TIP3    H219045   2.493   5.407   0.273 -1.5038 -0.3274 -0.8447
 6347TIP3   OH219046   1.568   0.804   2.418 -0.0954  0.1182  0.2505
 6347TIP3    H119047   1.594   0.758   2.338  1.5286 -0.0607  0.8346
 6347TIP3    H219048   1.633   0.777   2.483 -0.6498  1.2207  1.2993
 6348TIP3   OH219049   2.657   1.483   3.959  0.2339 -0.0943 -0.6280
 6348TIP3    H119050   2.607   1.426   3.900 -0.5681  0.7041 -0.7335
 6348TIP3    H219051   2.614   1.568   3.952  1.0911  0.3927 -0.0611
 6349TIP3   OH219052   0.307   2.535   4.227  0.0389  0.0729 -0.1674
 6349TIP3    H119053   0.364   2.458   4.223 -1.7900 -1.2897 -2.2908
 6349TIP3    H219054   0.221   2.500   4.253 -0.7185  1.4669 -0.6839
 6350TIP3   OH219055   0.650   2.232   0.344 -0.1310  0.4074  0.3391
 6350TIP3    H119056   0.619   2.298   0.280  1.0043  1.1646  0.5429
 6350TIP3    H219057   0.675   2.157   0.290 -0.9771  0.3109  0.0595
 6351TIP3   OH219058   0.320   0.934   4.114 -0.0753  0.3936  0.7271
 6351TIP3    H119059   0.350   1.023   4.133 -1.0296  0.8558  0.1739
 6351TIP3    H219060   0.390   0.877   4.147  0.6306  1.3511  0.9299
 6352TIP3   OH219061   5.655   0.914   0.690 -0.2739 -0.5250  0.4146
 6352TIP3    H119062   5.625   0.965   0.765 -1.5853 -0.0574 -0.3955
 6352TIP3    H219063   5.586   0.850   0.675  0.8478 -1.8608  0.7413
 6353TIP3   OH219064   5.290   5.864   4.821  0.9055 -0.3363 -0.1661
 6353TIP3    H119065   5.213   5.863   4.765  2.4634  0.9464 -2.5082
 6353TIP3    H219066   5.345   5.794   4.787  1.8766  0.4574 -0.2672
 6354TIP3   OH219067   3.476   0.294   4.713  0.8568  0.2608  0.6945
 6354TIP3    H119068   3.497   0.384   4.689  0.0270  0.0286 -1.0246
 6354TIP3    H219069   3.558   0.260   4.750  1.7775  1.1166 -0.4621
 6355TIP3   OH219070   3.927   0.921   4.915  0.1025 -0.0496 -0.2316
 6355TIP3    H119071   3.938   0.888   4.826  0.6556  0.2326 -0.2724
 6355TIP3    H219072   4.016   0.923   4.951 -0.2536 -1.4691  0.8058
 6356TIP3   OH219073   4.281   3.663   2.335  0.4577 -0.3694  0.0962
 6356TIP3    H119074   4.292   3.576   2.373  1.2873 -0.0545  0.5832
 6356TIP3    H219075   4.186   3.677   2.334  0.4089 -0.3326  2.1850
 6357TIP3   OH219076   1.146   2.473   2.994  0.6601 -0.7570 -0.1187
 6357TIP3    H119077   1.089   2.398   2.974  1.5064 -0.8320 -2.5562
 6357TIP3    H219078   1.229   2.433   3.020  0.2521 -0.6282  1.4995
 6358TIP3   OH219079   1.454   0.276   3.687 -0.4419 -0.0984 -0.0626
 6358TIP3    H119080   1.365   0.310   3.691  0.1759  2.0353 -2.2245
 6358TIP3    H219081   1.454   0.216   3.613  0.0342  0.3238 -0.4099
 6359TIP3   OH219082   0.149   3.442   0.641 -0.1010  0.1280  0.7638
 6359TIP3    H119083   0.227   3.491   0.667  0.6802  0.0894 -1.2944
 6359TIP3    H219084   0.178   3.351   0.636  0.1352  0.2789 -1.3108
 6360TIP3   OH219085   2.586   4.989   4.684  0.6438  0.2552 -0.4688
 6360TIP3    H119086   2.515   5.040   4.722  0.4641  0.0002 -0.4623
 6360TIP3    H219087   2.544   4.934   4.618  1.1057  1.4903 -1.8402
 6361TIP3   OH219088   4.984   3.717   4.706 -0.2076  0.0504  0.0028
 6361TIP3    H119089   5.002   3.623   4.708 -0.3742  0.0288  0.5294
 6361TIP3    H219090   5.069   3.757   4.689 -0.0552 -0.1713  0.2279
 6362TIP3   OH219091   5.000   5.378   0.589  0.3187  0.3874 -0.0782
 6362TIP3    H119092   5.082   5.370   0.541  1.2178  2.3783  0.9752
 6362TIP3    H219093   5.026   5.386   0.681 -0.9755  1.5187  0.2376
 6363TIP3   OH219094   6.320   5.076   1.602  0.4627  0.6115 -0.0572
 6363TIP3    H119095   6.354   4.998   1.559 -0.2665 -0.8160  1.8199
 6363TIP3    H219096   6.345   5.066   1.693 -0.8999  1.8598  0.4867
 6364TIP3   OH219097   1.021   3.570   1.867  0.5204 -0.4987  0.2027
 6364TIP3    H119098   0.949   3.626   1.838  0.2318 -1.5539 -1.2527
 6364TIP3    H219099   1.040   3.599   1.956 -1.8200 -0.3056  0.7018
 6365TIP3   OH219100   0.045   3.648   3.224 -0.5325  0.3217 -0.6058
 6365TIP3    H119101  -0.050   3.650   3.213 -0.5496  0.1874 -0.4859
 6365TIP3    H219102   0.062   3.708   3.296 -0.5566  0.1084 -0.4212
 6366TIP3   OH219103   4.173   1.307   0.146 -0.7529 -0.5409  0.2134
 6366TIP3    H119104   4.189   1.213   0.154  2.0571 -0.4426 -2.3486
 6366TIP3    H219105   4.202   1.329   0.057 -0.6834  2.8472  0.9331
 6367TIP3   OH219106   4.784   0.801   2.764 -0.6047  0.3089  0.2884
 6367TIP3    H119107   4.769   0.827   2.855  1.5719  1.7481  0.3319
 6367TIP3    H219108   4.872   0.764   2.764 -1.0085 -0.7336 -1.0672
 6368TIP3   OH219109   3.153   5.484   1.478 -0.5127 -0.0706 -0.4442
 6368TIP3    H119110   3.157   5.404   1.530  0.4445 -0.4887 -1.1339
 6368TIP3    H219111   3.244   5.513   1.471 -0.9384  1.8606  0.9483
 6369TIP3   OH219112   1.888   3.467   1.569 -0.9365  0.2304 -0.4871
 6369TIP3    H119113   1.861   3.386   1.613  1.3890  0.3424  1.3727
 6369TIP3    H219114   1.874   3.535   1.635 -2.2586  1.3051 -1.8144
 6370TIP3   OH219115   3.869   1.744   2.955 -0.1293 -0.0159 -0.0150
 6370TIP3    H119116   3.883   1.818   3.014 -1.3530 -0.1861  0.5232
 6370TIP3    H219117   3.797   1.695   2.995  1.2867 -2.0601  0.1989
 6371TIP3   OH219118   2.584   4.236   5.164 -0.2431 -0.1619 -1.1672
 6371TIP3    H119119   2.514   4.199   5.110  1.0132 -0.3606 -2.7469
 6371TIP3    H219120   2.639   4.160   5.187 -0.2188  0.0726 -0.4320
 6372TIP3   OH219121   0.895   2.749   1.498 -0.0289  0.1566  0.2330
 6372TIP3    H119122   0.881   2.835   1.458 -0.1786  0.1577  0.2863
 6372TIP3    H219123   0.840   2.750   1.576 -0.7314 -0.3249 -0.2479
 6373TIP3   OH219124   3.524   5.963   2.944  0.0400  0.6987  0.2287
 6373TIP3    H119125   3.487   6.005   2.866 -0.2658  0.0375  0.0144
 6373TIP3    H219126   3.594   5.907   2.910 -1.6325 -1.4724  0.1049
 6374TIP3   OH219127   5.691   4.487   3.458  0.0148  0.3011 -0.0274
 6374TIP3    H119128   5.725   4.512   3.544 -1.1578  2.3183 -0.0908
 6374TIP3    H219129   5.699   4.566   3.405  1.1750 -1.0502 -1.9739
 6375TIP3   OH219130   2.184   0.244   1.206  0.1102 -0.4667 -0.4732
 6375TIP3    H119131   2.230   0.325   1.228 -0.0244 -0.5293  0.0506
 6375TIP3    H219132   2.236   0.206   1.135  0.4939 -0.2043 -0.3374
 6376TIP3   OH219133   4.677   4.976   0.678  0.0137 -0.1513  0.3936
 6376TIP3    H119134   4.719   5.058   0.654 -0.8056  0.0522 -0.4172
 6376TIP3    H219135   4.749   4.914   0.690  0.6935  0.8872  1.8911
 6377TIP3   OH219136   3.115   3.891   0.457  0.0040  0.2808 -0.4824
 6377TIP3    H119137   3.025   3.917   0.474  0.2469  1.5953 -1.0421
 6377TIP3    H219138   3.151   3.962   0.404  1.9940  0.8211  1.4487
 6378TIP3   OH219139   0.001   4.582   5.146 -0.0192  0.4055  0.4036
 6378TIP3    H119140   0.037   4.583   5.057 -0.8952 -1.6928 -0.0428
 6378TIP3    H219141   0.078   4.590   5.203  0.6046  1.2401 -0.5294
 6379TIP3   OH219142   4.340   3.506   3.360 -0.3288  0.1095  0.3363
 6379TIP3    H119143   4.350   3.540   3.449 -1.4163  0.4283  0.3554
 6379TIP3    H219144   4.294   3.423   3.372 -0.8448  0.3477  0.0576
 6380TIP3   OH219145   2.364   1.349   0.195  0.3026  0.3699  0.2992
 6380TIP3    H119146   2.312   1.342   0.275  0.8725 -0.2139  0.6262
 6380TIP3    H219147   2.412   1.432   0.205 -0.7914  1.0789 -0.1536
 6381TIP3   OH219148   2.404   0.008   3.771  0.2764 -0.4085 -0.2875
 6381TIP3    H119149   2.441   0.096   3.765  0.6434 -0.4107  1.4156
 6381TIP3    H219150   2.348   0.000   3.693 -1.0956  1.9592  0.3589
 6382TIP3   OH219151   2.412   0.714   1.016 -0.3005  0.0568 -0.1111
 6382TIP3    H119152   2.361   0.673   0.946  0.4914  0.0049 -0.6809
 6382TIP3    H219153   2.501   0.678   1.005  0.3687  1.7442 -0.4942
 6383TIP3   OH219154   1.436   0.055   2.352 -0.6357 -0.5013 -0.0907
 6383TIP3    H119155   1.476   0.015   2.274  0.8288  2.2859 -0.9156
 6383TIP3    H219156   1.429   0.148   2.329 -0.5334  0.3461  2.9646
 6384TIP3   OH219157   1.744   0.082   5.085 -0.1304 -0.0839  0.0484
 6384TIP3    H119158   1.813   0.031   5.043  0.6314  0.9951 -0.0343
 6384TIP3    H219159   1.737   0.044   5.173  1.1355  0.3111  0.3335
 6385TIP3   OH219160   4.115   2.796   1.028  0.5213 -0.1035  0.0286
 6385TIP3    H119161   4.055   2.726   0.999  0.6444 -1.0500  1.9082
 6385TIP3    H219162   4.151   2.832   0.947 -2.1122  0.0892 -1.1514
 6386TIP3   OH219163   3.592   5.017   4.590 -0.3532 -0.0144 -0.2474
 6386TIP3    H119164   3.548   4.942   4.552  2.5436 -2.2272  0.4388
 6386TIP3    H219165   3.521   5.071   4.626 -2.5176 -2.5441 -0.4539
 6387TIP3   OH219166   2.631   0.332   0.290 -0.3701 -0.2139 -0.1220
 6387TIP3    H119167   2.567   0.263   0.305 -0.6779 -0.4574 -2.1902
 6387TIP3    H219168   2.624   0.351   0.196  1.6048  0.7278 -0.1391
 6388TIP3   OH219169   5.352   5.327   0.974 -0.0353 -0.4095 -0.0600
 6388TIP3    H119170   5.377   5.376   0.896  1.7459 -0.5009  0.4078
 6388TIP3    H219171   5.367   5.387   1.047 -0.7435 -0.6489  0.2955
 6389TIP3   OH219172   1.538   4.894   2.637  0.2268  0.2349 -0.4008
 6389TIP3    H119173   1.517   4.862   2.725  2.3398 -1.6326 -0.4804
 6389TIP3    H219174   1.633   4.904   2.637  0.1388  1.5499 -2.0757
 6390TIP3   OH219175   3.301   4.978   3.243  0.2508  0.0880  0.2116
 6390TIP3    H119176   3.244   4.967   3.319 -1.9588  0.7711 -1.2406
 6390TIP3    H219177   3.268   5.057   3.200  3.4850  1.5714  0.2060
 6391TIP3   OH219178   0.261   0.719   3.586  0.4103  0.2543 -0.9162
 6391TIP3    H119179   0.190   0.752   3.641  2.5182  3.7091  0.0081
 6391TIP3    H219180   0.238   0.746   3.498  0.0293  0.3098 -0.8014
 6392TIP3   OH219181   4.846   1.216   3.828 -0.0494 -0.7682 -0.2670
 6392TIP3    H119182   4.898   1.291   3.858 -2.4023 -0.4413  3.7203
 6392TIP3    H219183   4.894   1.139   3.858  0.6265 -0.7264 -1.2139
 6393TIP3   OH219184   3.661   0.529   2.598 -0.3766 -0.0328  0.4775
 6393TIP3    H119185   3.725   0.485   2.543 -1.2703 -0.0440 -0.6147
 6393TIP3    H219186   3.669   0.622   2.575 -1.2788 -0.1242 -0.2751
 6394TIP3   OH219187   1.514   0.667   3.846  0.6457  0.3091 -0.1552
 6394TIP3    H119188   1.531   0.758   3.872 -0.8432  0.5697 -0.0053
 6394TIP3    H219189   1.468   0.675   3.762  2.7658 -0.4163 -1.4617
 6395TIP3   OH219190   4.123   0.497   3.008  0.6304 -0.3377 -0.1367
 6395TIP3    H119191   4.052   0.486   3.071  1.1341  0.2159  0.5385
 6395TIP3    H219192   4.197   0.528   3.060  0.1113  3.6151 -1.4639
 6396TIP3   OH219193   4.558   2.807   2.403 -0.3024 -0.6226  0.4326
 6396TIP3    H119194   4.605   2.725   2.417  2.0580  0.2305 -1.7243
 6396TIP3    H219195   4.623   2.875   2.420 -1.9631  0.8179  1.3441
 6397TIP3   OH219196   2.631   3.735   2.687  0.2780 -0.4452 -0.5148
 6397TIP3    H119197   2.711   3.699   2.727 -0.0079  0.1760  0.6497
 6397TIP3    H219198   2.639   3.830   2.698  0.6216 -0.1533 -2.7923
 6398TIP3   OH219199   4.996   0.335   4.820 -0.2513  0.8873 -0.0064
 6398TIP3    H119200   5.077   0.346   4.770 -0.7888 -0.1733 -1.1535
 6398TIP3    H219201   5.025   0.305   4.906  0.5774  0.6303 -0.3661
 6399TIP3   OH219202   3.656   1.432   4.512  0.0789 -0.1478  0.6490
 6399TIP3    H119203   3.737   1.483   4.509 -0.3868  0.5757  0.1432
 6399TIP3    H219204   3.667   1.375   4.588  1.0220  0.0076  0.6423
 6400TIP3   OH219205   3.040   3.047   3.026 -0.4075  0.4769 -0.2050
 6400TIP3    H119206   3.123   3.093   3.037  0.5416 -1.2863  0.3888
 6400TIP3    H219207   3.047   3.005   2.940 -0.7180  0.3984 -0.1934
 6401TIP3   OH219208   3.447   2.149   2.956  0.4224 -0.0656 -0.1491
 6401TIP3    H119209   3.531   2.154   3.003  0.4405  0.5027 -0.2366
 6401TIP3    H219210   3.412   2.238   2.960 -1.0284 -0.6511  1.4497
 6402TIP3   OH219211   4.097   3.873   0.680  0.2330  0.0106  0.3098
 6402TIP3    H119212   4.171   3.813   0.673  0.4383  0.3171 -0.1473
 6402TIP3    H219213   4.135   3.956   0.708 -0.1275 -0.2237  1.5592
 6403TIP3   OH219214   1.510   1.878   1.179 -0.1422  0.0369  0.7241
 6403TIP3    H119215   1.473   1.865   1.266 -1.6934 -1.8906 -0.1358
 6403TIP3    H219216   1.436   1.904   1.124  0.3196 -0.9860 -0.4413
 6404TIP3   OH219217   4.775   5.048   3.030  0.0119 -0.1504 -0.1627
 6404TIP3    H119218   4.864   5.029   3.059 -0.3324  0.0753  1.0823
 6404TIP3    H219219   4.740   5.108   3.096 -1.2067 -0.5555 -0.4120
 6405TIP3   OH219220   4.171   3.046   3.208 -0.2301 -0.2467  0.3021
 6405TIP3    H119221   4.185   3.046   3.113 -0.4691 -0.1493  0.2659
 6405TIP3    H219222   4.095   2.989   3.221 -1.3634  1.1972  0.2541
 6406TIP3   OH219223   2.306   1.562   2.073  0.5696 -0.4601 -0.5541
 6406TIP3    H119224   2.369   1.635   2.076  1.6260 -1.3507 -0.4581
 6406TIP3    H219225   2.355   1.487   2.108 -1.2132 -0.7148  1.6560
 6407TIP3   OH219226   1.097   4.425   1.580  0.8562 -0.0621 -0.3736
 6407TIP3    H119227   1.162   4.379   1.527  0.9419 -1.4809  0.8904
 6407TIP3    H219228   1.031   4.359   1.600  0.1103  0.8055  0.1352
 6408TIP3   OH219229   5.482   4.228   0.367  0.0070 -0.0638 -0.1599
 6408TIP3    H119230   5.412   4.174   0.403  0.4808 -0.9456 -0.5150
 6408TIP3    H219231   5.437   4.299   0.322 -0.6695 -0.6561 -0.4449
 6409TIP3   OH219232   5.464   4.197   5.144  0.3959  0.2969  0.0792
 6409TIP3    H119233   5.462   4.257   5.219  0.0592  0.4516 -0.0477
 6409TIP3    H219234   5.522   4.239   5.081  1.6252 -0.4085  0.7172
 6410TIP3   OH219235   5.649   1.899   1.361  0.0605  0.4458  0.1143
 6410TIP3    H119236   5.674   1.876   1.271  1.8007  2.5869 -0.0427
 6410TIP3    H219237   5.557   1.924   1.354  0.0077  0.0387 -0.9541
 6411TIP3   OH219238   1.500   4.978   1.675 -0.0717  0.0880  0.0337
 6411TIP3    H119239   1.432   5.001   1.611 -0.6160 -0.1412  0.5156
 6411TIP3    H219240   1.582   4.990   1.628 -0.4671 -0.1953 -0.7534
 6412TIP3   OH219241   4.605   5.850   3.837  0.4462  0.0712 -0.6488
 6412TIP3    H119242   4.697   5.858   3.860  0.7642 -1.8235 -1.0800
 6412TIP3    H219243   4.558   5.872   3.917  1.2986  0.2920 -0.2002
 6413TIP3   OH219244   3.896   0.972   1.567 -0.0346 -0.3657 -0.0294
 6413TIP3    H119245   3.898   0.881   1.596 -1.4884 -0.8761 -1.3927
 6413TIP3    H219246   3.836   1.015   1.627 -1.2975 -0.9118 -0.8544
 6414TIP3   OH219247   5.151   2.795   2.355  0.0867 -0.0541  0.2636
 6414TIP3    H119248   5.237   2.836   2.367  0.6642 -1.6540  1.9798
 6414TIP3    H219249   5.122   2.825   2.268  1.6936  1.6859  0.2606
 6415TIP3   OH219250   2.964   0.258   1.265 -0.2126 -0.1937 -0.4819
 6415TIP3    H119251   2.978   0.350   1.244  1.3959 -0.2437  0.2178
 6415TIP3    H219252   2.900   0.259   1.336 -0.3789  0.3609 -0.6328
 6416TIP3   OH219253   6.322   2.027   3.315 -0.2579 -0.7466  0.3195
 6416TIP3    H119254   6.376   1.972   3.372  0.8435 -0.0982 -0.0746
 6416TIP3    H219255   6.298   2.102   3.369  1.2673  0.1571 -0.1909
 6417TIP3   OH219256   2.877   1.816   5.041 -0.7026 -0.6851 -0.0077
 6417TIP3    H119257   2.899   1.906   5.016 -0.1694 -1.0366 -0.8469
 6417TIP3    H219258   2.799   1.795   4.990 -1.2485 -0.4687  0.7183
 6418TIP3   OH219259   2.130   1.523   3.792  0.2840 -0.6159  0.0888
 6418TIP3    H119260   2.099   1.503   3.880  1.5682  0.6192  0.8746
 6418TIP3    H219261   2.076   1.469   3.734 -0.6237 -1.4156  1.6179
 6419TIP3   OH219262   1.951   1.726   4.228  0.3867 -0.0657  0.0362
 6419TIP3    H119263   1.991   1.677   4.300  0.1860  0.8826  0.8197
 6419TIP3    H219264   2.024   1.777   4.192  0.5185 -0.6546 -0.5360
 6420TIP3   OH219265   1.255   0.503   0.724  0.1595 -0.4279 -0.4443
 6420TIP3    H119266   1.202   0.569   0.679  1.5831  0.5337 -0.7893
 6420TIP3    H219267   1.222   0.503   0.814  1.3137  2.1713  0.0764
 6421TIP3   OH219268   4.327   0.751   3.103 -0.2739 -0.2328 -0.0796
 6421TIP3    H119269   4.271   0.828   3.091 -0.2892  0.1517  2.0559
 6421TIP3    H219270   4.360   0.759   3.193  1.1239 -1.8282 -0.3961
 6422TIP3   OH219271   2.391   3.301   0.884  0.2014 -0.7579 -0.1202
 6422TIP3    H119272   2.300   3.328   0.871  0.7531  0.6678 -1.2623
 6422TIP3    H219273   2.407   3.235   0.817  0.1586 -0.6018 -0.2856
 6423TIP3   OH219274   2.119   5.095   2.522 -0.8849 -0.3213  0.3208
 6423TIP3    H119275   2.189   5.126   2.464 -0.5511 -1.6069  0.0183
 6423TIP3    H219276   2.053   5.164   2.518  0.5925  1.2260  1.0834
 6424TIP3   OH219277   6.240   3.812   1.659  0.1400 -0.3212 -0.2530
 6424TIP3    H119278   6.310   3.765   1.704  1.7600 -0.5849 -2.8224
 6424TIP3    H219279   6.169   3.749   1.652  0.4878 -0.7982  0.5003
 6425TIP3   OH219280   2.209   5.124   1.551 -0.0645 -0.3912  1.0130
 6425TIP3    H119281   2.276   5.135   1.619  0.1807 -0.4927  0.7897
 6425TIP3    H219282   2.165   5.042   1.574  2.3470 -2.4238 -0.8814
 6426TIP3   OH219283   5.936   1.749   4.637 -0.0101 -0.8237 -0.3593
 6426TIP3    H119284   5.850   1.730   4.600  0.3372  0.4361 -1.9413
 6426TIP3    H219285   5.918   1.781   4.725 -1.1543 -0.7331 -0.6092
 6427TIP3   OH219286   6.125   2.882   3.056 -0.3516  0.1904 -0.9943
 6427TIP3    H119287   6.035   2.851   3.044 -0.1453 -0.9755  0.3372
 6427TIP3    H219288   6.180   2.815   3.016  0.0348 -0.5499  0.7135
 6428TIP3   OH219289   4.508   3.409   1.344 -0.2903  0.1721 -0.6242
 6428TIP3    H119290   4.477   3.398   1.433  1.3325  2.1589  0.2602
 6428TIP3    H219291   4.434   3.451   1.298 -1.3004 -1.2809 -0.3939
 6429TIP3   OH219292   2.986   5.877   0.691 -0.5448  0.2249 -0.4136
 6429TIP3    H119293   3.057   5.941   0.702 -0.7648  0.6214 -1.2120
 6429TIP3    H219294   3.019   5.818   0.623 -0.9274  0.3525 -0.7137
 6430TIP3   OH219295   0.577   0.801   3.602 -0.3008  0.8778  0.1529
 6430TIP3    H119296   0.520   0.786   3.677 -0.5198  0.1301 -0.1476
 6430TIP3    H219297   0.611   0.714   3.580  1.0606  1.3212  0.3975
 6431TIP3   OH219298   1.216   2.653   0.582 -0.1814 -0.2274 -0.0207
 6431TIP3    H119299   1.292   2.599   0.560  0.1367 -0.0260  0.5611
 6431TIP3    H219300   1.202   2.637   0.676 -1.0065 -0.4516 -0.1718
 6432TIP3   OH219301   5.802   2.452   2.416 -0.0034 -0.0521 -0.5115
 6432TIP3    H119302   5.816   2.511   2.342 -0.1165  1.1326  0.3790
 6432TIP3    H219303   5.729   2.490   2.464  0.9966  0.0511  1.0248
 6433TIP3   OH219304   5.404   2.459   3.750  0.6395 -0.1828  0.3679
 6433TIP3    H119305   5.491   2.452   3.790 -0.0312 -0.3001  1.8360
 6433TIP3    H219306   5.345   2.478   3.822 -0.5587  0.0567 -0.6337
 6434TIP3   OH219307   2.322   2.247   1.103 -0.2127  0.1024 -0.0921
 6434TIP3    H119308   2.345   2.155   1.092 -1.4576 -0.3025  0.4878
 6434TIP3    H219309   2.385   2.294   1.049  0.6156 -1.0661 -0.1857
 6435TIP3   OH219310   4.483   1.835   1.794 -0.1203  0.2900 -0.4297
 6435TIP3    H119311   4.527   1.760   1.755 -1.0071  0.1948 -1.3009
 6435TIP3    H219312   4.491   1.905   1.729  0.9614  1.0704  0.4973
 6436TIP3   OH219313   4.639   3.109   4.936 -0.2887  0.0999 -0.1625
 6436TIP3    H119314   4.605   3.039   4.881 -1.5669 -0.2172  0.9781
 6436TIP3    H219315   4.712   3.068   4.984 -1.3828 -0.6519  0.9096
 6437TIP3   OH219316   4.339   4.120   2.709 -0.3543  0.5224  0.5000
 6437TIP3    H119317   4.355   4.102   2.616  2.2636  0.8298  0.8238
 6437TIP3    H219318   4.244   4.129   2.715 -1.0136 -3.1924 -1.4447
 6438TIP3   OH219319   1.728   3.482   3.357  1.0322  0.0968  0.5666
 6438TIP3    H119320   1.714   3.575   3.339 -0.4467 -0.0496  0.8209
 6438TIP3    H219321   1.742   3.478   3.452 -2.0158 -0.1907  1.1117
 6439TIP3   OH219322   6.027   4.737   3.772  0.1507  0.0094 -0.6989
 6439TIP3    H119323   6.115   4.707   3.794 -0.0467  0.6284  1.1721
 6439TIP3    H219324   6.042   4.818   3.722  0.6632  0.1539 -0.3332
 6440TIP3   OH219325   6.224   3.006   1.933  0.3369 -0.1892 -0.2093
 6440TIP3    H119326   6.312   2.992   1.897  1.6931  0.2046  2.6794
 6440TIP3    H219327   6.205   3.098   1.914 -0.4970 -0.8252 -2.7975
 6441TIP3   OH219328   3.676   5.862   0.622 -0.2342 -0.4284  0.0065
 6441TIP3    H119329   3.683   5.950   0.659 -1.1753 -0.1901 -0.3449
 6441TIP3    H219330   3.683   5.803   0.697  1.6243 -0.1246  0.1135
 6442TIP3   OH219331   3.820   0.807   0.189  0.1972  0.5966 -0.0141
 6442TIP3    H119332   3.818   0.825   0.095 -1.0791  0.8875  0.0587
 6442TIP3    H219333   3.909   0.831   0.215  1.2790 -1.4859 -1.5039
 6443TIP3   OH219334   5.793   3.371   0.753 -0.2172  0.5722  0.0065
 6443TIP3    H119335   5.804   3.442   0.817 -1.6047 -0.0607  1.0143
 6443TIP3    H219336   5.851   3.394   0.681 -0.6830  2.7898  0.2620
 6444TIP3   OH219337   3.224   4.604   2.140 -0.0205 -0.0909  0.8270
 6444TIP3    H119338   3.137   4.645   2.131  0.2705  0.7704  1.8113
 6444TIP3    H219339   3.279   4.651   2.078 -0.2341 -0.6108  0.2311
 6445TIP3   OH219340   4.620   3.748   0.864 -0.4667  0.2398 -0.1098
 6445TIP3    H119341   4.590   3.658   0.870  0.7575 -0.1201  1.4945
 6445TIP3    H219342   4.652   3.768   0.952  3.2990  0.7335 -1.3903
 6446TIP3   OH219343   2.270   2.044   2.203  0.5619  0.1426  0.7173
 6446TIP3    H119344   2.181   2.043   2.239 -0.0574  2.4573 -0.5692
 6446TIP3    H219345   2.261   2.006   2.115  0.9251  0.0616  0.7120
 6447TIP3   OH219346   3.708   5.809   2.833  0.1109  0.2490 -0.3357
 6447TIP3    H119347   3.740   5.777   2.748  0.8677 -0.8938  0.3505
 6447TIP3    H219348   3.782   5.856   2.870 -0.3713  1.1564 -0.4901
 6448TIP3   OH219349   2.051   5.703   0.904 -0.1315  0.0662  0.9228
 6448TIP3    H119350   1.988   5.631   0.909 -0.6448  0.5596  1.8246
 6448TIP3    H219351   2.014   5.763   0.839 -0.4395  0.1956  1.2111
 6449TIP3   OH219352   3.636   4.666   2.177 -0.9044  0.3980 -0.2121
 6449TIP3    H119353   3.622   4.618   2.259 -1.6661  0.0383 -0.5347
 6449TIP3    H219354   3.674   4.749   2.204  2.5063 -1.1623  0.2102
 6450TIP3   OH219355   5.321   3.164   0.759 -0.4037  0.4923 -0.2552
 6450TIP3    H119356   5.339   3.255   0.784 -0.2505  0.2887  0.3825
 6450TIP3    H219357   5.302   3.120   0.841 -2.3456  0.3552 -0.7400
 6451TIP3   OH219358   4.811   4.530   2.029 -0.2707  0.0550  0.0206
 6451TIP3    H119359   4.864   4.454   2.008  1.4055  0.6104  1.9373
 6451TIP3    H219360   4.836   4.596   1.964  0.6119 -0.0308  0.2719
 6452TIP3   OH219361   5.562   4.045   2.673 -0.5807  0.0172  0.1774
 6452TIP3    H119362   5.496   4.016   2.735 -1.2100 -0.8995 -0.8767
 6452TIP3    H219363   5.555   3.983   2.600  1.3741 -0.0449 -0.0098
 6453TIP3   OH219364   0.612   1.364   3.101 -0.3473  0.0183  0.2045
 6453TIP3    H119365   0.573   1.386   3.017  2.3833 -2.8034 -2.0573
 6453TIP3    H219366   0.579   1.277   3.122 -0.5824  0.4606  1.8371
 6454TIP3   OH219367   4.088   4.201   2.106  0.1788  0.1228 -0.5050
 6454TIP3    H119368   4.096   4.287   2.064 -0.4382  1.5432  2.0314
 6454TIP3    H219369   4.000   4.201   2.143 -0.5236 -2.4283 -1.9495
 6455TIP3   OH219370   5.025   3.199   0.831 -0.0886 -0.0995 -0.5216
 6455TIP3    H119371   5.045   3.291   0.813 -0.1279 -0.2807 -1.5194
 6455TIP3    H219372   5.108   3.162   0.862  0.1624  0.0526 -1.0090
 6456TIP3   OH219373   0.939   5.463   2.813 -0.0580  0.2036 -0.0662
 6456TIP3    H119374   0.875   5.502   2.754  0.4433  3.5352  1.3612
 6456TIP3    H219375   1.024   5.487   2.776  0.3303 -1.2375 -0.1454
 6457TIP3   OH219376   1.869   0.593   0.590  0.1973 -0.4522 -0.4101
 6457TIP3    H119377   1.897   0.680   0.563  0.8088 -0.3360  0.5368
 6457TIP3    H219378   1.945   0.537   0.573 -0.0326 -0.7118 -0.5897
 6458TIP3   OH219379   4.400   2.926   1.365 -0.2616  0.0231 -0.4996
 6458TIP3    H119380   4.422   2.845   1.320  0.1088  0.7662 -1.7356
 6458TIP3    H219381   4.317   2.953   1.326 -0.2282  0.3879 -0.3230
 6459TIP3   OH219382   0.098   0.296   0.964 -0.3830  0.1763  0.3978
 6459TIP3    H119383   0.153   0.223   0.936  1.5108  0.8825  2.0302
 6459TIP3    H219384   0.042   0.314   0.889  0.8016 -1.3727 -0.9240
 6460TIP3   OH219385   4.105   0.217   3.722 -0.1213  0.2203 -0.3585
 6460TIP3    H119386   4.060   0.151   3.669 -0.9302  0.4561  0.0203
 6460TIP3    H219387   4.102   0.182   3.811  1.1354 -0.1219 -0.4337
 6461TIP3   OH219388   5.322   0.305   1.802  0.0688 -0.4867  0.1881
 6461TIP3    H119389   5.396   0.330   1.859 -0.1966 -0.9813  0.7641
 6461TIP3    H219390   5.250   0.288   1.863 -0.5977  0.2135 -0.3818
 6462TIP3   OH219391   0.497   5.411   3.651  0.6735  0.5199 -0.0100
 6462TIP3    H119392   0.455   5.492   3.678 -0.8560 -0.4741  0.7386
 6462TIP3    H219393   0.490   5.411   3.555 -0.3070  0.7723  0.0541
 6463TIP3   OH219394   3.876   5.353   4.089 -0.0383 -0.0510 -0.5251
 6463TIP3    H119395   3.787   5.319   4.076 -0.1891  0.1177  0.0315
 6463TIP3    H219396   3.881   5.429   4.031 -0.4200  0.2153 -0.2144
 6464TIP3   OH219397   5.199   1.598   0.619  0.7910 -0.2651  0.1751
 6464TIP3    H119398   5.107   1.582   0.639  0.7505 -0.3154 -0.0478
 6464TIP3    H219399   5.198   1.675   0.562  0.9282  0.0651  0.6166
 6465TIP3   OH219400   0.756   0.134   2.500  0.8307 -0.3097  0.7708
 6465TIP3    H119401   0.798   0.199   2.443  1.5845 -3.4783 -2.6238
 6465TIP3    H219402   0.665   0.132   2.471  0.3695  0.3828  2.0874
 6466TIP3   OH219403   4.479   1.460   4.263 -0.1221 -0.4224 -0.2595
 6466TIP3    H119404   4.461   1.533   4.203 -1.6006 -0.7270 -0.2335
 6466TIP3    H219405   4.480   1.500   4.350 -1.3750 -0.4699 -0.2032
 6467TIP3   OH219406   1.231   0.156   1.300 -0.1305 -0.3118  0.0989
 6467TIP3    H119407   1.281   0.203   1.367  0.3712 -1.6321  0.6910
 6467TIP3    H219408   1.142   0.150   1.336  0.3072 -1.6900  1.0654
 6468TIP3   OH219409   3.046   1.073   0.609  0.4780 -0.3941  0.1468
 6468TIP3    H119410   3.110   1.124   0.559  0.6320 -0.5853  0.1486
 6468TIP3    H219411   3.074   1.081   0.700  0.1080  0.0842  0.2275
 6469TIP3   OH219412   4.371   2.587   0.564  0.2206 -0.4302 -0.3764
 6469TIP3    H119413   4.393   2.533   0.487 -0.3303 -1.2679  0.0384
 6469TIP3    H219414   4.439   2.654   0.566  1.5154 -1.6804 -0.3506
 6470TIP3   OH219415   0.043   3.213   3.593 -0.9233  0.2738  0.3620
 6470TIP3    H119416   0.021   3.235   3.503 -2.7842  4.2057  1.5415
 6470TIP3    H219417   0.138   3.219   3.597 -0.6853 -1.3097 -1.5284
 6471TIP3   OH219418   4.723   1.616   3.430 -0.5977 -0.6599  0.0716
 6471TIP3    H119419   4.788   1.681   3.456 -0.6983 -0.7468  0.5418
 6471TIP3    H219420   4.774   1.547   3.388 -0.3533 -0.8297  0.6331
 6472TIP3   OH219421   6.059   4.480  -0.005  0.6831  0.7789 -0.3662
 6472TIP3    H119422   6.070   4.390   0.024  2.1459  1.5316  1.6665
 6472TIP3    H219423   6.112   4.531   0.056 -0.5480  3.0846 -1.1149
 6473TIP3   OH219424   0.193   0.170   3.141 -0.1162 -0.1082 -0.0782
 6473TIP3    H119425   0.112   0.193   3.187 -0.4824  0.9917 -1.2350
 6473TIP3    H219426   0.261   0.216   3.190 -0.2203 -0.7421  0.6825
 6474TIP3   OH219427   3.228   2.279   3.949  0.1129  0.7972  0.5674
 6474TIP3    H119428   3.234   2.263   3.855 -0.6601  1.7851  0.3336
 6474TIP3    H219429   3.266   2.366   3.962  0.0178  0.7615  1.1349
 6475TIP3   OH219430   3.523   0.842   0.732 -0.2448  0.3910 -0.2671
 6475TIP3    H119431   3.450   0.837   0.794  0.5611 -0.4729  0.6654
 6475TIP3    H219432   3.514   0.928   0.691 -1.3191  0.6229  0.4154
 6476TIP3   OH219433   4.292   0.583   1.202 -0.2999  0.1893 -0.0322
 6476TIP3    H119434   4.216   0.622   1.160  0.7455  1.0233 -1.2170
 6476TIP3    H219435   4.275   0.489   1.200 -0.9484  0.3120 -1.0248
 6477TIP3   OH219436   5.984   3.438   3.300 -0.6295 -0.0901 -0.4105
 6477TIP3    H119437   6.066   3.390   3.288 -0.7461 -0.4592  0.2576
 6477TIP3    H219438   5.944   3.438   3.212 -0.5199 -1.0186 -0.4778
 6478TIP3   OH219439   5.011   0.947   1.367 -0.3356  0.2517  0.0677
 6478TIP3    H119440   5.053   0.912   1.445 -1.3660  0.5176  0.7532
 6478TIP3    H219441   4.917   0.939   1.384 -0.6679  3.4849  0.3771
 6479TIP3   OH219442   6.192   5.461   2.887 -0.1412  0.5396  0.4567
 6479TIP3    H119443   6.220   5.393   2.826  0.4157  1.3738 -0.2444
 6479TIP3    H219444   6.113   5.497   2.848 -0.2431  0.5193  0.6470
 6480TIP3   OH219445   5.075   0.340   3.404 -0.1618  0.5651 -0.4689
 6480TIP3    H119446   5.043   0.290   3.478 -0.4814  0.0405 -0.9520
 6480TIP3    H219447   5.107   0.274   3.342 -0.2435  0.9715 -0.9554
 6481TIP3   OH219448   5.636   4.043   0.150 -0.3060  0.4549 -0.2536
 6481TIP3    H119449   5.591   4.039   0.234  2.5118  0.6800  1.3993
 6481TIP3    H219450   5.662   3.953   0.131 -0.0981  0.5425 -0.3922
 6482TIP3   OH219451   1.629   3.831   4.430 -0.4302 -0.0832 -0.5977
 6482TIP3    H119452   1.692   3.783   4.483  0.3241 -0.2536 -1.6130
 6482TIP3    H219453   1.551   3.775   4.428 -0.5552  0.0238  0.4765
 6483TIP3   OH219454   5.743   2.610   4.431 -0.6813 -0.2707  0.4009
 6483TIP3    H119455   5.796   2.531   4.418 -2.0309 -1.3691  1.2146
 6483TIP3    H219456   5.753   2.659   4.349  1.2627 -0.5955  0.3921
 6484TIP3   OH219457   0.543   3.745   1.607 -0.5049 -0.4530  0.4742
 6484TIP3    H119458   0.527   3.797   1.686 -0.2109  0.8721 -0.2971
 6484TIP3    H219459   0.628   3.705   1.621 -0.7185 -0.7142  1.0665
 6485TIP3   OH219460   0.356   4.119   4.962  0.0978 -0.2586 -0.1042
 6485TIP3    H119461   0.377   4.199   4.915  0.4435 -0.3082 -0.0409
 6485TIP3    H219462   0.345   4.053   4.893  0.0690 -0.2117 -0.1440
 6486TIP3   OH219463   4.185   0.161   2.504  0.6135 -0.3789  0.1609
 6486TIP3    H119464   4.103   0.195   2.469  1.4859  0.1905 -1.4247
 6486TIP3    H219465   4.241   0.238   2.515  1.2611 -0.8647  0.3452
 6487TIP3   OH219466   5.807   3.848   0.756  0.2224  0.4771  0.1112
 6487TIP3    H119467   5.848   3.811   0.678  0.5523  1.0391  0.0150
 6487TIP3    H219468   5.744   3.781   0.784  0.3071  0.1499 -0.4670
 6488TIP3   OH219469   2.583   4.364   4.560 -0.3124 -0.1693 -0.2025
 6488TIP3    H119470   2.543   4.390   4.643  2.0365  1.8661  0.4318
 6488TIP3    H219471   2.531   4.289   4.530 -2.2437  0.0604  2.2613
 6489TIP3   OH219472   3.911   3.720   3.297  0.0458 -0.0238  0.9984
 6489TIP3    H119473   3.878   3.810   3.294  0.3839  0.0849 -0.1013
 6489TIP3    H219474   3.965   3.717   3.376 -0.9199  0.3805  1.6992
 6490TIP3   OH219475   1.942   1.195   4.522 -0.0945 -0.0596 -0.0179
 6490TIP3    H119476   1.962   1.222   4.612  0.9821 -1.2312  0.1206
 6490TIP3    H219477   1.888   1.116   4.533  1.7524 -1.4201 -0.3612
 6491TIP3   OH219478   3.681   0.268   0.168  0.4258  0.2460  0.4243
 6491TIP3    H119479   3.615   0.242   0.104  0.9365  0.9725 -0.4122
 6491TIP3    H219480   3.631   0.294   0.245 -0.1731 -1.0823  0.5019
 6492TIP3   OH219481   1.033   0.668   0.595  0.1831  0.1975 -0.0613
 6492TIP3    H119482   0.970   0.741   0.596  0.6505  0.6362  2.3258
 6492TIP3    H219483   1.102   0.698   0.536  0.1154  1.5080  0.4686
 6493TIP3   OH219484   3.126   4.680   4.788  0.1972  0.1511 -0.2234
 6493TIP3    H119485   3.065   4.609   4.804 -1.0232  1.3035  0.4455
 6493TIP3    H219486   3.133   4.686   4.692 -0.8882  0.1186 -0.3113
 6494TIP3   OH219487   4.556   0.509   1.091 -0.4741 -0.3478  0.3429
 6494TIP3    H119488   4.576   0.416   1.104 -2.4506 -0.7531  0.7978
 6494TIP3    H219489   4.462   0.515   1.105 -0.9124  1.2219 -2.4796
 6495TIP3   OH219490   6.221   0.402   4.208 -0.1477 -0.0428 -0.0425
 6495TIP3    H119491   6.166   0.436   4.279  0.6134 -1.1255  1.0939
 6495TIP3    H219492   6.206   0.463   4.135 -2.5435 -0.0916  0.3361
 6496TIP3   OH219493   5.733   5.420   5.028 -0.3439 -0.4545 -0.1672
 6496TIP3    H119494   5.712   5.511   5.007  0.5918 -0.2872 -0.4185
 6496TIP3    H219495   5.805   5.397   4.969  0.1211 -1.0224  0.5928
 6497TIP3   OH219496   5.002   0.990   3.892 -0.0897 -0.0194  0.0464
 6497TIP3    H119497   5.085   0.947   3.912 -0.4787 -1.2015 -0.7952
 6497TIP3    H219498   4.949   0.922   3.851  0.0051  1.7254 -3.3166
 6498TIP3   OH219499   3.931   2.959   2.034  0.3625 -0.0565  0.1178
 6498TIP3    H119500   4.009   2.913   2.063  0.8603  0.0192 -1.0702
 6498TIP3    H219501   3.897   3.001   2.113 -0.4943 -2.9466  1.4466
 6499TIP3   OH219502   1.577   1.179   0.812  0.6051 -0.1345  0.4786
 6499TIP3    H119503   1.601   1.106   0.754 -1.5716  1.0910 -2.1945
 6499TIP3    H219504   1.498   1.150   0.857 -0.9279  0.8417 -1.4331
 6500TIP3   OH219505   1.655   4.657   3.425 -0.3938  0.1415 -0.4402
 6500TIP3    H119506   1.749   4.671   3.433 -0.5979  0.6584  1.6337
 6500TIP3    H219507   1.615   4.734   3.465 -1.7181 -0.3041 -0.8228
 6501TIP3   OH219508   2.970   2.727   4.699  0.2607 -0.7976  0.1150
 6501TIP3    H119509   3.001   2.803   4.649  0.0665 -0.6765  0.1783
 6501TIP3    H219510   2.929   2.764   4.777 -0.9107 -0.9033 -0.4365
 6502TIP3   OH219511   0.833   4.932   4.559  0.3524  0.3452  0.2211
 6502TIP3    H119512   0.787   4.859   4.599  1.1957 -0.1718  0.2688
 6502TIP3    H219513   0.776   5.007   4.574 -0.0771 -0.1228  1.0144
 6503TIP3   OH219514   0.724   5.741   1.860  0.6857 -0.0414  0.3201
 6503TIP3    H119515   0.647   5.759   1.806  0.7663 -1.8155 -0.4398
 6503TIP3    H219516   0.690   5.733   1.949  0.3259  1.3309  0.3271
 6504TIP3   OH219517   2.046   3.355   3.501 -0.2530 -0.2313 -0.2783
 6504TIP3    H119518   2.108   3.421   3.469  0.1129 -0.0192  0.8246
 6504TIP3    H219519   1.979   3.406   3.547  1.0227 -0.7017  2.2174
 6505TIP3   OH219520   4.443   0.643   2.470 -0.5463 -0.5064  0.1101
 6505TIP3    H119521   4.535   0.663   2.488  0.0941 -2.4098 -0.8036
 6505TIP3    H219522   4.407   0.724   2.434  0.6462  0.3910  0.8698
 6506TIP3   OH219523   0.270   4.952   2.080 -0.2485  0.4241 -0.3493
 6506TIP3    H119524   0.261   5.008   2.157 -2.1605  2.6275 -2.0328
 6506TIP3    H219525   0.339   4.992   2.028  0.3129 -0.4496 -0.3079
 6507TIP3   OH219526   5.660   2.022   3.023  0.0455  0.5708  0.7852
 6507TIP3    H119527   5.569   2.032   3.049 -0.1532 -0.8535  0.7237
 6507TIP3    H219528   5.702   1.981   3.098  0.6894  1.3894  0.8851
 6508TIP3   OH219529   3.013   2.498   4.831  0.0807  0.2038  0.3434
 6508TIP3    H119530   2.951   2.466   4.897 -1.4185  0.3511 -0.9496
 6508TIP3    H219531   2.969   2.574   4.792  0.8818  0.0448 -0.9062
 6509TIP3   OH219532   2.159   4.571   4.989  0.1293 -0.2122  0.1332
 6509TIP3    H119533   2.209   4.600   4.913  1.3992 -0.5521  0.8102
 6509TIP3    H219534   2.211   4.598   5.064 -0.8850 -0.2733  0.8894
 6510TIP3   OH219535   3.553   5.011   2.175  0.0661 -0.0318  0.1025
 6510TIP3    H119536   3.483   4.973   2.229 -1.2042  0.0765 -1.3906
 6510TIP3    H219537   3.514   5.090   2.138  1.1665  0.3012 -0.3815
 6511TIP3   OH219538   2.827   4.858   1.966  0.1985  0.3701  0.9643
 6511TIP3    H119539   2.891   4.930   1.969 -0.1153  0.8532 -1.9030
 6511TIP3    H219540   2.742   4.902   1.964 -0.0023 -0.0370 -0.6391
 6512TIP3   OH219541   1.129   4.263   3.140 -0.3971 -0.0464 -0.3746
 6512TIP3    H119542   1.117   4.237   3.231  2.2461 -0.1251  0.0486
 6512TIP3    H219543   1.112   4.357   3.139 -0.7978 -0.1133  0.1290
 6513TIP3   OH219544   0.674   2.355   0.579  0.6425 -0.1021  0.3796
 6513TIP3    H119545   0.676   2.288   0.510 -2.4571 -1.7727  1.7285
 6513TIP3    H219546   0.701   2.309   0.658  3.2032  1.5629  0.5994
 6514TIP3   OH219547   0.780   2.975   4.727 -0.1804  0.1906  0.6209
 6514TIP3    H119548   0.845   2.918   4.687 -1.7876 -0.2651 -1.5052
 6514TIP3    H219549   0.826   3.058   4.741  1.2004 -0.5231  0.4289
 6515TIP3   OH219550   2.766   4.592   3.137 -0.1063 -0.3481  0.1566
 6515TIP3    H119551   2.779   4.687   3.127 -1.0477 -0.3738 -1.7438
 6515TIP3    H219552   2.853   4.555   3.124  0.2282  0.2257  0.6848
 6516TIP3   OH219553   1.159   0.747   1.960 -0.6581 -0.5834  0.5084
 6516TIP3    H119554   1.143   0.743   1.866  0.7243 -0.6619  0.2581
 6516TIP3    H219555   1.134   0.836   1.985 -1.6437 -0.7661  0.1954
 6517TIP3   OH219556   2.894   5.634   4.699  1.1036  0.4416 -0.0978
 6517TIP3    H119557   2.835   5.612   4.627 -0.9300 -0.6942  1.8116
 6517TIP3    H219558   2.949   5.557   4.709  0.2139 -0.1159  0.6404
 6518TIP3   OH219559   1.498   0.869   2.831  0.4022  0.0419  0.0531
 6518TIP3    H119560   1.462   0.828   2.752  0.1474 -2.9068  1.5413
 6518TIP3    H219561   1.593   0.861   2.822  0.4410  1.1717 -0.6370
 6519TIP3   OH219562   5.390   4.842   3.605  0.1785  0.2501 -0.4224
 6519TIP3    H119563   5.316   4.903   3.602 -0.4798 -0.4428  0.7768
 6519TIP3    H219564   5.391   4.801   3.519 -0.7054  0.4332 -0.5326
 6520TIP3   OH219565   1.134   0.939   2.635 -0.0297  0.2771  0.4184
 6520TIP3    H119566   1.213   0.891   2.608 -0.2460 -0.3333  0.8403
 6520TIP3    H219567   1.089   0.879   2.694 -1.6983 -0.0904 -1.1278
 6521TIP3   OH219568   0.292   3.205   0.670  0.1592  0.0427 -0.2473
 6521TIP3    H119569   0.321   3.115   0.655 -1.6580 -0.9364  1.6329
 6521TIP3    H219570   0.364   3.247   0.715  0.8948 -0.5565 -0.8435
 6522TIP3   OH219571   0.965   0.077   1.412  0.3254  1.0590  0.1792
 6522TIP3    H119572   0.897   0.104   1.474  0.8030 -1.2769  1.8624
 6522TIP3    H219573   0.918   0.060   1.330 -0.8958  0.9291  0.8842
 6523TIP3   OH219574   5.217   1.888   2.210 -0.0894  0.6441  0.2747
 6523TIP3    H119575   5.187   1.842   2.132  2.1396 -1.4065  0.5119
 6523TIP3    H219576   5.209   1.981   2.189 -1.3500  0.1423 -1.6226
 6524TIP3   OH219577   3.722   4.618   2.693 -0.1786 -0.1728 -0.1561
 6524TIP3    H119578   3.752   4.683   2.756 -2.1601 -0.8566  1.5780
 6524TIP3    H219579   3.802   4.588   2.650  0.9465  2.2584  0.0759
 6525TIP3   OH219580   2.575   3.994   4.997 -0.0488 -0.0165  0.3127
 6525TIP3    H119581   2.559   3.903   4.973  0.7067 -0.2965  0.8281
 6525TIP3    H219582   2.667   3.996   5.023  0.3029  1.1768 -0.9402
 6526TIP3   OH219583   2.257   4.110   0.468 -0.3809  0.2584  0.0627
 6526TIP3    H119584   2.222   4.169   0.534 -1.8763 -1.7717  1.2025
 6526TIP3    H219585   2.317   4.164   0.416  0.0785  2.1750  2.4175
 6527TIP3   OH219586   3.158   4.016   0.760  0.1012 -0.1392 -0.4455
 6527TIP3    H119587   3.110   4.088   0.721 -0.7072  0.1721  1.0452
 6527TIP3    H219588   3.250   4.038   0.748 -0.0983  1.9913  1.3917
 6528TIP3   OH219589   2.626   1.544   3.592  0.5119 -0.2443 -0.6913
 6528TIP3    H119590   2.635   1.454   3.625 -1.3247 -1.6682 -3.6005
 6528TIP3    H219591   2.548   1.578   3.637  0.8993 -0.2737  0.0209
 6529TIP3   OH219592   5.808   5.499   1.702  0.8069  0.0689 -0.1896
 6529TIP3    H119593   5.816   5.526   1.793 -0.1141  0.1419 -0.1215
 6529TIP3    H219594   5.717   5.472   1.693  0.7414  0.5832 -1.2225
 6530TIP3   OH219595   5.398   2.413   3.341  0.0869 -0.6040  0.3504
 6530TIP3    H119596   5.353   2.496   3.321  0.8865  0.0646  1.1994
 6530TIP3    H219597   5.328   2.349   3.351 -0.5270 -0.1027 -0.6652
 6531TIP3   OH219598   4.673   5.107   3.296 -0.2250 -0.1967 -0.1039
 6531TIP3    H119599   4.594   5.054   3.289  1.4762 -2.9221 -0.1615
 6531TIP3    H219600   4.711   5.083   3.381 -0.0689  2.0337  0.5083
 6532TIP3   OH219601   1.238   2.203   2.903  0.2527  0.3192  0.2309
 6532TIP3    H119602   1.244   2.167   2.814 -0.5814  2.7086 -0.8544
 6532TIP3    H219603   1.327   2.195   2.937  0.9512  0.7078 -1.3879
 6533TIP3   OH219604   4.025   4.647   1.562  0.2008  0.3936  0.3329
 6533TIP3    H119605   4.008   4.738   1.537 -0.1349  0.1461 -0.3562
 6533TIP3    H219606   4.093   4.653   1.629  0.4769  1.1228 -0.0066
 6534TIP3   OH219607   0.180   2.270   0.780  0.2648  0.1783 -0.4756
 6534TIP3    H119608   0.201   2.265   0.873  0.1356  2.7591 -0.2425
 6534TIP3    H219609   0.264   2.282   0.736  0.4504 -2.0589 -0.8813
 6535TIP3   OH219610   2.977   1.782   0.350  0.3147 -0.1845  0.1496
 6535TIP3    H119611   2.970   1.854   0.412 -1.2360 -0.7220  0.6463
 6535TIP3    H219612   3.054   1.733   0.380  0.2696  0.2190  0.9566
 6536TIP3   OH219613   5.634   1.199   5.135  0.2973  0.3622 -0.2858
 6536TIP3    H119614   5.563   1.145   5.100 -0.4003  0.6806  0.5908
 6536TIP3    H219615   5.628   1.281   5.086  0.0886  0.3733 -0.2420
 6537TIP3   OH219616   6.119   3.025   4.958 -0.3439  0.2425  0.1919
 6537TIP3    H119617   6.024   3.030   4.965 -0.5489 -3.2279  2.0073
 6537TIP3    H219618   6.136   2.936   4.926  2.2843  0.0309  1.8461
 6538TIP3   OH219619   3.758   5.290   0.715  0.2197  0.2138 -0.1838
 6538TIP3    H119620   3.727   5.368   0.760  2.1148  1.3637 -0.7390
 6538TIP3    H219621   3.724   5.298   0.626 -0.8376 -0.3986  0.1497
 6539TIP3   OH219622   5.800   3.539   1.831  0.4671 -0.1704  0.4020
 6539TIP3    H119623   5.763   3.554   1.745  1.4712  0.0303 -0.0163
 6539TIP3    H219624   5.753   3.598   1.889 -1.0168 -1.1373  0.2169
 6540TIP3   OH219625   4.608   4.339   4.003  0.3593  0.4856 -0.2645
 6540TIP3    H119626   4.678   4.400   3.980  1.0441 -0.3710 -0.5335
 6540TIP3    H219627   4.597   4.285   3.924  0.3951 -0.3143  0.2729
 6541TIP3   OH219628   6.335   2.237   0.093  0.0222 -0.7239 -0.6109
 6541TIP3    H119629   6.320   2.157   0.043 -0.7186 -1.1070  0.1896
 6541TIP3    H219630   6.325   2.210   0.184  1.1458  0.0011 -0.2609
 6542TIP3   OH219631   1.798   5.867   1.872  0.1901  0.1555  0.1245
 6542TIP3    H119632   1.819   5.841   1.961  1.4697  0.7559  0.0202
 6542TIP3    H219633   1.752   5.950   1.880 -0.0590  0.0077  0.2387
 6543TIP3   OH219634   5.767   3.604   2.606  0.0107 -0.2092 -0.7423
 6543TIP3    H119635   5.795   3.595   2.515  2.4247  1.6491 -0.2865
 6543TIP3    H219636   5.829   3.666   2.644 -2.0845  0.5666  1.6891
 6544TIP3   OH219637   0.513   2.055   1.094  0.3478 -0.5677  0.0025
 6544TIP3    H119638   0.447   2.055   1.163  0.0650  0.8143 -0.2400
 6544TIP3    H219639   0.587   2.101   1.132 -0.3150  1.4643 -1.0265
 6545TIP3   OH219640   2.690   2.459   2.048  0.3866 -0.1547 -0.3662
 6545TIP3    H119641   2.731   2.544   2.061  0.7884 -0.4205  0.1474
 6545TIP3    H219642   2.688   2.420   2.135  0.0161 -0.5852 -0.5651
 6546TIP3   OH219643   0.422   3.723   2.565  0.0362 -0.5886  0.1762
 6546TIP3    H119644   0.417   3.818   2.571 -0.1016 -0.5332 -0.7120
 6546TIP3    H219645   0.511   3.705   2.534  0.5399 -0.8383  1.6458
 6547TIP3   OH219646   0.074   0.585   1.356  0.2226  0.1716 -0.8125
 6547TIP3    H119647   0.169   0.593   1.342  0.2885 -0.2495 -0.5955
 6547TIP3    H219648   0.036   0.635   1.284  0.6130  0.5433 -0.7661
 6548TIP3   OH219649   2.434   0.912   3.882  0.2957  0.3310  0.3906
 6548TIP3    H119650   2.339   0.904   3.893  0.0343  0.4990 -1.4296
 6548TIP3    H219651   2.454   1.002   3.905  0.2102  0.0011  1.8551
 6549TIP3   OH219652   4.778   1.394   2.230  0.1375 -0.2585  0.0131
 6549TIP3    H119653   4.772   1.400   2.326 -0.5866 -1.3298  0.0450
 6549TIP3    H219654   4.820   1.310   2.214 -0.5547 -0.4831 -0.6332
 6550TIP3   OH219655   1.112   0.352   3.346  0.4271  0.3734  0.3314
 6550TIP3    H119656   1.116   0.415   3.274 -0.0847 -0.1338 -0.1483
 6550TIP3    H219657   1.116   0.267   3.304  1.2389  0.0745  0.9902
 6551TIP3   OH219658   5.528   3.938   4.849  0.5562  0.2018 -0.3884
 6551TIP3    H119659   5.446   3.894   4.827  0.0029  2.0399 -2.2793
 6551TIP3    H219660   5.514   4.029   4.823  2.3693  1.0856  1.4890
 6552TIP3   OH219661   3.142   5.161   0.787  0.5194 -0.0823 -0.1378
 6552TIP3    H119662   3.153   5.240   0.734 -1.0939 -1.0865 -2.0820
 6552TIP3    H219663   3.101   5.192   0.867  0.3809  1.1216 -0.6572
 6553TIP3   OH219664   2.477   2.648   4.368 -0.2832 -0.2406  0.5968
 6553TIP3    H119665   2.491   2.615   4.279  0.5645 -0.9373  0.9676
 6553TIP3    H219666   2.566   2.658   4.403 -0.6217 -0.2641  1.4660
 6554TIP3   OH219667   3.895   4.645   3.031 -0.2441 -0.5110 -0.4937
 6554TIP3    H119668   3.894   4.640   3.127 -1.2653 -0.7980 -0.5150
 6554TIP3    H219669   3.824   4.588   3.003 -0.3495  0.0528 -1.4121
 6555TIP3   OH219670   3.595   3.400   1.999  0.3835 -0.0459 -0.7033
 6555TIP3    H119671   3.605   3.368   1.909  0.8779  0.0836 -0.6993
 6555TIP3    H219672   3.677   3.377   2.042 -0.1268 -0.7314 -0.0824
 6556TIP3   OH219673   1.493   1.750   2.900  0.5776 -0.4046 -0.1310
 6556TIP3    H119674   1.434   1.813   2.859  0.3866 -0.4811  0.0233
 6556TIP3    H219675   1.558   1.730   2.832  0.8634  0.2450 -0.0501
 6557TIP3   OH219676   4.123   5.829   1.523 -0.6434  0.1994  0.0103
 6557TIP3    H119677   4.178   5.907   1.517 -0.5642  0.1819  0.4622
 6557TIP3    H219678   4.099   5.824   1.615 -1.2923  0.1285 -0.1553
 6558TIP3   OH219679   2.022   1.795   1.978  0.2582  0.4447 -0.1393
 6558TIP3    H119680   2.095   1.856   1.986 -0.6046  1.4567  0.2531
 6558TIP3    H219681   2.000   1.795   1.885  0.0028  1.0613 -0.0840
 6559TIP3   OH219682   1.980   2.048   1.771 -0.3072  0.4306  0.0295
 6559TIP3    H119683   1.991   1.959   1.739 -1.7283  0.6597 -1.2266
 6559TIP3    H219684   2.067   2.087   1.766  0.2135 -0.7081  0.0460
 6560TIP3   OH219685   3.310   0.537   1.355 -0.2958  0.5262  0.4471
 6560TIP3    H119686   3.364   0.555   1.278 -1.0488  2.8322  0.4053
 6560TIP3    H219687   3.357   0.467   1.401  0.7451 -0.1311 -1.5119
 6561TIP3   OH219688   2.989   4.608   3.748  0.2348 -0.0588 -0.4422
 6561TIP3    H119689   3.067   4.664   3.746  0.1758  0.0617  0.4075
 6561TIP3    H219690   3.016   4.528   3.703  0.4950  0.4267 -1.1650
 6562TIP3   OH219691   2.929   2.554   1.129  0.4164  0.0155  0.1150
 6562TIP3    H119692   2.935   2.459   1.115  1.1252 -0.0179  0.5734
 6562TIP3    H219693   3.008   2.575   1.179 -0.6611  0.5281  1.6963
 6563TIP3   OH219694   6.174   5.372   1.645  0.4720  0.6681  0.0496
 6563TIP3    H119695   6.142   5.441   1.703  0.3569 -0.7155  1.7318
 6563TIP3    H219696   6.104   5.360   1.581 -1.0030 -0.0746  1.7086
 6564TIP3   OH219697   1.588   0.966   2.073  0.3669 -0.0637 -0.1722
 6564TIP3    H119698   1.617   1.028   2.006 -0.0644 -0.0229 -0.3281
 6564TIP3    H219699   1.508   1.005   2.109  0.7266  0.0245  0.5301
 6565TIP3   OH219700   4.555   0.780   3.937 -0.5475 -0.1911 -0.3548
 6565TIP3    H119701   4.596   0.696   3.917  1.5763 -0.0756  2.9081
 6565TIP3    H219702   4.528   0.773   4.028 -2.2793  1.9723 -0.6066
 6566TIP3   OH219703   5.926   0.270   5.012 -0.2581  0.3109  0.7815
 6566TIP3    H119704   6.004   0.226   5.047  0.5569  1.1478  0.0642
 6566TIP3    H219705   5.940   0.273   4.918 -0.9984  0.7999  0.6759
 6567TIP3   OH219706   3.637   1.694   4.010 -0.6874 -0.3442 -0.1567
 6567TIP3    H119707   3.716   1.651   3.976 -0.3112 -1.8189  2.2724
 6567TIP3    H219708   3.574   1.623   4.020 -1.5700  0.4462 -0.0494
 6568TIP3   OH219709   0.280   4.102   0.122 -0.6035 -0.5635 -0.1576
 6568TIP3    H119710   0.297   4.192   0.093  0.4252 -0.9896 -0.9589
 6568TIP3    H219711   0.205   4.109   0.181 -0.3818  0.8494 -0.0123
 6569TIP3   OH219712   6.128   5.874   4.317 -0.6298 -0.1126 -0.5482
 6569TIP3    H119713   6.056   5.857   4.256  0.5841 -0.4517 -1.9151
 6569TIP3    H219714   6.196   5.914   4.264  0.4572 -0.3866  0.5991
 6570TIP3   OH219715   0.597   3.057   1.923 -0.3932 -0.5398  0.0368
 6570TIP3    H119716   0.515   3.054   1.973 -1.5402  3.9891 -1.1103
 6570TIP3    H219717   0.576   3.014   1.840 -1.6480  0.4548 -0.1942
 6571TIP3   OH219718   2.810   0.982   2.343  0.2853 -0.0966  0.1542
 6571TIP3    H119719   2.904   0.999   2.331  0.0900  1.6164  0.8030
 6571TIP3    H219720   2.797   0.893   2.308  2.2541 -0.6359  0.6744
 6572TIP3   OH219721   3.091   4.123   1.153 -0.4750 -0.0274  0.1267
 6572TIP3    H119722   3.088   4.091   1.243 -1.6807  1.2403  0.5685
 6572TIP3    H219723   3.175   4.169   1.147 -0.1748 -0.5170  0.4365
 6573TIP3   OH219724   1.913   5.364   1.921  0.5398  0.1221 -0.5207
 6573TIP3    H119725   1.915   5.352   1.826 -2.1562  0.0908 -0.6508
 6573TIP3    H219726   1.837   5.420   1.937  0.0314 -1.0750  1.6974
 6574TIP3   OH219727   3.171   2.667   5.008 -0.1656  0.0594  0.1221
 6574TIP3    H119728   3.117   2.625   4.941  0.9032  0.7849 -1.2324
 6574TIP3    H219729   3.157   2.761   4.996  2.3420  0.3550 -1.1731
 6575TIP3   OH219730   5.316   3.778   4.877  0.1658 -0.4819 -0.4146
 6575TIP3    H119731   5.317   3.721   4.954  1.4401 -1.1226 -0.8716
 6575TIP3    H219732   5.296   3.719   4.804 -0.3923  0.0035 -0.6538
 6576TIP3   OH219733   1.975   4.540   4.177  0.1936 -0.0074 -0.1066
 6576TIP3    H119734   1.984   4.450   4.147 -0.1242 -0.0638 -0.0338
 6576TIP3    H219735   1.891   4.569   4.140  1.0808  0.8093 -1.5744
 6577TIP3   OH219736   0.532   4.464   3.445  0.1670 -0.2672 -0.1142
 6577TIP3    H119737   0.501   4.488   3.533  0.2612  0.6115 -0.3197
 6577TIP3    H219738   0.627   4.459   3.454  0.0940 -1.4610  0.1421
 6578TIP3   OH219739   1.297   5.473   0.061  0.7404 -0.2963 -0.3179
 6578TIP3    H119740   1.243   5.476  -0.018  1.0669 -0.1813 -0.5365
 6578TIP3    H219741   1.348   5.554   0.057 -0.2433  0.4167  0.7169
 6579TIP3   OH219742   4.514   0.265   4.030 -0.5139 -0.2244 -0.0198
 6579TIP3    H119743   4.503   0.178   3.992  0.6959 -1.5453  2.3846
 6579TIP3    H219744   4.519   0.250   4.124 -0.8658  2.5450  0.5437
 6580TIP3   OH219745   2.434   0.273   3.743 -0.8441 -0.0240  0.2754
 6580TIP3    H119746   2.478   0.343   3.791 -1.0119  0.9642 -0.9637
 6580TIP3    H219747   2.406   0.314   3.661  0.2366 -1.8837 -1.0779
 6581TIP3   OH219748   3.644   4.939   3.427 -0.3529  0.2440  0.1720
 6581TIP3    H119749   3.696   4.987   3.363  0.6748 -0.8123  0.1866
 6581TIP3    H219750   3.696   4.862   3.448 -2.3389 -1.3470 -0.4874
 6582TIP3   OH219751   2.782   2.284   2.557  0.1819 -0.0970  0.3743
 6582TIP3    H119752   2.807   2.375   2.576  0.5606 -0.4128  1.4406
 6582TIP3    H219753   2.861   2.233   2.577 -0.2332 -0.7352  0.3937
 6583TIP3   OH219754   3.449   2.859   0.069  0.0617 -0.0201  0.2599
 6583TIP3    H119755   3.539   2.849   0.039  0.2438  0.7736  0.5183
 6583TIP3    H219756   3.400   2.882  -0.010 -0.0040 -0.9044  0.0358
 6584TIP3   OH219757   3.756   4.562   5.090  0.1311 -0.5386  0.0724
 6584TIP3    H119758   3.661   4.555   5.094  0.0427 -0.3800 -1.3306
 6584TIP3    H219759   3.781   4.509   5.015  1.1426 -0.4537  0.3352
 6585TIP3   OH219760   5.769   5.751   3.418 -0.7569 -0.4409 -0.8908
 6585TIP3    H119761   5.790   5.661   3.445  1.4285  0.2089 -0.2501
 6585TIP3    H219762   5.761   5.745   3.323  0.1158 -1.2086 -0.9359
 6586TIP3   OH219763   1.831   1.507   0.676 -0.5869 -0.3467 -0.0857
 6586TIP3    H119764   1.780   1.482   0.599 -2.6486  0.9866  0.7652
 6586TIP3    H219765   1.831   1.603   0.675  0.3778 -0.3152  0.9277
 6587TIP3   OH219766   3.590   5.064   0.277  0.2373 -0.2913 -0.0921
 6587TIP3    H119767   3.498   5.038   0.287  0.2546  0.3299  2.1850
 6587TIP3    H219768   3.607   5.056   0.183 -1.1611 -3.6152 -0.1866
 6588TIP3   OH219769   4.281   4.793   0.084 -0.4479  0.0557  0.8663
 6588TIP3    H119770   4.260   4.825   0.172 -0.7270  0.7885  0.5392
 6588TIP3    H219771   4.285   4.698   0.094 -1.9874  0.0160  1.3668
 6589TIP3   OH219772   3.708   0.533   2.067 -0.0415  0.4205  0.2918
 6589TIP3    H119773   3.749   0.565   2.148 -0.7384 -0.7371  1.1206
 6589TIP3    H219774   3.751   0.450   2.049  0.5127  0.9309 -0.8785
 6590TIP3   OH219775   2.734   3.145   4.971 -0.1636  0.6412 -0.3445
 6590TIP3    H119776   2.828   3.134   4.990  0.4501  2.1137 -2.2274
 6590TIP3    H219777   2.725   3.116   4.880 -1.0072  2.8409 -1.0131
 6591TIP3   OH219778   3.910   4.920   3.050 -0.6820  0.5895 -0.2157
 6591TIP3    H119779   3.982   4.967   3.008 -0.0571 -0.0332  0.1400
 6591TIP3    H219780   3.930   4.828   3.036 -0.5878  0.3725  1.2329
 6592TIP3   OH219781   3.930   5.740   2.169 -0.1634 -0.0033  0.3097
 6592TIP3    H119782   3.966   5.730   2.258 -0.8524 -1.0443  0.4866
 6592TIP3    H219783   3.941   5.654   2.129 -1.2389  0.0317 -0.0901
 6593TIP3   OH219784   4.665   4.422   0.483 -0.3693 -0.1832  0.1553
 6593TIP3    H119785   4.587   4.421   0.428 -0.1524 -0.4918 -0.1427
 6593TIP3    H219786   4.640   4.476   0.559 -0.1029  1.7501 -1.0601
 6594TIP3   OH219787   1.161   2.444   2.043  0.1660 -0.1752  0.0741
 6594TIP3    H119788   1.088   2.483   2.092 -0.6168 -1.3312 -0.1200
 6594TIP3    H219789   1.194   2.375   2.101 -0.1484 -0.9219 -0.6107
 6595TIP3   OH219790   6.044   4.705   3.317  0.2569  0.0646 -1.3764
 6595TIP3    H119791   6.054   4.629   3.374 -0.3755  1.2621  0.3964
 6595TIP3    H219792   6.092   4.681   3.237  1.3800 -1.5663 -0.2723
 6596TIP3   OH219793   5.651   0.615   3.490 -0.2298 -0.4530 -0.2812
 6596TIP3    H119794   5.700   0.582   3.566  0.3576  1.1047  0.0510
 6596TIP3    H219795   5.571   0.652   3.528 -0.0169  0.1691 -0.4300
 6597TIP3   OH219796   0.809   4.114   2.626 -0.4141 -0.2131  0.3764
 6597TIP3    H119797   0.779   4.194   2.583 -0.5230 -1.0254 -1.1633
 6597TIP3    H219798   0.874   4.078   2.566  0.6362 -0.5891  1.6993
 6598TIP3   OH219799   5.518   1.442   3.067  0.2830  0.3686 -0.6968
 6598TIP3    H119800   5.459   1.426   2.993  0.0695  1.3209 -0.7445
 6598TIP3    H219801   5.473   1.508   3.120  0.4663 -0.2485  0.2532
 6599TIP3   OH219802   3.696   4.831   2.867 -0.2227 -0.5954 -0.2673
 6599TIP3    H119803   3.760   4.872   2.924 -3.5090  2.3359  1.6800
 6599TIP3    H219804   3.634   4.789   2.926 -1.7040 -0.7602 -1.8481
 6600TIP3   OH219805   4.237   5.151   1.783  0.4013 -0.0966  0.3997
 6600TIP3    H119806   4.244   5.245   1.797  1.3472  0.0987 -1.1526
 6600TIP3    H219807   4.147   5.137   1.756  0.3382  0.4059  0.3489
 6601TIP3   OH219808   3.319   3.528   1.087  0.0140  0.1269 -0.2861
 6601TIP3    H119809   3.364   3.545   1.004  0.4701 -0.1446 -0.0978
 6601TIP3    H219810   3.388   3.530   1.153  0.1678 -2.5108 -0.2527
 6602TIP3   OH219811   5.214   1.468   3.877 -0.1593 -0.1162  0.2612
 6602TIP3    H119812   5.221   1.412   3.800  0.3794 -1.8272  1.4776
 6602TIP3    H219813   5.122   1.496   3.878 -0.0109  0.4739 -1.3347
 6603TIP3   OH219814   4.795   5.982   4.597  0.2810 -0.0147  0.4418
 6603TIP3    H119815   4.750   5.924   4.659 -1.0196  0.9084  0.3949
 6603TIP3    H219816   4.725   6.015   4.541  1.2894  0.0413 -0.8078
 6604TIP3   OH219817   4.839   1.899   2.980  0.0045 -0.0834 -0.2560
 6604TIP3    H119818   4.760   1.860   2.943 -1.1321  0.7894  1.1319
 6604TIP3    H219819   4.842   1.866   3.070  0.7812  0.5096 -0.0510
 6605TIP3   OH219820   0.059   0.893   2.962 -0.0504  0.4615 -0.1633
 6605TIP3    H119821   0.151   0.885   2.986  0.1624 -1.5809 -1.4287
 6605TIP3    H219822   0.058   0.957   2.890  0.2468  1.0891  0.3797
 6606TIP3   OH219823   5.365   2.371   0.461 -0.6484 -0.1412  0.0728
 6606TIP3    H119824   5.439   2.429   0.445 -0.3119 -0.2855  1.0126
 6606TIP3    H219825   5.349   2.328   0.377 -1.0784  1.4856 -0.7060
 6607TIP3   OH219826   5.898   4.494   3.676 -0.5336  0.6885  0.1116
 6607TIP3    H119827   5.925   4.579   3.709 -2.5082  1.8517 -1.0826
 6607TIP3    H219828   5.876   4.443   3.754 -0.6134  1.7243  0.7790
 6608TIP3   OH219829   6.093   0.808   4.497 -0.4515  0.4514 -0.4076
 6608TIP3    H119830   6.087   0.818   4.592 -1.4681  1.2431 -0.5476
 6608TIP3    H219831   6.049   0.885   4.461 -1.4120 -0.5690 -1.5151
 6609TIP3   OH219832   5.754   0.953   2.908  0.5183 -0.0242 -0.1469
 6609TIP3    H119833   5.836   0.904   2.913  0.1898 -0.9216 -2.3691
 6609TIP3    H219834   5.741   0.988   2.997  3.6452  0.7758  0.1180
 6610TIP3   OH219835   3.457   5.385   0.234  0.3992 -0.1465 -0.2459
 6610TIP3    H119836   3.525   5.427   0.181 -1.5789  2.1337 -1.1659
 6610TIP3    H219837   3.431   5.308   0.184  1.7092 -0.5821 -0.2820
 6611TIP3   OH219838   3.895   1.542   4.571  0.1772  0.1191 -0.1410
 6611TIP3    H119839   3.938   1.478   4.628 -0.2849  1.7037  2.1847
 6611TIP3    H219840   3.951   1.619   4.575 -0.5313  0.6918 -0.8123
 6612TIP3   OH219841   5.008   3.614   1.384  0.1418  0.7566 -0.1587
 6612TIP3    H119842   5.032   3.684   1.445  0.7765  0.0702  0.3968
 6612TIP3    H219843   4.938   3.566   1.429 -0.6547  1.3194 -0.7584
 6613TIP3   OH219844   2.748   2.094   0.282  0.0914  0.2349 -0.1993
 6613TIP3    H119845   2.831   2.060   0.314 -0.1991 -1.0144 -0.7018
 6613TIP3    H219846   2.772   2.156   0.213  0.6391  1.3434  0.9458
 6614TIP3   OH219847   2.342   5.294   2.116 -0.8460 -0.0376  0.0602
 6614TIP3    H119848   2.339   5.327   2.206 -1.3549 -1.6038  0.6591
 6614TIP3    H219849   2.287   5.354   2.066  0.9944  2.0238  0.3376
 6615TIP3   OH219850   3.314   2.138   3.470 -0.3276  0.2927 -0.0085
 6615TIP3    H119851   3.259   2.083   3.413 -1.2465 -1.0019  2.0214
 6615TIP3    H219852   3.403   2.125   3.438 -0.7965 -0.4861 -1.0566
 6616TIP3   OH219853   4.081   2.805   2.212  0.0494  0.4800 -0.7753
 6616TIP3    H119854   4.108   2.885   2.257 -0.7824  0.6576 -0.5732
 6616TIP3    H219855   4.065   2.742   2.283 -1.4104  0.8056 -0.7964
 6617TIP3   OH219856   2.095   0.893   0.652 -0.5616  0.9439  0.3777
 6617TIP3    H119857   2.183   0.856   0.649 -1.6056 -1.9913  1.9740
 6617TIP3    H219858   2.053   0.859   0.573 -1.2502 -0.6686  1.3899
 6618TIP3   OH219859   1.541   1.592   3.104  0.0715  0.2208 -0.6522
 6618TIP3    H119860   1.531   1.509   3.057 -0.7613  0.0446 -0.1678
 6618TIP3    H219861   1.537   1.658   3.035  0.4823 -0.1156 -1.0118
 6619TIP3   OH219862   4.565   2.906   3.823 -0.7056  0.1339 -0.8152
 6619TIP3    H119863   4.533   2.816   3.817 -0.8284  0.2627 -2.7061
 6619TIP3    H219864   4.493   2.954   3.863 -0.2352 -0.7510  1.2217
 6620TIP3   OH219865   0.210   4.959   0.424 -0.0794 -0.5227 -0.1015
 6620TIP3    H119866   0.266   4.970   0.347 -1.1878  1.6686 -0.6814
 6620TIP3    H219867   0.149   5.032   0.419 -1.6272 -1.6212  1.6666
 6621TIP3   OH219868   0.950   5.045   3.110 -0.1127 -0.1388  0.7457
 6621TIP3    H119869   1.009   5.083   3.045 -0.2026  1.6348  1.6508
 6621TIP3    H219870   1.007   4.992   3.166  0.1439 -0.7394 -0.0652
 6622TIP3   OH219871   1.246   2.142   4.217 -0.2324  0.0715  0.8214
 6622TIP3    H119872   1.170   2.093   4.185 -0.3935  0.7910  0.0744
 6622TIP3    H219873   1.210   2.225   4.247  0.4653  1.4320 -1.7691
 6623TIP3   OH219874   6.256   4.415   4.022 -0.4623 -0.1697  0.2854
 6623TIP3    H119875   6.307   4.435   4.101 -1.2878  1.1210  0.5231
 6623TIP3    H219876   6.201   4.340   4.048  0.6048 -0.9601  0.3181
 6624TIP3   OH219877   6.035   0.756   3.771 -0.3731 -0.1067 -0.3905
 6624TIP3    H119878   6.034   0.705   3.852  1.9474 -0.0818 -0.3055
 6624TIP3    H219879   6.106   0.719   3.720  1.0279  2.6069 -0.5808
 6625TIP3   OH219880   1.437   5.397   4.237 -0.0813 -0.3323 -0.0730
 6625TIP3    H119881   1.384   5.433   4.308 -0.6904 -0.5267 -0.4234
 6625TIP3    H219882   1.527   5.402   4.269 -0.2650  0.4644  0.3239
 6626TIP3   OH219883   0.832   1.368   4.029 -0.2582 -0.1482 -0.2025
 6626TIP3    H119884   0.838   1.273   4.040  0.8136 -0.3501 -2.1056
 6626TIP3    H219885   0.761   1.381   3.966  0.1204  0.2428 -0.5609
 6627TIP3   OH219886   1.429   2.937   0.436 -0.1642 -0.0080  0.0660
 6627TIP3    H119887   1.362   2.871   0.418  0.3861 -0.8392  1.0164
 6627TIP3    H219888   1.510   2.901   0.399  0.2804 -0.1878  1.1814
 6628TIP3   OH219889   2.799   5.716   0.335 -0.0355  0.2604  0.0234
 6628TIP3    H119890   2.782   5.659   0.259 -1.5925  2.7488 -1.6499
 6628TIP3    H219891   2.751   5.675   0.407  0.4424 -1.5047 -0.6047
 6629TIP3   OH219892   3.323   4.379   0.576 -0.3273  0.7833 -0.2398
 6629TIP3    H119893   3.360   4.432   0.505  1.5044  1.7486  1.3415
 6629TIP3    H219894   3.276   4.442   0.631 -1.0415  0.1860 -0.1495
 6630TIP3   OH219895   5.630   1.645   4.084  0.0242 -0.8183 -0.6751
 6630TIP3    H119896   5.694   1.640   4.013  0.1247  2.3306 -0.9385
 6630TIP3    H219897   5.590   1.732   4.075 -0.9258 -0.8289  2.3141
 6631TIP3   OH219898   5.958   3.290   2.526 -0.1825 -0.6348  0.2553
 6631TIP3    H119899   6.043   3.297   2.482  0.0527  0.5583  0.8509
 6631TIP3    H219900   5.978   3.251   2.611  0.2526  2.1217  1.5305
 6632TIP3   OH219901   3.759   1.501   3.511 -0.3787 -0.1349  0.1009
 6632TIP3    H119902   3.757   1.494   3.416  1.6884 -2.3423  0.1313
 6632TIP3    H219903   3.705   1.428   3.542 -0.3485  0.0624  0.6346
 6633TIP3   OH219904   3.402   2.598   0.788 -0.1619 -0.0784 -0.5007
 6633TIP3    H119905   3.351   2.613   0.867  0.2665  0.3200 -0.2966
 6633TIP3    H219906   3.493   2.598   0.817  0.2690  3.3283 -1.4041
 6634TIP3   OH219907   0.635   1.027   3.828 -0.1257 -0.0231 -0.4270
 6634TIP3    H119908   0.670   1.072   3.751  0.1776  1.2315  0.4050
 6634TIP3    H219909   0.541   1.023   3.813 -0.3618  2.1901  0.0682
 6635TIP3   OH219910   0.275   0.838   2.699 -0.0263  0.0654  0.0371
 6635TIP3    H119911   0.207   0.796   2.647  0.8294 -0.0556 -1.0122
 6635TIP3    H219912   0.238   0.923   2.722 -0.8128 -0.2857  0.0996
 6636TIP3   OH219913   1.853   0.312   4.973  0.1370  0.0190 -0.2809
 6636TIP3    H119914   1.830   0.220   4.982 -0.6398  0.3284  1.3354
 6636TIP3    H219915   1.916   0.314   4.901 -1.6888 -1.4214 -2.0490
 6637TIP3   OH219916  -0.011   4.613   2.241 -0.2372 -0.2566  0.2659
 6637TIP3    H119917   0.025   4.683   2.296  2.2776 -1.5327  0.3653
 6637TIP3    H219918   0.061   4.586   2.185 -2.0542 -0.6609 -2.0531
 6638TIP3   OH219919   5.530   5.435   1.647 -0.0186 -1.1414  0.1737
 6638TIP3    H119920   5.484   5.381   1.711 -0.8248 -1.6315 -0.8086
 6638TIP3    H219921   5.576   5.373   1.591  0.1277 -0.7504 -0.1456
 6639TIP3   OH219922   4.051   4.097   2.761  0.1435 -0.2233  0.1583
 6639TIP3    H119923   4.014   4.027   2.815  0.8391  1.2137  2.6536
 6639TIP3    H219924   3.976   4.152   2.739 -0.0035 -0.2120  0.6653
 6640TIP3   OH219925   2.566   5.129   0.836  0.1365 -0.3333  0.0544
 6640TIP3    H119926   2.489   5.182   0.857  1.9311  2.0716  1.0243
 6640TIP3    H219927   2.564   5.058   0.901 -2.1148 -1.3852 -1.0302
   6.34006   5.97747   5.17664   0.00000   0.00000  -2.11335   0.00000  -2.11335  -2.98873
