Title t= 392.00000 step= 196000
19942
    1ASP      N    1   1.134   1.737   3.537
    1ASP    HT1    2   1.174   1.701   3.626
    1ASP    HT2    3   1.081   1.661   3.491
    1ASP    HT3    4   1.063   1.809   3.563
    1ASP     CA    5   1.233   1.807   3.451
    1ASP     HA    6   1.275   1.888   3.509
    1ASP     CB    7   1.342   1.701   3.411
    1ASP    HB1    8   1.293   1.626   3.345
    1ASP    HB2    9   1.387   1.647   3.497
    1ASP     CG   10   1.451   1.767   3.336
    1ASP    OD1   11   1.514   1.695   3.251
    1ASP    OD2   12   1.495   1.880   3.357
    1ASP      C   13   1.169   1.874   3.329
    1ASP      O   14   1.048   1.863   3.310
    2ALA      N   15   1.246   1.947   3.247
    2ALA     HN   16   1.344   1.946   3.264
    2ALA     CA   17   1.201   2.013   3.126
    2ALA     HA   18   1.105   2.059   3.139
    2ALA     CB   19   1.300   2.121   3.091
    2ALA    HB1   20   1.263   2.180   3.005
    2ALA    HB2   21   1.396   2.077   3.054
    2ALA    HB3   22   1.323   2.189   3.176
    2ALA      C   23   1.194   1.910   3.009
    2ALA      O   24   1.231   1.793   3.022
    3ASP      N   25   1.130   1.960   2.907
    3ASP     HN   26   1.102   2.055   2.919
    3ASP     CA   27   1.111   1.903   2.773
    3ASP     HA   28   1.029   1.833   2.779
    3ASP     CB   29   1.079   2.011   2.663
    3ASP    HB1   30   1.066   1.974   2.559
    3ASP    HB2   31   1.158   2.088   2.674
    3ASP     CG   32   0.953   2.077   2.694
    3ASP    OD1   33   0.872   2.029   2.776
    3ASP    OD2   34   0.929   2.181   2.628
    3ASP      C   35   1.226   1.808   2.729
    3ASP      O   36   1.343   1.832   2.746
    4GLY      N   37   1.193   1.692   2.676
    4GLY     HN   38   1.095   1.682   2.657
    4GLY     CA   39   1.289   1.595   2.614
    4GLY    HA1   40   1.223   1.528   2.561
    4GLY    HA2   41   1.341   1.543   2.694
    4GLY      C   42   1.378   1.653   2.507
    4GLY      O   43   1.336   1.743   2.440
    5PRO      N   44   1.498   1.601   2.487
    5PRO     CD   45   1.563   1.496   2.570
    5PRO    HD1   46   1.510   1.399   2.557
    5PRO    HD2   47   1.555   1.529   2.676
    5PRO     CA   48   1.594   1.649   2.384
    5PRO     HA   49   1.642   1.734   2.429
    5PRO     CB   50   1.698   1.537   2.378
    5PRO    HB1   51   1.796   1.566   2.334
    5PRO    HB2   52   1.649   1.461   2.313
    5PRO     CG   53   1.711   1.497   2.523
    5PRO    HG1   54   1.762   1.399   2.532
    5PRO    HG2   55   1.767   1.575   2.578
    5PRO      C   56   1.554   1.694   2.244
    5PRO      O   57   1.460   1.637   2.188
    6GLY      N   58   1.616   1.794   2.186
    6GLY     HN   59   1.676   1.846   2.245
    6GLY     CA   60   1.613   1.834   2.045
    6GLY    HA1   61   1.696   1.903   2.036
    6GLY    HA2   62   1.516   1.874   2.017
    6GLY      C   63   1.645   1.727   1.947
    6GLY      O   64   1.587   1.716   1.838
    7ASP      N   65   1.749   1.648   1.984
    7ASP     HN   66   1.798   1.664   2.069
    7ASP     CA   67   1.787   1.520   1.927
    7ASP     HA   68   1.828   1.538   1.829
    7ASP     CB   69   1.901   1.454   2.008
    7ASP    HB1   70   1.942   1.360   1.963
    7ASP    HB2   71   1.870   1.433   2.112
    7ASP     CG   72   2.018   1.552   2.028
    7ASP    OD1   73   2.039   1.642   1.945
    7ASP    OD2   74   2.096   1.514   2.117
    7ASP      C   75   1.669   1.410   1.913
    7ASP      O   76   1.614   1.366   2.010
    8PRO      N   77   1.640   1.363   1.790
    8PRO     CD   78   1.702   1.408   1.660
    8PRO    HD1   79   1.813   1.405   1.662
    8PRO    HD2   80   1.671   1.511   1.631
    8PRO     CA   81   1.510   1.301   1.762
    8PRO     HA   82   1.439   1.364   1.813
    8PRO     CB   83   1.496   1.303   1.609
    8PRO    HB1   84   1.443   1.394   1.574
    8PRO    HB2   85   1.450   1.207   1.578
    8PRO     CG   86   1.641   1.320   1.554
    8PRO    HG1   87   1.696   1.223   1.546
    8PRO    HG2   88   1.645   1.362   1.451
    8PRO      C   89   1.498   1.158   1.813
    8PRO      O   90   1.382   1.130   1.853
    9ASP      N   91   1.608   1.076   1.812
    9ASP     HN   92   1.696   1.115   1.786
    9ASP     CA   93   1.596   0.939   1.855
    9ASP     HA   94   1.495   0.902   1.849
    9ASP     CB   95   1.685   0.846   1.762
    9ASP    HB1   96   1.699   0.748   1.811
    9ASP    HB2   97   1.786   0.893   1.763
    9ASP     CG   98   1.634   0.841   1.624
    9ASP    OD1   99   1.717   0.881   1.532
    9ASP    OD2  100   1.523   0.790   1.594
    9ASP      C  101   1.637   0.935   2.009
    9ASP      O  102   1.630   0.832   2.074
   10ALA      N  103   1.676   1.052   2.066
   10ALA     HN  104   1.691   1.137   2.015
   10ALA     CA  105   1.707   1.063   2.211
   10ALA     HA  106   1.765   0.976   2.239
   10ALA     CB  107   1.783   1.193   2.237
   10ALA    HB1  108   1.879   1.195   2.182
   10ALA    HB2  109   1.803   1.210   2.345
   10ALA    HB3  110   1.716   1.278   2.209
   10ALA      C  111   1.581   1.059   2.303
   10ALA      O  112   1.472   1.095   2.265
   11GLY      N  113   1.593   1.021   2.433
   11GLY     HN  114   1.678   0.974   2.456
   11GLY     CA  115   1.501   1.051   2.544
   11GLY    HA1  116   1.447   1.142   2.527
   11GLY    HA2  117   1.562   1.045   2.633
   11GLY      C  118   1.379   0.949   2.542
   11GLY    OT1  119   1.301   0.952   2.642
   11GLY    OT2  120   1.354   0.870   2.451
   12LIT    LIT  121   4.683   4.614   1.906
   13LIT    LIT  122   1.136   2.533   0.691
   14LIT    LIT  123   4.752   0.470   4.040
   15LIT    LIT  124   3.615   5.453   4.670
   16LIT    LIT  125   0.637   0.224   4.126
   17LIT    LIT  126   4.580   0.896   3.084
   18LIT    LIT  127   1.386   2.508   3.969
   19LIT    LIT  128   5.272   5.237   1.849
   20LIT    LIT  129   1.994   1.730   4.180
   21LIT    LIT  130   4.560   4.659   0.731
   22LIT    LIT  131   6.271   3.782   3.131
   23LIT    LIT  132   6.020   2.062   1.639
   24LIT    LIT  133   1.156   4.753   4.664
   25LIT    LIT  134   6.337   3.963   2.167
   26LIT    LIT  135   4.273   1.488   4.783
   27LIT    LIT  136   5.425   5.845   4.137
   28LIT    LIT  137   1.646   1.846   3.258
   29LIT    LIT  138   2.371   5.238   3.475
   30LIT    LIT  139   4.874   3.334   0.122
   31LIT    LIT  140   5.180   2.695   2.622
   32LIT    LIT  141   0.297   0.224   2.073
   33LIT    LIT  142   5.745   3.851   5.171
   34CLA    CLA  143   2.258   4.132   2.719
   35CLA    CLA  144   4.905   4.584   2.376
   36CLA    CLA  145   4.709   2.415   2.114
   37CLA    CLA  146   4.891   1.832   3.326
   38CLA    CLA  147   2.179   1.711   4.319
   39CLA    CLA  148   2.619   0.234   1.535
   40CLA    CLA  149   1.961   4.780   0.685
   41CLA    CLA  150   3.009   5.656   4.922
   42CLA    CLA  151   5.330   5.134   0.262
   43CLA    CLA  152   0.744   1.654   4.435
   44CLA    CLA  153   1.704   5.189   0.403
   45CLA    CLA  154   1.692   1.901   3.955
   46CLA    CLA  155   4.695   2.239   3.879
   47CLA    CLA  156   4.151   1.360   4.931
   48CLA    CLA  157   3.621   0.641   4.884
   49CLA    CLA  158   5.053   5.648   1.990
   50CLA    CLA  159   5.468   0.067   1.663
   51CLA    CLA  160   1.060   1.816   4.802
   52TIP3   OH2  161   2.362   1.819   4.844
   52TIP3    H1  162   2.358   1.818   4.749
   52TIP3    H2  163   2.430   1.755   4.867
   53TIP3   OH2  164   0.897   2.852   1.520
   53TIP3    H1  165   0.876   2.914   1.450
   53TIP3    H2  166   0.924   2.773   1.474
   54TIP3   OH2  167   0.519   2.177   4.224
   54TIP3    H1  168   0.504   2.243   4.156
   54TIP3    H2  169   0.612   2.186   4.245
   55TIP3   OH2  170   0.862   0.306   1.287
   55TIP3    H1  171   0.953   0.292   1.314
   55TIP3    H2  172   0.866   0.384   1.232
   56TIP3   OH2  173   5.393   4.343   3.838
   56TIP3    H1  174   5.485   4.341   3.865
   56TIP3    H2  175   5.390   4.290   3.759
   57TIP3   OH2  176   4.459   5.934   3.259
   57TIP3    H1  177   4.509   5.886   3.193
   57TIP3    H2  178   4.391   5.979   3.210
   58TIP3   OH2  179   2.503   4.220   1.871
   58TIP3    H1  180   2.437   4.288   1.859
   58TIP3    H2  181   2.455   4.138   1.860
   59TIP3   OH2  182   0.890   3.385   3.156
   59TIP3    H1  183   0.884   3.478   3.177
   59TIP3    H2  184   0.919   3.382   3.065
   60TIP3   OH2  185   4.841   2.813   0.524
   60TIP3    H1  186   4.883   2.848   0.446
   60TIP3    H2  187   4.816   2.890   0.575
   61TIP3   OH2  188   2.275   0.322   0.524
   61TIP3    H1  189   2.234   0.292   0.605
   61TIP3    H2  190   2.214   0.296   0.455
   62TIP3   OH2  191   4.855   4.393   1.550
   62TIP3    H1  192   4.780   4.452   1.543
   62TIP3    H2  193   4.831   4.318   1.497
   63TIP3   OH2  194   2.968   4.862   4.523
   63TIP3    H1  195   2.941   4.772   4.503
   63TIP3    H2  196   3.037   4.853   4.589
   64TIP3   OH2  197   1.013   5.303   4.092
   64TIP3    H1  198   1.017   5.357   4.171
   64TIP3    H2  199   1.042   5.360   4.021
   65TIP3   OH2  200   3.345   1.704   0.453
   65TIP3    H1  201   3.301   1.768   0.510
   65TIP3    H2  202   3.438   1.711   0.476
   66TIP3   OH2  203   3.161   4.315   4.561
   66TIP3    H1  204   3.137   4.350   4.476
   66TIP3    H2  205   3.098   4.355   4.622
   67TIP3   OH2  206   1.804   0.832   4.685
   67TIP3    H1  207   1.756   0.765   4.636
   67TIP3    H2  208   1.751   0.846   4.764
   68TIP3   OH2  209   5.267   1.757   4.647
   68TIP3    H1  210   5.232   1.846   4.642
   68TIP3    H2  211   5.353   1.763   4.606
   69TIP3   OH2  212   1.637   4.727   0.771
   69TIP3    H1  213   1.600   4.814   0.784
   69TIP3    H2  214   1.696   4.736   0.696
   70TIP3   OH2  215   4.792   1.512   2.070
   70TIP3    H1  216   4.797   1.516   1.975
   70TIP3    H2  217   4.880   1.534   2.100
   71TIP3   OH2  218   5.550   0.668   2.177
   71TIP3    H1  219   5.544   0.574   2.159
   71TIP3    H2  220   5.638   0.680   2.212
   72TIP3   OH2  221   2.969   1.736   4.853
   72TIP3    H1  222   2.920   1.657   4.877
   72TIP3    H2  223   2.915   1.778   4.786
   73TIP3   OH2  224   4.468   0.659   0.994
   73TIP3    H1  225   4.421   0.650   0.912
   73TIP3    H2  226   4.400   0.661   1.061
   74TIP3   OH2  227   4.437   1.099   2.744
   74TIP3    H1  228   4.517   1.150   2.751
   74TIP3    H2  229   4.462   1.012   2.774
   75TIP3   OH2  230   4.349   1.003   1.157
   75TIP3    H1  231   4.289   0.954   1.213
   75TIP3    H2  232   4.301   1.016   1.075
   76TIP3   OH2  233   2.947   3.341   3.337
   76TIP3    H1  234   3.010   3.313   3.403
   76TIP3    H2  235   2.867   3.293   3.358
   77TIP3   OH2  236   1.462   1.857   3.764
   77TIP3    H1  237   1.376   1.868   3.806
   77TIP3    H2  238   1.525   1.875   3.833
   78TIP3   OH2  239   5.620   2.288   2.990
   78TIP3    H1  240   5.684   2.360   2.996
   78TIP3    H2  241   5.584   2.281   3.079
   79TIP3   OH2  242   5.708   2.033   5.034
   79TIP3    H1  243   5.691   1.946   4.998
   79TIP3    H2  244   5.786   2.021   5.089
   80TIP3   OH2  245   0.365   5.963   0.269
   80TIP3    H1  246   0.301   5.907   0.224
   80TIP3    H2  247   0.444   5.909   0.273
   81TIP3   OH2  248   5.212   0.274   0.598
   81TIP3    H1  249   5.247   0.357   0.566
   81TIP3    H2  250   5.151   0.246   0.529
   82TIP3   OH2  251   1.146   0.816   2.808
   82TIP3    H1  252   1.198   0.869   2.748
   82TIP3    H2  253   1.165   0.726   2.783
   83TIP3   OH2  254   6.020   3.408   1.865
   83TIP3    H1  255   5.954   3.400   1.797
   83TIP3    H2  256   6.093   3.453   1.823
   84TIP3   OH2  257   2.146   1.608   2.361
   84TIP3    H1  258   2.131   1.603   2.267
   84TIP3    H2  259   2.227   1.657   2.370
   85TIP3   OH2  260   1.062   1.800   1.916
   85TIP3    H1  261   1.101   1.774   2.000
   85TIP3    H2  262   0.992   1.737   1.901
   86TIP3   OH2  263   2.674   3.380   0.788
   86TIP3    H1  264   2.758   3.425   0.787
   86TIP3    H2  265   2.661   3.353   0.697
   87TIP3   OH2  266   5.496   3.480   0.924
   87TIP3    H1  267   5.525   3.394   0.954
   87TIP3    H2  268   5.401   3.475   0.924
   88TIP3   OH2  269   3.158   1.076   2.306
   88TIP3    H1  270   3.230   1.048   2.362
   88TIP3    H2  271   3.085   1.092   2.365
   89TIP3   OH2  272   1.980   0.496   2.326
   89TIP3    H1  273   1.990   0.545   2.408
   89TIP3    H2  274   1.922   0.549   2.273
   90TIP3   OH2  275   4.806   5.184   2.646
   90TIP3    H1  276   4.773   5.120   2.709
   90TIP3    H2  277   4.782   5.148   2.561
   91TIP3   OH2  278   3.888   0.262   2.918
   91TIP3    H1  279   3.815   0.274   2.857
   91TIP3    H2  280   3.965   0.256   2.862
   92TIP3   OH2  281   1.582   2.917   0.608
   92TIP3    H1  282   1.587   2.911   0.513
   92TIP3    H2  283   1.549   3.006   0.625
   93TIP3   OH2  284   2.217   5.037   2.667
   93TIP3    H1  285   2.250   5.035   2.757
   93TIP3    H2  286   2.130   5.075   2.674
   94TIP3   OH2  287   4.263   3.706   3.470
   94TIP3    H1  288   4.289   3.614   3.461
   94TIP3    H2  289   4.191   3.716   3.408
   95TIP3   OH2  290   2.909   4.476   2.927
   95TIP3    H1  291   2.837   4.489   2.988
   95TIP3    H2  292   2.960   4.557   2.931
   96TIP3   OH2  293   5.421   4.537   0.432
   96TIP3    H1  294   5.439   4.507   0.343
   96TIP3    H2  295   5.499   4.587   0.456
   97TIP3   OH2  296   5.917   2.451   4.867
   97TIP3    H1  297   5.906   2.426   4.775
   97TIP3    H2  298   6.006   2.424   4.888
   98TIP3   OH2  299   4.832   5.682   0.179
   98TIP3    H1  300   4.915   5.646   0.147
   98TIP3    H2  301   4.835   5.775   0.156
   99TIP3   OH2  302   2.030   1.824   3.219
   99TIP3    H1  303   2.017   1.859   3.307
   99TIP3    H2  304   2.102   1.762   3.227
  100TIP3   OH2  305   5.415   5.848   2.561
  100TIP3    H1  306   5.372   5.908   2.622
  100TIP3    H2  307   5.441   5.773   2.615
  101TIP3   OH2  308   0.642   0.343   2.534
  101TIP3    H1  309   0.567   0.345   2.594
  101TIP3    H2  310   0.629   0.419   2.477
  102TIP3   OH2  311   5.164   3.288   4.730
  102TIP3    H1  312   5.188   3.233   4.656
  102TIP3    H2  313   5.082   3.329   4.704
  103TIP3   OH2  314   1.565   5.599   3.193
  103TIP3    H1  315   1.495   5.633   3.137
  103TIP3    H2  316   1.642   5.651   3.171
  104TIP3   OH2  317   2.491   4.087   1.411
  104TIP3    H1  318   2.548   4.114   1.483
  104TIP3    H2  319   2.470   3.996   1.431
  105TIP3   OH2  320   3.575   1.755   2.900
  105TIP3    H1  321   3.574   1.728   2.808
  105TIP3    H2  322   3.553   1.675   2.948
  106TIP3   OH2  323   0.349   4.756   1.712
  106TIP3    H1  324   0.310   4.669   1.700
  106TIP3    H2  325   0.342   4.772   1.807
  107TIP3   OH2  326   6.149   2.051   3.341
  107TIP3    H1  327   6.223   2.110   3.354
  107TIP3    H2  328   6.184   1.964   3.362
  108TIP3   OH2  329   5.800   2.711   2.049
  108TIP3    H1  330   5.772   2.620   2.039
  108TIP3    H2  331   5.803   2.725   2.144
  109TIP3   OH2  332   4.796   0.554   2.025
  109TIP3    H1  333   4.713   0.529   1.985
  109TIP3    H2  334   4.858   0.488   1.996
  110TIP3   OH2  335   0.985   4.258   0.185
  110TIP3    H1  336   0.907   4.260   0.130
  110TIP3    H2  337   1.023   4.346   0.176
  111TIP3   OH2  338   1.613   3.682   1.766
  111TIP3    H1  339   1.681   3.732   1.722
  111TIP3    H2  340   1.639   3.683   1.858
  112TIP3   OH2  341   1.921   2.445   4.738
  112TIP3    H1  342   1.979   2.377   4.773
  112TIP3    H2  343   1.847   2.448   4.799
  113TIP3   OH2  344   1.583   0.282   1.021
  113TIP3    H1  345   1.492   0.289   0.993
  113TIP3    H2  346   1.578   0.269   1.116
  114TIP3   OH2  347   4.170   1.367   2.547
  114TIP3    H1  348   4.159   1.459   2.524
  114TIP3    H2  349   4.086   1.342   2.587
  115TIP3   OH2  350   3.659   2.479   3.247
  115TIP3    H1  351   3.600   2.416   3.289
  115TIP3    H2  352   3.710   2.516   3.318
  116TIP3   OH2  353   2.820   2.910   1.332
  116TIP3    H1  354   2.749   2.945   1.278
  116TIP3    H2  355   2.852   2.834   1.283
  117TIP3   OH2  356   6.265   1.436   0.210
  117TIP3    H1  357   6.291   1.479   0.128
  117TIP3    H2  358   6.280   1.503   0.277
  118TIP3   OH2  359   4.731   5.790   4.043
  118TIP3    H1  360   4.731   5.795   3.947
  118TIP3    H2  361   4.810   5.740   4.064
  119TIP3   OH2  362   1.736   4.819   1.677
  119TIP3    H1  363   1.643   4.832   1.658
  119TIP3    H2  364   1.779   4.831   1.592
  120TIP3   OH2  365   5.167   1.455   1.799
  120TIP3    H1  366   5.159   1.450   1.704
  120TIP3    H2  367   5.107   1.388   1.832
  121TIP3   OH2  368   4.388   5.181   3.556
  121TIP3    H1  369   4.326   5.249   3.528
  121TIP3    H2  370   4.370   5.169   3.649
  122TIP3   OH2  371   2.724   5.314   1.542
  122TIP3    H1  372   2.716   5.335   1.635
  122TIP3    H2  373   2.782   5.383   1.507
  123TIP3   OH2  374   1.418   1.494   4.922
  123TIP3    H1  375   1.401   1.588   4.924
  123TIP3    H2  376   1.353   1.459   4.860
  124TIP3   OH2  377   6.021   4.695   2.044
  124TIP3    H1  378   5.951   4.731   2.099
  124TIP3    H2  379   6.060   4.772   2.002
  125TIP3   OH2  380   3.324   3.903   2.187
  125TIP3    H1  381   3.382   3.918   2.112
  125TIP3    H2  382   3.277   3.823   2.166
  126TIP3   OH2  383   6.108   5.766   3.563
  126TIP3    H1  384   6.101   5.749   3.469
  126TIP3    H2  385   6.168   5.840   3.569
  127TIP3   OH2  386   5.540   3.831   3.737
  127TIP3    H1  387   5.584   3.747   3.734
  127TIP3    H2  388   5.601   3.892   3.696
  128TIP3   OH2  389   3.226   3.355   0.206
  128TIP3    H1  390   3.322   3.359   0.205
  128TIP3    H2  391   3.199   3.437   0.248
  129TIP3   OH2  392   3.301   0.421   2.678
  129TIP3    H1  393   3.389   0.417   2.716
  129TIP3    H2  394   3.279   0.514   2.679
  130TIP3   OH2  395   4.650   4.589   3.952
  130TIP3    H1  396   4.591   4.536   3.898
  130TIP3    H2  397   4.678   4.661   3.895
  131TIP3   OH2  398   2.157   2.661   5.066
  131TIP3    H1  399   2.099   2.630   5.135
  131TIP3    H2  400   2.126   2.749   5.046
  132TIP3   OH2  401   0.404   4.250   3.968
  132TIP3    H1  402   0.400   4.327   3.911
  132TIP3    H2  403   0.482   4.263   4.021
  133TIP3   OH2  404   2.262   2.380   3.114
  133TIP3    H1  405   2.226   2.331   3.041
  133TIP3    H2  406   2.222   2.467   3.107
  134TIP3   OH2  407   6.267   0.365   0.129
  134TIP3    H1  408   6.226   0.279   0.142
  134TIP3    H2  409   6.322   0.376   0.206
  135TIP3   OH2  410   1.566   5.762   1.646
  135TIP3    H1  411   1.628   5.700   1.683
  135TIP3    H2  412   1.580   5.756   1.551
  136TIP3   OH2  413   5.121   2.094   4.328
  136TIP3    H1  414   5.087   2.121   4.243
  136TIP3    H2  415   5.118   2.174   4.381
  137TIP3   OH2  416   2.550   3.874   4.389
  137TIP3    H1  417   2.579   3.863   4.479
  137TIP3    H2  418   2.626   3.910   4.343
  138TIP3   OH2  419   2.527   2.618   0.120
  138TIP3    H1  420   2.570   2.650   0.041
  138TIP3    H2  421   2.492   2.696   0.161
  139TIP3   OH2  422   4.460   1.565   3.300
  139TIP3    H1  423   4.453   1.482   3.347
  139TIP3    H2  424   4.375   1.575   3.256
  140TIP3   OH2  425   0.604   0.582   2.401
  140TIP3    H1  426   0.589   0.650   2.467
  140TIP3    H2  427   0.536   0.598   2.335
  141TIP3   OH2  428   3.502   5.455   2.733
  141TIP3    H1  429   3.534   5.546   2.730
  141TIP3    H2  430   3.495   5.436   2.827
  142TIP3   OH2  431   2.122   0.899   0.373
  142TIP3    H1  432   2.032   0.867   0.379
  142TIP3    H2  433   2.123   0.979   0.425
  143TIP3   OH2  434   4.290   0.614   1.579
  143TIP3    H1  435   4.209   0.611   1.528
  143TIP3    H2  436   4.279   0.547   1.647
  144TIP3   OH2  437   1.277   5.567   2.799
  144TIP3    H1  438   1.313   5.479   2.783
  144TIP3    H2  439   1.184   5.552   2.816
  145TIP3   OH2  440   4.219   2.735   0.330
  145TIP3    H1  441   4.247   2.781   0.409
  145TIP3    H2  442   4.290   2.673   0.312
  146TIP3   OH2  443   3.934   5.654   0.367
  146TIP3    H1  444   3.930   5.604   0.286
  146TIP3    H2  445   4.019   5.632   0.405
  147TIP3   OH2  446   5.648   2.393   4.613
  147TIP3    H1  447   5.742   2.383   4.598
  147TIP3    H2  448   5.611   2.307   4.595
  148TIP3   OH2  449   5.989   3.822   2.374
  148TIP3    H1  450   5.900   3.788   2.364
  148TIP3    H2  451   5.985   3.910   2.336
  149TIP3   OH2  452   6.140   2.710   3.657
  149TIP3    H1  453   6.189   2.693   3.577
  149TIP3    H2  454   6.205   2.747   3.717
  150TIP3   OH2  455   2.252  -0.018   3.750
  150TIP3    H1  456   2.170  -0.049   3.790
  150TIP3    H2  457   2.235   0.074   3.731
  151TIP3   OH2  458   1.312   5.782   1.444
  151TIP3    H1  459   1.292   5.752   1.533
  151TIP3    H2  460   1.406   5.768   1.435
  152TIP3   OH2  461   1.536   1.278   0.735
  152TIP3    H1  462   1.621   1.278   0.779
  152TIP3    H2  463   1.473   1.284   0.806
  153TIP3   OH2  464   5.834   1.093   5.136
  153TIP3    H1  465   5.850   1.049   5.220
  153TIP3    H2  466   5.920   1.125   5.109
  154TIP3   OH2  467   1.534   4.994   3.268
  154TIP3    H1  468   1.600   5.048   3.312
  154TIP3    H2  469   1.451   5.026   3.303
  155TIP3   OH2  470   3.423   4.635   1.021
  155TIP3    H1  471   3.517   4.640   1.037
  155TIP3    H2  472   3.413   4.572   0.950
  156TIP3   OH2  473   0.019   4.091   2.019
  156TIP3    H1  474   0.104   4.109   1.978
  156TIP3    H2  475  -0.044   4.143   1.969
  157TIP3   OH2  476   1.739   3.608   2.618
  157TIP3    H1  477   1.788   3.600   2.536
  157TIP3    H2  478   1.776   3.684   2.661
  158TIP3   OH2  479   2.063   5.890   5.093
  158TIP3    H1  480   2.065   5.929   5.180
  158TIP3    H2  481   1.994   5.823   5.099
  159TIP3   OH2  482   4.481   2.752   4.196
  159TIP3    H1  483   4.545   2.690   4.233
  159TIP3    H2  484   4.535   2.821   4.157
  160TIP3   OH2  485   1.367   3.564   1.659
  160TIP3    H1  486   1.449   3.599   1.694
  160TIP3    H2  487   1.392   3.522   1.576
  161TIP3   OH2  488   3.342   0.255   1.649
  161TIP3    H1  489   3.327   0.182   1.708
  161TIP3    H2  490   3.269   0.315   1.664
  162TIP3   OH2  491   6.198   0.689   3.158
  162TIP3    H1  492   6.109   0.663   3.135
  162TIP3    H2  493   6.198   0.785   3.151
  163TIP3   OH2  494   2.345   1.905   3.500
  163TIP3    H1  495   2.377   1.969   3.564
  163TIP3    H2  496   2.328   1.956   3.421
  164TIP3   OH2  497   0.532   0.563   2.930
  164TIP3    H1  498   0.507   0.488   2.877
  164TIP3    H2  499   0.481   0.553   3.011
  165TIP3   OH2  500   2.622   0.527   1.428
  165TIP3    H1  501   2.683   0.571   1.488
  165TIP3    H2  502   2.625   0.435   1.454
  166TIP3   OH2  503   3.598   2.647   4.691
  166TIP3    H1  504   3.513   2.643   4.733
  166TIP3    H2  505   3.579   2.643   4.597
  167TIP3   OH2  506   1.634   0.665   4.516
  167TIP3    H1  507   1.559   0.721   4.492
  167TIP3    H2  508   1.594   0.581   4.539
  168TIP3   OH2  509   5.681   2.392   3.457
  168TIP3    H1  510   5.692   2.438   3.540
  168TIP3    H2  511   5.632   2.313   3.480
  169TIP3   OH2  512   3.947   0.418   3.306
  169TIP3    H1  513   3.884   0.474   3.351
  169TIP3    H2  514   3.913   0.329   3.318
  170TIP3   OH2  515   5.926   4.613   3.922
  170TIP3    H1  516   5.925   4.613   4.018
  170TIP3    H2  517   5.835   4.625   3.898
  171TIP3   OH2  518   3.491   5.306   1.556
  171TIP3    H1  519   3.479   5.287   1.463
  171TIP3    H2  520   3.488   5.402   1.561
  172TIP3   OH2  521   2.424   3.607   3.964
  172TIP3    H1  522   2.363   3.616   3.890
  172TIP3    H2  523   2.401   3.679   4.023
  173TIP3   OH2  524   2.154   1.130   1.664
  173TIP3    H1  525   2.157   1.058   1.726
  173TIP3    H2  526   2.182   1.092   1.581
  174TIP3   OH2  527   4.079   0.399   0.824
  174TIP3    H1  528   4.025   0.415   0.902
  174TIP3    H2  529   4.089   0.304   0.820
  175TIP3   OH2  530   0.391   5.421   4.639
  175TIP3    H1  531   0.461   5.402   4.701
  175TIP3    H2  532   0.399   5.515   4.622
  176TIP3   OH2  533   4.084   1.016   0.388
  176TIP3    H1  534   4.037   1.081   0.336
  176TIP3    H2  535   4.170   1.053   0.402
  177TIP3   OH2  536   4.872   3.924   0.331
  177TIP3    H1  537   4.804   3.878   0.283
  177TIP3    H2  538   4.853   3.906   0.424
  178TIP3   OH2  539   1.988   3.435   3.036
  178TIP3    H1  540   2.071   3.482   3.024
  178TIP3    H2  541   2.006   3.373   3.106
  179TIP3   OH2  542   5.522   5.295   1.024
  179TIP3    H1  543   5.576   5.345   0.962
  179TIP3    H2  544   5.540   5.204   1.002
  180TIP3   OH2  545   4.499   0.415   0.708
  180TIP3    H1  546   4.565   0.483   0.721
  180TIP3    H2  547   4.548   0.333   0.713
  181TIP3   OH2  548   6.108   4.648   3.138
  181TIP3    H1  549   6.138   4.685   3.221
  181TIP3    H2  550   6.064   4.720   3.094
  182TIP3   OH2  551   2.587   5.146   0.402
  182TIP3    H1  552   2.634   5.124   0.322
  182TIP3    H2  553   2.569   5.240   0.393
  183TIP3   OH2  554   6.024   5.651   0.782
  183TIP3    H1  555   6.075   5.572   0.763
  183TIP3    H2  556   5.991   5.637   0.870
  184TIP3   OH2  557   0.960   5.043   0.463
  184TIP3    H1  558   0.920   4.966   0.503
  184TIP3    H2  559   0.964   5.107   0.533
  185TIP3   OH2  560   2.076   0.191   4.641
  185TIP3    H1  561   1.980   0.195   4.641
  185TIP3    H2  562   2.102   0.250   4.570
  186TIP3   OH2  563   3.287   5.264   2.712
  186TIP3    H1  564   3.322   5.226   2.631
  186TIP3    H2  565   3.341   5.342   2.727
  187TIP3   OH2  566   6.275   0.321   1.290
  187TIP3    H1  567   6.197   0.294   1.338
  187TIP3    H2  568   6.249   0.403   1.247
  188TIP3   OH2  569   1.005   5.555   2.834
  188TIP3    H1  570   0.919   5.513   2.844
  188TIP3    H2  571   1.029   5.581   2.923
  189TIP3   OH2  572   2.491   1.596   0.684
  189TIP3    H1  573   2.438   1.517   0.670
  189TIP3    H2  574   2.484   1.644   0.601
  190TIP3   OH2  575   4.866   0.603   0.590
  190TIP3    H1  576   4.802   0.584   0.659
  190TIP3    H2  577   4.839   0.548   0.517
  191TIP3   OH2  578   5.724   2.559   3.049
  191TIP3    H1  579   5.781   2.547   3.125
  191TIP3    H2  580   5.759   2.637   3.005
  192TIP3   OH2  581   5.275   1.023   3.646
  192TIP3    H1  582   5.335   0.986   3.711
  192TIP3    H2  583   5.232   1.095   3.691
  193TIP3   OH2  584   3.332   2.670   0.256
  193TIP3    H1  585   3.424   2.660   0.233
  193TIP3    H2  586   3.285   2.634   0.180
  194TIP3   OH2  587   5.235   0.976   3.106
  194TIP3    H1  588   5.188   0.925   3.040
  194TIP3    H2  589   5.167   1.025   3.152
  195TIP3   OH2  590   4.322   1.412   1.024
  195TIP3    H1  591   4.250   1.353   1.042
  195TIP3    H2  592   4.316   1.431   0.930
  196TIP3   OH2  593   3.677   5.482   4.483
  196TIP3    H1  594   3.716   5.555   4.435
  196TIP3    H2  595   3.673   5.411   4.420
  197TIP3   OH2  596   4.038   5.385   0.516
  197TIP3    H1  597   4.086   5.465   0.495
  197TIP3    H2  598   4.104   5.315   0.512
  198TIP3   OH2  599   0.928   0.397   1.718
  198TIP3    H1  600   0.923   0.441   1.803
  198TIP3    H2  601   0.847   0.421   1.673
  199TIP3   OH2  602   1.932   3.827   4.254
  199TIP3    H1  603   1.950   3.804   4.163
  199TIP3    H2  604   1.838   3.815   4.264
  200TIP3   OH2  605   0.324   4.384   0.990
  200TIP3    H1  606   0.350   4.440   0.917
  200TIP3    H2  607   0.378   4.413   1.063
  201TIP3   OH2  608   5.112   3.699   3.580
  201TIP3    H1  609   5.075   3.744   3.504
  201TIP3    H2  610   5.168   3.631   3.542
  202TIP3   OH2  611   3.993   0.033   3.134
  202TIP3    H1  612   4.027   0.120   3.111
  202TIP3    H2  613   4.034   0.013   3.218
  203TIP3   OH2  614   1.686   2.281   4.644
  203TIP3    H1  615   1.663   2.371   4.671
  203TIP3    H2  616   1.623   2.226   4.691
  204TIP3   OH2  617   0.621   4.282   2.297
  204TIP3    H1  618   0.617   4.369   2.335
  204TIP3    H2  619   0.686   4.288   2.227
  205TIP3   OH2  620   5.048   1.369   0.719
  205TIP3    H1  621   5.114   1.418   0.769
  205TIP3    H2  622   4.973   1.363   0.779
  206TIP3   OH2  623   1.421   1.588   4.632
  206TIP3    H1  624   1.423   1.564   4.539
  206TIP3    H2  625   1.390   1.509   4.676
  207TIP3   OH2  626   2.513   0.967   0.503
  207TIP3    H1  627   2.471   0.897   0.452
  207TIP3    H2  628   2.606   0.943   0.505
  208TIP3   OH2  629   3.485   2.988   3.655
  208TIP3    H1  630   3.409   3.029   3.697
  208TIP3    H2  631   3.476   2.895   3.677
  209TIP3   OH2  632   2.845   5.456   3.494
  209TIP3    H1  633   2.940   5.454   3.476
  209TIP3    H2  634   2.811   5.380   3.447
  210TIP3   OH2  635   3.683   2.648   1.944
  210TIP3    H1  636   3.752   2.588   1.917
  210TIP3    H2  637   3.611   2.631   1.884
  211TIP3   OH2  638   5.672   3.917   1.863
  211TIP3    H1  639   5.754   3.928   1.815
  211TIP3    H2  640   5.609   3.889   1.797
  212TIP3   OH2  641   2.881   4.786   1.228
  212TIP3    H1  642   2.960   4.825   1.265
  212TIP3    H2  643   2.811   4.813   1.288
  213TIP3   OH2  644   2.959   0.595   4.317
  213TIP3    H1  645   2.877   0.573   4.273
  213TIP3    H2  646   3.011   0.639   4.249
  214TIP3   OH2  647   3.102   3.578   3.605
  214TIP3    H1  648   3.171   3.518   3.634
  214TIP3    H2  649   3.113   3.583   3.510
  215TIP3   OH2  650   0.155   3.420   3.773
  215TIP3    H1  651   0.062   3.399   3.771
  215TIP3    H2  652   0.159   3.513   3.753
  216TIP3   OH2  653   4.034   0.599   2.803
  216TIP3    H1  654   4.067   0.515   2.770
  216TIP3    H2  655   3.983   0.574   2.881
  217TIP3   OH2  656   4.628   2.335   1.602
  217TIP3    H1  657   4.682   2.335   1.682
  217TIP3    H2  658   4.683   2.377   1.536
  218TIP3   OH2  659   2.717   2.785   2.717
  218TIP3    H1  660   2.776   2.852   2.752
  218TIP3    H2  661   2.667   2.831   2.649
  219TIP3   OH2  662   3.083   5.192   0.975
  219TIP3    H1  663   3.177   5.177   0.961
  219TIP3    H2  664   3.080   5.268   1.034
  220TIP3   OH2  665   4.971   3.486   4.143
  220TIP3    H1  666   4.937   3.459   4.058
  220TIP3    H2  667   4.899   3.533   4.184
  221TIP3   OH2  668   4.162   4.344   0.976
  221TIP3    H1  669   4.115   4.323   1.056
  221TIP3    H2  670   4.254   4.326   0.995
  222TIP3   OH2  671   4.683   4.249   0.968
  222TIP3    H1  672   4.774   4.247   0.996
  222TIP3    H2  673   4.686   4.219   0.876
  223TIP3   OH2  674   5.769   2.872   4.037
  223TIP3    H1  675   5.739   2.947   3.985
  223TIP3    H2  676   5.841   2.907   4.090
  224TIP3   OH2  677   5.084   2.368   1.111
  224TIP3    H1  678   5.122   2.306   1.173
  224TIP3    H2  679   5.021   2.317   1.061
  225TIP3   OH2  680   4.193   2.919   0.538
  225TIP3    H1  681   4.150   2.877   0.612
  225TIP3    H2  682   4.126   2.977   0.501
  226TIP3   OH2  683   4.788   5.106   3.571
  226TIP3    H1  684   4.724   5.177   3.563
  226TIP3    H2  685   4.821   5.093   3.482
  227TIP3   OH2  686   1.307   2.273   3.700
  227TIP3    H1  687   1.314   2.357   3.655
  227TIP3    H2  688   1.375   2.219   3.660
  228TIP3   OH2  689   3.730   0.701   4.590
  228TIP3    H1  690   3.699   0.685   4.679
  228TIP3    H2  691   3.698   0.626   4.540
  229TIP3   OH2  692   3.887   3.395   3.366
  229TIP3    H1  693   3.793   3.376   3.360
  229TIP3    H2  694   3.921   3.329   3.427
  230TIP3   OH2  695   5.910   2.224   1.682
  230TIP3    H1  696   5.976   2.292   1.685
  230TIP3    H2  697   5.829   2.267   1.711
  231TIP3   OH2  698   0.042   5.293   3.654
  231TIP3    H1  699   0.007   5.296   3.743
  231TIP3    H2  700   0.018   5.205   3.622
  232TIP3   OH2  701   2.240   2.916   2.346
  232TIP3    H1  702   2.275   2.838   2.303
  232TIP3    H2  703   2.292   2.988   2.310
  233TIP3   OH2  704   5.003   5.721   0.835
  233TIP3    H1  705   5.040   5.653   0.891
  233TIP3    H2  706   5.078   5.759   0.790
  234TIP3   OH2  707   3.071   4.266   4.860
  234TIP3    H1  708   3.093   4.254   4.953
  234TIP3    H2  709   3.077   4.360   4.846
  235TIP3   OH2  710   5.993   4.153   3.979
  235TIP3    H1  711   5.910   4.200   3.968
  235TIP3    H2  712   6.057   4.221   4.000
  236TIP3   OH2  713   2.324   5.364   0.992
  236TIP3    H1  714   2.412   5.338   0.967
  236TIP3    H2  715   2.291   5.292   1.046
  237TIP3   OH2  716   3.413   5.388   0.979
  237TIP3    H1  717   3.448   5.458   1.034
  237TIP3    H2  718   3.343   5.429   0.929
  238TIP3   OH2  719   6.137   5.730   3.288
  238TIP3    H1  720   6.231   5.737   3.274
  238TIP3    H2  721   6.101   5.717   3.200
  239TIP3   OH2  722   0.341   5.659   3.183
  239TIP3    H1  723   0.395   5.716   3.238
  239TIP3    H2  724   0.251   5.683   3.204
  240TIP3   OH2  725   5.000   1.393   2.717
  240TIP3    H1  726   5.004   1.487   2.696
  240TIP3    H2  727   4.920   1.384   2.769
  241TIP3   OH2  728   3.915   4.356   2.836
  241TIP3    H1  729   3.880   4.328   2.921
  241TIP3    H2  730   3.956   4.278   2.800
  242TIP3   OH2  731   2.683   4.840   2.457
  242TIP3    H1  732   2.761   4.845   2.513
  242TIP3    H2  733   2.612   4.877   2.511
  243TIP3   OH2  734   3.987   4.765   1.777
  243TIP3    H1  735   3.928   4.814   1.834
  243TIP3    H2  736   3.931   4.736   1.705
  244TIP3   OH2  737   4.195   1.848   3.704
  244TIP3    H1  738   4.266   1.785   3.689
  244TIP3    H2  739   4.116   1.795   3.709
  245TIP3   OH2  740   2.645   1.817   3.484
  245TIP3    H1  741   2.569   1.766   3.455
  245TIP3    H2  742   2.654   1.794   3.577
  246TIP3   OH2  743   1.097   5.408   2.538
  246TIP3    H1  744   1.078   5.498   2.566
  246TIP3    H2  745   1.013   5.375   2.506
  247TIP3   OH2  746   4.299   2.553   3.164
  247TIP3    H1  747   4.285   2.459   3.177
  247TIP3    H2  748   4.394   2.563   3.159
  248TIP3   OH2  749   3.996   4.469   1.782
  248TIP3    H1  750   4.073   4.421   1.812
  248TIP3    H2  751   3.995   4.549   1.834
  249TIP3   OH2  752   5.041   0.851   0.140
  249TIP3    H1  753   5.051   0.908   0.063
  249TIP3    H2  754   5.124   0.861   0.188
  250TIP3   OH2  755   4.011   5.420   1.715
  250TIP3    H1  756   3.929   5.448   1.755
  250TIP3    H2  757   3.995   5.426   1.620
  251TIP3   OH2  758   1.385   0.385   0.091
  251TIP3    H1  759   1.475   0.383   0.059
  251TIP3    H2  760   1.393   0.377   0.186
  252TIP3   OH2  761   4.233   4.965   4.042
  252TIP3    H1  762   4.216   4.890   3.985
  252TIP3    H2  763   4.290   4.931   4.110
  253TIP3   OH2  764   2.584   3.945   5.052
  253TIP3    H1  765   2.672   3.979   5.068
  253TIP3    H2  766   2.536   4.018   5.014
  254TIP3   OH2  767   1.555   4.224   0.693
  254TIP3    H1  768   1.579   4.291   0.628
  254TIP3    H2  769   1.474   4.186   0.659
  255TIP3   OH2  770   4.208   3.061   4.201
  255TIP3    H1  771   4.195   2.980   4.151
  255TIP3    H2  772   4.153   3.125   4.157
  256TIP3   OH2  773   1.184   0.745   3.396
  256TIP3    H1  774   1.218   0.733   3.485
  256TIP3    H2  775   1.103   0.694   3.395
  257TIP3   OH2  776   0.362   1.862   2.635
  257TIP3    H1  777   0.267   1.875   2.637
  257TIP3    H2  778   0.374   1.769   2.657
  258TIP3   OH2  779   4.973   1.565   2.452
  258TIP3    H1  780   5.004   1.655   2.464
  258TIP3    H2  781   5.050   1.517   2.423
  259TIP3   OH2  782   0.099   0.554   3.173
  259TIP3    H1  783   0.091   0.463   3.144
  259TIP3    H2  784   0.009   0.585   3.181
  260TIP3   OH2  785   0.052   0.293   4.298
  260TIP3    H1  786  -0.043   0.285   4.299
  260TIP3    H2  787   0.069   0.370   4.244
  261TIP3   OH2  788   1.421   5.516   2.110
  261TIP3    H1  789   1.384   5.460   2.042
  261TIP3    H2  790   1.389   5.479   2.192
  262TIP3   OH2  791   2.761   3.342   4.875
  262TIP3    H1  792   2.725   3.334   4.787
  262TIP3    H2  793   2.717   3.272   4.925
  263TIP3   OH2  794   3.866   2.356   3.719
  263TIP3    H1  795   3.904   2.400   3.795
  263TIP3    H2  796   3.838   2.270   3.752
  264TIP3   OH2  797   0.032   2.063   4.588
  264TIP3    H1  798  -0.056   2.037   4.613
  264TIP3    H2  799   0.057   2.130   4.652
  265TIP3   OH2  800   5.264   2.497   0.104
  265TIP3    H1  801   5.290   2.454   0.185
  265TIP3    H2  802   5.301   2.585   0.111
  266TIP3   OH2  803   0.343   0.493   0.360
  266TIP3    H1  804   0.315   0.487   0.452
  266TIP3    H2  805   0.329   0.585   0.337
  267TIP3   OH2  806   4.390   0.787   1.963
  267TIP3    H1  807   4.397   0.763   2.055
  267TIP3    H2  808   4.480   0.780   1.929
  268TIP3   OH2  809   2.268   1.780   3.003
  268TIP3    H1  810   2.193   1.837   3.021
  268TIP3    H2  811   2.286   1.794   2.910
  269TIP3   OH2  812   3.620   2.398   3.004
  269TIP3    H1  813   3.709   2.401   2.968
  269TIP3    H2  814   3.631   2.419   3.096
  270TIP3   OH2  815   5.558   5.420   2.482
  270TIP3    H1  816   5.620   5.369   2.533
  270TIP3    H2  817   5.611   5.489   2.441
  271TIP3   OH2  818   0.973   2.908   4.949
  271TIP3    H1  819   0.929   2.889   4.866
  271TIP3    H2  820   1.038   2.975   4.928
  272TIP3   OH2  821   1.464   3.849   4.137
  272TIP3    H1  822   1.413   3.926   4.112
  272TIP3    H2  823   1.402   3.793   4.183
  273TIP3   OH2  824   5.997   1.758   4.981
  273TIP3    H1  825   6.053   1.798   5.046
  273TIP3    H2  826   5.921   1.726   5.031
  274TIP3   OH2  827   5.889   5.357   5.075
  274TIP3    H1  828   5.813   5.393   5.030
  274TIP3    H2  829   5.918   5.428   5.132
  275TIP3   OH2  830   0.798   5.688   4.213
  275TIP3    H1  831   0.739   5.651   4.279
  275TIP3    H2  832   0.775   5.780   4.209
  276TIP3   OH2  833   4.225   4.657   4.467
  276TIP3    H1  834   4.208   4.750   4.455
  276TIP3    H2  835   4.139   4.617   4.476
  277TIP3   OH2  836   0.377   4.478   3.844
  277TIP3    H1  837   0.348   4.564   3.875
  277TIP3    H2  838   0.328   4.465   3.762
  278TIP3   OH2  839   2.346   4.708   1.609
  278TIP3    H1  840   2.258   4.728   1.641
  278TIP3    H2  841   2.334   4.639   1.544
  279TIP3   OH2  842   4.021   0.888   2.963
  279TIP3    H1  843   3.949   0.935   3.005
  279TIP3    H2  844   3.983   0.803   2.939
  280TIP3   OH2  845   1.804   1.359   0.568
  280TIP3    H1  846   1.867   1.334   0.500
  280TIP3    H2  847   1.761   1.437   0.534
  281TIP3   OH2  848   4.131   4.348   3.938
  281TIP3    H1  849   4.206   4.404   3.917
  281TIP3    H2  850   4.087   4.335   3.854
  282TIP3   OH2  851   1.536   2.718   3.615
  282TIP3    H1  852   1.628   2.712   3.643
  282TIP3    H2  853   1.499   2.787   3.670
  283TIP3   OH2  854   0.784   2.519   4.933
  283TIP3    H1  855   0.871   2.512   4.973
  283TIP3    H2  856   0.744   2.595   4.977
  284TIP3   OH2  857   1.378   1.033   0.373
  284TIP3    H1  858   1.447   0.991   0.424
  284TIP3    H2  859   1.368   1.119   0.413
  285TIP3   OH2  860   5.194   3.824   2.794
  285TIP3    H1  861   5.226   3.911   2.769
  285TIP3    H2  862   5.273   3.771   2.801
  286TIP3   OH2  863   4.258   0.798   2.538
  286TIP3    H1  864   4.236   0.826   2.627
  286TIP3    H2  865   4.354   0.802   2.535
  287TIP3   OH2  866   0.000   0.571   2.120
  287TIP3    H1  867  -0.025   0.640   2.181
  287TIP3    H2  868   0.082   0.603   2.080
  288TIP3   OH2  869   5.021   2.286   1.388
  288TIP3    H1  870   4.988   2.371   1.358
  288TIP3    H2  871   5.002   2.285   1.482
  289TIP3   OH2  872  -0.002   1.191   0.253
  289TIP3    H1  873  -0.026   1.283   0.245
  289TIP3    H2  874   0.069   1.180   0.190
  290TIP3   OH2  875   2.124   0.630   3.002
  290TIP3    H1  876   2.057   0.697   3.000
  290TIP3    H2  877   2.077   0.549   3.019
  291TIP3   OH2  878   3.047   1.070   1.159
  291TIP3    H1  879   3.014   1.019   1.233
  291TIP3    H2  880   3.123   1.021   1.129
  292TIP3   OH2  881   3.633   4.213   0.293
  292TIP3    H1  882   3.643   4.199   0.198
  292TIP3    H2  883   3.674   4.298   0.309
  293TIP3   OH2  884   1.335   4.008   3.597
  293TIP3    H1  885   1.428   3.986   3.607
  293TIP3    H2  886   1.321   4.009   3.503
  294TIP3   OH2  887   3.891   5.797   2.283
  294TIP3    H1  888   3.873   5.890   2.297
  294TIP3    H2  889   3.868   5.781   2.192
  295TIP3   OH2  890   5.986   3.195   3.955
  295TIP3    H1  891   5.986   3.166   4.046
  295TIP3    H2  892   5.902   3.240   3.944
  296TIP3   OH2  893   6.204   4.277   2.918
  296TIP3    H1  894   6.288   4.314   2.943
  296TIP3    H2  895   6.208   4.270   2.823
  297TIP3   OH2  896   1.273   2.918   0.170
  297TIP3    H1  897   1.290   2.840   0.224
  297TIP3    H2  898   1.177   2.923   0.166
  298TIP3   OH2  899   1.103   1.430   0.975
  298TIP3    H1  900   1.184   1.384   0.995
  298TIP3    H2  901   1.040   1.397   1.039
  299TIP3   OH2  902   1.316   3.547   0.415
  299TIP3    H1  903   1.311   3.467   0.466
  299TIP3    H2  904   1.399   3.588   0.442
  300TIP3   OH2  905   3.180   4.497   1.091
  300TIP3    H1  906   3.252   4.554   1.118
  300TIP3    H2  907   3.216   4.447   1.018
  301TIP3   OH2  908   3.435   4.967   2.625
  301TIP3    H1  909   3.478   5.014   2.697
  301TIP3    H2  910   3.436   5.028   2.552
  302TIP3   OH2  911   3.130   5.332   3.786
  302TIP3    H1  912   3.068   5.402   3.766
  302TIP3    H2  913   3.183   5.367   3.857
  303TIP3   OH2  914   2.543   5.525   4.683
  303TIP3    H1  915   2.479   5.595   4.692
  303TIP3    H2  916   2.591   5.525   4.766
  304TIP3   OH2  917   1.114   4.791   3.977
  304TIP3    H1  918   1.132   4.849   4.051
  304TIP3    H2  919   1.086   4.851   3.907
  305TIP3   OH2  920   4.274   4.204   0.557
  305TIP3    H1  921   4.270   4.152   0.477
  305TIP3    H2  922   4.360   4.185   0.594
  306TIP3   OH2  923   5.660   4.768   3.086
  306TIP3    H1  924   5.672   4.833   3.018
  306TIP3    H2  925   5.583   4.798   3.135
  307TIP3   OH2  926   3.050   0.931   4.884
  307TIP3    H1  927   3.124   0.924   4.824
  307TIP3    H2  928   2.973   0.929   4.827
  308TIP3   OH2  929   3.882   5.916   4.338
  308TIP3    H1  930   3.830   5.994   4.354
  308TIP3    H2  931   3.971   5.940   4.363
  309TIP3   OH2  932   3.050   5.220   1.641
  309TIP3    H1  933   3.014   5.285   1.701
  309TIP3    H2  934   2.977   5.161   1.623
  310TIP3   OH2  935   0.961   0.616   4.509
  310TIP3    H1  936   0.946   0.559   4.433
  310TIP3    H2  937   0.949   0.705   4.474
  311TIP3   OH2  938   5.755   0.401   2.887
  311TIP3    H1  939   5.670   0.357   2.888
  311TIP3    H2  940   5.760   0.445   2.972
  312TIP3   OH2  941   0.293   4.045   1.228
  312TIP3    H1  942   0.371   4.025   1.279
  312TIP3    H2  943   0.237   4.095   1.287
  313TIP3   OH2  944   6.119   3.829   0.669
  313TIP3    H1  945   6.152   3.749   0.628
  313TIP3    H2  946   6.035   3.803   0.708
  314TIP3   OH2  947   1.174   1.641   2.171
  314TIP3    H1  948   1.266   1.620   2.188
  314TIP3    H2  949   1.145   1.685   2.250
  315TIP3   OH2  950   0.621   2.010   0.197
  315TIP3    H1  951   0.713   1.984   0.193
  315TIP3    H2  952   0.606   2.033   0.288
  316TIP3   OH2  953   1.098   3.706   1.439
  316TIP3    H1  954   1.025   3.762   1.411
  316TIP3    H2  955   1.169   3.767   1.457
  317TIP3   OH2  956   2.585   0.207   0.194
  317TIP3    H1  957   2.550   0.126   0.231
  317TIP3    H2  958   2.672   0.216   0.233
  318TIP3   OH2  959   4.298   0.143   2.827
  318TIP3    H1  960   4.305   0.105   2.914
  318TIP3    H2  961   4.205   0.164   2.817
  319TIP3   OH2  962   0.696   4.590   2.652
  319TIP3    H1  963   0.743   4.506   2.658
  319TIP3    H2  964   0.764   4.656   2.661
  320TIP3   OH2  965   1.708   1.236   5.082
  320TIP3    H1  966   1.732   1.283   5.162
  320TIP3    H2  967   1.652   1.165   5.113
  321TIP3   OH2  968   3.971   5.211   3.980
  321TIP3    H1  969   3.902   5.273   4.003
  321TIP3    H2  970   3.926   5.144   3.929
  322TIP3   OH2  971   3.326   0.303   0.265
  322TIP3    H1  972   3.362   0.304   0.177
  322TIP3    H2  973   3.341   0.392   0.298
  323TIP3   OH2  974   3.451   0.655   3.755
  323TIP3    H1  975   3.524   0.717   3.759
  323TIP3    H2  976   3.401   0.681   3.678
  324TIP3   OH2  977   6.267   5.487   0.179
  324TIP3    H1  978   6.221   5.428   0.119
  324TIP3    H2  979   6.333   5.530   0.124
  325TIP3   OH2  980   4.523   4.123   0.174
  325TIP3    H1  981   4.490   4.065   0.105
  325TIP3    H2  982   4.455   4.120   0.241
  326TIP3   OH2  983   1.474   1.347   3.658
  326TIP3    H1  984   1.458   1.299   3.576
  326TIP3    H2  985   1.458   1.283   3.727
  327TIP3   OH2  986   1.091   2.978   4.296
  327TIP3    H1  987   1.174   3.024   4.284
  327TIP3    H2  988   1.108   2.916   4.367
  328TIP3   OH2  989   5.761   0.870   0.522
  328TIP3    H1  990   5.771   0.843   0.431
  328TIP3    H2  991   5.796   0.959   0.525
  329TIP3   OH2  992   2.459   2.204   0.594
  329TIP3    H1  993   2.412   2.282   0.564
  329TIP3    H2  994   2.548   2.235   0.610
  330TIP3   OH2  995   3.285   3.129   2.719
  330TIP3    H1  996   3.287   3.193   2.790
  330TIP3    H2  997   3.305   3.045   2.761
  331TIP3   OH2  998   3.497   4.572   4.170
  331TIP3    H1  999   3.538   4.567   4.256
  331TIP3    H2 1000   3.481   4.665   4.156
  332TIP3   OH2 1001   3.221   2.070   0.271
  332TIP3    H1 1002   3.177   1.995   0.309
  332TIP3    H2 1003   3.196   2.144   0.328
  333TIP3   OH2 1004   3.745   0.642   2.323
  333TIP3    H1 1005   3.747   0.671   2.232
  333TIP3    H2 1006   3.830   0.670   2.359
  334TIP3   OH2 1007   0.441   5.958   1.051
  334TIP3    H1 1008   0.521   5.910   1.030
  334TIP3    H2 1009   0.379   5.931   0.983
  335TIP3   OH2 1010   0.698   0.306   2.050
  335TIP3    H1 1011   0.769   0.366   2.027
  335TIP3    H2 1012   0.694   0.245   1.977
  336TIP3   OH2 1013   2.902   4.922   3.090
  336TIP3    H1 1014   2.813   4.948   3.115
  336TIP3    H2 1015   2.948   5.005   3.079
  337TIP3   OH2 1016   5.281   0.323   4.543
  337TIP3    H1 1017   5.339   0.347   4.615
  337TIP3    H2 1018   5.261   0.230   4.558
  338TIP3   OH2 1019   4.320   3.708   4.216
  338TIP3    H1 1020   4.279   3.728   4.132
  338TIP3    H2 1021   4.413   3.728   4.203
  339TIP3   OH2 1022   0.182   5.774   3.547
  339TIP3    H1 1023   0.182   5.699   3.606
  339TIP3    H2 1024   0.154   5.848   3.601
  340TIP3   OH2 1025   6.123   0.136   1.770
  340TIP3    H1 1026   6.055   0.070   1.756
  340TIP3    H2 1027   6.145   0.128   1.863
  341TIP3   OH2 1028   1.262   0.662   3.097
  341TIP3    H1 1029   1.254   0.612   3.016
  341TIP3    H2 1030   1.237   0.751   3.073
  342TIP3   OH2 1031   1.632   2.116   0.317
  342TIP3    H1 1032   1.594   2.029   0.305
  342TIP3    H2 1033   1.558   2.176   0.314
  343TIP3   OH2 1034   0.329   3.671   0.091
  343TIP3    H1 1035   0.356   3.631   0.174
  343TIP3    H2 1036   0.396   3.737   0.073
  344TIP3   OH2 1037   5.854   2.507   3.277
  344TIP3    H1 1038   5.801   2.459   3.341
  344TIP3    H2 1039   5.923   2.548   3.329
  345TIP3   OH2 1040   3.182   0.949   0.202
  345TIP3    H1 1041   3.252   1.000   0.242
  345TIP3    H2 1042   3.158   0.999   0.124
  346TIP3   OH2 1043   5.337   3.586  -0.011
  346TIP3    H1 1044   5.299   3.660   0.036
  346TIP3    H2 1045   5.406   3.554   0.048
  347TIP3   OH2 1046   0.042   4.618   4.904
  347TIP3    H1 1047   0.091   4.602   4.985
  347TIP3    H2 1048  -0.011   4.696   4.923
  348TIP3   OH2 1049   5.055   2.131   3.290
  348TIP3    H1 1050   5.000   2.058   3.318
  348TIP3    H2 1051   5.079   2.175   3.372
  349TIP3   OH2 1052   2.085   2.506   0.726
  349TIP3    H1 1053   2.120   2.529   0.640
  349TIP3    H2 1054   2.132   2.562   0.787
  350TIP3   OH2 1055   1.515   5.240   1.640
  350TIP3    H1 1056   1.537   5.271   1.728
  350TIP3    H2 1057   1.493   5.148   1.652
  351TIP3   OH2 1058   2.781   1.465   0.160
  351TIP3    H1 1059   2.713   1.444   0.097
  351TIP3    H2 1060   2.841   1.391   0.157
  352TIP3   OH2 1061   4.175   5.545   0.801
  352TIP3    H1 1062   4.160   5.565   0.894
  352TIP3    H2 1063   4.108   5.480   0.779
  353TIP3   OH2 1064   4.501   1.047   1.813
  353TIP3    H1 1065   4.518   0.959   1.847
  353TIP3    H2 1066   4.513   1.038   1.718
  354TIP3   OH2 1067   4.513   4.658   4.452
  354TIP3    H1 1068   4.505   4.752   4.469
  354TIP3    H2 1069   4.424   4.629   4.433
  355TIP3   OH2 1070   2.341   4.441   3.157
  355TIP3    H1 1071   2.309   4.490   3.081
  355TIP3    H2 1072   2.288   4.362   3.159
  356TIP3   OH2 1073   3.840   1.078   2.458
  356TIP3    H1 1074   3.816   1.012   2.522
  356TIP3    H2 1075   3.925   1.050   2.425
  357TIP3   OH2 1076   2.922   0.073   2.704
  357TIP3    H1 1077   2.927   0.104   2.613
  357TIP3    H2 1078   2.970   0.139   2.754
  358TIP3   OH2 1079   1.220   1.376   4.741
  358TIP3    H1 1080   1.200   1.352   4.651
  358TIP3    H2 1081   1.139   1.361   4.790
  359TIP3   OH2 1082   4.676   1.924   4.119
  359TIP3    H1 1083   4.672   1.915   4.024
  359TIP3    H2 1084   4.646   2.013   4.136
  360TIP3   OH2 1085   2.533   1.494   1.619
  360TIP3    H1 1086   2.476   1.544   1.561
  360TIP3    H2 1087   2.621   1.530   1.603
  361TIP3   OH2 1088   3.426   2.125   1.082
  361TIP3    H1 1089   3.451   2.127   1.174
  361TIP3    H2 1090   3.473   2.199   1.043
  362TIP3   OH2 1091   4.814   0.678   2.258
  362TIP3    H1 1092   4.764   0.616   2.310
  362TIP3    H2 1093   4.787   0.662   2.168
  363TIP3   OH2 1094   5.002   1.012   5.064
  363TIP3    H1 1095   5.039   0.952   5.129
  363TIP3    H2 1096   5.068   1.015   4.994
  364TIP3   OH2 1097   1.627   1.868   2.855
  364TIP3    H1 1098   1.684   1.792   2.844
  364TIP3    H2 1099   1.542   1.841   2.819
  365TIP3   OH2 1100   1.563   1.591   0.170
  365TIP3    H1 1101   1.518   1.637   0.099
  365TIP3    H2 1102   1.656   1.607   0.153
  366TIP3   OH2 1103   1.937   4.106   3.096
  366TIP3    H1 1104   1.942   4.061   3.011
  366TIP3    H2 1105   1.871   4.174   3.082
  367TIP3   OH2 1106   1.056   1.538   3.380
  367TIP3    H1 1107   1.031   1.446   3.392
  367TIP3    H2 1108   1.071   1.547   3.286
  368TIP3   OH2 1109   2.362   3.329   3.264
  368TIP3    H1 1110   2.345   3.303   3.174
  368TIP3    H2 1111   2.449   3.295   3.283
  369TIP3   OH2 1112   6.261   2.225   3.696
  369TIP3    H1 1113   6.234   2.134   3.712
  369TIP3    H2 1114   6.214   2.251   3.617
  370TIP3   OH2 1115   3.713   1.997   0.129
  370TIP3    H1 1116   3.627   1.960   0.148
  370TIP3    H2 1117   3.701   2.091   0.138
  371TIP3   OH2 1118   2.420   0.937   4.251
  371TIP3    H1 1119   2.482   1.008   4.262
  371TIP3    H2 1120   2.378   0.955   4.167
  372TIP3   OH2 1121   5.492   2.338   2.630
  372TIP3    H1 1122   5.575   2.316   2.674
  372TIP3    H2 1123   5.457   2.254   2.602
  373TIP3   OH2 1124   1.492   1.874   0.290
  373TIP3    H1 1125   1.403   1.882   0.324
  373TIP3    H2 1126   1.482   1.829   0.206
  374TIP3   OH2 1127   3.321   0.962   1.140
  374TIP3    H1 1128   3.344   1.032   1.079
  374TIP3    H2 1129   3.353   0.882   1.098
  375TIP3   OH2 1130   1.173   4.371   4.267
  375TIP3    H1 1131   1.205   4.281   4.270
  375TIP3    H2 1132   1.249   4.423   4.241
  376TIP3   OH2 1133   5.238   5.530   3.274
  376TIP3    H1 1134   5.192   5.507   3.193
  376TIP3    H2 1135   5.331   5.514   3.254
  377TIP3   OH2 1136   5.280   3.359   3.847
  377TIP3    H1 1137   5.209   3.340   3.909
  377TIP3    H2 1138   5.316   3.442   3.877
  378TIP3   OH2 1139   5.931   5.368   4.558
  378TIP3    H1 1140   5.931   5.339   4.649
  378TIP3    H2 1141   5.861   5.432   4.553
  379TIP3   OH2 1142   4.490   2.410   0.695
  379TIP3    H1 1143   4.445   2.491   0.674
  379TIP3    H2 1144   4.578   2.436   0.719
  380TIP3   OH2 1145   5.236   5.877   0.774
  380TIP3    H1 1146   5.293   5.876   0.697
  380TIP3    H2 1147   5.291   5.913   0.844
  381TIP3   OH2 1148   2.509   2.974   4.300
  381TIP3    H1 1149   2.583   2.914   4.293
  381TIP3    H2 1150   2.536   3.052   4.251
  382TIP3   OH2 1151   5.067   0.327   2.791
  382TIP3    H1 1152   5.147   0.314   2.739
  382TIP3    H2 1153   5.019   0.245   2.781
  383TIP3   OH2 1154   2.071   1.200   2.806
  383TIP3    H1 1155   2.027   1.165   2.729
  383TIP3    H2 1156   2.067   1.295   2.795
  384TIP3   OH2 1157   5.634   0.741   3.062
  384TIP3    H1 1158   5.635   0.779   2.975
  384TIP3    H2 1159   5.722   0.756   3.097
  385TIP3   OH2 1160   1.982   2.246   0.604
  385TIP3    H1 1161   2.007   2.339   0.607
  385TIP3    H2 1162   2.002   2.213   0.691
  386TIP3   OH2 1163   4.098   1.963   0.811
  386TIP3    H1 1164   4.178   1.920   0.843
  386TIP3    H2 1165   4.050   1.894   0.766
  387TIP3   OH2 1166   3.591   3.577   4.530
  387TIP3    H1 1167   3.503   3.611   4.516
  387TIP3    H2 1168   3.612   3.599   4.621
  388TIP3   OH2 1169   6.160   3.574   4.277
  388TIP3    H1 1170   6.189   3.484   4.295
  388TIP3    H2 1171   6.066   3.565   4.261
  389TIP3   OH2 1172   2.923   1.824   3.951
  389TIP3    H1 1173   2.828   1.836   3.946
  389TIP3    H2 1174   2.959   1.912   3.946
  390TIP3   OH2 1175   5.792   3.761   4.527
  390TIP3    H1 1176   5.882   3.784   4.508
  390TIP3    H2 1177   5.772   3.806   4.609
  391TIP3   OH2 1178   5.808   0.687   2.258
  391TIP3    H1 1179   5.812   0.774   2.217
  391TIP3    H2 1180   5.896   0.675   2.295
  392TIP3   OH2 1181   2.658   5.326   4.021
  392TIP3    H1 1182   2.638   5.409   4.064
  392TIP3    H2 1183   2.574   5.279   4.020
  393TIP3   OH2 1184   0.793   2.226   1.738
  393TIP3    H1 1185   0.776   2.164   1.809
  393TIP3    H2 1186   0.842   2.298   1.779
  394TIP3   OH2 1187   5.396   2.384   1.660
  394TIP3    H1 1188   5.331   2.441   1.701
  394TIP3    H2 1189   5.426   2.433   1.584
  395TIP3   OH2 1190   4.382   2.063   3.519
  395TIP3    H1 1191   4.300   2.053   3.569
  395TIP3    H2 1192   4.377   1.996   3.451
  396TIP3   OH2 1193   0.674   3.358   1.978
  396TIP3    H1 1194   0.687   3.434   2.035
  396TIP3    H2 1195   0.614   3.389   1.910
  397TIP3   OH2 1196   5.319   5.936   2.994
  397TIP3    H1 1197   5.329   6.031   3.003
  397TIP3    H2 1198   5.287   5.924   2.904
  398TIP3   OH2 1199   2.040   0.565   3.320
  398TIP3    H1 1200   2.008   0.490   3.370
  398TIP3    H2 1201   1.960   0.608   3.289
  399TIP3   OH2 1202   3.461   0.988   3.930
  399TIP3    H1 1203   3.552   1.019   3.921
  399TIP3    H2 1204   3.424   1.044   3.999
  400TIP3   OH2 1205   4.696   3.700   2.294
  400TIP3    H1 1206   4.724   3.728   2.206
  400TIP3    H2 1207   4.691   3.781   2.344
  401TIP3   OH2 1208   2.502   1.127   4.022
  401TIP3    H1 1209   2.542   1.127   4.109
  401TIP3    H2 1210   2.419   1.174   4.033
  402TIP3   OH2 1211   2.406   5.930   2.367
  402TIP3    H1 1212   2.371   5.984   2.437
  402TIP3    H2 1213   2.418   5.843   2.406
  403TIP3   OH2 1214   2.950   1.671   1.082
  403TIP3    H1 1215   2.894   1.604   1.121
  403TIP3    H2 1216   2.936   1.663   0.988
  404TIP3   OH2 1217   3.805   0.877   2.653
  404TIP3    H1 1218   3.889   0.833   2.666
  404TIP3    H2 1219   3.787   0.922   2.735
  405TIP3   OH2 1220   3.052   0.155   0.053
  405TIP3    H1 1221   3.033   0.082  -0.005
  405TIP3    H2 1222   3.143   0.177   0.035
  406TIP3   OH2 1223   0.980   2.683   3.943
  406TIP3    H1 1224   0.971   2.778   3.935
  406TIP3    H2 1225   0.899   2.655   3.986
  407TIP3   OH2 1226   1.631   5.051   0.904
  407TIP3    H1 1227   1.547   5.022   0.869
  407TIP3    H2 1228   1.654   5.128   0.852
  408TIP3   OH2 1229   2.171   0.106   1.861
  408TIP3    H1 1230   2.201   0.151   1.940
  408TIP3    H2 1231   2.123   0.173   1.812
  409TIP3   OH2 1232   3.030   5.507   0.160
  409TIP3    H1 1233   3.072   5.535   0.079
  409TIP3    H2 1234   2.971   5.580   0.182
  410TIP3   OH2 1235   5.348   3.390   2.514
  410TIP3    H1 1236   5.434   3.348   2.516
  410TIP3    H2 1237   5.334   3.411   2.422
  411TIP3   OH2 1238   5.758   0.473   3.236
  411TIP3    H1 1239   5.694   0.404   3.218
  411TIP3    H2 1240   5.716   0.528   3.301
  412TIP3   OH2 1241   4.992   0.376   4.270
  412TIP3    H1 1242   4.912   0.427   4.265
  412TIP3    H2 1243   5.056   0.427   4.220
  413TIP3   OH2 1244   2.954   0.381   4.947
  413TIP3    H1 1245   3.012   0.442   4.900
  413TIP3    H2 1246   2.947   0.306   4.888
  414TIP3   OH2 1247   5.209   0.584   4.446
  414TIP3    H1 1248   5.182   0.570   4.355
  414TIP3    H2 1249   5.206   0.497   4.485
  415TIP3   OH2 1250   2.478   4.972   0.135
  415TIP3    H1 1251   2.534   5.026   0.080
  415TIP3    H2 1252   2.507   4.882   0.119
  416TIP3   OH2 1253   5.924   2.855   4.764
  416TIP3    H1 1254   5.869   2.784   4.730
  416TIP3    H2 1255   5.922   2.921   4.694
  417TIP3   OH2 1256   1.598   5.507   4.484
  417TIP3    H1 1257   1.684   5.542   4.463
  417TIP3    H2 1258   1.542   5.584   4.494
  418TIP3   OH2 1259   1.928   2.143   4.602
  418TIP3    H1 1260   1.834   2.150   4.616
  418TIP3    H2 1261   1.959   2.233   4.600
  419TIP3   OH2 1262   3.668   2.037   3.816
  419TIP3    H1 1263   3.741   2.044   3.755
  419TIP3    H2 1264   3.709   2.035   3.903
  420TIP3   OH2 1265   2.148   0.213   0.797
  420TIP3    H1 1266   2.136   0.306   0.816
  420TIP3    H2 1267   2.099   0.167   0.865
  421TIP3   OH2 1268   1.752   0.577   3.241
  421TIP3    H1 1269   1.747   0.654   3.298
  421TIP3    H2 1270   1.665   0.537   3.247
  422TIP3   OH2 1271   3.656   5.334   3.184
  422TIP3    H1 1272   3.726   5.332   3.249
  422TIP3    H2 1273   3.688   5.280   3.112
  423TIP3   OH2 1274   5.246   1.920   1.217
  423TIP3    H1 1275   5.254   1.907   1.312
  423TIP3    H2 1276   5.155   1.943   1.204
  424TIP3   OH2 1277   5.217   5.196   2.496
  424TIP3    H1 1278   5.135   5.219   2.453
  424TIP3    H2 1279   5.264   5.279   2.505
  425TIP3   OH2 1280   1.232   0.650   4.364
  425TIP3    H1 1281   1.224   0.560   4.397
  425TIP3    H2 1282   1.304   0.688   4.415
  426TIP3   OH2 1283   4.215   5.263   4.442
  426TIP3    H1 1284   4.180   5.246   4.355
  426TIP3    H2 1285   4.275   5.337   4.430
  427TIP3   OH2 1286   4.883   1.065   3.275
  427TIP3    H1 1287   4.824   1.050   3.200
  427TIP3    H2 1288   4.916   0.977   3.296
  428TIP3   OH2 1289   4.497   4.970   4.188
  428TIP3    H1 1290   4.530   4.881   4.202
  428TIP3    H2 1291   4.561   5.009   4.128
  429TIP3   OH2 1292   4.128   4.133   0.811
  429TIP3    H1 1293   4.180   4.153   0.733
  429TIP3    H2 1294   4.119   4.217   0.856
  430TIP3   OH2 1295   6.157   5.747   2.651
  430TIP3    H1 1296   6.120   5.798   2.579
  430TIP3    H2 1297   6.247   5.731   2.625
  431TIP3   OH2 1298   5.508   5.409   0.597
  431TIP3    H1 1299   5.558   5.452   0.529
  431TIP3    H2 1300   5.522   5.315   0.582
  432TIP3   OH2 1301   1.625   4.472   1.537
  432TIP3    H1 1302   1.640   4.413   1.464
  432TIP3    H2 1303   1.700   4.531   1.537
  433TIP3   OH2 1304   4.193   3.576   4.729
  433TIP3    H1 1305   4.186   3.657   4.678
  433TIP3    H2 1306   4.283   3.548   4.717
  434TIP3   OH2 1307   4.634   0.124   0.469
  434TIP3    H1 1308   4.713   0.071   0.486
  434TIP3    H2 1309   4.613   0.162   0.555
  435TIP3   OH2 1310   5.441   5.949   3.767
  435TIP3    H1 1311   5.498   6.014   3.725
  435TIP3    H2 1312   5.478   5.864   3.741
  436TIP3   OH2 1313   5.535   2.814   4.205
  436TIP3    H1 1314   5.613   2.844   4.158
  436TIP3    H2 1315   5.555   2.833   4.297
  437TIP3   OH2 1316   4.639   2.074   3.597
  437TIP3    H1 1317   4.550   2.078   3.563
  437TIP3    H2 1318   4.641   2.137   3.669
  438TIP3   OH2 1319   0.539   4.386   1.152
  438TIP3    H1 1320   0.608   4.441   1.189
  438TIP3    H2 1321   0.558   4.298   1.183
  439TIP3   OH2 1322   2.125   5.807   4.041
  439TIP3    H1 1323   2.069   5.789   4.116
  439TIP3    H2 1324   2.200   5.854   4.077
  440TIP3   OH2 1325   4.650   1.237   3.072
  440TIP3    H1 1326   4.676   1.327   3.089
  440TIP3    H2 1327   4.577   1.245   3.010
  441TIP3   OH2 1328   0.118   0.310   2.052
  441TIP3    H1 1329   0.083   0.377   2.112
  441TIP3    H2 1330   0.042   0.257   2.029
  442TIP3   OH2 1331   3.334   3.691   4.460
  442TIP3    H1 1332   3.297   3.635   4.392
  442TIP3    H2 1333   3.308   3.651   4.543
  443TIP3   OH2 1334   2.355   4.032   1.140
  443TIP3    H1 1335   2.389   4.054   1.226
  443TIP3    H2 1336   2.368   3.937   1.132
  444TIP3   OH2 1337   2.966   3.102   1.480
  444TIP3    H1 1338   2.930   3.028   1.431
  444TIP3    H2 1339   2.891   3.143   1.521
  445TIP3   OH2 1340   5.573   1.576   1.918
  445TIP3    H1 1341   5.534   1.574   2.005
  445TIP3    H2 1342   5.664   1.598   1.933
  446TIP3   OH2 1343   3.511   1.410   0.535
  446TIP3    H1 1344   3.558   1.328   0.552
  446TIP3    H2 1345   3.427   1.382   0.499
  447TIP3   OH2 1346   1.381   5.304   2.758
  447TIP3    H1 1347   1.322   5.234   2.786
  447TIP3    H2 1348   1.449   5.260   2.708
  448TIP3   OH2 1349   1.280   5.509   0.638
  448TIP3    H1 1350   1.207   5.480   0.583
  448TIP3    H2 1351   1.284   5.604   0.626
  449TIP3   OH2 1352   6.243   5.864   3.882
  449TIP3    H1 1353   6.211   5.891   3.968
  449TIP3    H2 1354   6.234   5.769   3.882
  450TIP3   OH2 1355   5.553   3.066   5.110
  450TIP3    H1 1356   5.582   3.085   5.199
  450TIP3    H2 1357   5.590   3.138   5.058
  451TIP3   OH2 1358   3.922   2.940   1.336
  451TIP3    H1 1359   3.913   3.034   1.317
  451TIP3    H2 1360   4.016   2.923   1.329
  452TIP3   OH2 1361   1.843   4.315   2.148
  452TIP3    H1 1362   1.933   4.323   2.115
  452TIP3    H2 1363   1.825   4.398   2.191
  453TIP3   OH2 1364   0.409   0.894   0.522
  453TIP3    H1 1365   0.433   0.862   0.609
  453TIP3    H2 1366   0.318   0.922   0.531
  454TIP3   OH2 1367   4.929   0.449   3.930
  454TIP3    H1 1368   5.016   0.415   3.949
  454TIP3    H2 1369   4.898   0.396   3.857
  455TIP3   OH2 1370   2.015   3.610   1.066
  455TIP3    H1 1371   1.944   3.673   1.078
  455TIP3    H2 1372   2.076   3.653   1.005
  456TIP3   OH2 1373   4.234   3.672   0.140
  456TIP3    H1 1374   4.261   3.608   0.206
  456TIP3    H2 1375   4.141   3.686   0.156
  457TIP3   OH2 1376   4.533   5.417   1.129
  457TIP3    H1 1377   4.510   5.441   1.039
  457TIP3    H2 1378   4.628   5.406   1.128
  458TIP3   OH2 1379   0.964   4.298   1.252
  458TIP3    H1 1380   0.961   4.386   1.289
  458TIP3    H2 1381   0.946   4.309   1.159
  459TIP3   OH2 1382   5.433   1.215   0.267
  459TIP3    H1 1383   5.453   1.225   0.360
  459TIP3    H2 1384   5.514   1.244   0.223
  460TIP3   OH2 1385   1.628   2.791   2.967
  460TIP3    H1 1386   1.669   2.713   3.004
  460TIP3    H2 1387   1.700   2.852   2.952
  461TIP3   OH2 1388   1.150   0.426   3.164
  461TIP3    H1 1389   1.174   0.517   3.181
  461TIP3    H2 1390   1.207   0.399   3.093
  462TIP3   OH2 1391   0.280   4.568   0.092
  462TIP3    H1 1392   0.268   4.479   0.126
  462TIP3    H2 1393   0.374   4.581   0.090
  463TIP3   OH2 1394   3.869   3.782   3.627
  463TIP3    H1 1395   3.841   3.760   3.539
  463TIP3    H2 1396   3.787   3.797   3.676
  464TIP3   OH2 1397   1.841   5.188   1.532
  464TIP3    H1 1398   1.766   5.137   1.503
  464TIP3    H2 1399   1.816   5.279   1.514
  465TIP3   OH2 1400   5.421   1.126   1.607
  465TIP3    H1 1401   5.371   1.048   1.634
  465TIP3    H2 1402   5.401   1.191   1.674
  466TIP3   OH2 1403   0.414   2.738   0.708
  466TIP3    H1 1404   0.425   2.649   0.743
  466TIP3    H2 1405   0.479   2.744   0.638
  467TIP3   OH2 1406   0.862   0.483   1.957
  467TIP3    H1 1407   0.791   0.546   1.974
  467TIP3    H2 1408   0.937   0.519   2.004
  468TIP3   OH2 1409   5.783   2.661   4.620
  468TIP3    H1 1410   5.710   2.608   4.652
  468TIP3    H2 1411   5.777   2.654   4.524
  469TIP3   OH2 1412   0.630   4.073   4.061
  469TIP3    H1 1413   0.540   4.042   4.053
  469TIP3    H2 1414   0.652   4.060   4.153
  470TIP3   OH2 1415   3.770   4.414   0.463
  470TIP3    H1 1416   3.856   4.395   0.501
  470TIP3    H2 1417   3.711   4.353   0.507
  471TIP3   OH2 1418   2.832   1.295   2.179
  471TIP3    H1 1419   2.817   1.201   2.169
  471TIP3    H2 1420   2.765   1.336   2.125
  472TIP3   OH2 1421   5.704   5.797   1.261
  472TIP3    H1 1422   5.638   5.730   1.281
  472TIP3    H2 1423   5.677   5.832   1.176
  473TIP3   OH2 1424   0.547   4.601   0.017
  473TIP3    H1 1425   0.622   4.656  -0.006
  473TIP3    H2 1426   0.582   4.512   0.017
  474TIP3   OH2 1427   6.108   4.043   3.743
  474TIP3    H1 1428   6.063   4.071   3.823
  474TIP3    H2 1429   6.139   4.124   3.703
  475TIP3   OH2 1430   2.624   1.956   3.073
  475TIP3    H1 1431   2.561   2.024   3.049
  475TIP3    H2 1432   2.581   1.874   3.048
  476TIP3   OH2 1433   0.847   2.531   1.236
  476TIP3    H1 1434   0.763   2.556   1.199
  476TIP3    H2 1435   0.912   2.568   1.177
  477TIP3   OH2 1436   2.451   2.796   5.149
  477TIP3    H1 1437   2.449   2.802   5.244
  477TIP3    H2 1438   2.363   2.767   5.124
  478TIP3   OH2 1439   3.960   4.708   4.816
  478TIP3    H1 1440   3.963   4.633   4.875
  478TIP3    H2 1441   4.048   4.714   4.779
  479TIP3   OH2 1442   0.482   3.281   4.633
  479TIP3    H1 1443   0.459   3.373   4.644
  479TIP3    H2 1444   0.442   3.237   4.708
  480TIP3   OH2 1445   3.205   2.518   0.662
  480TIP3    H1 1446   3.200   2.580   0.590
  480TIP3    H2 1447   3.296   2.490   0.664
  481TIP3   OH2 1448   2.480   3.872   3.357
  481TIP3    H1 1449   2.471   3.786   3.317
  481TIP3    H2 1450   2.552   3.913   3.309
  482TIP3   OH2 1451   2.073   1.263   3.371
  482TIP3    H1 1452   2.009   1.334   3.367
  482TIP3    H2 1453   2.035   1.193   3.319
  483TIP3   OH2 1454   0.955   1.218   1.751
  483TIP3    H1 1455   1.020   1.150   1.731
  483TIP3    H2 1456   0.894   1.214   1.677
  484TIP3   OH2 1457   5.162   2.152   2.132
  484TIP3    H1 1458   5.107   2.164   2.209
  484TIP3    H2 1459   5.133   2.220   2.071
  485TIP3   OH2 1460   1.712   1.754   1.601
  485TIP3    H1 1461   1.678   1.754   1.690
  485TIP3    H2 1462   1.738   1.845   1.585
  486TIP3   OH2 1463   6.297   4.596   4.425
  486TIP3    H1 1464   6.370   4.569   4.481
  486TIP3    H2 1465   6.277   4.685   4.454
  487TIP3   OH2 1466   1.274   1.210   0.845
  487TIP3    H1 1467   1.188   1.171   0.858
  487TIP3    H2 1468   1.295   1.193   0.753
  488TIP3   OH2 1469   1.716   2.439   3.681
  488TIP3    H1 1470   1.753   2.404   3.600
  488TIP3    H2 1471   1.783   2.500   3.714
  489TIP3   OH2 1472   1.030   5.507   3.919
  489TIP3    H1 1473   0.981   5.477   3.843
  489TIP3    H2 1474   1.057   5.596   3.898
  490TIP3   OH2 1475   3.177   4.703   1.723
  490TIP3    H1 1476   3.166   4.793   1.755
  490TIP3    H2 1477   3.106   4.690   1.661
  491TIP3   OH2 1478   1.242   5.122   4.874
  491TIP3    H1 1479   1.168   5.137   4.933
  491TIP3    H2 1480   1.262   5.209   4.839
  492TIP3   OH2 1481   5.323   5.455   2.613
  492TIP3    H1 1482   5.356   5.452   2.703
  492TIP3    H2 1483   5.402   5.465   2.559
  493TIP3   OH2 1484   4.043   0.882   3.297
  493TIP3    H1 1485   4.060   0.938   3.373
  493TIP3    H2 1486   4.015   0.799   3.334
  494TIP3   OH2 1487   1.553   4.481   3.793
  494TIP3    H1 1488   1.532   4.566   3.832
  494TIP3    H2 1489   1.557   4.497   3.699
  495TIP3   OH2 1490   2.953   5.776   4.396
  495TIP3    H1 1491   2.903   5.791   4.476
  495TIP3    H2 1492   2.927   5.847   4.338
  496TIP3   OH2 1493   3.144   3.520   1.459
  496TIP3    H1 1494   3.198   3.444   1.435
  496TIP3    H2 1495   3.072   3.484   1.509
  497TIP3   OH2 1496   1.511   1.989   2.458
  497TIP3    H1 1497   1.459   1.923   2.503
  497TIP3    H2 1498   1.463   2.006   2.377
  498TIP3   OH2 1499   6.081   1.738   3.546
  498TIP3    H1 1500   6.053   1.701   3.462
  498TIP3    H2 1501   6.000   1.757   3.593
  499TIP3   OH2 1502   6.216   5.777   1.744
  499TIP3    H1 1503   6.253   5.689   1.751
  499TIP3    H2 1504   6.287   5.830   1.708
  500TIP3   OH2 1505   4.882   3.822   2.896
  500TIP3    H1 1506   4.956   3.797   2.951
  500TIP3    H2 1507   4.919   3.829   2.808
  501TIP3   OH2 1508   0.294   5.350   1.943
  501TIP3    H1 1509   0.347   5.279   1.977
  501TIP3    H2 1510   0.345   5.387   1.871
  502TIP3   OH2 1511   5.780   3.007   0.503
  502TIP3    H1 1512   5.736   3.082   0.463
  502TIP3    H2 1513   5.837   2.974   0.434
  503TIP3   OH2 1514   4.730   5.654   0.431
  503TIP3    H1 1515   4.753   5.677   0.341
  503TIP3    H2 1516   4.807   5.609   0.464
  504TIP3   OH2 1517   1.349   3.650   4.806
  504TIP3    H1 1518   1.425   3.600   4.776
  504TIP3    H2 1519   1.344   3.724   4.745
  505TIP3   OH2 1520   2.360   1.737   0.177
  505TIP3    H1 1521   2.410   1.657   0.192
  505TIP3    H2 1522   2.331   1.765   0.264
  506TIP3   OH2 1523   0.094   0.981   1.482
  506TIP3    H1 1524   0.028   0.917   1.508
  506TIP3    H2 1525   0.119   1.024   1.564
  507TIP3   OH2 1526   1.512   5.930   2.682
  507TIP3    H1 1527   1.556   5.857   2.727
  507TIP3    H2 1528   1.578   5.999   2.679
  508TIP3   OH2 1529   1.826   0.055   0.664
  508TIP3    H1 1530   1.904  -0.001   0.660
  508TIP3    H2 1531   1.835   0.113   0.588
  509TIP3   OH2 1532   3.421   5.454   2.985
  509TIP3    H1 1533   3.407   5.509   3.062
  509TIP3    H2 1534   3.381   5.370   3.007
  510TIP3   OH2 1535   0.210   0.376   1.197
  510TIP3    H1 1536   0.217   0.321   1.275
  510TIP3    H2 1537   0.116   0.375   1.177
  511TIP3   OH2 1538   6.164   3.412   1.562
  511TIP3    H1 1539   6.251   3.380   1.538
  511TIP3    H2 1540   6.104   3.361   1.507
  512TIP3   OH2 1541   2.375   0.702   1.439
  512TIP3    H1 1542   2.410   0.791   1.435
  512TIP3    H2 1543   2.451   0.647   1.455
  513TIP3   OH2 1544   2.248   0.052   2.411
  513TIP3    H1 1545   2.266  -0.013   2.343
  513TIP3    H2 1546   2.170   0.098   2.380
  514TIP3   OH2 1547   2.824   2.113   2.522
  514TIP3    H1 1548   2.788   2.167   2.592
  514TIP3    H2 1549   2.807   2.163   2.442
  515TIP3   OH2 1550   4.991   4.269   0.189
  515TIP3    H1 1551   5.010   4.231   0.103
  515TIP3    H2 1552   4.946   4.351   0.170
  516TIP3   OH2 1553   0.284   4.235   0.616
  516TIP3    H1 1554   0.227   4.312   0.612
  516TIP3    H2 1555   0.369   4.270   0.645
  517TIP3   OH2 1556   2.637   0.762   0.905
  517TIP3    H1 1557   2.568   0.797   0.848
  517TIP3    H2 1558   2.698   0.720   0.845
  518TIP3   OH2 1559   4.292   1.036   0.716
  518TIP3    H1 1560   4.302   1.071   0.627
  518TIP3    H2 1561   4.295   1.114   0.772
  519TIP3   OH2 1562   5.751   5.770   2.639
  519TIP3    H1 1563   5.768   5.856   2.676
  519TIP3    H2 1564   5.681   5.733   2.692
  520TIP3   OH2 1565   5.131   5.429   3.016
  520TIP3    H1 1566   5.047   5.435   3.063
  520TIP3    H2 1567   5.111   5.376   2.939
  521TIP3   OH2 1568   5.660   2.329   1.740
  521TIP3    H1 1569   5.651   2.325   1.836
  521TIP3    H2 1570   5.571   2.344   1.709
  522TIP3   OH2 1571   5.166   2.710   2.816
  522TIP3    H1 1572   5.099   2.749   2.873
  522TIP3    H2 1573   5.211   2.647   2.872
  523TIP3   OH2 1574   2.777   0.456   1.216
  523TIP3    H1 1575   2.805   0.528   1.273
  523TIP3    H2 1576   2.681   0.459   1.219
  524TIP3   OH2 1577   3.716   1.215   4.265
  524TIP3    H1 1578   3.758   1.213   4.352
  524TIP3    H2 1579   3.785   1.247   4.207
  525TIP3   OH2 1580   2.616   3.327   2.436
  525TIP3    H1 1581   2.631   3.234   2.454
  525TIP3    H2 1582   2.618   3.368   2.523
  526TIP3   OH2 1583   6.251   2.824   2.266
  526TIP3    H1 1584   6.330   2.800   2.315
  526TIP3    H2 1585   6.276   2.814   2.174
  527TIP3   OH2 1586   3.370   4.191   3.887
  527TIP3    H1 1587   3.434   4.184   3.816
  527TIP3    H2 1588   3.309   4.259   3.857
  528TIP3   OH2 1589   1.593   3.119   0.950
  528TIP3    H1 1590   1.602   3.184   0.881
  528TIP3    H2 1591   1.681   3.082   0.960
  529TIP3   OH2 1592   3.899   4.651   2.499
  529TIP3    H1 1593   3.944   4.718   2.550
  529TIP3    H2 1594   3.966   4.586   2.479
  530TIP3   OH2 1595   2.592   0.885   1.443
  530TIP3    H1 1596   2.646   0.826   1.496
  530TIP3    H2 1597   2.634   0.885   1.357
  531TIP3   OH2 1598   0.898   0.214   2.898
  531TIP3    H1 1599   0.870   0.302   2.871
  531TIP3    H2 1600   0.993   0.222   2.907
  532TIP3   OH2 1601   4.009   3.218   4.130
  532TIP3    H1 1602   4.032   3.311   4.127
  532TIP3    H2 1603   3.926   3.215   4.176
  533TIP3   OH2 1604   1.043   3.448   2.930
  533TIP3    H1 1605   1.090   3.525   2.898
  533TIP3    H2 1606   1.073   3.376   2.874
  534TIP3   OH2 1607   5.389   2.399   0.616
  534TIP3    H1 1608   5.454   2.354   0.669
  534TIP3    H2 1609   5.368   2.478   0.665
  535TIP3   OH2 1610   4.559   5.415   4.870
  535TIP3    H1 1611   4.471   5.377   4.868
  535TIP3    H2 1612   4.588   5.414   4.779
  536TIP3   OH2 1613   2.214   3.500   4.851
  536TIP3    H1 1614   2.303   3.533   4.862
  536TIP3    H2 1615   2.211   3.469   4.760
  537TIP3   OH2 1616   1.999   5.140   4.497
  537TIP3    H1 1617   2.013   5.235   4.497
  537TIP3    H2 1618   2.044   5.110   4.576
  538TIP3   OH2 1619   5.287   1.594   0.294
  538TIP3    H1 1620   5.280   1.538   0.372
  538TIP3    H2 1621   5.351   1.661   0.318
  539TIP3   OH2 1622   5.562   5.238   4.897
  539TIP3    H1 1623   5.481   5.289   4.901
  539TIP3    H2 1624   5.622   5.284   4.956
  540TIP3   OH2 1625   0.180   1.098   4.300
  540TIP3    H1 1626   0.141   1.149   4.228
  540TIP3    H2 1627   0.259   1.147   4.324
  541TIP3   OH2 1628   5.682   2.271   0.685
  541TIP3    H1 1629   5.774   2.252   0.705
  541TIP3    H2 1630   5.635   2.191   0.710
  542TIP3   OH2 1631   0.263   0.950   2.028
  542TIP3    H1 1632   0.217   1.002   2.093
  542TIP3    H2 1633   0.199   0.936   1.958
  543TIP3   OH2 1634   2.376   0.756   0.425
  543TIP3    H1 1635   2.361   0.693   0.495
  543TIP3    H2 1636   2.288   0.778   0.393
  544TIP3   OH2 1637   5.840   3.359   1.678
  544TIP3    H1 1638   5.881   3.316   1.603
  544TIP3    H2 1639   5.775   3.296   1.708
  545TIP3   OH2 1640   4.274   3.870   0.805
  545TIP3    H1 1641   4.227   3.862   0.888
  545TIP3    H2 1642   4.277   3.964   0.789
  546TIP3   OH2 1643   4.181   1.979   4.457
  546TIP3    H1 1644   4.198   1.889   4.429
  546TIP3    H2 1645   4.247   2.031   4.410
  547TIP3   OH2 1646   3.838   1.413   2.404
  547TIP3    H1 1647   3.888   1.493   2.425
  547TIP3    H2 1648   3.884   1.343   2.451
  548TIP3   OH2 1649   4.329   2.716   4.716
  548TIP3    H1 1650   4.248   2.666   4.710
  548TIP3    H2 1651   4.314   2.795   4.664
  549TIP3   OH2 1652   3.853   1.736   0.110
  549TIP3    H1 1653   3.809   1.821   0.110
  549TIP3    H2 1654   3.945   1.757   0.090
  550TIP3   OH2 1655   3.384   0.116   2.778
  550TIP3    H1 1656   3.354   0.160   2.699
  550TIP3    H2 1657   3.474   0.091   2.759
  551TIP3   OH2 1658   5.804   4.070   0.147
  551TIP3    H1 1659   5.839   4.053   0.234
  551TIP3    H2 1660   5.783   4.163   0.147
  552TIP3   OH2 1661   3.527   5.799   1.371
  552TIP3    H1 1662   3.504   5.861   1.303
  552TIP3    H2 1663   3.601   5.840   1.416
  553TIP3   OH2 1664   3.046   1.630   4.090
  553TIP3    H1 1665   3.006   1.681   4.020
  553TIP3    H2 1666   3.073   1.549   4.048
  554TIP3   OH2 1667   1.975   3.863   3.225
  554TIP3    H1 1668   1.957   3.953   3.200
  554TIP3    H2 1669   1.897   3.814   3.200
  555TIP3   OH2 1670   2.683   5.907   0.568
  555TIP3    H1 1671   2.758   5.930   0.623
  555TIP3    H2 1672   2.630   5.848   0.622
  556TIP3   OH2 1673   1.638   3.551   4.716
  556TIP3    H1 1674   1.708   3.497   4.681
  556TIP3    H2 1675   1.656   3.639   4.683
  557TIP3   OH2 1676   1.168   3.344   1.342
  557TIP3    H1 1677   1.108   3.379   1.276
  557TIP3    H2 1678   1.160   3.404   1.416
  558TIP3   OH2 1679   2.329   0.318   0.170
  558TIP3    H1 1680   2.397   0.253   0.151
  558TIP3    H2 1681   2.374   0.402   0.163
  559TIP3   OH2 1682   2.843   1.150   1.483
  559TIP3    H1 1683   2.875   1.187   1.566
  559TIP3    H2 1684   2.751   1.176   1.480
  560TIP3   OH2 1685   4.872   3.141   4.744
  560TIP3    H1 1686   4.780   3.147   4.718
  560TIP3    H2 1687   4.916   3.098   4.671
  561TIP3   OH2 1688   6.121   1.273   3.122
  561TIP3    H1 1689   6.203   1.267   3.072
  561TIP3    H2 1690   6.052   1.264   3.056
  562TIP3   OH2 1691   2.783   0.759   4.464
  562TIP3    H1 1692   2.705   0.765   4.409
  562TIP3    H2 1693   2.818   0.672   4.447
  563TIP3   OH2 1694   0.018   0.326   3.712
  563TIP3    H1 1695  -0.067   0.327   3.757
  563TIP3    H2 1696   0.082   0.334   3.782
  564TIP3   OH2 1697   5.106   0.955   1.836
  564TIP3    H1 1698   5.108   0.861   1.856
  564TIP3    H2 1699   5.115   0.960   1.741
  565TIP3   OH2 1700   1.182   1.920   1.173
  565TIP3    H1 1701   1.135   1.838   1.159
  565TIP3    H2 1702   1.262   1.912   1.121
  566TIP3   OH2 1703   1.081   2.748   3.680
  566TIP3    H1 1704   1.079   2.720   3.772
  566TIP3    H2 1705   0.995   2.723   3.646
  567TIP3   OH2 1706   5.531   2.284   1.194
  567TIP3    H1 1707   5.548   2.281   1.288
  567TIP3    H2 1708   5.529   2.192   1.167
  568TIP3   OH2 1709   6.322   3.144   2.194
  568TIP3    H1 1710   6.309   3.205   2.121
  568TIP3    H2 1711   6.237   3.101   2.205
  569TIP3   OH2 1712   5.802   4.308   3.294
  569TIP3    H1 1713   5.779   4.359   3.216
  569TIP3    H2 1714   5.730   4.247   3.306
  570TIP3   OH2 1715   3.642   1.481   4.533
  570TIP3    H1 1716   3.708   1.495   4.465
  570TIP3    H2 1717   3.564   1.453   4.484
  571TIP3   OH2 1718   2.950   4.569   1.948
  571TIP3    H1 1719   3.031   4.546   1.901
  571TIP3    H2 1720   2.968   4.656   1.985
  572TIP3   OH2 1721   2.204   2.415   4.132
  572TIP3    H1 1722   2.267   2.485   4.151
  572TIP3    H2 1723   2.248   2.360   4.068
  573TIP3   OH2 1724   3.543   3.912   4.743
  573TIP3    H1 1725   3.617   3.953   4.788
  573TIP3    H2 1726   3.551   3.819   4.764
  574TIP3   OH2 1727   0.462   0.143   3.093
  574TIP3    H1 1728   0.451   0.049   3.079
  574TIP3    H2 1729   0.512   0.173   3.017
  575TIP3   OH2 1730   3.423   1.367   3.366
  575TIP3    H1 1731   3.385   1.287   3.400
  575TIP3    H2 1732   3.350   1.430   3.365
  576TIP3   OH2 1733   5.325   4.548   1.636
  576TIP3    H1 1734   5.235   4.521   1.650
  576TIP3    H2 1735   5.332   4.634   1.677
  577TIP3   OH2 1736   3.496   4.216   3.640
  577TIP3    H1 1737   3.524   4.307   3.629
  577TIP3    H2 1738   3.407   4.214   3.605
  578TIP3   OH2 1739   2.753   1.359   3.202
  578TIP3    H1 1740   2.796   1.273   3.195
  578TIP3    H2 1741   2.660   1.340   3.188
  579TIP3   OH2 1742   2.567   2.853   2.025
  579TIP3    H1 1743   2.626   2.918   1.989
  579TIP3    H2 1744   2.505   2.834   1.955
  580TIP3   OH2 1745   2.374   5.599   3.270
  580TIP3    H1 1746   2.333   5.672   3.223
  580TIP3    H2 1747   2.344   5.609   3.360
  581TIP3   OH2 1748   4.725   0.040   2.184
  581TIP3    H1 1749   4.747  -0.053   2.184
  581TIP3    H2 1750   4.685   0.055   2.270
  582TIP3   OH2 1751   2.696   5.339   3.727
  582TIP3    H1 1752   2.674   5.326   3.820
  582TIP3    H2 1753   2.731   5.256   3.698
  583TIP3   OH2 1754   1.751   5.075   1.792
  583TIP3    H1 1755   1.783   5.160   1.762
  583TIP3    H2 1756   1.735   5.025   1.712
  584TIP3   OH2 1757   6.142   0.299   0.430
  584TIP3    H1 1758   6.209   0.366   0.437
  584TIP3    H2 1759   6.178   0.235   0.369
  585TIP3   OH2 1760   5.713   2.510   3.697
  585TIP3    H1 1761   5.803   2.497   3.727
  585TIP3    H2 1762   5.664   2.528   3.777
  586TIP3   OH2 1763   0.410   1.043   0.829
  586TIP3    H1 1764   0.487   1.056   0.774
  586TIP3    H2 1765   0.387   0.951   0.817
  587TIP3   OH2 1766   5.212   3.415   3.552
  587TIP3    H1 1767   5.252   3.337   3.515
  587TIP3    H2 1768   5.233   3.410   3.646
  588TIP3   OH2 1769   4.768   2.768   3.558
  588TIP3    H1 1770   4.719   2.836   3.513
  588TIP3    H2 1771   4.792   2.706   3.490
  589TIP3   OH2 1772   4.539   1.242   1.537
  589TIP3    H1 1773   4.603   1.313   1.541
  589TIP3    H2 1774   4.511   1.240   1.446
  590TIP3   OH2 1775   3.763   4.013   4.884
  590TIP3    H1 1776   3.816   3.986   4.960
  590TIP3    H2 1777   3.827   4.025   4.814
  591TIP3   OH2 1778   3.192   4.732   2.300
  591TIP3    H1 1779   3.256   4.699   2.362
  591TIP3    H2 1780   3.120   4.669   2.304
  592TIP3   OH2 1781   2.013   0.926   5.071
  592TIP3    H1 1782   1.961   0.980   5.012
  592TIP3    H2 1783   1.969   0.841   5.069
  593TIP3   OH2 1784   2.177   0.724   4.123
  593TIP3    H1 1785   2.127   0.695   4.047
  593TIP3    H2 1786   2.190   0.818   4.108
  594TIP3   OH2 1787   2.680   0.167   3.176
  594TIP3    H1 1788   2.703   0.247   3.128
  594TIP3    H2 1789   2.750   0.105   3.154
  595TIP3   OH2 1790   4.180   4.076   4.053
  595TIP3    H1 1791   4.131   4.158   4.043
  595TIP3    H2 1792   4.151   4.041   4.137
  596TIP3   OH2 1793   0.070   1.234   2.707
  596TIP3    H1 1794   0.100   1.297   2.641
  596TIP3    H2 1795  -0.023   1.253   2.718
  597TIP3   OH2 1796   2.445   0.826   0.719
  597TIP3    H1 1797   2.460   0.889   0.648
  597TIP3    H2 1798   2.407   0.750   0.676
  598TIP3   OH2 1799   0.904   4.758   2.652
  598TIP3    H1 1800   0.924   4.825   2.588
  598TIP3    H2 1801   0.970   4.690   2.637
  599TIP3   OH2 1802   5.059   3.761   0.224
  599TIP3    H1 1803   5.008   3.836   0.255
  599TIP3    H2 1804   5.141   3.799   0.193
  600TIP3   OH2 1805   2.947   0.195   4.470
  600TIP3    H1 1806   2.968   0.103   4.451
  600TIP3    H2 1807   2.895   0.223   4.395
  601TIP3   OH2 1808   2.837   4.661   0.641
  601TIP3    H1 1809   2.860   4.729   0.705
  601TIP3    H2 1810   2.896   4.588   0.661
  602TIP3   OH2 1811   5.344   3.430   1.846
  602TIP3    H1 1812   5.333   3.404   1.755
  602TIP3    H2 1813   5.265   3.479   1.867
  603TIP3   OH2 1814   4.160   1.771   2.920
  603TIP3    H1 1815   4.174   1.796   2.829
  603TIP3    H2 1816   4.214   1.831   2.970
  604TIP3   OH2 1817   1.500   1.212   4.858
  604TIP3    H1 1818   1.407   1.194   4.872
  604TIP3    H2 1819   1.527   1.256   4.939
  605TIP3   OH2 1820   5.919   1.385   2.133
  605TIP3    H1 1821   5.950   1.320   2.195
  605TIP3    H2 1822   5.854   1.436   2.181
  606TIP3   OH2 1823   5.859   0.408   2.323
  606TIP3    H1 1824   5.954   0.408   2.322
  606TIP3    H2 1825   5.835   0.468   2.393
  607TIP3   OH2 1826   0.102   1.359   4.517
  607TIP3    H1 1827   0.134   1.376   4.605
  607TIP3    H2 1828   0.108   1.263   4.507
  608TIP3   OH2 1829   3.182   5.609   2.291
  608TIP3    H1 1830   3.110   5.672   2.286
  608TIP3    H2 1831   3.261   5.661   2.273
  609TIP3   OH2 1832   3.469   5.764   4.951
  609TIP3    H1 1833   3.452   5.841   5.005
  609TIP3    H2 1834   3.402   5.701   4.978
  610TIP3   OH2 1835   5.960   2.069   1.062
  610TIP3    H1 1836   5.867   2.054   1.080
  610TIP3    H2 1837   5.995   1.982   1.043
  611TIP3   OH2 1838   1.677   5.921   4.566
  611TIP3    H1 1839   1.764   5.891   4.541
  611TIP3    H2 1840   1.642   5.961   4.487
  612TIP3   OH2 1841   0.086   4.551   2.676
  612TIP3    H1 1842   0.180   4.563   2.688
  612TIP3    H2 1843   0.046   4.609   2.740
  613TIP3   OH2 1844   2.192   1.020   3.793
  613TIP3    H1 1845   2.266   0.961   3.791
  613TIP3    H2 1846   2.199   1.071   3.712
  614TIP3   OH2 1847   5.299   3.172   2.273
  614TIP3    H1 1848   5.322   3.114   2.200
  614TIP3    H2 1849   5.292   3.259   2.234
  615TIP3   OH2 1850   4.006   4.048   2.937
  615TIP3    H1 1851   3.923   4.051   2.890
  615TIP3    H2 1852   4.041   3.961   2.918
  616TIP3   OH2 1853   3.649  -0.011   4.302
  616TIP3    H1 1854   3.743   0.005   4.298
  616TIP3    H2 1855   3.618   0.011   4.214
  617TIP3   OH2 1856   1.910   4.645   0.231
  617TIP3    H1 1857   1.994   4.688   0.213
  617TIP3    H2 1858   1.909   4.569   0.173
  618TIP3   OH2 1859   0.760   0.369   5.016
  618TIP3    H1 1860   0.848   0.377   5.053
  618TIP3    H2 1861   0.706   0.427   5.071
  619TIP3   OH2 1862   0.584   1.682   3.698
  619TIP3    H1 1863   0.535   1.602   3.680
  619TIP3    H2 1864   0.544   1.718   3.777
  620TIP3   OH2 1865   0.798   3.108  -0.002
  620TIP3    H1 1866   0.878   3.080   0.042
  620TIP3    H2 1867   0.730   3.101   0.065
  621TIP3   OH2 1868   1.836   0.122   1.788
  621TIP3    H1 1869   1.881   0.146   1.869
  621TIP3    H2 1870   1.898   0.145   1.718
  622TIP3   OH2 1871   5.848   2.151   3.598
  622TIP3    H1 1872   5.888   2.234   3.571
  622TIP3    H2 1873   5.769   2.176   3.646
  623TIP3   OH2 1874   3.699   2.932   1.754
  623TIP3    H1 1875   3.733   2.972   1.834
  623TIP3    H2 1876   3.726   2.841   1.760
  624TIP3   OH2 1877   2.084   5.014   3.208
  624TIP3    H1 1878   2.008   4.980   3.162
  624TIP3    H2 1879   2.048   5.060   3.284
  625TIP3   OH2 1880   4.983   5.265   2.362
  625TIP3    H1 1881   4.956   5.330   2.296
  625TIP3    H2 1882   4.984   5.182   2.314
  626TIP3   OH2 1883   5.278   3.013  -0.005
  626TIP3    H1 1884   5.250   3.089   0.046
  626TIP3    H2 1885   5.367   3.033  -0.031
  627TIP3   OH2 1886   1.782   4.703   1.382
  627TIP3    H1 1887   1.831   4.651   1.319
  627TIP3    H2 1888   1.699   4.722   1.338
  628TIP3   OH2 1889   1.908   3.265   0.409
  628TIP3    H1 1890   1.863   3.285   0.327
  628TIP3    H2 1891   1.944   3.177   0.396
  629TIP3   OH2 1892   1.825   5.263   2.163
  629TIP3    H1 1893   1.814   5.180   2.117
  629TIP3    H2 1894   1.821   5.240   2.256
  630TIP3   OH2 1895   4.410   3.640   3.822
  630TIP3    H1 1896   4.476   3.599   3.766
  630TIP3    H2 1897   4.373   3.568   3.873
  631TIP3   OH2 1898   5.020   5.154   0.296
  631TIP3    H1 1899   5.112   5.132   0.310
  631TIP3    H2 1900   5.001   5.121   0.209
  632TIP3   OH2 1901   3.435   1.866   4.328
  632TIP3    H1 1902   3.375   1.798   4.295
  632TIP3    H2 1903   3.519   1.846   4.287
  633TIP3   OH2 1904   4.853   0.228   4.920
  633TIP3    H1 1905   4.903   0.228   4.838
  633TIP3    H2 1906   4.918   0.204   4.987
  634TIP3   OH2 1907   5.564   4.336   0.896
  634TIP3    H1 1908   5.658   4.356   0.891
  634TIP3    H2 1909   5.548   4.281   0.819
  635TIP3   OH2 1910   4.439   3.766   4.952
  635TIP3    H1 1911   4.499   3.790   5.023
  635TIP3    H2 1912   4.449   3.671   4.944
  636TIP3   OH2 1913   4.270   3.382   1.932
  636TIP3    H1 1914   4.229   3.462   1.898
  636TIP3    H2 1915   4.312   3.410   2.013
  637TIP3   OH2 1916   1.234   4.792   0.548
  637TIP3    H1 1917   1.310   4.756   0.503
  637TIP3    H2 1918   1.215   4.873   0.501
  638TIP3   OH2 1919   2.219   4.728   4.017
  638TIP3    H1 1920   2.258   4.645   3.992
  638TIP3    H2 1921   2.294   4.784   4.039
  639TIP3   OH2 1922   4.907   0.764   4.329
  639TIP3    H1 1923   4.855   0.790   4.406
  639TIP3    H2 1924   4.998   0.779   4.356
  640TIP3   OH2 1925   5.686   3.177   3.347
  640TIP3    H1 1926   5.647   3.095   3.377
  640TIP3    H2 1927   5.638   3.245   3.394
  641TIP3   OH2 1928   1.335   4.972   1.256
  641TIP3    H1 1929   1.389   5.035   1.208
  641TIP3    H2 1930   1.268   5.026   1.298
  642TIP3   OH2 1931   4.607   1.263   4.922
  642TIP3    H1 1932   4.615   1.192   4.986
  642TIP3    H2 1933   4.693   1.266   4.879
  643TIP3   OH2 1934   3.472   5.214   4.954
  643TIP3    H1 1935   3.406   5.223   4.886
  643TIP3    H2 1936   3.428   5.243   5.034
  644TIP3   OH2 1937   3.546   3.328   2.546
  644TIP3    H1 1938   3.499   3.288   2.473
  644TIP3    H2 1939   3.638   3.328   2.519
  645TIP3   OH2 1940   4.159   2.128   1.682
  645TIP3    H1 1941   4.250   2.137   1.711
  645TIP3    H2 1942   4.111   2.100   1.760
  646TIP3   OH2 1943   0.107   2.594   0.374
  646TIP3    H1 1944   0.015   2.585   0.348
  646TIP3    H2 1945   0.145   2.653   0.310
  647TIP3   OH2 1946   5.703   3.519   0.332
  647TIP3    H1 1947   5.679   3.572   0.408
  647TIP3    H2 1948   5.766   3.573   0.284
  648TIP3   OH2 1949   5.161   2.399   4.796
  648TIP3    H1 1950   5.174   2.492   4.777
  648TIP3    H2 1951   5.241   2.373   4.843
  649TIP3   OH2 1952   2.593   3.969   0.959
  649TIP3    H1 1953   2.525   3.926   1.011
  649TIP3    H2 1954   2.557   4.055   0.939
  650TIP3   OH2 1955   0.899   5.265   1.904
  650TIP3    H1 1956   0.987   5.257   1.941
  650TIP3    H2 1957   0.907   5.335   1.839
  651TIP3   OH2 1958   5.976   0.979   3.605
  651TIP3    H1 1959   6.043   0.959   3.671
  651TIP3    H2 1960   6.023   0.978   3.522
  652TIP3   OH2 1961   2.767   4.657   4.039
  652TIP3    H1 1962   2.772   4.753   4.034
  652TIP3    H2 1963   2.818   4.635   4.117
  653TIP3   OH2 1964   3.442   1.041   2.724
  653TIP3    H1 1965   3.499   1.004   2.657
  653TIP3    H2 1966   3.357   1.000   2.710
  654TIP3   OH2 1967   2.075   2.668   4.383
  654TIP3    H1 1968   2.100   2.758   4.404
  654TIP3    H2 1969   2.032   2.675   4.298
  655TIP3   OH2 1970   0.513   2.199   1.086
  655TIP3    H1 1971   0.532   2.118   1.132
  655TIP3    H2 1972   0.431   2.182   1.040
  656TIP3   OH2 1973   1.936   2.129   1.054
  656TIP3    H1 1974   1.979   2.172   1.129
  656TIP3    H2 1975   1.859   2.183   1.037
  657TIP3   OH2 1976   3.952   2.593   2.249
  657TIP3    H1 1977   4.014   2.625   2.314
  657TIP3    H2 1978   3.955   2.498   2.256
  658TIP3   OH2 1979   0.489   5.987   2.874
  658TIP3    H1 1980   0.402   6.015   2.848
  658TIP3    H2 1981   0.475   5.916   2.936
  659TIP3   OH2 1982   4.536   2.208   2.725
  659TIP3    H1 1983   4.490   2.259   2.792
  659TIP3    H2 1984   4.599   2.268   2.687
  660TIP3   OH2 1985   3.875   2.252   2.140
  660TIP3    H1 1986   3.875   2.305   2.220
  660TIP3    H2 1987   3.817   2.179   2.160
  661TIP3   OH2 1988   2.331   4.384   2.438
  661TIP3    H1 1989   2.242   4.399   2.470
  661TIP3    H2 1990   2.323   4.386   2.343
  662TIP3   OH2 1991   6.229   1.651   0.373
  662TIP3    H1 1992   6.222   1.700   0.291
  662TIP3    H2 1993   6.171   1.697   0.433
  663TIP3   OH2 1994   0.382   0.039   3.752
  663TIP3    H1 1995   0.428  -0.023   3.809
  663TIP3    H2 1996   0.309  -0.010   3.716
  664TIP3   OH2 1997   4.293   1.907   3.955
  664TIP3    H1 1998   4.265   1.879   3.867
  664TIP3    H2 1999   4.383   1.876   3.962
  665TIP3   OH2 2000   0.729   5.504   2.836
  665TIP3    H1 2001   0.757   5.472   2.921
  665TIP3    H2 2002   0.723   5.425   2.781
  666TIP3   OH2 2003   4.269   4.666   1.716
  666TIP3    H1 2004   4.201   4.731   1.733
  666TIP3    H2 2005   4.238   4.619   1.638
  667TIP3   OH2 2006   3.823   3.643   1.849
  667TIP3    H1 2007   3.739   3.666   1.809
  667TIP3    H2 2008   3.802   3.569   1.907
  668TIP3   OH2 2009   4.511   1.196   2.053
  668TIP3    H1 2010   4.477   1.148   2.128
  668TIP3    H2 2011   4.486   1.144   1.977
  669TIP3   OH2 2012   4.423   3.336   0.033
  669TIP3    H1 2013   4.395   3.409  -0.022
  669TIP3    H2 2014   4.370   3.262   0.003
  670TIP3   OH2 2015   0.422   0.759   3.860
  670TIP3    H1 2016   0.385   0.729   3.777
  670TIP3    H2 2017   0.389   0.848   3.871
  671TIP3   OH2 2018   1.569   1.815   4.685
  671TIP3    H1 2019   1.503   1.752   4.657
  671TIP3    H2 2020   1.544   1.838   4.775
  672TIP3   OH2 2021   0.213   4.331   4.724
  672TIP3    H1 2022   0.212   4.275   4.802
  672TIP3    H2 2023   0.298   4.373   4.725
  673TIP3   OH2 2024   5.523   5.218   1.495
  673TIP3    H1 2025   5.515   5.133   1.452
  673TIP3    H2 2026   5.605   5.254   1.460
  674TIP3   OH2 2027   4.098   4.671   0.117
  674TIP3    H1 2028   4.081   4.591   0.166
  674TIP3    H2 2029   4.189   4.663   0.089
  675TIP3   OH2 2030   2.587   1.759   0.005
  675TIP3    H1 2031   2.613   1.677  -0.037
  675TIP3    H2 2032   2.508   1.736   0.054
  676TIP3   OH2 2033   3.382   3.281   2.023
  676TIP3    H1 2034   3.301   3.242   2.055
  676TIP3    H2 2035   3.416   3.217   1.961
  677TIP3   OH2 2036   2.193   4.937   3.694
  677TIP3    H1 2037   2.234   4.987   3.765
  677TIP3    H2 2038   2.264   4.883   3.660
  678TIP3   OH2 2039   0.430   2.103   4.577
  678TIP3    H1 2040   0.520   2.129   4.559
  678TIP3    H2 2041   0.414   2.129   4.667
  679TIP3   OH2 2042   5.045   2.984   4.586
  679TIP3    H1 2043   5.125   3.026   4.556
  679TIP3    H2 2044   5.012   2.937   4.509
  680TIP3   OH2 2045   4.997   0.522   4.760
  680TIP3    H1 2046   5.013   0.616   4.766
  680TIP3    H2 2047   5.072   0.482   4.804
  681TIP3   OH2 2048   1.766   2.541   2.782
  681TIP3    H1 2049   1.790   2.457   2.821
  681TIP3    H2 2050   1.730   2.518   2.697
  682TIP3   OH2 2051   1.163   2.698   4.183
  682TIP3    H1 2052   1.164   2.793   4.195
  682TIP3    H2 2053   1.078   2.681   4.142
  683TIP3   OH2 2054   4.726   3.827   4.394
  683TIP3    H1 2055   4.755   3.744   4.355
  683TIP3    H2 2056   4.744   3.892   4.326
  684TIP3   OH2 2057   1.854   0.471   0.942
  684TIP3    H1 2058   1.819   0.437   0.859
  684TIP3    H2 2059   1.875   0.394   0.993
  685TIP3   OH2 2060   6.227   0.996   4.218
  685TIP3    H1 2061   6.156   1.049   4.181
  685TIP3    H2 2062   6.306   1.027   4.174
  686TIP3   OH2 2063   2.597   0.297   4.308
  686TIP3    H1 2064   2.588   0.355   4.384
  686TIP3    H2 2065   2.510   0.257   4.299
  687TIP3   OH2 2066   1.663   5.180   2.911
  687TIP3    H1 2067   1.681   5.207   3.000
  687TIP3    H2 2068   1.670   5.084   2.913
  688TIP3   OH2 2069   4.495   5.908   4.156
  688TIP3    H1 2070   4.563   5.853   4.118
  688TIP3    H2 2071   4.412   5.871   4.124
  689TIP3   OH2 2072   1.619   3.512   4.135
  689TIP3    H1 2073   1.674   3.494   4.059
  689TIP3    H2 2074   1.530   3.517   4.100
  690TIP3   OH2 2075   3.263   5.275   4.233
  690TIP3    H1 2076   3.342   5.231   4.202
  690TIP3    H2 2077   3.272   5.275   4.329
  691TIP3   OH2 2078   1.400   2.406   4.150
  691TIP3    H1 2079   1.428   2.314   4.142
  691TIP3    H2 2080   1.387   2.419   4.244
  692TIP3   OH2 2081   4.086   2.804   0.789
  692TIP3    H1 2082   4.118   2.722   0.752
  692TIP3    H2 2083   4.050   2.779   0.874
  693TIP3   OH2 2084   2.687   5.921   1.213
  693TIP3    H1 2085   2.716   5.839   1.253
  693TIP3    H2 2086   2.613   5.895   1.158
  694TIP3   OH2 2087   6.324   4.309   2.366
  694TIP3    H1 2088   6.353   4.397   2.390
  694TIP3    H2 2089   6.301   4.315   2.274
  695TIP3   OH2 2090   0.720   1.722   4.009
  695TIP3    H1 2091   0.635   1.758   3.982
  695TIP3    H2 2092   0.763   1.794   4.055
  696TIP3   OH2 2093   6.033   2.676   2.392
  696TIP3    H1 2094   6.073   2.596   2.427
  696TIP3    H2 2095   6.105   2.721   2.348
  697TIP3   OH2 2096   2.607   4.737   0.928
  697TIP3    H1 2097   2.670   4.808   0.940
  697TIP3    H2 2098   2.577   4.747   0.837
  698TIP3   OH2 2099   1.724   2.853   4.436
  698TIP3    H1 2100   1.740   2.862   4.530
  698TIP3    H2 2101   1.690   2.764   4.426
  699TIP3   OH2 2102   2.243   2.246   4.700
  699TIP3    H1 2103   2.200   2.285   4.776
  699TIP3    H2 2104   2.251   2.318   4.637
  700TIP3   OH2 2105   3.285   5.523   0.316
  700TIP3    H1 2106   3.196   5.532   0.283
  700TIP3    H2 2107   3.279   5.452   0.381
  701TIP3   OH2 2108   5.576   1.945   3.473
  701TIP3    H1 2109   5.484   1.937   3.448
  701TIP3    H2 2110   5.620   1.975   3.393
  702TIP3   OH2 2111   2.296   0.370   3.962
  702TIP3    H1 2112   2.313   0.450   3.911
  702TIP3    H2 2113   2.350   0.303   3.920
  703TIP3   OH2 2114   2.511   3.727   0.747
  703TIP3    H1 2115   2.506   3.805   0.801
  703TIP3    H2 2116   2.605   3.714   0.731
  704TIP3   OH2 2117   3.311   3.274   2.941
  704TIP3    H1 2118   3.374   3.346   2.932
  704TIP3    H2 2119   3.270   3.289   3.026
  705TIP3   OH2 2120   3.903   2.987   0.012
  705TIP3    H1 2121   3.982   2.956   0.058
  705TIP3    H2 2122   3.936   3.041  -0.059
  706TIP3   OH2 2123   0.473   3.740   4.510
  706TIP3    H1 2124   0.517   3.722   4.593
  706TIP3    H2 2125   0.503   3.670   4.452
  707TIP3   OH2 2126   3.485   0.926   4.876
  707TIP3    H1 2127   3.545   0.975   4.820
  707TIP3    H2 2128   3.515   0.835   4.870
  708TIP3   OH2 2129   3.578   5.555   4.138
  708TIP3    H1 2130   3.653   5.576   4.193
  708TIP3    H2 2131   3.503   5.596   4.182
  709TIP3   OH2 2132   1.131   3.007   3.471
  709TIP3    H1 2133   1.173   3.088   3.441
  709TIP3    H2 2134   1.205   2.951   3.499
  710TIP3   OH2 2135   0.933   1.556   4.683
  710TIP3    H1 2136   0.976   1.630   4.726
  710TIP3    H2 2137   0.881   1.595   4.613
  711TIP3   OH2 2138   2.233   0.595   5.103
  711TIP3    H1 2139   2.197   0.633   5.183
  711TIP3    H2 2140   2.168   0.613   5.036
  712TIP3   OH2 2141   2.400   4.452   0.745
  712TIP3    H1 2142   2.468   4.515   0.720
  712TIP3    H2 2143   2.320   4.487   0.706
  713TIP3   OH2 2144   6.121   2.965   0.558
  713TIP3    H1 2145   6.062   2.917   0.500
  713TIP3    H2 2146   6.108   3.057   0.535
  714TIP3   OH2 2147   2.055   2.655   4.052
  714TIP3    H1 2148   2.048   2.560   4.044
  714TIP3    H2 2149   1.974   2.681   4.096
  715TIP3   OH2 2150   2.911   0.630   1.371
  715TIP3    H1 2151   2.936   0.658   1.459
  715TIP3    H2 2152   2.925   0.707   1.316
  716TIP3   OH2 2153   3.225   0.095   1.350
  716TIP3    H1 2154   3.248   0.181   1.314
  716TIP3    H2 2155   3.295   0.076   1.413
  717TIP3   OH2 2156   1.597   1.139   4.398
  717TIP3    H1 2157   1.638   1.225   4.390
  717TIP3    H2 2158   1.573   1.132   4.491
  718TIP3   OH2 2159   2.411   0.811   4.759
  718TIP3    H1 2160   2.353   0.850   4.693
  718TIP3    H2 2161   2.420   0.880   4.825
  719TIP3   OH2 2162   2.441   3.745   1.104
  719TIP3    H1 2163   2.423   3.752   1.198
  719TIP3    H2 2164   2.432   3.651   1.085
  720TIP3   OH2 2165   3.334   4.808   2.865
  720TIP3    H1 2166   3.333   4.843   2.776
  720TIP3    H2 2167   3.425   4.782   2.879
  721TIP3   OH2 2168   3.007   2.750   4.789
  721TIP3    H1 2169   3.041   2.723   4.875
  721TIP3    H2 2170   2.977   2.840   4.803
  722TIP3   OH2 2171   2.706   2.926   1.605
  722TIP3    H1 2172   2.744   2.887   1.527
  722TIP3    H2 2173   2.720   2.861   1.674
  723TIP3   OH2 2174   3.412   0.463   0.611
  723TIP3    H1 2175   3.435   0.370   0.623
  723TIP3    H2 2176   3.427   0.479   0.518
  724TIP3   OH2 2177   5.070   5.633   2.307
  724TIP3    H1 2178   5.068   5.717   2.354
  724TIP3    H2 2179   5.054   5.657   2.215
  725TIP3   OH2 2180   6.030   4.472   3.458
  725TIP3    H1 2181   5.958   4.410   3.456
  725TIP3    H2 2182   6.078   4.456   3.377
  726TIP3   OH2 2183   2.171   3.228   1.263
  726TIP3    H1 2184   2.207   3.290   1.327
  726TIP3    H2 2185   2.168   3.277   1.181
  727TIP3   OH2 2186   3.308   2.417   4.511
  727TIP3    H1 2187   3.268   2.491   4.556
  727TIP3    H2 2188   3.285   2.341   4.564
  728TIP3   OH2 2189   6.113   0.252   3.011
  728TIP3    H1 2190   6.034   0.227   2.964
  728TIP3    H2 2191   6.182   0.253   2.944
  729TIP3   OH2 2192   0.865   1.274   2.391
  729TIP3    H1 2193   0.810   1.222   2.333
  729TIP3    H2 2194   0.903   1.211   2.452
  730TIP3   OH2 2195   1.838   0.299   3.952
  730TIP3    H1 2196   1.763   0.288   4.011
  730TIP3    H2 2197   1.893   0.364   3.996
  731TIP3   OH2 2198   3.818   4.094   2.752
  731TIP3    H1 2199   3.778   4.007   2.748
  731TIP3    H2 2200   3.855   4.108   2.665
  732TIP3   OH2 2201   1.743   1.397   4.385
  732TIP3    H1 2202   1.818   1.354   4.345
  732TIP3    H2 2203   1.765   1.403   4.478
  733TIP3   OH2 2204   5.281   3.368   1.565
  733TIP3    H1 2205   5.219   3.367   1.493
  733TIP3    H2 2206   5.355   3.420   1.533
  734TIP3   OH2 2207   0.516   4.063   2.433
  734TIP3    H1 2208   0.531   4.148   2.390
  734TIP3    H2 2209   0.506   4.085   2.526
  735TIP3   OH2 2210   4.726   0.431   3.413
  735TIP3    H1 2211   4.779   0.496   3.458
  735TIP3    H2 2212   4.790   0.366   3.381
  736TIP3   OH2 2213   4.676   5.552   2.300
  736TIP3    H1 2214   4.720   5.497   2.365
  736TIP3    H2 2215   4.617   5.607   2.352
  737TIP3   OH2 2216   2.284   5.388   2.364
  737TIP3    H1 2217   2.361   5.355   2.411
  737TIP3    H2 2218   2.222   5.315   2.365
  738TIP3   OH2 2219   4.874   3.245   0.547
  738TIP3    H1 2220   4.788   3.260   0.587
  738TIP3    H2 2221   4.921   3.192   0.611
  739TIP3   OH2 2222   2.962   4.052   0.082
  739TIP3    H1 2223   2.977   4.099   0.000
  739TIP3    H2 2224   2.868   4.056   0.095
  740TIP3   OH2 2225   2.858   3.699   2.686
  740TIP3    H1 2226   2.894   3.663   2.767
  740TIP3    H2 2227   2.901   3.649   2.616
  741TIP3   OH2 2228   2.451   1.755   0.914
  741TIP3    H1 2229   2.472   1.706   0.834
  741TIP3    H2 2230   2.464   1.846   0.889
  742TIP3   OH2 2231   3.042   5.983   4.957
  742TIP3    H1 2232   3.023   5.889   4.948
  742TIP3    H2 2233   2.990   6.010   5.033
  743TIP3   OH2 2234   5.289   3.674   0.621
  743TIP3    H1 2235   5.334   3.667   0.537
  743TIP3    H2 2236   5.311   3.761   0.654
  744TIP3   OH2 2237   0.382   4.963   0.516
  744TIP3    H1 2238   0.455   4.975   0.577
  744TIP3    H2 2239   0.330   4.892   0.555
  745TIP3   OH2 2240   5.148   1.901   1.833
  745TIP3    H1 2241   5.208   1.941   1.895
  745TIP3    H2 2242   5.191   1.820   1.807
  746TIP3   OH2 2243   1.926   3.859   3.969
  746TIP3    H1 2244   1.839   3.896   3.955
  746TIP3    H2 2245   1.942   3.805   3.891
  747TIP3   OH2 2246   1.446   2.955   1.180
  747TIP3    H1 2247   1.532   2.994   1.166
  747TIP3    H2 2248   1.435   2.955   1.275
  748TIP3   OH2 2249   0.958   0.540   3.934
  748TIP3    H1 2250   0.979   0.592   4.012
  748TIP3    H2 2251   0.870   0.569   3.909
  749TIP3   OH2 2252   1.314   1.105   4.335
  749TIP3    H1 2253   1.409   1.104   4.321
  749TIP3    H2 2254   1.278   1.087   4.248
  750TIP3   OH2 2255   5.413   4.709   1.395
  750TIP3    H1 2256   5.505   4.682   1.404
  750TIP3    H2 2257   5.365   4.650   1.453
  751TIP3   OH2 2258   1.946   3.485   4.921
  751TIP3    H1 2259   2.040   3.503   4.916
  751TIP3    H2 2260   1.913   3.502   4.833
  752TIP3   OH2 2261   5.843   4.365   0.889
  752TIP3    H1 2262   5.902   4.369   0.813
  752TIP3    H2 2263   5.849   4.453   0.927
  753TIP3   OH2 2264   4.130   2.859   3.822
  753TIP3    H1 2265   4.130   2.858   3.918
  753TIP3    H2 2266   4.183   2.935   3.799
  754TIP3   OH2 2267   2.014   5.610   4.884
  754TIP3    H1 2268   2.041   5.520   4.906
  754TIP3    H2 2269   1.976   5.643   4.966
  755TIP3   OH2 2270   1.048   5.189   1.284
  755TIP3    H1 2271   1.117   5.178   1.350
  755TIP3    H2 2272   1.095   5.195   1.201
  756TIP3   OH2 2273   0.524   4.430   0.718
  756TIP3    H1 2274   0.583   4.383   0.777
  756TIP3    H2 2275   0.569   4.429   0.633
  757TIP3   OH2 2276   4.917   3.128   4.043
  757TIP3    H1 2277   4.886   3.157   4.129
  757TIP3    H2 2278   4.859   3.055   4.020
  758TIP3   OH2 2279   2.741   5.493   2.338
  758TIP3    H1 2280   2.835   5.479   2.347
  758TIP3    H2 2281   2.708   5.413   2.298
  759TIP3   OH2 2282   0.145   1.334   1.382
  759TIP3    H1 2283   0.227   1.343   1.430
  759TIP3    H2 2284   0.171   1.304   1.295
  760TIP3   OH2 2285   0.682   1.817   0.638
  760TIP3    H1 2286   0.665   1.723   0.626
  760TIP3    H2 2287   0.633   1.841   0.716
  761TIP3   OH2 2288   1.644   3.375   4.917
  761TIP3    H1 2289   1.685   3.316   4.854
  761TIP3    H2 2290   1.637   3.458   4.871
  762TIP3   OH2 2291   2.296   5.319   3.321
  762TIP3    H1 2292   2.286   5.409   3.292
  762TIP3    H2 2293   2.289   5.266   3.242
  763TIP3   OH2 2294   3.213   2.619   4.671
  763TIP3    H1 2295   3.157   2.691   4.702
  763TIP3    H2 2296   3.269   2.600   4.746
  764TIP3   OH2 2297   3.336   5.828   0.190
  764TIP3    H1 2298   3.249   5.841   0.228
  764TIP3    H2 2299   3.374   5.757   0.242
  765TIP3   OH2 2300   1.294   2.968   4.001
  765TIP3    H1 2301   1.232   3.030   3.963
  765TIP3    H2 2302   1.316   3.006   4.086
  766TIP3   OH2 2303   0.558   1.382   2.469
  766TIP3    H1 2304   0.649   1.362   2.449
  766TIP3    H2 2305   0.553   1.478   2.461
  767TIP3   OH2 2306   0.252   2.301   2.485
  767TIP3    H1 2307   0.228   2.321   2.395
  767TIP3    H2 2308   0.305   2.221   2.478
  768TIP3   OH2 2309   2.489   5.921   3.715
  768TIP3    H1 2310   2.461   5.892   3.629
  768TIP3    H2 2311   2.514   5.841   3.761
  769TIP3   OH2 2312   2.209   4.472   0.959
  769TIP3    H1 2313   2.272   4.435   0.898
  769TIP3    H2 2314   2.204   4.564   0.935
  770TIP3   OH2 2315   1.857   2.830   0.902
  770TIP3    H1 2316   1.835   2.783   0.822
  770TIP3    H2 2317   1.841   2.922   0.880
  771TIP3   OH2 2318   5.299   5.573   0.702
  771TIP3    H1 2319   5.310   5.665   0.677
  771TIP3    H2 2320   5.365   5.527   0.652
  772TIP3   OH2 2321   3.401   0.214   2.153
  772TIP3    H1 2322   3.347   0.226   2.231
  772TIP3    H2 2323   3.454   0.294   2.147
  773TIP3   OH2 2324   0.442   1.486   4.472
  773TIP3    H1 2325   0.367   1.536   4.439
  773TIP3    H2 2326   0.513   1.550   4.478
  774TIP3   OH2 2327   4.801   2.214   5.020
  774TIP3    H1 2328   4.721   2.180   4.980
  774TIP3    H2 2329   4.808   2.166   5.103
  775TIP3   OH2 2330   6.109   2.365   2.755
  775TIP3    H1 2331   6.189   2.316   2.775
  775TIP3    H2 2332   6.104   2.364   2.660
  776TIP3   OH2 2333   4.922   2.650   5.092
  776TIP3    H1 2334   4.970   2.568   5.082
  776TIP3    H2 2335   4.869   2.657   5.012
  777TIP3   OH2 2336   6.112   0.249   4.232
  777TIP3    H1 2337   6.051   0.319   4.254
  777TIP3    H2 2338   6.063   0.168   4.249
  778TIP3   OH2 2339   3.824   2.635   0.864
  778TIP3    H1 2340   3.917   2.621   0.883
  778TIP3    H2 2341   3.820   2.724   0.830
  779TIP3   OH2 2342   1.928   4.434   0.047
  779TIP3    H1 2343   2.002   4.381   0.077
  779TIP3    H2 2344   1.955   4.464  -0.040
  780TIP3   OH2 2345   5.569   4.816   2.322
  780TIP3    H1 2346   5.585   4.910   2.315
  780TIP3    H2 2347   5.505   4.808   2.393
  781TIP3   OH2 2348   0.425   2.365   4.043
  781TIP3    H1 2349   0.496   2.378   3.980
  781TIP3    H2 2350   0.397   2.454   4.066
  782TIP3   OH2 2351   0.188   4.192   4.103
  782TIP3    H1 2352   0.267   4.202   4.050
  782TIP3    H2 2353   0.130   4.138   4.049
  783TIP3   OH2 2354   1.849   4.575   0.493
  783TIP3    H1 2355   1.882   4.636   0.558
  783TIP3    H2 2356   1.894   4.599   0.412
  784TIP3   OH2 2357   2.935   2.334   0.974
  784TIP3    H1 2358   2.917   2.340   1.068
  784TIP3    H2 2359   3.014   2.281   0.967
  785TIP3   OH2 2360   1.211   2.496   4.373
  785TIP3    H1 2361   1.138   2.529   4.426
  785TIP3    H2 2362   1.220   2.559   4.302
  786TIP3   OH2 2363   3.519   5.171   4.031
  786TIP3    H1 2364   3.573   5.232   3.981
  786TIP3    H2 2365   3.582   5.121   4.084
  787TIP3   OH2 2366   3.516   4.189   4.417
  787TIP3    H1 2367   3.451   4.125   4.445
  787TIP3    H2 2368   3.466   4.254   4.368
  788TIP3   OH2 2369   0.967   4.132   3.573
  788TIP3    H1 2370   0.991   4.055   3.625
  788TIP3    H2 2371   0.967   4.204   3.635
  789TIP3   OH2 2372   5.861   3.885   3.725
  789TIP3    H1 2373   5.948   3.923   3.736
  789TIP3    H2 2374   5.850   3.876   3.630
  790TIP3   OH2 2375   4.658   0.508   2.442
  790TIP3    H1 2376   4.709   0.447   2.496
  790TIP3    H2 2377   4.567   0.482   2.458
  791TIP3   OH2 2378   2.382   0.489   4.871
  791TIP3    H1 2379   2.341   0.515   4.954
  791TIP3    H2 2380   2.423   0.570   4.839
  792TIP3   OH2 2381   1.569   3.338   0.330
  792TIP3    H1 2382   1.602   3.405   0.271
  792TIP3    H2 2383   1.555   3.261   0.274
  793TIP3   OH2 2384   1.277   5.429   4.736
  793TIP3    H1 2385   1.271   5.498   4.802
  793TIP3    H2 2386   1.201   5.444   4.680
  794TIP3   OH2 2387   4.888   4.084   3.013
  794TIP3    H1 2388   4.890   4.013   2.948
  794TIP3    H2 2389   4.809   4.066   3.064
  795TIP3   OH2 2390   0.420   5.594   1.377
  795TIP3    H1 2391   0.441   5.681   1.344
  795TIP3    H2 2392   0.443   5.596   1.469
  796TIP3   OH2 2393   5.842   4.220   2.689
  796TIP3    H1 2394   5.766   4.193   2.740
  796TIP3    H2 2395   5.862   4.145   2.634
  797TIP3   OH2 2396   6.036   5.440   2.316
  797TIP3    H1 2397   5.974   5.467   2.383
  797TIP3    H2 2398   6.100   5.511   2.312
  798TIP3   OH2 2399   2.404   4.044   3.009
  798TIP3    H1 2400   2.366   4.076   2.928
  798TIP3    H2 2401   2.380   3.951   3.011
  799TIP3   OH2 2402   4.109   2.570   0.643
  799TIP3    H1 2403   4.201   2.592   0.632
  799TIP3    H2 2404   4.088   2.514   0.569
  800TIP3   OH2 2405   3.403   0.137   5.044
  800TIP3    H1 2406   3.473   0.200   5.025
  800TIP3    H2 2407   3.346   0.140   4.968
  801TIP3   OH2 2408   6.280   5.135   1.337
  801TIP3    H1 2409   6.315   5.151   1.249
  801TIP3    H2 2410   6.223   5.211   1.354
  802TIP3   OH2 2411   6.260   0.408   4.619
  802TIP3    H1 2412   6.216   0.477   4.569
  802TIP3    H2 2413   6.338   0.387   4.567
  803TIP3   OH2 2414   4.695   1.450   0.084
  803TIP3    H1 2415   4.641   1.421   0.158
  803TIP3    H2 2416   4.766   1.501   0.125
  804TIP3   OH2 2417   5.145   2.022   4.669
  804TIP3    H1 2418   5.196   2.049   4.745
  804TIP3    H2 2419   5.059   2.060   4.682
  805TIP3   OH2 2420   0.379   3.973   0.418
  805TIP3    H1 2421   0.456   3.923   0.445
  805TIP3    H2 2422   0.305   3.921   0.450
  806TIP3   OH2 2423   6.152   2.142   1.966
  806TIP3    H1 2424   6.076   2.181   2.009
  806TIP3    H2 2425   6.218   2.137   2.035
  807TIP3   OH2 2426   3.148   1.449   2.477
  807TIP3    H1 2427   3.073   1.389   2.478
  807TIP3    H2 2428   3.224   1.392   2.465
  808TIP3   OH2 2429   3.946   5.782   3.836
  808TIP3    H1 2430   3.853   5.805   3.826
  808TIP3    H2 2431   3.960   5.711   3.773
  809TIP3   OH2 2432   3.740   1.365   2.875
  809TIP3    H1 2433   3.661   1.314   2.860
  809TIP3    H2 2434   3.712   1.456   2.872
  810TIP3   OH2 2435   3.545   4.806   1.787
  810TIP3    H1 2436   3.487   4.760   1.848
  810TIP3    H2 2437   3.487   4.837   1.718
  811TIP3   OH2 2438   3.762   0.242   4.124
  811TIP3    H1 2439   3.755   0.334   4.149
  811TIP3    H2 2440   3.822   0.242   4.049
  812TIP3   OH2 2441   3.229   2.824   1.857
  812TIP3    H1 2442   3.172   2.894   1.825
  812TIP3    H2 2443   3.181   2.744   1.839
  813TIP3   OH2 2444   5.675   3.221   2.832
  813TIP3    H1 2445   5.697   3.133   2.801
  813TIP3    H2 2446   5.719   3.228   2.917
  814TIP3   OH2 2447   5.009   4.884   2.052
  814TIP3    H1 2448   4.969   4.971   2.056
  814TIP3    H2 2449   5.040   4.867   2.140
  815TIP3   OH2 2450   4.824   4.462   3.112
  815TIP3    H1 2451   4.830   4.555   3.090
  815TIP3    H2 2452   4.910   4.426   3.087
  816TIP3   OH2 2453   3.051   1.634   2.646
  816TIP3    H1 2454   3.128   1.686   2.670
  816TIP3    H2 2455   3.086   1.557   2.602
  817TIP3   OH2 2456   5.898   1.976   0.523
  817TIP3    H1 2457   5.947   1.899   0.553
  817TIP3    H2 2458   5.895   1.967   0.428
  818TIP3   OH2 2459   0.529   5.060   0.084
  818TIP3    H1 2460   0.453   5.112   0.112
  818TIP3    H2 2461   0.509   4.971   0.111
  819TIP3   OH2 2462   5.764   5.703   3.200
  819TIP3    H1 2463   5.811   5.740   3.275
  819TIP3    H2 2464   5.694   5.765   3.182
  820TIP3   OH2 2465   5.528   5.519   3.328
  820TIP3    H1 2466   5.587   5.563   3.267
  820TIP3    H2 2467   5.551   5.555   3.414
  821TIP3   OH2 2468   0.434   3.834   0.824
  821TIP3    H1 2469   0.369   3.904   0.819
  821TIP3    H2 2470   0.476   3.834   0.738
  822TIP3   OH2 2471   3.293   2.908   1.583
  822TIP3    H1 2472   3.271   3.000   1.599
  822TIP3    H2 2473   3.270   2.863   1.665
  823TIP3   OH2 2474   1.734   4.364   2.990
  823TIP3    H1 2475   1.740   4.448   2.943
  823TIP3    H2 2476   1.726   4.389   3.082
  824TIP3   OH2 2477   1.270   4.184   1.629
  824TIP3    H1 2478   1.332   4.217   1.694
  824TIP3    H2 2479   1.312   4.199   1.545
  825TIP3   OH2 2480   0.045   4.421   1.014
  825TIP3    H1 2481   0.138   4.400   1.013
  825TIP3    H2 2482   0.039   4.502   1.063
  826TIP3   OH2 2483   3.230   3.460   2.336
  826TIP3    H1 2484   3.223   3.479   2.429
  826TIP3    H2 2485   3.233   3.364   2.331
  827TIP3   OH2 2486   0.500   1.280   0.135
  827TIP3    H1 2487   0.539   1.355   0.089
  827TIP3    H2 2488   0.551   1.272   0.215
  828TIP3   OH2 2489   2.580   4.250   4.524
  828TIP3    H1 2490   2.498   4.297   4.539
  828TIP3    H2 2491   2.575   4.174   4.581
  829TIP3   OH2 2492   1.799   0.124   0.090
  829TIP3    H1 2493   1.895   0.122   0.090
  829TIP3    H2 2494   1.773   0.037   0.121
  830TIP3   OH2 2495   0.795   5.773   4.576
  830TIP3    H1 2496   0.870   5.729   4.538
  830TIP3    H2 2497   0.831   5.852   4.616
  831TIP3   OH2 2498   2.051   3.659   1.549
  831TIP3    H1 2499   2.073   3.726   1.484
  831TIP3    H2 2500   1.982   3.607   1.507
  832TIP3   OH2 2501   4.720   4.928   0.903
  832TIP3    H1 2502   4.694   5.019   0.918
  832TIP3    H2 2503   4.797   4.916   0.959
  833TIP3   OH2 2504   0.103   0.276   3.221
  833TIP3    H1 2505   0.128   0.299   3.310
  833TIP3    H2 2506   0.011   0.251   3.227
  834TIP3   OH2 2507   2.124   1.889   0.810
  834TIP3    H1 2508   2.155   1.979   0.820
  834TIP3    H2 2509   2.048   1.896   0.752
  835TIP3   OH2 2510   3.812   3.423   2.079
  835TIP3    H1 2511   3.793   3.348   2.135
  835TIP3    H2 2512   3.858   3.484   2.136
  836TIP3   OH2 2513   1.063   3.977   1.277
  836TIP3    H1 2514   1.013   4.058   1.264
  836TIP3    H2 2515   1.111   3.966   1.195
  837TIP3   OH2 2516   0.534   0.648   1.322
  837TIP3    H1 2517   0.523   0.739   1.347
  837TIP3    H2 2518   0.486   0.640   1.239
  838TIP3   OH2 2519   5.457   4.663   0.855
  838TIP3    H1 2520   5.363   4.657   0.871
  838TIP3    H2 2521   5.497   4.645   0.940
  839TIP3   OH2 2522   3.594   4.271   0.604
  839TIP3    H1 2523   3.640   4.230   0.677
  839TIP3    H2 2524   3.538   4.201   0.569
  840TIP3   OH2 2525   1.918   1.385   4.966
  840TIP3    H1 2526   1.834   1.341   4.973
  840TIP3    H2 2527   1.902   1.474   4.997
  841TIP3   OH2 2528   1.835   0.884   0.829
  841TIP3    H1 2529   1.740   0.875   0.843
  841TIP3    H2 2530   1.859   0.961   0.881
  842TIP3   OH2 2531   5.464   2.346   1.954
  842TIP3    H1 2532   5.386   2.402   1.951
  842TIP3    H2 2533   5.441   2.270   1.900
  843TIP3   OH2 2534   2.993   4.570   2.358
  843TIP3    H1 2535   2.999   4.521   2.276
  843TIP3    H2 2536   3.047   4.521   2.419
  844TIP3   OH2 2537   3.995   1.891   2.183
  844TIP3    H1 2538   4.062   1.834   2.221
  844TIP3    H2 2539   4.045   1.960   2.138
  845TIP3   OH2 2540   1.089   5.786   3.862
  845TIP3    H1 2541   1.148   5.857   3.838
  845TIP3    H2 2542   1.008   5.804   3.814
  846TIP3   OH2 2543   0.153   0.553   0.590
  846TIP3    H1 2544   0.161   0.649   0.586
  846TIP3    H2 2545   0.223   0.526   0.650
  847TIP3   OH2 2546   1.682   5.495   0.088
  847TIP3    H1 2547   1.596   5.473   0.125
  847TIP3    H2 2548   1.661   5.553   0.015
  848TIP3   OH2 2549   3.168   4.809   3.186
  848TIP3    H1 2550   3.219   4.887   3.167
  848TIP3    H2 2551   3.077   4.837   3.179
  849TIP3   OH2 2552   1.814   1.137   2.607
  849TIP3    H1 2553   1.832   1.045   2.587
  849TIP3    H2 2554   1.897   1.181   2.590
  850TIP3   OH2 2555   1.914   1.802   1.397
  850TIP3    H1 2556   1.960   1.779   1.478
  850TIP3    H2 2557   1.849   1.867   1.425
  851TIP3   OH2 2558   0.361   1.568   0.207
  851TIP3    H1 2559   0.405   1.617   0.277
  851TIP3    H2 2560   0.382   1.476   0.226
  852TIP3   OH2 2561   0.735   0.046   0.813
  852TIP3    H1 2562   0.812   0.010   0.857
  852TIP3    H2 2563   0.693  -0.029   0.771
  853TIP3   OH2 2564   1.672   2.532   2.288
  853TIP3    H1 2565   1.609   2.512   2.219
  853TIP3    H2 2566   1.752   2.556   2.242
  854TIP3   OH2 2567   0.698   0.611   3.891
  854TIP3    H1 2568   0.622   0.667   3.880
  854TIP3    H2 2569   0.742   0.613   3.806
  855TIP3   OH2 2570   0.612   2.842   4.797
  855TIP3    H1 2571   0.631   2.812   4.885
  855TIP3    H2 2572   0.694   2.879   4.765
  856TIP3   OH2 2573   1.542   3.018   3.462
  856TIP3    H1 2574   1.488   3.071   3.404
  856TIP3    H2 2575   1.515   2.928   3.443
  857TIP3   OH2 2576   5.905   3.454   2.251
  857TIP3    H1 2577   5.848   3.378   2.242
  857TIP3    H2 2578   5.994   3.418   2.250
  858TIP3   OH2 2579   1.570   1.520   1.024
  858TIP3    H1 2580   1.600   1.449   1.080
  858TIP3    H2 2581   1.646   1.543   0.972
  859TIP3   OH2 2582   1.974   0.908   1.242
  859TIP3    H1 2583   2.053   0.857   1.222
  859TIP3    H2 2584   1.960   0.896   1.336
  860TIP3   OH2 2585   2.975   0.309   1.383
  860TIP3    H1 2586   2.901   0.306   1.322
  860TIP3    H2 2587   3.049   0.339   1.331
  861TIP3   OH2 2588   0.861   1.871   1.400
  861TIP3    H1 2589   0.904   1.845   1.481
  861TIP3    H2 2590   0.889   1.961   1.386
  862TIP3   OH2 2591   6.263   5.020   2.134
  862TIP3    H1 2592   6.189   5.037   2.075
  862TIP3    H2 2593   6.289   5.107   2.165
  863TIP3   OH2 2594   2.272   3.394   5.160
  863TIP3    H1 2595   2.242   3.417   5.072
  863TIP3    H2 2596   2.192   3.377   5.210
  864TIP3   OH2 2597   1.927   4.570   4.534
  864TIP3    H1 2598   2.001   4.560   4.474
  864TIP3    H2 2599   1.856   4.603   4.479
  865TIP3   OH2 2600   1.993   1.488   3.077
  865TIP3    H1 2601   1.988   1.505   3.171
  865TIP3    H2 2602   1.943   1.408   3.064
  866TIP3   OH2 2603   5.375   2.326   2.225
  866TIP3    H1 2604   5.357   2.237   2.256
  866TIP3    H2 2605   5.424   2.313   2.144
  867TIP3   OH2 2606   4.616   2.482   5.138
  867TIP3    H1 2607   4.686   2.434   5.183
  867TIP3    H2 2608   4.545   2.418   5.129
  868TIP3   OH2 2609   6.037   4.104   2.330
  868TIP3    H1 2610   5.943   4.110   2.350
  868TIP3    H2 2611   6.053   4.177   2.270
  869TIP3   OH2 2612   0.354   1.711   3.884
  869TIP3    H1 2613   0.303   1.772   3.936
  869TIP3    H2 2614   0.354   1.630   3.935
  870TIP3   OH2 2615   3.682   4.513   0.752
  870TIP3    H1 2616   3.632   4.441   0.715
  870TIP3    H2 2617   3.684   4.579   0.683
  871TIP3   OH2 2618   0.363   0.710   3.596
  871TIP3    H1 2619   0.278   0.710   3.552
  871TIP3    H2 2620   0.409   0.785   3.558
  872TIP3   OH2 2621   4.608   0.097   3.142
  872TIP3    H1 2622   4.661   0.027   3.181
  872TIP3    H2 2623   4.671   0.155   3.101
  873TIP3   OH2 2624   1.597   5.070   4.084
  873TIP3    H1 2625   1.556   5.132   4.024
  873TIP3    H2 2626   1.597   5.115   4.168
  874TIP3   OH2 2627   5.405   5.694   4.262
  874TIP3    H1 2628   5.389   5.699   4.356
  874TIP3    H2 2629   5.478   5.633   4.253
  875TIP3   OH2 2630   5.059   0.189   4.760
  875TIP3    H1 2631   5.095   0.147   4.837
  875TIP3    H2 2632   5.136   0.224   4.714
  876TIP3   OH2 2633   1.454   2.486   4.997
  876TIP3    H1 2634   1.470   2.546   5.070
  876TIP3    H2 2635   1.422   2.542   4.927
  877TIP3   OH2 2636   1.578   4.633   1.149
  877TIP3    H1 2637   1.493   4.634   1.106
  877TIP3    H2 2638   1.636   4.588   1.087
  878TIP3   OH2 2639   0.254   2.721   3.444
  878TIP3    H1 2640   0.312   2.789   3.479
  878TIP3    H2 2641   0.285   2.708   3.354
  879TIP3   OH2 2642   0.050   3.271   0.628
  879TIP3    H1 2643   0.143   3.251   0.632
  879TIP3    H2 2644   0.014   3.232   0.708
  880TIP3   OH2 2645   2.033   5.011   4.996
  880TIP3    H1 2646   2.095   4.942   5.021
  880TIP3    H2 2647   1.950   4.964   4.984
  881TIP3   OH2 2648   4.301   1.503   2.136
  881TIP3    H1 2649   4.209   1.508   2.161
  881TIP3    H2 2650   4.316   1.410   2.119
  882TIP3   OH2 2651   4.903   0.263   2.397
  882TIP3    H1 2652   4.869   0.234   2.313
  882TIP3    H2 2653   4.973   0.200   2.417
  883TIP3   OH2 2654   0.072   1.171   3.007
  883TIP3    H1 2655   0.108   1.179   2.919
  883TIP3    H2 2656   0.146   1.145   3.061
  884TIP3   OH2 2657   5.119   5.634   0.185
  884TIP3    H1 2658   5.205   5.676   0.176
  884TIP3    H2 2659   5.136   5.541   0.166
  885TIP3   OH2 2660   5.474   1.811   2.813
  885TIP3    H1 2661   5.556   1.795   2.860
  885TIP3    H2 2662   5.406   1.772   2.868
  886TIP3   OH2 2663   1.430   2.804   4.372
  886TIP3    H1 2664   1.457   2.718   4.340
  886TIP3    H2 2665   1.512   2.851   4.386
  887TIP3   OH2 2666   3.078   1.419   2.125
  887TIP3    H1 2667   2.999   1.366   2.136
  887TIP3    H2 2668   3.050   1.508   2.147
  888TIP3   OH2 2669   5.085   3.328   4.357
  888TIP3    H1 2670   5.077   3.385   4.280
  888TIP3    H2 2671   5.080   3.387   4.432
  889TIP3   OH2 2672   4.565   4.178   3.444
  889TIP3    H1 2673   4.574   4.186   3.539
  889TIP3    H2 2674   4.634   4.117   3.418
  890TIP3   OH2 2675   0.747   2.596   0.508
  890TIP3    H1 2676   0.690   2.577   0.583
  890TIP3    H2 2677   0.801   2.669   0.537
  891TIP3   OH2 2678   4.457   3.189   0.920
  891TIP3    H1 2679   4.382   3.136   0.892
  891TIP3    H2 2680   4.422   3.245   0.990
  892TIP3   OH2 2681   4.540   5.476   4.601
  892TIP3    H1 2682   4.456   5.521   4.610
  892TIP3    H2 2683   4.605   5.545   4.614
  893TIP3   OH2 2684   1.372   5.675   4.376
  893TIP3    H1 2685   1.352   5.737   4.446
  893TIP3    H2 2686   1.345   5.719   4.296
  894TIP3   OH2 2687   4.042   5.417   4.968
  894TIP3    H1 2688   4.004   5.439   4.882
  894TIP3    H2 2689   4.134   5.438   4.959
  895TIP3   OH2 2690   1.128   2.504   2.911
  895TIP3    H1 2691   1.184   2.557   2.855
  895TIP3    H2 2692   1.048   2.492   2.861
  896TIP3   OH2 2693   3.235   5.446   4.022
  896TIP3    H1 2694   3.259   5.379   4.087
  896TIP3    H2 2695   3.216   5.524   4.074
  897TIP3   OH2 2696   2.998   3.289   1.036
  897TIP3    H1 2697   2.953   3.206   1.056
  897TIP3    H2 2698   3.080   3.283   1.084
  898TIP3   OH2 2699   5.722   0.420   1.706
  898TIP3    H1 2700   5.681   0.361   1.770
  898TIP3    H2 2701   5.815   0.398   1.710
  899TIP3   OH2 2702   0.736   5.603   3.193
  899TIP3    H1 2703   0.720   5.515   3.225
  899TIP3    H2 2704   0.704   5.602   3.103
  900TIP3   OH2 2705   0.702   1.803   3.453
  900TIP3    H1 2706   0.674   1.745   3.383
  900TIP3    H2 2707   0.665   1.765   3.533
  901TIP3   OH2 2708   2.397   3.732   1.830
  901TIP3    H1 2709   2.345   3.786   1.889
  901TIP3    H2 2710   2.341   3.656   1.812
  902TIP3   OH2 2711   5.883   2.828   3.279
  902TIP3    H1 2712   5.879   2.780   3.362
  902TIP3    H2 2713   5.800   2.805   3.235
  903TIP3   OH2 2714   1.525   3.556   3.209
  903TIP3    H1 2715   1.616   3.584   3.203
  903TIP3    H2 2716   1.518   3.484   3.147
  904TIP3   OH2 2717   5.106   2.743   2.181
  904TIP3    H1 2718   5.067   2.828   2.200
  904TIP3    H2 2719   5.199   2.754   2.200
  905TIP3   OH2 2720   0.122   4.715   0.834
  905TIP3    H1 2721   0.150   4.806   0.822
  905TIP3    H2 2722   0.115   4.704   0.929
  906TIP3   OH2 2723   2.199   5.285   1.443
  906TIP3    H1 2724   2.292   5.263   1.454
  906TIP3    H2 2725   2.154   5.201   1.456
  907TIP3   OH2 2726   1.340   2.329   4.543
  907TIP3    H1 2727   1.297   2.402   4.498
  907TIP3    H2 2728   1.274   2.260   4.546
  908TIP3   OH2 2729   2.582   2.403   2.174
  908TIP3    H1 2730   2.614   2.469   2.112
  908TIP3    H2 2731   2.568   2.325   2.121
  909TIP3   OH2 2732   5.200   3.364   2.117
  909TIP3    H1 2733   5.128   3.372   2.055
  909TIP3    H2 2734   5.160   3.375   2.203
  910TIP3   OH2 2735   5.211   1.388   4.724
  910TIP3    H1 2736   5.149   1.327   4.684
  910TIP3    H2 2737   5.159   1.435   4.789
  911TIP3   OH2 2738   3.173   3.569   1.122
  911TIP3    H1 2739   3.241   3.507   1.149
  911TIP3    H2 2740   3.205   3.607   1.040
  912TIP3   OH2 2741   0.814   2.993   0.384
  912TIP3    H1 2742   0.725   3.028   0.384
  912TIP3    H2 2743   0.818   2.938   0.462
  913TIP3   OH2 2744   5.983   5.832   0.149
  913TIP3    H1 2745   6.022   5.777   0.217
  913TIP3    H2 2746   5.974   5.774   0.073
  914TIP3   OH2 2747   5.989   1.662   2.612
  914TIP3    H1 2748   6.021   1.640   2.699
  914TIP3    H2 2749   6.060   1.712   2.572
  915TIP3   OH2 2750   2.463   0.143   0.562
  915TIP3    H1 2751   2.388   0.194   0.531
  915TIP3    H2 2752   2.533   0.207   0.570
  916TIP3   OH2 2753   4.886   1.159   0.143
  916TIP3    H1 2754   4.929   1.128   0.064
  916TIP3    H2 2755   4.928   1.243   0.162
  917TIP3   OH2 2756   2.084   0.719   3.809
  917TIP3    H1 2757   2.035   0.798   3.833
  917TIP3    H2 2758   2.054   0.697   3.721
  918TIP3   OH2 2759   1.896   0.934   3.840
  918TIP3    H1 2760   1.886   1.029   3.850
  918TIP3    H2 2761   1.901   0.921   3.745
  919TIP3   OH2 2762   6.014   2.028   3.843
  919TIP3    H1 2763   6.003   2.090   3.771
  919TIP3    H2 2764   5.987   1.944   3.808
  920TIP3   OH2 2765   5.497   1.587   1.146
  920TIP3    H1 2766   5.465   1.622   1.229
  920TIP3    H2 2767   5.488   1.492   1.154
  921TIP3   OH2 2768   6.011   1.629   1.277
  921TIP3    H1 2769   5.955   1.571   1.328
  921TIP3    H2 2770   6.018   1.588   1.191
  922TIP3   OH2 2771   5.930   2.993   1.713
  922TIP3    H1 2772   5.946   2.917   1.769
  922TIP3    H2 2773   5.997   2.988   1.645
  923TIP3   OH2 2774   5.845   5.281   3.631
  923TIP3    H1 2775   5.825   5.194   3.597
  923TIP3    H2 2776   5.934   5.299   3.602
  924TIP3   OH2 2777   1.586   4.071   2.742
  924TIP3    H1 2778   1.670   4.045   2.704
  924TIP3    H2 2779   1.534   3.990   2.741
  925TIP3   OH2 2780   0.563   0.003   4.835
  925TIP3    H1 2781   0.530   0.093   4.831
  925TIP3    H2 2782   0.488  -0.051   4.807
  926TIP3   OH2 2783   5.423   3.561   3.234
  926TIP3    H1 2784   5.449   3.474   3.203
  926TIP3    H2 2785   5.463   3.569   3.320
  927TIP3   OH2 2786   4.710   4.393   4.141
  927TIP3    H1 2787   4.800   4.371   4.115
  927TIP3    H2 2788   4.681   4.454   4.073
  928TIP3   OH2 2789   4.750   4.784   1.544
  928TIP3    H1 2790   4.738   4.870   1.504
  928TIP3    H2 2791   4.725   4.722   1.475
  929TIP3   OH2 2792   1.979   1.889   2.059
  929TIP3    H1 2793   1.949   1.933   1.979
  929TIP3    H2 2794   1.990   1.797   2.032
  930TIP3   OH2 2795   6.291   1.801   3.334
  930TIP3    H1 2796   6.233   1.728   3.314
  930TIP3    H2 2797   6.367   1.788   3.276
  931TIP3   OH2 2798   5.692   1.516   2.267
  931TIP3    H1 2799   5.609   1.554   2.240
  931TIP3    H2 2800   5.701   1.542   2.359
  932TIP3   OH2 2801   3.751   0.954   3.561
  932TIP3    H1 2802   3.701   1.033   3.582
  932TIP3    H2 2803   3.816   0.984   3.498
  933TIP3   OH2 2804   5.165   2.808   4.232
  933TIP3    H1 2805   5.073   2.831   4.221
  933TIP3    H2 2806   5.213   2.885   4.202
  934TIP3   OH2 2807   2.559   4.636   3.872
  934TIP3    H1 2808   2.628   4.639   3.938
  934TIP3    H2 2809   2.486   4.594   3.916
  935TIP3   OH2 2810   4.904   3.733   4.776
  935TIP3    H1 2811   4.826   3.737   4.832
  935TIP3    H2 2812   4.972   3.696   4.833
  936TIP3   OH2 2813   5.660   0.391   1.311
  936TIP3    H1 2814   5.701   0.381   1.225
  936TIP3    H2 2815   5.734   0.396   1.372
  937TIP3   OH2 2816   0.401   1.971   3.747
  937TIP3    H1 2817   0.481   1.968   3.800
  937TIP3    H2 2818   0.367   1.882   3.749
  938TIP3   OH2 2819   3.533   1.862   5.156
  938TIP3    H1 2820   3.592   1.897   5.223
  938TIP3    H2 2821   3.467   1.930   5.143
  939TIP3   OH2 2822   3.749   2.253   2.711
  939TIP3    H1 2823   3.660   2.253   2.744
  939TIP3    H2 2824   3.745   2.206   2.627
  940TIP3   OH2 2825   5.434   4.616   2.936
  940TIP3    H1 2826   5.469   4.539   2.981
  940TIP3    H2 2827   5.381   4.660   3.003
  941TIP3   OH2 2828   4.977   3.788   2.636
  941TIP3    H1 2829   5.056   3.770   2.688
  941TIP3    H2 2830   5.007   3.849   2.568
  942TIP3   OH2 2831   0.419   5.554   2.132
  942TIP3    H1 2832   0.462   5.605   2.064
  942TIP3    H2 2833   0.375   5.483   2.084
  943TIP3   OH2 2834   3.741   1.852   4.267
  943TIP3    H1 2835   3.804   1.788   4.300
  943TIP3    H2 2836   3.733   1.916   4.339
  944TIP3   OH2 2837   1.156   1.228   4.042
  944TIP3    H1 2838   1.117   1.279   3.970
  944TIP3    H2 2839   1.138   1.280   4.120
  945TIP3   OH2 2840   3.812   5.833   0.586
  945TIP3    H1 2841   3.848   5.791   0.664
  945TIP3    H2 2842   3.741   5.888   0.619
  946TIP3   OH2 2843   6.065   0.756   4.665
  946TIP3    H1 2844   6.082   0.773   4.572
  946TIP3    H2 2845   5.982   0.799   4.683
  947TIP3   OH2 2846   0.827   3.158   4.679
  947TIP3    H1 2847   0.832   3.202   4.764
  947TIP3    H2 2848   0.788   3.224   4.621
  948TIP3   OH2 2849   0.059   5.529   2.911
  948TIP3    H1 2850   0.108   5.611   2.914
  948TIP3    H2 2851  -0.020   5.547   2.962
  949TIP3   OH2 2852   3.988   3.453   4.604
  949TIP3    H1 2853   4.067   3.494   4.639
  949TIP3    H2 2854   3.928   3.526   4.589
  950TIP3   OH2 2855   1.496   1.388   2.969
  950TIP3    H1 2856   1.532   1.357   2.886
  950TIP3    H2 2857   1.435   1.457   2.944
  951TIP3   OH2 2858   0.886   1.515   0.106
  951TIP3    H1 2859   0.975   1.483   0.121
  951TIP3    H2 2860   0.898   1.607   0.083
  952TIP3   OH2 2861   3.966   3.901   2.303
  952TIP3    H1 2862   3.872   3.912   2.291
  952TIP3    H2 2863   3.999   3.877   2.216
  953TIP3   OH2 2864   4.633   3.452   2.278
  953TIP3    H1 2865   4.656   3.544   2.290
  953TIP3    H2 2866   4.708   3.414   2.233
  954TIP3   OH2 2867   1.771   4.941   1.160
  954TIP3    H1 2868   1.689   4.963   1.116
  954TIP3    H2 2869   1.811   4.875   1.104
  955TIP3   OH2 2870   6.189   1.480   2.397
  955TIP3    H1 2871   6.127   1.503   2.328
  955TIP3    H2 2872   6.214   1.564   2.436
  956TIP3   OH2 2873   5.675   4.314   5.110
  956TIP3    H1 2874   5.729   4.286   5.036
  956TIP3    H2 2875   5.710   4.400   5.134
  957TIP3   OH2 2876   4.271   5.305   4.710
  957TIP3    H1 2877   4.198   5.364   4.691
  957TIP3    H2 2878   4.307   5.282   4.624
  958TIP3   OH2 2879   2.484   4.491   0.024
  958TIP3    H1 2880   2.519   4.574   0.057
  958TIP3    H2 2881   2.549   4.426   0.048
  959TIP3   OH2 2882   5.882   0.483   2.035
  959TIP3    H1 2883   5.827   0.541   1.983
  959TIP3    H2 2884   5.856   0.501   2.126
  960TIP3   OH2 2885   4.785   1.433   2.859
  960TIP3    H1 2886   4.755   1.447   2.948
  960TIP3    H2 2887   4.780   1.519   2.818
  961TIP3   OH2 2888   0.315   5.690   4.046
  961TIP3    H1 2889   0.219   5.686   4.051
  961TIP3    H2 2890   0.344   5.652   4.129
  962TIP3   OH2 2891   0.477   3.499   2.754
  962TIP3    H1 2892   0.505   3.478   2.843
  962TIP3    H2 2893   0.555   3.486   2.700
  963TIP3   OH2 2894   2.003   0.595   0.564
  963TIP3    H1 2895   2.015   0.587   0.469
  963TIP3    H2 2896   2.033   0.511   0.599
  964TIP3   OH2 2897   0.753   0.851   0.927
  964TIP3    H1 2898   0.828   0.844   0.987
  964TIP3    H2 2899   0.736   0.760   0.901
  965TIP3   OH2 2900   5.059   1.614   2.030
  965TIP3    H1 2901   5.106   1.587   1.951
  965TIP3    H2 2902   5.127   1.628   2.095
  966TIP3   OH2 2903   2.539   2.304   3.745
  966TIP3    H1 2904   2.565   2.374   3.805
  966TIP3    H2 2905   2.605   2.305   3.676
  967TIP3   OH2 2906   4.001   2.508   3.895
  967TIP3    H1 2907   4.081   2.541   3.854
  967TIP3    H2 2908   3.963   2.585   3.938
  968TIP3   OH2 2909   1.038   2.289   4.215
  968TIP3    H1 2910   1.088   2.371   4.221
  968TIP3    H2 2911   1.105   2.223   4.196
  969TIP3   OH2 2912   4.446   3.127   4.462
  969TIP3    H1 2913   4.358   3.165   4.456
  969TIP3    H2 2914   4.431   3.032   4.456
  970TIP3   OH2 2915   5.463   5.012   4.477
  970TIP3    H1 2916   5.541   5.000   4.423
  970TIP3    H2 2917   5.459   5.106   4.493
  971TIP3   OH2 2918   0.553   0.840   3.388
  971TIP3    H1 2919   0.625   0.878   3.338
  971TIP3    H2 2920   0.475   0.886   3.357
  972TIP3   OH2 2921   3.068   1.306   3.030
  972TIP3    H1 2922   3.034   1.334   2.945
  972TIP3    H2 2923   2.992   1.266   3.073
  973TIP3   OH2 2924   0.667   2.595   2.803
  973TIP3    H1 2925   0.629   2.643   2.729
  973TIP3    H2 2926   0.625   2.509   2.799
  974TIP3   OH2 2927   2.418   0.165   1.265
  974TIP3    H1 2928   2.476   0.126   1.199
  974TIP3    H2 2929   2.473   0.176   1.342
  975TIP3   OH2 2930   5.162   3.876   3.985
  975TIP3    H1 2931   5.151   3.961   4.029
  975TIP3    H2 2932   5.255   3.874   3.960
  976TIP3   OH2 2933   4.617   2.736   3.777
  976TIP3    H1 2934   4.691   2.753   3.719
  976TIP3    H2 2935   4.543   2.724   3.719
  977TIP3   OH2 2936   2.041   2.613   2.857
  977TIP3    H1 2937   2.058   2.701   2.821
  977TIP3    H2 2938   1.946   2.601   2.849
  978TIP3   OH2 2939   2.146   2.546   0.133
  978TIP3    H1 2940   2.211   2.477   0.143
  978TIP3    H2 2941   2.064   2.500   0.116
  979TIP3   OH2 2942   5.327   4.437   5.135
  979TIP3    H1 2943   5.411   4.468   5.103
  979TIP3    H2 2944   5.265   4.505   5.109
  980TIP3   OH2 2945   5.933   2.076   3.096
  980TIP3    H1 2946   5.962   2.056   3.007
  980TIP3    H2 2947   5.926   2.172   3.097
  981TIP3   OH2 2948   0.900   3.721   4.720
  981TIP3    H1 2949   0.929   3.727   4.811
  981TIP3    H2 2950   0.954   3.650   4.684
  982TIP3   OH2 2951   4.419   4.269   0.952
  982TIP3    H1 2952   4.452   4.203   0.892
  982TIP3    H2 2953   4.497   4.320   0.977
  983TIP3   OH2 2954   5.708   5.260   4.390
  983TIP3    H1 2955   5.802   5.271   4.398
  983TIP3    H2 2956   5.694   5.166   4.403
  984TIP3   OH2 2957   1.800   5.511   0.336
  984TIP3    H1 2958   1.758   5.434   0.374
  984TIP3    H2 2959   1.782   5.504   0.242
  985TIP3   OH2 2960   5.989   2.284   2.111
  985TIP3    H1 2961   5.904   2.325   2.096
  985TIP3    H2 2962   6.053   2.350   2.084
  986TIP3   OH2 2963   6.106   1.300   1.977
  986TIP3    H1 2964   6.188   1.330   2.017
  986TIP3    H2 2965   6.038   1.341   2.031
  987TIP3   OH2 2966   3.291   3.140   3.246
  987TIP3    H1 2967   3.327   3.051   3.243
  987TIP3    H2 2968   3.228   3.137   3.318
  988TIP3   OH2 2969   0.247   1.891   4.581
  988TIP3    H1 2970   0.165   1.937   4.602
  988TIP3    H2 2971   0.306   1.961   4.552
  989TIP3   OH2 2972   1.381   0.428   0.372
  989TIP3    H1 2973   1.464   0.429   0.419
  989TIP3    H2 2974   1.322   0.483   0.424
  990TIP3   OH2 2975   5.924   2.328   0.822
  990TIP3    H1 2976   5.878   2.325   0.906
  990TIP3    H2 2977   5.997   2.388   0.838
  991TIP3   OH2 2978   5.623   5.095   2.280
  991TIP3    H1 2979   5.552   5.147   2.241
  991TIP3    H2 2980   5.700   5.151   2.273
  992TIP3   OH2 2981   4.016   4.397   2.452
  992TIP3    H1 2982   3.979   4.339   2.385
  992TIP3    H2 2983   4.072   4.340   2.504
  993TIP3   OH2 2984   1.225   1.510   1.924
  993TIP3    H1 2985   1.294   1.457   1.965
  993TIP3    H2 2986   1.190   1.563   1.997
  994TIP3   OH2 2987   2.040   2.070   3.764
  994TIP3    H1 2988   1.950   2.082   3.736
  994TIP3    H2 2989   2.089   2.139   3.719
  995TIP3   OH2 2990   0.503   5.726   2.968
  995TIP3    H1 2991   0.446   5.692   3.037
  995TIP3    H2 2992   0.487   5.669   2.893
  996TIP3   OH2 2993   0.471   0.769   4.444
  996TIP3    H1 2994   0.536   0.805   4.504
  996TIP3    H2 2995   0.438   0.845   4.396
  997TIP3   OH2 2996   5.719   0.469   3.701
  997TIP3    H1 2997   5.802   0.514   3.692
  997TIP3    H2 2998   5.743   0.381   3.731
  998TIP3   OH2 2999   5.371   4.776   1.814
  998TIP3    H1 3000   5.286   4.807   1.782
  998TIP3    H2 3001   5.366   4.783   1.909
  999TIP3   OH2 3002   2.518   2.547   2.694
  999TIP3    H1 3003   2.506   2.465   2.741
  999TIP3    H2 3004   2.584   2.595   2.744
 1000TIP3   OH2 3005   2.602   2.634   3.182
 1000TIP3    H1 3006   2.667   2.575   3.143
 1000TIP3    H2 3007   2.632   2.647   3.272
 1001TIP3   OH2 3008   5.244   3.667   1.867
 1001TIP3    H1 3009   5.225   3.674   1.961
 1001TIP3    H2 3010   5.192   3.735   1.826
 1002TIP3   OH2 3011   2.130   0.537   4.795
 1002TIP3    H1 3012   2.221   0.508   4.803
 1002TIP3    H2 3013   2.136   0.627   4.763
 1003TIP3   OH2 3014   3.650   1.274   1.147
 1003TIP3    H1 3015   3.702   1.257   1.225
 1003TIP3    H2 3016   3.661   1.368   1.131
 1004TIP3   OH2 3017   4.005   0.268   1.204
 1004TIP3    H1 3018   4.009   0.176   1.179
 1004TIP3    H2 3019   3.953   0.309   1.135
 1005TIP3   OH2 3020   1.039   5.013   4.342
 1005TIP3    H1 3021   1.054   4.982   4.252
 1005TIP3    H2 3022   1.117   5.065   4.362
 1006TIP3   OH2 3023   3.882   1.784   1.050
 1006TIP3    H1 3024   3.839   1.779   0.965
 1006TIP3    H2 3025   3.859   1.870   1.084
 1007TIP3   OH2 3026   5.385   2.527   3.622
 1007TIP3    H1 3027   5.442   2.484   3.686
 1007TIP3    H2 3028   5.365   2.459   3.559
 1008TIP3   OH2 3029   2.041   3.912   1.095
 1008TIP3    H1 3030   2.098   3.919   1.019
 1008TIP3    H2 3031   1.998   3.997   1.101
 1009TIP3   OH2 3032   1.169   2.419   3.184
 1009TIP3    H1 3033   1.150   2.433   3.092
 1009TIP3    H2 3034   1.086   2.387   3.221
 1010TIP3   OH2 3035   2.715   1.676   2.848
 1010TIP3    H1 3036   2.761   1.741   2.795
 1010TIP3    H2 3037   2.649   1.640   2.790
 1011TIP3   OH2 3038   5.348   0.346   0.041
 1011TIP3    H1 3039   5.373   0.377   0.128
 1011TIP3    H2 3040   5.403   0.269   0.027
 1012TIP3   OH2 3041   0.575   1.139   4.530
 1012TIP3    H1 3042   0.553   1.199   4.602
 1012TIP3    H2 3043   0.515   1.164   4.460
 1013TIP3   OH2 3044   0.399   3.121   1.762
 1013TIP3    H1 3045   0.339   3.046   1.755
 1013TIP3    H2 3046   0.454   3.100   1.837
 1014TIP3   OH2 3047   5.187   3.241   2.757
 1014TIP3    H1 3048   5.255   3.190   2.802
 1014TIP3    H2 3049   5.232   3.280   2.683
 1015TIP3   OH2 3050   3.358   2.807   5.086
 1015TIP3    H1 3051   3.435   2.845   5.127
 1015TIP3    H2 3052   3.329   2.872   5.023
 1016TIP3   OH2 3053   4.023   4.408   0.603
 1016TIP3    H1 3054   3.989   4.441   0.686
 1016TIP3    H2 3055   4.116   4.392   0.620
 1017TIP3   OH2 3056   0.704   4.395   0.065
 1017TIP3    H1 3057   0.755   4.418   0.142
 1017TIP3    H2 3058   0.658   4.315   0.090
 1018TIP3   OH2 3059   2.369   0.091   2.761
 1018TIP3    H1 3060   2.296   0.148   2.739
 1018TIP3    H2 3061   2.397   0.054   2.678
 1019TIP3   OH2 3062   2.397   2.432   3.448
 1019TIP3    H1 3063   2.472   2.483   3.479
 1019TIP3    H2 3064   2.334   2.498   3.417
 1020TIP3   OH2 3065   5.954   4.439   2.524
 1020TIP3    H1 3066   5.955   4.348   2.554
 1020TIP3    H2 3067   5.892   4.439   2.452
 1021TIP3   OH2 3068   5.116   2.283   0.650
 1021TIP3    H1 3069   5.070   2.351   0.699
 1021TIP3    H2 3070   5.201   2.322   0.629
 1022TIP3   OH2 3071   2.330   1.414   2.030
 1022TIP3    H1 3072   2.245   1.449   2.055
 1022TIP3    H2 3073   2.317   1.383   1.940
 1023TIP3   OH2 3074   5.347   5.790   0.490
 1023TIP3    H1 3075   5.266   5.770   0.444
 1023TIP3    H2 3076   5.387   5.860   0.438
 1024TIP3   OH2 3077   5.819   1.121   0.198
 1024TIP3    H1 3078   5.763   1.123   0.276
 1024TIP3    H2 3079   5.785   1.049   0.145
 1025TIP3   OH2 3080   4.636   0.787   3.510
 1025TIP3    H1 3081   4.573   0.844   3.467
 1025TIP3    H2 3082   4.717   0.798   3.459
 1026TIP3   OH2 3083   2.092   1.307   1.131
 1026TIP3    H1 3084   2.159   1.373   1.149
 1026TIP3    H2 3085   2.042   1.300   1.212
 1027TIP3   OH2 3086   0.075   0.912   1.813
 1027TIP3    H1 3087   0.060   0.830   1.765
 1027TIP3    H2 3088  -0.012   0.951   1.822
 1028TIP3   OH2 3089   2.681   3.422   1.710
 1028TIP3    H1 3090   2.592   3.443   1.740
 1028TIP3    H2 3091   2.676   3.331   1.682
 1029TIP3   OH2 3092   3.263   5.311   0.617
 1029TIP3    H1 3093   3.349   5.270   0.610
 1029TIP3    H2 3094   3.201   5.238   0.612
 1030TIP3   OH2 3095   2.805   2.551   4.523
 1030TIP3    H1 3096   2.802   2.607   4.446
 1030TIP3    H2 3097   2.859   2.599   4.585
 1031TIP3   OH2 3098   0.643   0.290   4.800
 1031TIP3    H1 3099   0.661   0.355   4.733
 1031TIP3    H2 3100   0.679   0.327   4.881
 1032TIP3   OH2 3101   1.177   2.235   1.798
 1032TIP3    H1 3102   1.125   2.225   1.718
 1032TIP3    H2 3103   1.267   2.246   1.767
 1033TIP3   OH2 3104   4.910   0.922   2.835
 1033TIP3    H1 3105   4.875   0.952   2.751
 1033TIP3    H2 3106   5.003   0.906   2.819
 1034TIP3   OH2 3107   4.413   1.932   0.779
 1034TIP3    H1 3108   4.412   2.012   0.831
 1034TIP3    H2 3109   4.468   1.872   0.828
 1035TIP3   OH2 3110   1.736   1.802   3.662
 1035TIP3    H1 3111   1.643   1.824   3.665
 1035TIP3    H2 3112   1.774   1.846   3.738
 1036TIP3   OH2 3113   4.995   3.424   1.927
 1036TIP3    H1 3114   4.973   3.511   1.894
 1036TIP3    H2 3115   5.027   3.377   1.850
 1037TIP3   OH2 3116   2.673   5.206   5.075
 1037TIP3    H1 3117   2.640   5.196   5.164
 1037TIP3    H2 3118   2.595   5.200   5.020
 1038TIP3   OH2 3119   4.935   4.922   3.949
 1038TIP3    H1 3120   4.861   4.883   3.905
 1038TIP3    H2 3121   5.011   4.895   3.897
 1039TIP3   OH2 3122   1.581   1.891   1.191
 1039TIP3    H1 3123   1.632   1.841   1.126
 1039TIP3    H2 3124   1.578   1.833   1.267
 1040TIP3   OH2 3125   1.237   0.660   4.659
 1040TIP3    H1 3126   1.185   0.692   4.585
 1040TIP3    H2 3127   1.195   0.698   4.736
 1041TIP3   OH2 3128   0.244   5.468   4.994
 1041TIP3    H1 3129   0.217   5.402   5.058
 1041TIP3    H2 3130   0.168   5.479   4.937
 1042TIP3   OH2 3131   4.977   2.537   3.261
 1042TIP3    H1 3132   4.944   2.608   3.316
 1042TIP3    H2 3133   4.940   2.458   3.301
 1043TIP3   OH2 3134   1.216   3.326   2.458
 1043TIP3    H1 3135   1.206   3.258   2.524
 1043TIP3    H2 3136   1.127   3.347   2.431
 1044TIP3   OH2 3137   1.203   3.579   0.143
 1044TIP3    H1 3138   1.109   3.594   0.153
 1044TIP3    H2 3139   1.230   3.542   0.227
 1045TIP3   OH2 3140   5.886   2.695   3.524
 1045TIP3    H1 3141   5.826   2.637   3.571
 1045TIP3    H2 3142   5.963   2.700   3.581
 1046TIP3   OH2 3143   1.191   5.875   0.872
 1046TIP3    H1 3144   1.157   5.852   0.785
 1046TIP3    H2 3145   1.132   5.944   0.903
 1047TIP3   OH2 3146   2.231   3.249   0.469
 1047TIP3    H1 3147   2.201   3.332   0.431
 1047TIP3    H2 3148   2.235   3.189   0.395
 1048TIP3   OH2 3149   0.237   5.249   4.071
 1048TIP3    H1 3150   0.295   5.176   4.093
 1048TIP3    H2 3151   0.260   5.318   4.132
 1049TIP3   OH2 3152   0.456   3.809   1.582
 1049TIP3    H1 3153   0.439   3.806   1.676
 1049TIP3    H2 3154   0.545   3.776   1.573
 1050TIP3   OH2 3155   1.437   5.296   3.047
 1050TIP3    H1 3156   1.529   5.280   3.069
 1050TIP3    H2 3157   1.440   5.350   2.968
 1051TIP3   OH2 3158   1.222   4.166   2.734
 1051TIP3    H1 3159   1.283   4.229   2.696
 1051TIP3    H2 3160   1.277   4.091   2.759
 1052TIP3   OH2 3161   2.985   5.511   2.099
 1052TIP3    H1 3162   3.041   5.541   2.028
 1052TIP3    H2 3163   3.045   5.492   2.170
 1053TIP3   OH2 3164   1.586   3.076   2.146
 1053TIP3    H1 3165   1.498   3.096   2.178
 1053TIP3    H2 3166   1.631   3.040   2.223
 1054TIP3   OH2 3167   1.282   5.065   3.333
 1054TIP3    H1 3168   1.285   5.156   3.303
 1054TIP3    H2 3169   1.211   5.063   3.398
 1055TIP3   OH2 3170   0.586   2.395   1.867
 1055TIP3    H1 3171   0.501   2.352   1.876
 1055TIP3    H2 3172   0.623   2.357   1.787
 1056TIP3   OH2 3173   4.605   5.087   2.017
 1056TIP3    H1 3174   4.616   5.163   2.073
 1056TIP3    H2 3175   4.511   5.071   2.016
 1057TIP3   OH2 3176   2.644   2.262   0.100
 1057TIP3    H1 3177   2.669   2.293   0.013
 1057TIP3    H2 3178   2.692   2.181   0.112
 1058TIP3   OH2 3179   1.577   3.666   0.450
 1058TIP3    H1 3180   1.619   3.617   0.520
 1058TIP3    H2 3181   1.646   3.679   0.385
 1059TIP3   OH2 3182   5.856   1.399   3.410
 1059TIP3    H1 3183   5.829   1.467   3.348
 1059TIP3    H2 3184   5.808   1.321   3.382
 1060TIP3   OH2 3185   5.696   4.012   1.564
 1060TIP3    H1 3186   5.692   4.047   1.475
 1060TIP3    H2 3187   5.696   4.089   1.620
 1061TIP3   OH2 3188   1.596   0.045   3.130
 1061TIP3    H1 3189   1.521   0.007   3.176
 1061TIP3    H2 3190   1.645   0.091   3.199
 1062TIP3   OH2 3191   4.182   3.791   4.013
 1062TIP3    H1 3192   4.202   3.766   3.922
 1062TIP3    H2 3193   4.169   3.885   4.010
 1063TIP3   OH2 3194   0.812   2.663   0.956
 1063TIP3    H1 3195   0.790   2.715   0.878
 1063TIP3    H2 3196   0.746   2.594   0.957
 1064TIP3   OH2 3197   2.050   2.715   1.425
 1064TIP3    H1 3198   2.131   2.675   1.458
 1064TIP3    H2 3199   2.072   2.743   1.336
 1065TIP3   OH2 3200   1.997   5.774   4.270
 1065TIP3    H1 3201   2.036   5.687   4.278
 1065TIP3    H2 3202   1.989   5.805   4.360
 1066TIP3   OH2 3203   4.331   2.355   2.472
 1066TIP3    H1 3204   4.365   2.270   2.499
 1066TIP3    H2 3205   4.351   2.360   2.378
 1067TIP3   OH2 3206   4.464   0.198   4.600
 1067TIP3    H1 3207   4.475   0.195   4.695
 1067TIP3    H2 3208   4.435   0.287   4.582
 1068TIP3   OH2 3209   1.945   3.083   1.194
 1068TIP3    H1 3210   1.999   3.147   1.239
 1068TIP3    H2 3211   1.860   3.088   1.238
 1069TIP3   OH2 3212   4.380   2.439   2.836
 1069TIP3    H1 3213   4.322   2.370   2.870
 1069TIP3    H2 3214   4.417   2.479   2.915
 1070TIP3   OH2 3215   5.067   3.777   3.095
 1070TIP3    H1 3216   5.122   3.704   3.067
 1070TIP3    H2 3217   5.129   3.845   3.121
 1071TIP3   OH2 3218   2.077   3.454   2.634
 1071TIP3    H1 3219   2.010   3.418   2.692
 1071TIP3    H2 3220   2.050   3.545   2.620
 1072TIP3   OH2 3221   2.817   5.173   4.246
 1072TIP3    H1 3222   2.883   5.234   4.279
 1072TIP3    H2 3223   2.772   5.222   4.177
 1073TIP3   OH2 3224   1.465   0.517   5.066
 1073TIP3    H1 3225   1.482   0.440   5.120
 1073TIP3    H2 3226   1.377   0.501   5.029
 1074TIP3   OH2 3227   1.170   3.821   3.944
 1074TIP3    H1 3228   1.077   3.804   3.959
 1074TIP3    H2 3229   1.200   3.867   4.022
 1075TIP3   OH2 3230   1.670   4.345   3.265
 1075TIP3    H1 3231   1.667   4.250   3.277
 1075TIP3    H2 3232   1.582   4.375   3.289
 1076TIP3   OH2 3233   4.702   3.015   3.354
 1076TIP3    H1 3234   4.618   2.969   3.350
 1076TIP3    H2 3235   4.686   3.091   3.409
 1077TIP3   OH2 3236   5.977   3.387   1.002
 1077TIP3    H1 3237   5.990   3.450   1.073
 1077TIP3    H2 3238   6.039   3.317   1.022
 1078TIP3   OH2 3239   4.350   2.630   1.014
 1078TIP3    H1 3240   4.342   2.576   1.092
 1078TIP3    H2 3241   4.267   2.617   0.968
 1079TIP3   OH2 3242   4.399   3.455   2.540
 1079TIP3    H1 3243   4.328   3.396   2.512
 1079TIP3    H2 3244   4.418   3.508   2.463
 1080TIP3   OH2 3245   5.513   6.000   1.524
 1080TIP3    H1 3246   5.553   5.999   1.438
 1080TIP3    H2 3247   5.551   5.925   1.570
 1081TIP3   OH2 3248   3.665   2.730   4.185
 1081TIP3    H1 3249   3.666   2.714   4.091
 1081TIP3    H2 3250   3.711   2.654   4.223
 1082TIP3   OH2 3251   1.404   5.730   0.087
 1082TIP3    H1 3252   1.465   5.802   0.080
 1082TIP3    H2 3253   1.398   5.712   0.181
 1083TIP3   OH2 3254   0.714   5.275   0.926
 1083TIP3    H1 3255   0.725   5.198   0.982
 1083TIP3    H2 3256   0.695   5.347   0.987
 1084TIP3   OH2 3257   3.434   3.140   0.362
 1084TIP3    H1 3258   3.419   3.233   0.379
 1084TIP3    H2 3259   3.388   3.095   0.433
 1085TIP3   OH2 3260   4.634   5.614   2.601
 1085TIP3    H1 3261   4.707   5.553   2.608
 1085TIP3    H2 3262   4.673   5.694   2.567
 1086TIP3   OH2 3263   2.892   1.319   2.441
 1086TIP3    H1 3264   2.863   1.316   2.350
 1086TIP3    H2 3265   2.932   1.234   2.457
 1087TIP3   OH2 3266   0.039   0.923   0.342
 1087TIP3    H1 3267   0.101   0.878   0.285
 1087TIP3    H2 3268   0.023   1.007   0.299
 1088TIP3   OH2 3269   6.185   2.230   1.047
 1088TIP3    H1 3270   6.098   2.189   1.046
 1088TIP3    H2 3271   6.236   2.176   1.107
 1089TIP3   OH2 3272   3.463   0.348   3.074
 1089TIP3    H1 3273   3.391   0.400   3.110
 1089TIP3    H2 3274   3.469   0.376   2.983
 1090TIP3   OH2 3275   1.243   0.431   4.950
 1090TIP3    H1 3276   1.180   0.371   4.910
 1090TIP3    H2 3277   1.303   0.453   4.880
 1091TIP3   OH2 3278   2.130   1.066   3.101
 1091TIP3    H1 3279   2.132   0.973   3.076
 1091TIP3    H2 3280   2.209   1.078   3.153
 1092TIP3   OH2 3281   5.547   3.324   3.568
 1092TIP3    H1 3282   5.535   3.260   3.639
 1092TIP3    H2 3283   5.459   3.337   3.533
 1093TIP3   OH2 3284   4.577   4.240   0.417
 1093TIP3    H1 3285   4.552   4.332   0.413
 1093TIP3    H2 3286   4.584   4.213   0.326
 1094TIP3   OH2 3287   2.414   2.466   0.483
 1094TIP3    H1 3288   2.432   2.509   0.567
 1094TIP3    H2 3289   2.495   2.477   0.433
 1095TIP3   OH2 3290   4.916   4.840   3.373
 1095TIP3    H1 3291   4.833   4.810   3.336
 1095TIP3    H2 3292   4.949   4.765   3.422
 1096TIP3   OH2 3293   0.582   3.145   0.178
 1096TIP3    H1 3294   0.525   3.101   0.242
 1096TIP3    H2 3295   0.532   3.221   0.150
 1097TIP3   OH2 3296   4.854   5.379   3.985
 1097TIP3    H1 3297   4.881   5.423   3.904
 1097TIP3    H2 3298   4.906   5.299   3.987
 1098TIP3   OH2 3299   6.164   5.419   0.774
 1098TIP3    H1 3300   6.182   5.345   0.717
 1098TIP3    H2 3301   6.251   5.458   0.791
 1099TIP3   OH2 3302   2.586   3.347   0.346
 1099TIP3    H1 3303   2.592   3.438   0.374
 1099TIP3    H2 3304   2.528   3.350   0.269
 1100TIP3   OH2 3305   5.734   2.172   4.120
 1100TIP3    H1 3306   5.794   2.247   4.117
 1100TIP3    H2 3307   5.647   2.210   4.131
 1101TIP3   OH2 3308   4.506   1.434   1.849
 1101TIP3    H1 3309   4.411   1.425   1.847
 1101TIP3    H2 3310   4.536   1.359   1.901
 1102TIP3   OH2 3311   2.202   3.421   1.445
 1102TIP3    H1 3312   2.245   3.478   1.381
 1102TIP3    H2 3313   2.273   3.383   1.497
 1103TIP3   OH2 3314   1.118   5.729   0.659
 1103TIP3    H1 3315   1.058   5.656   0.679
 1103TIP3    H2 3316   1.064   5.792   0.611
 1104TIP3   OH2 3317   6.117   3.362   2.102
 1104TIP3    H1 3318   6.201   3.406   2.092
 1104TIP3    H2 3319   6.084   3.354   2.012
 1105TIP3   OH2 3320   3.906   2.310   3.443
 1105TIP3    H1 3321   3.909   2.326   3.537
 1105TIP3    H2 3322   3.818   2.273   3.428
 1106TIP3   OH2 3323   2.065   3.845   1.354
 1106TIP3    H1 3324   2.065   3.861   1.260
 1106TIP3    H2 3325   2.002   3.908   1.389
 1107TIP3   OH2 3326   5.398   1.890   3.803
 1107TIP3    H1 3327   5.482   1.910   3.844
 1107TIP3    H2 3328   5.413   1.808   3.757
 1108TIP3   OH2 3329   1.354   0.626   4.061
 1108TIP3    H1 3330   1.384   0.578   4.139
 1108TIP3    H2 3331   1.322   0.558   4.002
 1109TIP3   OH2 3332   5.303   4.479   2.193
 1109TIP3    H1 3333   5.304   4.570   2.223
 1109TIP3    H2 3334   5.374   4.437   2.241
 1110TIP3   OH2 3335   3.867   0.845   0.787
 1110TIP3    H1 3336   3.855   0.898   0.865
 1110TIP3    H2 3337   3.948   0.878   0.747
 1111TIP3   OH2 3338   1.785   5.204   0.096
 1111TIP3    H1 3339   1.713   5.253   0.058
 1111TIP3    H2 3340   1.753   5.175   0.182
 1112TIP3   OH2 3341   4.852   4.027   1.611
 1112TIP3    H1 3342   4.907   3.956   1.576
 1112TIP3    H2 3343   4.777   3.982   1.650
 1113TIP3   OH2 3344   0.376   2.875   2.333
 1113TIP3    H1 3345   0.351   2.888   2.425
 1113TIP3    H2 3346   0.365   2.961   2.293
 1114TIP3   OH2 3347   2.138   1.075   2.179
 1114TIP3    H1 3348   2.218   1.038   2.215
 1114TIP3    H2 3349   2.134   1.164   2.216
 1115TIP3   OH2 3350   0.132   2.056   0.054
 1115TIP3    H1 3351   0.044   2.019   0.062
 1115TIP3    H2 3352   0.182   2.015   0.125
 1116TIP3   OH2 3353   3.288   1.679   4.227
 1116TIP3    H1 3354   3.205   1.672   4.180
 1116TIP3    H2 3355   3.267   1.650   4.316
 1117TIP3   OH2 3356   3.042   1.971   2.571
 1117TIP3    H1 3357   2.985   2.046   2.553
 1117TIP3    H2 3358   3.078   1.989   2.658
 1118TIP3   OH2 3359   1.473   4.758   0.450
 1118TIP3    H1 3360   1.526   4.743   0.372
 1118TIP3    H2 3361   1.528   4.812   0.507
 1119TIP3   OH2 3362   0.433   2.083   2.474
 1119TIP3    H1 3363   0.445   2.014   2.538
 1119TIP3    H2 3364   0.515   2.132   2.475
 1120TIP3   OH2 3365   5.109   4.595   0.634
 1120TIP3    H1 3366   5.097   4.575   0.541
 1120TIP3    H2 3367   5.084   4.687   0.642
 1121TIP3   OH2 3368   4.045   4.707   3.403
 1121TIP3    H1 3369   3.986   4.632   3.398
 1121TIP3    H2 3370   3.987   4.782   3.417
 1122TIP3   OH2 3371   0.610   4.974   3.384
 1122TIP3    H1 3372   0.565   5.002   3.465
 1122TIP3    H2 3373   0.640   4.885   3.404
 1123TIP3   OH2 3374   6.310   0.940   2.267
 1123TIP3    H1 3375   6.265   0.937   2.182
 1123TIP3    H2 3376   6.240   0.931   2.331
 1124TIP3   OH2 3377   5.688   2.922   1.406
 1124TIP3    H1 3378   5.732   3.003   1.431
 1124TIP3    H2 3379   5.757   2.856   1.406
 1125TIP3   OH2 3380   6.293   0.528   4.880
 1125TIP3    H1 3381   6.232   0.496   4.815
 1125TIP3    H2 3382   6.344   0.596   4.835
 1126TIP3   OH2 3383   0.353   2.027   3.333
 1126TIP3    H1 3384   0.285   1.972   3.372
 1126TIP3    H2 3385   0.405   2.057   3.407
 1127TIP3   OH2 3386   0.778   0.317   4.057
 1127TIP3    H1 3387   0.805   0.344   3.969
 1127TIP3    H2 3388   0.827   0.374   4.116
 1128TIP3   OH2 3389   5.386   5.406   2.885
 1128TIP3    H1 3390   5.314   5.431   2.943
 1128TIP3    H2 3391   5.384   5.311   2.884
 1129TIP3   OH2 3392   6.178   0.143   0.701
 1129TIP3    H1 3393   6.117   0.183   0.763
 1129TIP3    H2 3394   6.155   0.180   0.616
 1130TIP3   OH2 3395   0.689   4.113   3.550
 1130TIP3    H1 3396   0.664   4.143   3.637
 1130TIP3    H2 3397   0.762   4.170   3.524
 1131TIP3   OH2 3398  -0.027   0.274   4.979
 1131TIP3    H1 3399  -0.019   0.366   4.956
 1131TIP3    H2 3400   0.062   0.240   4.975
 1132TIP3   OH2 3401   3.335   1.024   3.612
 1132TIP3    H1 3402   3.307   1.008   3.702
 1132TIP3    H2 3403   3.335   0.938   3.571
 1133TIP3   OH2 3404   3.645   1.048   0.973
 1133TIP3    H1 3405   3.634   1.114   1.041
 1133TIP3    H2 3406   3.610   1.089   0.893
 1134TIP3   OH2 3407   0.344   2.466   1.300
 1134TIP3    H1 3408   0.315   2.378   1.325
 1134TIP3    H2 3409   0.332   2.519   1.378
 1135TIP3   OH2 3410   5.465   2.352   3.246
 1135TIP3    H1 3411   5.513   2.352   3.329
 1135TIP3    H2 3412   5.391   2.410   3.262
 1136TIP3   OH2 3413   3.228   1.084   3.137
 1136TIP3    H1 3414   3.218   1.139   3.214
 1136TIP3    H2 3415   3.181   1.131   3.068
 1137TIP3   OH2 3416   4.342   5.338   2.429
 1137TIP3    H1 3417   4.313   5.421   2.466
 1137TIP3    H2 3418   4.357   5.356   2.336
 1138TIP3   OH2 3419   1.718   3.431   2.953
 1138TIP3    H1 3420   1.808   3.432   2.984
 1138TIP3    H2 3421   1.694   3.523   2.948
 1139TIP3   OH2 3422   4.396   2.380   1.486
 1139TIP3    H1 3423   4.336   2.405   1.555
 1139TIP3    H2 3424   4.480   2.366   1.531
 1140TIP3   OH2 3425   0.457   4.189   3.066
 1140TIP3    H1 3426   0.421   4.140   2.992
 1140TIP3    H2 3427   0.400   4.167   3.139
 1141TIP3   OH2 3428   3.012   4.036   4.506
 1141TIP3    H1 3429   2.975   4.046   4.419
 1141TIP3    H2 3430   3.107   4.031   4.492
 1142TIP3   OH2 3431   5.330   5.091   3.821
 1142TIP3    H1 3432   5.382   5.082   3.741
 1142TIP3    H2 3433   5.268   5.018   3.817
 1143TIP3   OH2 3434   1.401   4.366   0.206
 1143TIP3    H1 3435   1.410   4.325   0.292
 1143TIP3    H2 3436   1.490   4.394   0.183
 1144TIP3   OH2 3437   4.862   5.524   3.104
 1144TIP3    H1 3438   4.787   5.489   3.056
 1144TIP3    H2 3439   4.873   5.613   3.070
 1145TIP3   OH2 3440   0.619   1.309   3.733
 1145TIP3    H1 3441   0.645   1.271   3.649
 1145TIP3    H2 3442   0.701   1.340   3.772
 1146TIP3   OH2 3443   1.314   3.474   2.174
 1146TIP3    H1 3444   1.318   3.381   2.195
 1146TIP3    H2 3445   1.406   3.500   2.165
 1147TIP3   OH2 3446   1.716   2.865   0.064
 1147TIP3    H1 3447   1.753   2.930   0.004
 1147TIP3    H2 3448   1.670   2.803   0.007
 1148TIP3   OH2 3449   0.836   2.284   3.503
 1148TIP3    H1 3450   0.796   2.207   3.545
 1148TIP3    H2 3451   0.835   2.264   3.410
 1149TIP3   OH2 3452   0.704   4.596   3.196
 1149TIP3    H1 3453   0.683   4.506   3.169
 1149TIP3    H2 3454   0.714   4.644   3.114
 1150TIP3   OH2 3455   2.910   2.292   0.394
 1150TIP3    H1 3456   2.889   2.199   0.393
 1150TIP3    H2 3457   3.005   2.296   0.405
 1151TIP3   OH2 3458   1.594   2.614   4.295
 1151TIP3    H1 3459   1.568   2.608   4.203
 1151TIP3    H2 3460   1.617   2.524   4.319
 1152TIP3   OH2 3461   0.195   2.924   1.734
 1152TIP3    H1 3462   0.133   2.961   1.672
 1152TIP3    H2 3463   0.196   2.830   1.714
 1153TIP3   OH2 3464   5.501   1.213   4.949
 1153TIP3    H1 3465   5.539   1.262   4.877
 1153TIP3    H2 3466   5.486   1.278   5.018
 1154TIP3   OH2 3467   0.665   2.708   5.085
 1154TIP3    H1 3468   0.574   2.719   5.112
 1154TIP3    H2 3469   0.709   2.787   5.115
 1155TIP3   OH2 3470   5.410   4.069   1.775
 1155TIP3    H1 3471   5.429   4.162   1.789
 1155TIP3    H2 3472   5.492   4.024   1.796
 1156TIP3   OH2 3473   3.853   4.335   3.642
 1156TIP3    H1 3474   3.917   4.264   3.635
 1156TIP3    H2 3475   3.785   4.300   3.699
 1157TIP3   OH2 3476   0.718   0.217   3.422
 1157TIP3    H1 3477   0.627   0.199   3.399
 1157TIP3    H2 3478   0.760   0.238   3.339
 1158TIP3   OH2 3479   0.849   3.150   2.160
 1158TIP3    H1 3480   0.918   3.216   2.151
 1158TIP3    H2 3481   0.777   3.197   2.204
 1159TIP3   OH2 3482   3.444   3.680   1.029
 1159TIP3    H1 3483   3.403   3.765   1.022
 1159TIP3    H2 3484   3.447   3.647   0.940
 1160TIP3   OH2 3485   3.047   5.135   0.335
 1160TIP3    H1 3486   3.132   5.147   0.377
 1160TIP3    H2 3487   2.988   5.195   0.381
 1161TIP3   OH2 3488   2.310   3.132   1.879
 1161TIP3    H1 3489   2.234   3.079   1.903
 1161TIP3    H2 3490   2.280   3.183   1.804
 1162TIP3   OH2 3491   0.916   3.779   1.125
 1162TIP3    H1 3492   0.959   3.839   1.186
 1162TIP3    H2 3493   0.825   3.808   1.124
 1163TIP3   OH2 3494   1.298   0.505   2.364
 1163TIP3    H1 3495   1.375   0.535   2.317
 1163TIP3    H2 3496   1.304   0.548   2.450
 1164TIP3   OH2 3497   1.717   1.278   2.835
 1164TIP3    H1 3498   1.751   1.226   2.762
 1164TIP3    H2 3499   1.759   1.241   2.912
 1165TIP3   OH2 3500   2.257   4.915   0.666
 1165TIP3    H1 3501   2.287   4.969   0.739
 1165TIP3    H2 3502   2.162   4.929   0.663
 1166TIP3   OH2 3503   1.109   5.639   1.783
 1166TIP3    H1 3504   1.021   5.602   1.794
 1166TIP3    H2 3505   1.092   5.732   1.764
 1167TIP3   OH2 3506   3.186   2.290   4.269
 1167TIP3    H1 3507   3.247   2.217   4.255
 1167TIP3    H2 3508   3.222   2.338   4.343
 1168TIP3   OH2 3509   0.806   4.018   0.918
 1168TIP3    H1 3510   0.785   3.935   0.877
 1168TIP3    H2 3511   0.786   4.004   1.011
 1169TIP3   OH2 3512   4.109   1.071   4.825
 1169TIP3    H1 3513   4.147   1.027   4.902
 1169TIP3    H2 3514   4.127   1.164   4.839
 1170TIP3   OH2 3515   6.108   1.485   2.912
 1170TIP3    H1 3516   6.094   1.572   2.952
 1170TIP3    H2 3517   6.021   1.445   2.913
 1171TIP3   OH2 3518   3.748   4.947   3.152
 1171TIP3    H1 3519   3.763   4.863   3.109
 1171TIP3    H2 3520   3.773   4.932   3.243
 1172TIP3   OH2 3521   5.115   4.904   3.157
 1172TIP3    H1 3522   5.050   4.900   3.228
 1172TIP3    H2 3523   5.182   4.964   3.189
 1173TIP3   OH2 3524   3.145   1.456   5.168
 1173TIP3    H1 3525   3.187   1.539   5.193
 1173TIP3    H2 3526   3.062   1.483   5.130
 1174TIP3   OH2 3527   2.219   4.384   2.155
 1174TIP3    H1 3528   2.312   4.384   2.133
 1174TIP3    H2 3529   2.180   4.448   2.096
 1175TIP3   OH2 3530   0.508   3.305   1.408
 1175TIP3    H1 3531   0.539   3.223   1.369
 1175TIP3    H2 3532   0.582   3.336   1.461
 1176TIP3   OH2 3533   2.584   3.043   2.384
 1176TIP3    H1 3534   2.554   3.038   2.293
 1176TIP3    H2 3535   2.646   2.971   2.393
 1177TIP3   OH2 3536   0.385   4.028   3.796
 1177TIP3    H1 3537   0.391   3.939   3.832
 1177TIP3    H2 3538   0.358   4.082   3.871
 1178TIP3   OH2 3539   0.222   1.219   2.147
 1178TIP3    H1 3540   0.317   1.228   2.153
 1178TIP3    H2 3541   0.195   1.192   2.234
 1179TIP3   OH2 3542   6.109   4.819   3.373
 1179TIP3    H1 3543   6.109   4.765   3.452
 1179TIP3    H2 3544   6.199   4.851   3.366
 1180TIP3   OH2 3545   6.077   1.315   3.559
 1180TIP3    H1 3546   6.142   1.377   3.525
 1180TIP3    H2 3547   5.997   1.336   3.512
 1181TIP3   OH2 3548   4.060   4.511   5.189
 1181TIP3    H1 3549   4.051   4.603   5.166
 1181TIP3    H2 3550   4.005   4.465   5.125
 1182TIP3   OH2 3551   1.116   3.217   3.910
 1182TIP3    H1 3552   1.041   3.276   3.903
 1182TIP3    H2 3553   1.171   3.239   3.834
 1183TIP3   OH2 3554   4.109   0.634   1.819
 1183TIP3    H1 3555   4.091   0.728   1.808
 1183TIP3    H2 3556   4.190   0.632   1.870
 1184TIP3   OH2 3557   5.804   5.330   0.097
 1184TIP3    H1 3558   5.730   5.321   0.157
 1184TIP3    H2 3559   5.864   5.390   0.142
 1185TIP3   OH2 3560   3.018   0.220   1.893
 1185TIP3    H1 3561   3.019   0.235   1.799
 1185TIP3    H2 3562   3.089   0.159   1.909
 1186TIP3   OH2 3563   1.228   2.377   2.068
 1186TIP3    H1 3564   1.134   2.362   2.067
 1186TIP3    H2 3565   1.257   2.358   1.979
 1187TIP3   OH2 3566   4.457   3.227   3.233
 1187TIP3    H1 3567   4.534   3.221   3.177
 1187TIP3    H2 3568   4.387   3.256   3.174
 1188TIP3   OH2 3569   5.339   3.889   2.445
 1188TIP3    H1 3570   5.317   3.962   2.387
 1188TIP3    H2 3571   5.361   3.930   2.528
 1189TIP3   OH2 3572   0.452   0.393   2.119
 1189TIP3    H1 3573   0.541   0.363   2.103
 1189TIP3    H2 3574   0.425   0.434   2.037
 1190TIP3   OH2 3575   4.893   4.270   2.354
 1190TIP3    H1 3576   4.906   4.365   2.360
 1190TIP3    H2 3577   4.824   4.260   2.288
 1191TIP3   OH2 3578   0.694   4.606   5.034
 1191TIP3    H1 3579   0.769   4.582   5.088
 1191TIP3    H2 3580   0.625   4.627   5.097
 1192TIP3   OH2 3581   6.144   0.945   1.360
 1192TIP3    H1 3582   6.211   1.008   1.387
 1192TIP3    H2 3583   6.069   0.963   1.417
 1193TIP3   OH2 3584   1.391   3.741   1.957
 1193TIP3    H1 3585   1.420   3.691   1.881
 1193TIP3    H2 3586   1.390   3.832   1.926
 1194TIP3   OH2 3587   3.911   2.877   0.994
 1194TIP3    H1 3588   3.908   2.959   0.945
 1194TIP3    H2 3589   3.827   2.873   1.039
 1195TIP3   OH2 3590   5.692   4.515   3.462
 1195TIP3    H1 3591   5.727   4.473   3.383
 1195TIP3    H2 3592   5.605   4.478   3.473
 1196TIP3   OH2 3593   5.071   0.703   1.968
 1196TIP3    H1 3594   4.990   0.691   1.919
 1196TIP3    H2 3595   5.134   0.646   1.925
 1197TIP3   OH2 3596   4.749   2.014   2.537
 1197TIP3    H1 3597   4.739   2.055   2.452
 1197TIP3    H2 3598   4.773   2.085   2.596
 1198TIP3   OH2 3599   6.288   5.289   2.272
 1198TIP3    H1 3600   6.232   5.366   2.272
 1198TIP3    H2 3601   6.258   5.237   2.347
 1199TIP3   OH2 3602   5.252   2.526   1.846
 1199TIP3    H1 3603   5.168   2.532   1.892
 1199TIP3    H2 3604   5.291   2.613   1.856
 1200TIP3   OH2 3605   5.479   4.013   4.951
 1200TIP3    H1 3606   5.440   3.946   4.895
 1200TIP3    H2 3607   5.417   4.086   4.946
 1201TIP3   OH2 3608   2.139   2.810   0.115
 1201TIP3    H1 3609   2.147   2.716   0.126
 1201TIP3    H2 3610   2.072   2.837   0.178
 1202TIP3   OH2 3611   4.177   5.620   0.496
 1202TIP3    H1 3612   4.176   5.609   0.591
 1202TIP3    H2 3613   4.269   5.637   0.475
 1203TIP3   OH2 3614   4.774   2.815   2.564
 1203TIP3    H1 3615   4.724   2.897   2.574
 1203TIP3    H2 3616   4.782   2.803   2.470
 1204TIP3   OH2 3617   5.113   3.821   2.059
 1204TIP3    H1 3618   5.125   3.795   2.150
 1204TIP3    H2 3619   5.065   3.904   2.064
 1205TIP3   OH2 3620   0.458   4.939   4.786
 1205TIP3    H1 3621   0.522   4.991   4.738
 1205TIP3    H2 3622   0.460   4.974   4.875
 1206TIP3   OH2 3623   5.320   1.982   2.016
 1206TIP3    H1 3624   5.267   2.045   2.065
 1206TIP3    H2 3625   5.360   2.034   1.945
 1207TIP3   OH2 3626   2.118   0.633   4.368
 1207TIP3    H1 3627   2.159   0.657   4.284
 1207TIP3    H2 3628   2.050   0.699   4.381
 1208TIP3   OH2 3629   2.961   4.449   4.214
 1208TIP3    H1 3630   3.011   4.372   4.240
 1208TIP3    H2 3631   2.960   4.446   4.118
 1209TIP3   OH2 3632   1.750   3.244   0.747
 1209TIP3    H1 3633   1.823   3.250   0.684
 1209TIP3    H2 3634   1.765   3.318   0.807
 1210TIP3   OH2 3635   6.193   3.617   2.343
 1210TIP3    H1 3636   6.218   3.663   2.423
 1210TIP3    H2 3637   6.099   3.633   2.335
 1211TIP3   OH2 3638   3.933   5.305   3.563
 1211TIP3    H1 3639   3.920   5.227   3.618
 1211TIP3    H2 3640   3.866   5.297   3.495
 1212TIP3   OH2 3641   3.260   3.283   4.146
 1212TIP3    H1 3642   3.262   3.188   4.157
 1212TIP3    H2 3643   3.214   3.296   4.063
 1213TIP3   OH2 3644   2.571   4.525   0.363
 1213TIP3    H1 3645   2.547   4.566   0.446
 1213TIP3    H2 3646   2.590   4.598   0.304
 1214TIP3   OH2 3647   0.623   0.577   3.362
 1214TIP3    H1 3648   0.551   0.518   3.343
 1214TIP3    H2 3649   0.582   0.656   3.397
 1215TIP3   OH2 3650   5.504   2.582   0.357
 1215TIP3    H1 3651   5.431   2.532   0.392
 1215TIP3    H2 3652   5.485   2.673   0.380
 1216TIP3   OH2 3653   5.741   5.214   2.005
 1216TIP3    H1 3654   5.766   5.122   2.001
 1216TIP3    H2 3655   5.775   5.244   2.090
 1217TIP3   OH2 3656   0.846   3.793   3.027
 1217TIP3    H1 3657   0.775   3.830   3.080
 1217TIP3    H2 3658   0.905   3.753   3.091
 1218TIP3   OH2 3659   3.128   2.133   4.945
 1218TIP3    H1 3660   3.041   2.172   4.958
 1218TIP3    H2 3661   3.122   2.048   4.987
 1219TIP3   OH2 3662   1.991   1.749   1.683
 1219TIP3    H1 3663   2.009   1.719   1.772
 1219TIP3    H2 3664   1.901   1.721   1.666
 1220TIP3   OH2 3665   3.045   2.903   0.672
 1220TIP3    H1 3666   2.978   2.911   0.603
 1220TIP3    H2 3667   3.109   2.841   0.635
 1221TIP3   OH2 3668   5.051   0.777   4.830
 1221TIP3    H1 3669   5.097   0.802   4.750
 1221TIP3    H2 3670   4.960   0.802   4.814
 1222TIP3   OH2 3671   2.681   1.614   4.264
 1222TIP3    H1 3672   2.609   1.656   4.312
 1222TIP3    H2 3673   2.752   1.610   4.328
 1223TIP3   OH2 3674   1.775   1.733   3.178
 1223TIP3    H1 3675   1.863   1.770   3.188
 1223TIP3    H2 3676   1.784   1.668   3.109
 1224TIP3   OH2 3677   0.125   2.298   4.669
 1224TIP3    H1 3678   0.048   2.355   4.662
 1224TIP3    H2 3679   0.166   2.304   4.583
 1225TIP3   OH2 3680   5.713   5.736   3.904
 1225TIP3    H1 3681   5.777   5.779   3.847
 1225TIP3    H2 3682   5.726   5.642   3.888
 1226TIP3   OH2 3683   6.235   1.702   1.831
 1226TIP3    H1 3684   6.213   1.722   1.922
 1226TIP3    H2 3685   6.295   1.627   1.836
 1227TIP3   OH2 3686   2.119   1.583   1.197
 1227TIP3    H1 3687   2.045   1.523   1.203
 1227TIP3    H2 3688   2.080   1.669   1.188
 1228TIP3   OH2 3689   6.012   3.006   2.885
 1228TIP3    H1 3690   5.937   2.974   2.835
 1228TIP3    H2 3691   6.021   3.098   2.860
 1229TIP3   OH2 3692   6.206   1.774   2.482
 1229TIP3    H1 3693   6.296   1.778   2.449
 1229TIP3    H2 3694   6.171   1.862   2.466
 1230TIP3   OH2 3695   6.147   0.594   4.418
 1230TIP3    H1 3696   6.173   0.683   4.442
 1230TIP3    H2 3697   6.208   0.569   4.348
 1231TIP3   OH2 3698   4.224   0.565   3.784
 1231TIP3    H1 3699   4.242   0.656   3.761
 1231TIP3    H2 3700   4.135   0.548   3.751
 1232TIP3   OH2 3701   3.859   3.222   0.628
 1232TIP3    H1 3702   3.772   3.259   0.642
 1232TIP3    H2 3703   3.874   3.167   0.705
 1233TIP3   OH2 3704   4.171   2.300   1.037
 1233TIP3    H1 3705   4.241   2.260   0.986
 1233TIP3    H2 3706   4.212   2.320   1.122
 1234TIP3   OH2 3707   5.432   0.454   3.689
 1234TIP3    H1 3708   5.518   0.495   3.693
 1234TIP3    H2 3709   5.386   0.501   3.619
 1235TIP3   OH2 3710   1.543   0.055   4.882
 1235TIP3    H1 3711   1.572   0.146   4.885
 1235TIP3    H2 3712   1.456   0.056   4.922
 1236TIP3   OH2 3713   2.734   2.087   4.703
 1236TIP3    H1 3714   2.776   2.001   4.693
 1236TIP3    H2 3715   2.647   2.075   4.665
 1237TIP3   OH2 3716   5.837   5.806   1.894
 1237TIP3    H1 3717   5.799   5.887   1.926
 1237TIP3    H2 3718   5.833   5.746   1.968
 1238TIP3   OH2 3719   5.611   0.336   4.511
 1238TIP3    H1 3720   5.679   0.367   4.572
 1238TIP3    H2 3721   5.533   0.385   4.537
 1239TIP3   OH2 3722   4.426   3.140   2.855
 1239TIP3    H1 3723   4.496   3.093   2.810
 1239TIP3    H2 3724   4.352   3.080   2.852
 1240TIP3   OH2 3725   1.333   1.651   1.331
 1240TIP3    H1 3726   1.423   1.630   1.354
 1240TIP3    H2 3727   1.292   1.567   1.311
 1241TIP3   OH2 3728   2.494   2.882   3.962
 1241TIP3    H1 3729   2.551   2.857   4.034
 1241TIP3    H2 3730   2.467   2.799   3.922
 1242TIP3   OH2 3731   2.565   4.652   0.647
 1242TIP3    H1 3732   2.657   4.642   0.672
 1242TIP3    H2 3733   2.557   4.742   0.616
 1243TIP3   OH2 3734   0.613   5.219   0.666
 1243TIP3    H1 3735   0.640   5.129   0.647
 1243TIP3    H2 3736   0.632   5.231   0.759
 1244TIP3   OH2 3737   0.241   3.007   3.054
 1244TIP3    H1 3738   0.298   3.047   2.988
 1244TIP3    H2 3739   0.164   2.979   3.004
 1245TIP3   OH2 3740   4.661   0.181   2.661
 1245TIP3    H1 3741   4.728   0.113   2.665
 1245TIP3    H2 3742   4.710   0.263   2.650
 1246TIP3   OH2 3743   5.562   1.387   3.169
 1246TIP3    H1 3744   5.565   1.421   3.259
 1246TIP3    H2 3745   5.512   1.305   3.176
 1247TIP3   OH2 3746   1.929   5.598   4.622
 1247TIP3    H1 3747   1.949   5.621   4.712
 1247TIP3    H2 3748   1.981   5.519   4.606
 1248TIP3   OH2 3749   1.800   1.336   3.379
 1248TIP3    H1 3750   1.707   1.354   3.391
 1248TIP3    H2 3751   1.835   1.415   3.338
 1249TIP3   OH2 3752   1.173   5.463   4.448
 1249TIP3    H1 3753   1.241   5.530   4.438
 1249TIP3    H2 3754   1.122   5.469   4.367
 1250TIP3   OH2 3755   0.055   2.881   0.481
 1250TIP3    H1 3756  -0.019   2.941   0.475
 1250TIP3    H2 3757   0.093   2.880   0.393
 1251TIP3   OH2 3758   2.488   3.276   0.591
 1251TIP3    H1 3759   2.394   3.278   0.573
 1251TIP3    H2 3760   2.528   3.311   0.511
 1252TIP3   OH2 3761   3.231   5.180   4.521
 1252TIP3    H1 3762   3.264   5.111   4.578
 1252TIP3    H2 3763   3.136   5.178   4.533
 1253TIP3   OH2 3764   3.509   2.508   5.100
 1253TIP3    H1 3765   3.433   2.451   5.112
 1253TIP3    H2 3766   3.578   2.469   5.154
 1254TIP3   OH2 3767   5.341   5.091   4.764
 1254TIP3    H1 3768   5.370   5.000   4.772
 1254TIP3    H2 3769   5.252   5.085   4.729
 1255TIP3   OH2 3770   1.083   5.410   0.469
 1255TIP3    H1 3771   1.016   5.472   0.444
 1255TIP3    H2 3772   1.109   5.368   0.387
 1256TIP3   OH2 3773   1.765   2.224   0.829
 1256TIP3    H1 3774   1.709   2.231   0.751
 1256TIP3    H2 3775   1.806   2.138   0.820
 1257TIP3   OH2 3776   0.612   0.700   2.663
 1257TIP3    H1 3777   0.687   0.664   2.710
 1257TIP3    H2 3778   0.559   0.743   2.730
 1258TIP3   OH2 3779   1.668   2.917   2.593
 1258TIP3    H1 3780   1.747   2.891   2.641
 1258TIP3    H2 3781   1.688   2.898   2.501
 1259TIP3   OH2 3782   2.932   1.560   4.338
 1259TIP3    H1 3783   3.004   1.513   4.379
 1259TIP3    H2 3784   2.971   1.601   4.261
 1260TIP3   OH2 3785   2.432   5.729   1.184
 1260TIP3    H1 3786   2.427   5.705   1.092
 1260TIP3    H2 3787   2.388   5.658   1.230
 1261TIP3   OH2 3788   2.588   1.254   1.474
 1261TIP3    H1 3789   2.511   1.219   1.520
 1261TIP3    H2 3790   2.574   1.348   1.471
 1262TIP3   OH2 3791   5.494   1.410   5.137
 1262TIP3    H1 3792   5.521   1.398   5.228
 1262TIP3    H2 3793   5.409   1.454   5.143
 1263TIP3   OH2 3794   1.866   0.457   4.741
 1263TIP3    H1 3795   1.942   0.504   4.773
 1263TIP3    H2 3796   1.872   0.463   4.646
 1264TIP3   OH2 3797   3.092   4.377   0.422
 1264TIP3    H1 3798   3.179   4.346   0.396
 1264TIP3    H2 3799   3.109   4.439   0.492
 1265TIP3   OH2 3800   2.738   3.042   0.895
 1265TIP3    H1 3801   2.798   3.112   0.871
 1265TIP3    H2 3802   2.680   3.032   0.819
 1266TIP3   OH2 3803   5.066   4.057   3.588
 1266TIP3    H1 3804   5.153   4.018   3.595
 1266TIP3    H2 3805   5.018   4.021   3.663
 1267TIP3   OH2 3806   3.243   5.044   0.074
 1267TIP3    H1 3807   3.228   5.028  -0.020
 1267TIP3    H2 3808   3.213   5.134   0.088
 1268TIP3   OH2 3809   6.266   1.828   4.415
 1268TIP3    H1 3810   6.266   1.776   4.496
 1268TIP3    H2 3811   6.311   1.909   4.439
 1269TIP3   OH2 3812   2.404   2.851   3.527
 1269TIP3    H1 3813   2.402   2.947   3.520
 1269TIP3    H2 3814   2.474   2.834   3.590
 1270TIP3   OH2 3815   0.178   3.112   3.945
 1270TIP3    H1 3816   0.219   3.093   3.861
 1270TIP3    H2 3817   0.084   3.118   3.925
 1271TIP3   OH2 3818   3.630   0.960   1.375
 1271TIP3    H1 3819   3.640   1.041   1.424
 1271TIP3    H2 3820   3.537   0.960   1.349
 1272TIP3   OH2 3821   4.930   1.164   3.510
 1272TIP3    H1 3822   4.921   1.102   3.439
 1272TIP3    H2 3823   4.896   1.246   3.475
 1273TIP3   OH2 3824   1.690   0.293   0.749
 1273TIP3    H1 3825   1.713   0.200   0.750
 1273TIP3    H2 3826   1.652   0.309   0.836
 1274TIP3   OH2 3827   1.077   0.307   4.311
 1274TIP3    H1 3828   1.060   0.246   4.382
 1274TIP3    H2 3829   0.999   0.362   4.307
 1275TIP3   OH2 3830   3.407   4.302   4.130
 1275TIP3    H1 3831   3.417   4.261   4.044
 1275TIP3    H2 3832   3.462   4.380   4.126
 1276TIP3   OH2 3833   2.589   0.149   4.595
 1276TIP3    H1 3834   2.499   0.132   4.622
 1276TIP3    H2 3835   2.614   0.072   4.544
 1277TIP3   OH2 3836   5.648   5.350   2.942
 1277TIP3    H1 3837   5.562   5.391   2.951
 1277TIP3    H2 3838   5.649   5.316   2.852
 1278TIP3   OH2 3839   4.348   3.723   0.476
 1278TIP3    H1 3840   4.390   3.644   0.440
 1278TIP3    H2 3841   4.420   3.778   0.505
 1279TIP3   OH2 3842   4.662   2.876   1.229
 1279TIP3    H1 3843   4.712   2.843   1.155
 1279TIP3    H2 3844   4.605   2.803   1.253
 1280TIP3   OH2 3845   2.249   5.627   3.518
 1280TIP3    H1 3846   2.294   5.710   3.502
 1280TIP3    H2 3847   2.195   5.643   3.595
 1281TIP3   OH2 3848   3.774   0.666   3.268
 1281TIP3    H1 3849   3.718   0.664   3.346
 1281TIP3    H2 3850   3.754   0.750   3.227
 1282TIP3   OH2 3851   5.391   3.662   2.898
 1282TIP3    H1 3852   5.327   3.605   2.942
 1282TIP3    H2 3853   5.466   3.605   2.882
 1283TIP3   OH2 3854   1.131   5.012   2.306
 1283TIP3    H1 3855   1.109   4.919   2.317
 1283TIP3    H2 3856   1.164   5.017   2.216
 1284TIP3   OH2 3857   3.786   5.261   1.265
 1284TIP3    H1 3858   3.801   5.209   1.344
 1284TIP3    H2 3859   3.866   5.249   1.213
 1285TIP3   OH2 3860   3.581   1.701   2.617
 1285TIP3    H1 3861   3.581   1.607   2.595
 1285TIP3    H2 3862   3.639   1.741   2.553
 1286TIP3   OH2 3863   4.461   1.833   2.409
 1286TIP3    H1 3864   4.517   1.777   2.356
 1286TIP3    H2 3865   4.494   1.823   2.499
 1287TIP3   OH2 3866   1.743   1.442   3.720
 1287TIP3    H1 3867   1.796   1.473   3.646
 1287TIP3    H2 3868   1.677   1.386   3.680
 1288TIP3   OH2 3869   4.669   1.647   4.668
 1288TIP3    H1 3870   4.604   1.581   4.692
 1288TIP3    H2 3871   4.737   1.598   4.623
 1289TIP3   OH2 3872   5.254   3.247   0.781
 1289TIP3    H1 3873   5.228   3.332   0.816
 1289TIP3    H2 3874   5.335   3.265   0.733
 1290TIP3   OH2 3875   1.090   3.710   1.885
 1290TIP3    H1 3876   1.135   3.741   1.806
 1290TIP3    H2 3877   1.160   3.698   1.949
 1291TIP3   OH2 3878   1.119   4.959   1.635
 1291TIP3    H1 3879   1.065   5.019   1.584
 1291TIP3    H2 3880   1.073   4.876   1.632
 1292TIP3   OH2 3881   0.964   4.805   0.595
 1292TIP3    H1 3882   1.048   4.787   0.553
 1292TIP3    H2 3883   0.945   4.727   0.647
 1293TIP3   OH2 3884   4.372   3.970   3.098
 1293TIP3    H1 3885   4.441   3.907   3.078
 1293TIP3    H2 3886   4.292   3.929   3.065
 1294TIP3   OH2 3887   5.467   0.179   3.565
 1294TIP3    H1 3888   5.458   0.251   3.628
 1294TIP3    H2 3889   5.557   0.149   3.576
 1295TIP3   OH2 3890   1.172   4.673   4.478
 1295TIP3    H1 3891   1.243   4.635   4.426
 1295TIP3    H2 3892   1.097   4.676   4.418
 1296TIP3   OH2 3893   0.361   2.456   1.574
 1296TIP3    H1 3894   0.441   2.404   1.575
 1296TIP3    H2 3895   0.351   2.487   1.664
 1297TIP3   OH2 3896   3.356   5.019   3.192
 1297TIP3    H1 3897   3.379   5.052   3.279
 1297TIP3    H2 3898   3.440   4.999   3.151
 1298TIP3   OH2 3899   1.778   5.356   1.872
 1298TIP3    H1 3900   1.869   5.332   1.886
 1298TIP3    H2 3901   1.741   5.361   1.961
 1299TIP3   OH2 3902   4.608   4.883   2.513
 1299TIP3    H1 3903   4.549   4.942   2.560
 1299TIP3    H2 3904   4.669   4.941   2.467
 1300TIP3   OH2 3905   2.497   0.776   3.376
 1300TIP3    H1 3906   2.465   0.718   3.307
 1300TIP3    H2 3907   2.428   0.775   3.442
 1301TIP3   OH2 3908   4.088   2.230   1.971
 1301TIP3    H1 3909   4.028   2.242   2.044
 1301TIP3    H2 3910   4.152   2.300   1.981
 1302TIP3   OH2 3911   5.088   2.034   5.083
 1302TIP3    H1 3912   5.160   2.024   5.021
 1302TIP3    H2 3913   5.128   2.066   5.164
 1303TIP3   OH2 3914   5.202   0.954   0.515
 1303TIP3    H1 3915   5.140   0.887   0.486
 1303TIP3    H2 3916   5.236   0.922   0.598
 1304TIP3   OH2 3917   5.408   0.702   3.211
 1304TIP3    H1 3918   5.436   0.724   3.299
 1304TIP3    H2 3919   5.489   0.703   3.159
 1305TIP3   OH2 3920   2.766   5.470   5.132
 1305TIP3    H1 3921   2.731   5.381   5.134
 1305TIP3    H2 3922   2.748   5.500   5.043
 1306TIP3   OH2 3923   0.132   1.905   4.211
 1306TIP3    H1 3924   0.156   1.994   4.235
 1306TIP3    H2 3925   0.041   1.912   4.183
 1307TIP3   OH2 3926   5.098   0.669   2.230
 1307TIP3    H1 3927   5.004   0.681   2.244
 1307TIP3    H2 3928   5.110   0.680   2.135
 1308TIP3   OH2 3929   2.462   5.392   0.113
 1308TIP3    H1 3930   2.476   5.421   0.203
 1308TIP3    H2 3931   2.371   5.361   0.112
 1309TIP3   OH2 3932   4.093   0.402   0.058
 1309TIP3    H1 3933   4.083   0.379   0.150
 1309TIP3    H2 3934   4.084   0.498   0.056
 1310TIP3   OH2 3935   4.220   3.449   0.953
 1310TIP3    H1 3936   4.171   3.513   1.004
 1310TIP3    H2 3937   4.170   3.367   0.964
 1311TIP3   OH2 3938   1.692   0.657   0.137
 1311TIP3    H1 3939   1.650   0.729   0.088
 1311TIP3    H2 3940   1.706   0.589   0.071
 1312TIP3   OH2 3941   0.979   4.494   3.497
 1312TIP3    H1 3942   1.001   4.493   3.404
 1312TIP3    H2 3943   1.057   4.530   3.540
 1313TIP3   OH2 3944   0.124   5.627   0.649
 1313TIP3    H1 3945   0.164   5.706   0.613
 1313TIP3    H2 3946   0.048   5.611   0.593
 1314TIP3   OH2 3947   2.056   3.564   3.567
 1314TIP3    H1 3948   2.105   3.640   3.534
 1314TIP3    H2 3949   2.115   3.490   3.557
 1315TIP3   OH2 3950   5.623   5.001   2.875
 1315TIP3    H1 3951   5.682   5.004   2.800
 1315TIP3    H2 3952   5.538   5.029   2.841
 1316TIP3   OH2 3953   1.308   0.443   1.649
 1316TIP3    H1 3954   1.285   0.354   1.676
 1316TIP3    H2 3955   1.235   0.471   1.594
 1317TIP3   OH2 3956   3.604   4.959   5.022
 1317TIP3    H1 3957   3.567   5.042   4.993
 1317TIP3    H2 3958   3.698   4.968   5.007
 1318TIP3   OH2 3959   4.147   5.158   2.341
 1318TIP3    H1 3960   4.193   5.240   2.356
 1318TIP3    H2 3961   4.100   5.172   2.259
 1319TIP3   OH2 3962   0.670   4.650   0.897
 1319TIP3    H1 3963   0.624   4.651   0.813
 1319TIP3    H2 3964   0.607   4.686   0.960
 1320TIP3   OH2 3965   6.015   0.033   4.989
 1320TIP3    H1 3966   6.029  -0.040   4.929
 1320TIP3    H2 3967   5.955   0.091   4.942
 1321TIP3   OH2 3968   5.809   0.642   0.024
 1321TIP3    H1 3969   5.893   0.599   0.011
 1321TIP3    H2 3970   5.744   0.577  -0.003
 1322TIP3   OH2 3971   5.683   1.159   4.279
 1322TIP3    H1 3972   5.651   1.205   4.356
 1322TIP3    H2 3973   5.771   1.129   4.303
 1323TIP3   OH2 3974   5.947   5.737   5.043
 1323TIP3    H1 3975   5.978   5.673   5.107
 1323TIP3    H2 3976   5.928   5.816   5.094
 1324TIP3   OH2 3977   0.983   0.187   3.511
 1324TIP3    H1 3978   0.906   0.183   3.454
 1324TIP3    H2 3979   0.975   0.110   3.567
 1325TIP3   OH2 3980   6.207   2.808   4.468
 1325TIP3    H1 3981   6.292   2.764   4.467
 1325TIP3    H2 3982   6.172   2.791   4.555
 1326TIP3   OH2 3983   0.425   3.194   2.554
 1326TIP3    H1 3984   0.381   3.109   2.559
 1326TIP3    H2 3985   0.514   3.177   2.586
 1327TIP3   OH2 3986   3.450   3.735   4.043
 1327TIP3    H1 3987   3.362   3.704   4.023
 1327TIP3    H2 3988   3.436   3.807   4.104
 1328TIP3   OH2 3989   4.570   2.555   3.066
 1328TIP3    H1 3990   4.596   2.471   3.103
 1328TIP3    H2 3991   4.639   2.577   3.004
 1329TIP3   OH2 3992   0.731   0.181   2.303
 1329TIP3    H1 3993   0.710   0.248   2.368
 1329TIP3    H2 3994   0.704   0.220   2.220
 1330TIP3   OH2 3995   0.967   0.474   0.602
 1330TIP3    H1 3996   0.933   0.464   0.513
 1330TIP3    H2 3997   0.955   0.388   0.642
 1331TIP3   OH2 3998   3.027   0.275   0.700
 1331TIP3    H1 3999   2.959   0.237   0.646
 1331TIP3    H2 4000   3.038   0.364   0.666
 1332TIP3   OH2 4001   1.660   0.487   2.198
 1332TIP3    H1 4002   1.683   0.545   2.125
 1332TIP3    H2 4003   1.623   0.545   2.264
 1333TIP3   OH2 4004   0.510   3.658   1.011
 1333TIP3    H1 4005   0.494   3.741   0.966
 1333TIP3    H2 4006   0.568   3.682   1.084
 1334TIP3   OH2 4007   6.093   0.620   5.132
 1334TIP3    H1 4008   6.087   0.569   5.052
 1334TIP3    H2 4009   6.012   0.671   5.134
 1335TIP3   OH2 4010   3.753   0.036   1.422
 1335TIP3    H1 4011   3.743  -0.054   1.392
 1335TIP3    H2 4012   3.738   0.090   1.344
 1336TIP3   OH2 4013   5.329   4.822   0.277
 1336TIP3    H1 4014   5.311   4.915   0.262
 1336TIP3    H2 4015   5.350   4.816   0.370
 1337TIP3   OH2 4016   5.298   4.339   2.743
 1337TIP3    H1 4017   5.391   4.361   2.741
 1337TIP3    H2 4018   5.256   4.416   2.780
 1338TIP3   OH2 4019   3.934   1.267   3.021
 1338TIP3    H1 4020   3.996   1.250   2.950
 1338TIP3    H2 4021   3.864   1.316   2.980
 1339TIP3   OH2 4022   5.091   5.567   4.372
 1339TIP3    H1 4023   5.180   5.533   4.359
 1339TIP3    H2 4024   5.062   5.527   4.454
 1340TIP3   OH2 4025   4.378   1.277   3.371
 1340TIP3    H1 4026   4.322   1.234   3.436
 1340TIP3    H2 4027   4.319   1.296   3.298
 1341TIP3   OH2 4028   2.115   5.400   4.509
 1341TIP3    H1 4029   2.210   5.398   4.521
 1341TIP3    H2 4030   2.103   5.395   4.414
 1342TIP3   OH2 4031   4.955   2.868   1.845
 1342TIP3    H1 4032   5.022   2.934   1.860
 1342TIP3    H2 4033   4.880   2.918   1.811
 1343TIP3   OH2 4034   1.195   1.080   4.620
 1343TIP3    H1 4035   1.207   1.108   4.529
 1343TIP3    H2 4036   1.110   1.036   4.621
 1344TIP3   OH2 4037   4.095   1.765   1.287
 1344TIP3    H1 4038   4.177   1.717   1.302
 1344TIP3    H2 4039   4.062   1.784   1.374
 1345TIP3   OH2 4040   4.781   3.403   4.738
 1345TIP3    H1 4041   4.812   3.314   4.753
 1345TIP3    H2 4042   4.773   3.441   4.825
 1346TIP3   OH2 4043   1.557   0.887   0.820
 1346TIP3    H1 4044   1.517   0.803   0.842
 1346TIP3    H2 4045   1.525   0.906   0.732
 1347TIP3   OH2 4046   6.304   4.487   1.967
 1347TIP3    H1 4047   6.394   4.455   1.969
 1347TIP3    H2 4048   6.306   4.567   2.019
 1348TIP3   OH2 4049   3.864   0.937   5.131
 1348TIP3    H1 4050   3.798   0.958   5.198
 1348TIP3    H2 4051   3.905   1.021   5.111
 1349TIP3   OH2 4052   4.204   2.788   4.095
 1349TIP3    H1 4053   4.293   2.753   4.097
 1349TIP3    H2 4054   4.148   2.710   4.104
 1350TIP3   OH2 4055   0.603   3.429   2.368
 1350TIP3    H1 4056   0.663   3.360   2.397
 1350TIP3    H2 4057   0.600   3.491   2.441
 1351TIP3   OH2 4058   1.097   0.523   1.466
 1351TIP3    H1 4059   1.009   0.548   1.492
 1351TIP3    H2 4060   1.121   0.585   1.397
 1352TIP3   OH2 4061   3.386   3.438   4.937
 1352TIP3    H1 4062   3.408   3.508   4.998
 1352TIP3    H2 4063   3.291   3.437   4.934
 1353TIP3   OH2 4064   3.553   3.680   3.625
 1353TIP3    H1 4065   3.542   3.605   3.683
 1353TIP3    H2 4066   3.584   3.643   3.543
 1354TIP3   OH2 4067   5.987   3.449   3.202
 1354TIP3    H1 4068   6.076   3.417   3.218
 1354TIP3    H2 4069   5.951   3.465   3.290
 1355TIP3   OH2 4070   1.217   4.223   3.867
 1355TIP3    H1 4071   1.275   4.150   3.890
 1355TIP3    H2 4072   1.131   4.195   3.897
 1356TIP3   OH2 4073   2.353   5.366   4.320
 1356TIP3    H1 4074   2.358   5.302   4.391
 1356TIP3    H2 4075   2.437   5.413   4.325
 1357TIP3   OH2 4076   4.416   2.983   1.705
 1357TIP3    H1 4077   4.495   2.998   1.652
 1357TIP3    H2 4078   4.445   2.923   1.774
 1358TIP3   OH2 4079   1.938   1.211   3.733
 1358TIP3    H1 4080   1.893   1.295   3.748
 1358TIP3    H2 4081   2.012   1.234   3.677
 1359TIP3   OH2 4082   6.072   0.354   5.060
 1359TIP3    H1 4083   6.017   0.323   4.988
 1359TIP3    H2 4084   6.161   0.333   5.033
 1360TIP3   OH2 4085   1.516   1.052   5.148
 1360TIP3    H1 4086   1.469   1.025   5.069
 1360TIP3    H2 4087   1.460   1.023   5.220
 1361TIP3   OH2 4088   1.820   2.918   3.526
 1361TIP3    H1 4089   1.741   2.968   3.546
 1361TIP3    H2 4090   1.873   2.922   3.605
 1362TIP3   OH2 4091   0.330   2.244   1.919
 1362TIP3    H1 4092   0.372   2.170   1.962
 1362TIP3    H2 4093   0.258   2.205   1.869
 1363TIP3   OH2 4094   5.673   3.847   4.128
 1363TIP3    H1 4095   5.741   3.892   4.178
 1363TIP3    H2 4096   5.672   3.758   4.163
 1364TIP3   OH2 4097   5.239   3.503   0.856
 1364TIP3    H1 4098   5.251   3.585   0.903
 1364TIP3    H2 4099   5.253   3.525   0.764
 1365TIP3   OH2 4100   1.629   0.436   0.499
 1365TIP3    H1 4101   1.708   0.456   0.449
 1365TIP3    H2 4102   1.658   0.374   0.566
 1366TIP3   OH2 4103   5.150   4.308   2.486
 1366TIP3    H1 4104   5.075   4.359   2.518
 1366TIP3    H2 4105   5.222   4.330   2.545
 1367TIP3   OH2 4106   2.462   5.230   2.094
 1367TIP3    H1 4107   2.420   5.316   2.087
 1367TIP3    H2 4108   2.393   5.168   2.069
 1368TIP3   OH2 4109   1.732   3.633   1.305
 1368TIP3    H1 4110   1.805   3.686   1.272
 1368TIP3    H2 4111   1.774   3.558   1.346
 1369TIP3   OH2 4112   2.582   4.004   0.628
 1369TIP3    H1 4113   2.617   4.058   0.556
 1369TIP3    H2 4114   2.581   4.063   0.704
 1370TIP3   OH2 4115   4.741   4.244   4.387
 1370TIP3    H1 4116   4.732   4.288   4.302
 1370TIP3    H2 4117   4.737   4.151   4.366
 1371TIP3   OH2 4118   0.506   2.748   4.091
 1371TIP3    H1 4119   0.498   2.823   4.031
 1371TIP3    H2 4120   0.417   2.715   4.101
 1372TIP3   OH2 4121   4.422   3.293   2.196
 1372TIP3    H1 4122   4.490   3.358   2.217
 1372TIP3    H2 4123   4.349   3.315   2.254
 1373TIP3   OH2 4124   4.612   5.293   1.750
 1373TIP3    H1 4125   4.689   5.237   1.762
 1373TIP3    H2 4126   4.642   5.363   1.691
 1374TIP3   OH2 4127   1.838   1.511   0.954
 1374TIP3    H1 4128   1.860   1.546   0.867
 1374TIP3    H2 4129   1.871   1.421   0.952
 1375TIP3   OH2 4130   6.161   4.017   5.171
 1375TIP3    H1 4131   6.215   3.938   5.169
 1375TIP3    H2 4132   6.224   4.089   5.172
 1376TIP3   OH2 4133   4.995   4.059   2.051
 1376TIP3    H1 4134   4.908   4.075   2.014
 1376TIP3    H2 4135   5.043   4.142   2.038
 1377TIP3   OH2 4136   6.094   3.349   4.967
 1377TIP3    H1 4137   6.038   3.272   4.967
 1377TIP3    H2 4138   6.107   3.370   5.060
 1378TIP3   OH2 4139   3.339   0.206   1.057
 1378TIP3    H1 4140   3.350   0.300   1.042
 1378TIP3    H2 4141   3.250   0.187   1.028
 1379TIP3   OH2 4142   5.915   5.918   1.361
 1379TIP3    H1 4143   5.842   5.862   1.337
 1379TIP3    H2 4144   5.927   5.903   1.455
 1380TIP3   OH2 4145   1.548   5.210   2.562
 1380TIP3    H1 4146   1.566   5.304   2.559
 1380TIP3    H2 4147   1.503   5.191   2.480
 1381TIP3   OH2 4148   3.706   4.321   4.867
 1381TIP3    H1 4149   3.678   4.324   4.776
 1381TIP3    H2 4150   3.690   4.232   4.895
 1382TIP3   OH2 4151  -0.024   0.106   1.101
 1382TIP3    H1 4152  -0.028   0.158   1.181
 1382TIP3    H2 4153   0.066   0.115   1.071
 1383TIP3   OH2 4154   4.523   2.903   4.838
 1383TIP3    H1 4155   4.570   2.857   4.908
 1383TIP3    H2 4156   4.474   2.834   4.794
 1384TIP3   OH2 4157   4.559   5.767   1.953
 1384TIP3    H1 4158   4.540   5.674   1.940
 1384TIP3    H2 4159   4.582   5.799   1.865
 1385TIP3   OH2 4160   1.921   4.947   0.021
 1385TIP3    H1 4161   1.891   5.037   0.035
 1385TIP3    H2 4162   1.926   4.909   0.108
 1386TIP3   OH2 4163   1.135   4.001   3.031
 1386TIP3    H1 4164   1.115   3.974   3.120
 1386TIP3    H2 4165   1.056   4.048   3.002
 1387TIP3   OH2 4166   1.365   3.871   3.272
 1387TIP3    H1 4167   1.375   3.841   3.182
 1387TIP3    H2 4168   1.351   3.965   3.265
 1388TIP3   OH2 4169   6.189   5.305   4.129
 1388TIP3    H1 4170   6.202   5.212   4.148
 1388TIP3    H2 4171   6.245   5.350   4.193
 1389TIP3   OH2 4172   2.808   4.345   2.328
 1389TIP3    H1 4173   2.739   4.343   2.394
 1389TIP3    H2 4174   2.812   4.437   2.302
 1390TIP3   OH2 4175   1.388   4.597   0.734
 1390TIP3    H1 4176   1.364   4.631   0.648
 1390TIP3    H2 4177   1.477   4.629   0.748
 1391TIP3   OH2 4178   5.960   0.082   3.380
 1391TIP3    H1 4179   6.005  -0.002   3.376
 1391TIP3    H2 4180   5.875   0.062   3.420
 1392TIP3   OH2 4181   2.262   1.966   1.126
 1392TIP3    H1 4182   2.301   1.907   1.062
 1392TIP3    H2 4183   2.171   1.937   1.133
 1393TIP3   OH2 4184   5.181   0.545   4.173
 1393TIP3    H1 4185   5.163   0.597   4.096
 1393TIP3    H2 4186   5.252   0.487   4.147
 1394TIP3   OH2 4187   1.081   5.021   2.569
 1394TIP3    H1 4188   1.133   4.954   2.613
 1394TIP3    H2 4189   1.113   5.021   2.479
 1395TIP3   OH2 4190   0.726   1.077   4.169
 1395TIP3    H1 4191   0.788   1.072   4.242
 1395TIP3    H2 4192   0.777   1.050   4.093
 1396TIP3   OH2 4193   1.741   0.034   2.625
 1396TIP3    H1 4194   1.729   0.126   2.646
 1396TIP3    H2 4195   1.753  -0.009   2.709
 1397TIP3   OH2 4196   4.043   1.902   1.537
 1397TIP3    H1 4197   3.977   1.881   1.603
 1397TIP3    H2 4198   4.072   1.991   1.560
 1398TIP3   OH2 4199   4.887   2.026   3.760
 1398TIP3    H1 4200   4.839   2.107   3.777
 1398TIP3    H2 4201   4.973   2.055   3.731
 1399TIP3   OH2 4202   0.581   1.637   2.354
 1399TIP3    H1 4203   0.611   1.727   2.371
 1399TIP3    H2 4204   0.655   1.595   2.311
 1400TIP3   OH2 4205   1.753   4.276   1.860
 1400TIP3    H1 4206   1.782   4.264   1.950
 1400TIP3    H2 4207   1.827   4.247   1.807
 1401TIP3   OH2 4208   5.947   1.105   1.822
 1401TIP3    H1 4209   6.006   1.170   1.860
 1401TIP3    H2 4210   5.933   1.042   1.893
 1402TIP3   OH2 4211   1.817   1.055   4.908
 1402TIP3    H1 4212   1.793   1.120   4.974
 1402TIP3    H2 4213   1.733   1.023   4.875
 1403TIP3   OH2 4214   2.028   5.015   1.653
 1403TIP3    H1 4215   2.015   4.965   1.573
 1403TIP3    H2 4216   1.981   5.097   1.638
 1404TIP3   OH2 4217   1.267   0.071   4.944
 1404TIP3    H1 4218   1.205   0.143   4.952
 1404TIP3    H2 4219   1.280   0.040   5.033
 1405TIP3   OH2 4220   2.239   0.630   2.524
 1405TIP3    H1 4221   2.242   0.645   2.618
 1405TIP3    H2 4222   2.239   0.535   2.514
 1406TIP3   OH2 4223   4.243   4.793   4.810
 1406TIP3    H1 4224   4.313   4.819   4.751
 1406TIP3    H2 4225   4.215   4.874   4.853
 1407TIP3   OH2 4226   4.443   0.785   4.011
 1407TIP3    H1 4227   4.361   0.830   4.033
 1407TIP3    H2 4228   4.478   0.835   3.937
 1408TIP3   OH2 4229   4.041   1.545   2.206
 1408TIP3    H1 4230   4.038   1.579   2.296
 1408TIP3    H2 4231   4.009   1.618   2.153
 1409TIP3   OH2 4232   3.533   5.657   0.767
 1409TIP3    H1 4233   3.508   5.630   0.855
 1409TIP3    H2 4234   3.559   5.749   0.777
 1410TIP3   OH2 4235   3.305   5.650   4.528
 1410TIP3    H1 4236   3.301   5.714   4.599
 1410TIP3    H2 4237   3.219   5.607   4.529
 1411TIP3   OH2 4238   1.189   5.221   1.710
 1411TIP3    H1 4239   1.202   5.154   1.777
 1411TIP3    H2 4240   1.226   5.183   1.631
 1412TIP3   OH2 4241   5.386   1.183   0.569
 1412TIP3    H1 4242   5.465   1.134   0.592
 1412TIP3    H2 4243   5.320   1.115   0.554
 1413TIP3   OH2 4244   5.632   1.310   4.567
 1413TIP3    H1 4245   5.617   1.363   4.646
 1413TIP3    H2 4246   5.639   1.221   4.599
 1414TIP3   OH2 4247   3.730   4.996   0.724
 1414TIP3    H1 4248   3.637   4.973   0.723
 1414TIP3    H2 4249   3.745   5.041   0.641
 1415TIP3   OH2 4250   2.024   5.435   2.621
 1415TIP3    H1 4251   1.993   5.348   2.646
 1415TIP3    H2 4252   1.947   5.491   2.627
 1416TIP3   OH2 4253   0.134   0.850   0.614
 1416TIP3    H1 4254   0.081   0.865   0.692
 1416TIP3    H2 4255   0.078   0.877   0.542
 1417TIP3   OH2 4256   6.160   0.703   1.789
 1417TIP3    H1 4257   6.147   0.630   1.849
 1417TIP3    H2 4258   6.077   0.709   1.741
 1418TIP3   OH2 4259   0.194   3.907   4.216
 1418TIP3    H1 4260   0.284   3.882   4.237
 1418TIP3    H2 4261   0.186   3.997   4.247
 1419TIP3   OH2 4262   3.279   2.597   3.298
 1419TIP3    H1 4263   3.365   2.598   3.340
 1419TIP3    H2 4264   3.298   2.596   3.204
 1420TIP3   OH2 4265   3.232   5.900   2.443
 1420TIP3    H1 4266   3.275   5.867   2.364
 1420TIP3    H2 4267   3.199   5.822   2.486
 1421TIP3   OH2 4268   0.026   2.538   1.555
 1421TIP3    H1 4269   0.083   2.614   1.556
 1421TIP3    H2 4270   0.023   2.511   1.463
 1422TIP3   OH2 4271   3.296   4.883   3.553
 1422TIP3    H1 4272   3.201   4.871   3.555
 1422TIP3    H2 4273   3.330   4.800   3.521
 1423TIP3   OH2 4274   5.645   0.110   4.827
 1423TIP3    H1 4275   5.645   0.014   4.828
 1423TIP3    H2 4276   5.571   0.135   4.883
 1424TIP3   OH2 4277   4.797   1.045   2.008
 1424TIP3    H1 4278   4.712   1.084   2.028
 1424TIP3    H2 4279   4.778   0.982   1.938
 1425TIP3   OH2 4280   2.838   0.202   1.141
 1425TIP3    H1 4281   2.800   0.285   1.170
 1425TIP3    H2 4282   2.799   0.187   1.055
 1426TIP3   OH2 4283   2.867   4.257   2.023
 1426TIP3    H1 4284   2.878   4.169   2.057
 1426TIP3    H2 4285   2.872   4.314   2.100
 1427TIP3   OH2 4286   4.520   4.305   1.686
 1427TIP3    H1 4287   4.447   4.271   1.738
 1427TIP3    H2 4288   4.508   4.400   1.686
 1428TIP3   OH2 4289   3.506   4.461   0.149
 1428TIP3    H1 4290   3.576   4.490   0.091
 1428TIP3    H2 4291   3.429   4.511   0.119
 1429TIP3   OH2 4292   3.476   1.309   2.772
 1429TIP3    H1 4293   3.392   1.352   2.788
 1429TIP3    H2 4294   3.454   1.217   2.759
 1430TIP3   OH2 4295   5.438   3.305   4.184
 1430TIP3    H1 4296   5.349   3.314   4.152
 1430TIP3    H2 4297   5.491   3.297   4.105
 1431TIP3   OH2 4298   4.218   5.717   5.039
 1431TIP3    H1 4299   4.143   5.759   4.997
 1431TIP3    H2 4300   4.212   5.744   5.131
 1432TIP3   OH2 4301   6.106   5.088   5.087
 1432TIP3    H1 4302   6.013   5.072   5.074
 1432TIP3    H2 4303   6.127   5.157   5.024
 1433TIP3   OH2 4304   0.805   3.812   1.440
 1433TIP3    H1 4305   0.774   3.900   1.459
 1433TIP3    H2 4306   0.826   3.774   1.525
 1434TIP3   OH2 4307   6.147   2.051   2.435
 1434TIP3    H1 4308   6.159   2.123   2.373
 1434TIP3    H2 4309   6.072   2.077   2.488
 1435TIP3   OH2 4310   2.303   4.674   3.596
 1435TIP3    H1 4311   2.274   4.714   3.514
 1435TIP3    H2 4312   2.377   4.727   3.625
 1436TIP3   OH2 4313   3.028   5.521   4.483
 1436TIP3    H1 4314   2.991   5.607   4.462
 1436TIP3    H2 4315   3.033   5.476   4.399
 1437TIP3   OH2 4316   0.366   2.770   5.091
 1437TIP3    H1 4317   0.372   2.794   5.184
 1437TIP3    H2 4318   0.292   2.821   5.058
 1438TIP3   OH2 4319   5.361   4.808   2.131
 1438TIP3    H1 4320   5.299   4.876   2.156
 1438TIP3    H2 4321   5.431   4.815   2.195
 1439TIP3   OH2 4322   3.892   1.315   4.041
 1439TIP3    H1 4323   3.920   1.291   3.953
 1439TIP3    H2 4324   3.809   1.361   4.028
 1440TIP3   OH2 4325   2.701   1.104   3.468
 1440TIP3    H1 4326   2.743   1.137   3.547
 1440TIP3    H2 4327   2.608   1.115   3.484
 1441TIP3   OH2 4328   2.537   2.655   4.578
 1441TIP3    H1 4329   2.548   2.750   4.574
 1441TIP3    H2 4330   2.626   2.620   4.573
 1442TIP3   OH2 4331   5.130   5.367   3.813
 1442TIP3    H1 4332   5.179   5.319   3.880
 1442TIP3    H2 4333   5.120   5.303   3.742
 1443TIP3   OH2 4334   4.373   5.153   1.696
 1443TIP3    H1 4335   4.381   5.058   1.688
 1443TIP3    H2 4336   4.459   5.183   1.725
 1444TIP3   OH2 4337   2.942   2.787   2.173
 1444TIP3    H1 4338   2.949   2.692   2.162
 1444TIP3    H2 4339   2.975   2.823   2.091
 1445TIP3   OH2 4340   4.716   4.362   1.285
 1445TIP3    H1 4341   4.723   4.342   1.192
 1445TIP3    H2 4342   4.767   4.294   1.328
 1446TIP3   OH2 4343   3.411   4.574   2.430
 1446TIP3    H1 4344   3.426   4.481   2.414
 1446TIP3    H2 4345   3.444   4.588   2.519
 1447TIP3   OH2 4346   2.907   5.524   3.772
 1447TIP3    H1 4347   2.867   5.437   3.773
 1447TIP3    H2 4348   2.879   5.563   3.689
 1448TIP3   OH2 4349   6.307   4.710   2.151
 1448TIP3    H1 4350   6.344   4.774   2.212
 1448TIP3    H2 4351   6.213   4.727   2.152
 1449TIP3   OH2 4352   4.693   1.968   2.864
 1449TIP3    H1 4353   4.659   2.043   2.816
 1449TIP3    H2 4354   4.786   1.965   2.843
 1450TIP3   OH2 4355   3.176   2.215   3.667
 1450TIP3    H1 4356   3.230   2.239   3.742
 1450TIP3    H2 4357   3.100   2.170   3.705
 1451TIP3   OH2 4358   3.487   3.603   0.752
 1451TIP3    H1 4359   3.435   3.599   0.671
 1451TIP3    H2 4360   3.523   3.691   0.753
 1452TIP3   OH2 4361   4.295   1.381   4.618
 1452TIP3    H1 4362   4.376   1.394   4.569
 1452TIP3    H2 4363   4.238   1.332   4.559
 1453TIP3   OH2 4364   6.161   2.407   0.118
 1453TIP3    H1 4365   6.187   2.456   0.196
 1453TIP3    H2 4366   6.188   2.463   0.045
 1454TIP3   OH2 4367   0.893   0.722   2.676
 1454TIP3    H1 4368   0.912   0.803   2.628
 1454TIP3    H2 4369   0.948   0.728   2.755
 1455TIP3   OH2 4370   0.890   2.397   3.749
 1455TIP3    H1 4371   0.866   2.490   3.744
 1455TIP3    H2 4372   0.883   2.366   3.659
 1456TIP3   OH2 4373   6.065   4.859   0.558
 1456TIP3    H1 4374   6.130   4.794   0.584
 1456TIP3    H2 4375   6.071   4.927   0.625
 1457TIP3   OH2 4376   3.923   4.084   1.550
 1457TIP3    H1 4377   3.932   4.025   1.476
 1457TIP3    H2 4378   3.830   4.104   1.554
 1458TIP3   OH2 4379   4.853   4.469   0.454
 1458TIP3    H1 4380   4.839   4.511   0.369
 1458TIP3    H2 4381   4.892   4.384   0.433
 1459TIP3   OH2 4382   4.911   1.114   1.039
 1459TIP3    H1 4383   4.978   1.047   1.049
 1459TIP3    H2 4384   4.950   1.193   1.076
 1460TIP3   OH2 4385   1.284   3.678   4.274
 1460TIP3    H1 4386   1.229   3.703   4.348
 1460TIP3    H2 4387   1.318   3.592   4.298
 1461TIP3   OH2 4388   3.050   1.316   0.143
 1461TIP3    H1 4389   3.043   1.227   0.110
 1461TIP3    H2 4390   3.106   1.360   0.079
 1462TIP3   OH2 4391   3.984   4.297   1.170
 1462TIP3    H1 4392   3.958   4.222   1.222
 1462TIP3    H2 4393   3.906   4.321   1.120
 1463TIP3   OH2 4394   5.074   2.692   1.631
 1463TIP3    H1 4395   5.080   2.688   1.536
 1463TIP3    H2 4396   5.040   2.779   1.650
 1464TIP3   OH2 4397   0.326   5.346   4.309
 1464TIP3    H1 4398   0.379   5.287   4.363
 1464TIP3    H2 4399   0.382   5.423   4.297
 1465TIP3   OH2 4400   5.192   0.022   1.337
 1465TIP3    H1 4401   5.133  -0.013   1.270
 1465TIP3    H2 4402   5.211   0.111   1.308
 1466TIP3   OH2 4403   6.220   4.961   2.975
 1466TIP3    H1 4404   6.298   4.922   2.935
 1466TIP3    H2 4405   6.247   5.049   2.999
 1467TIP3   OH2 4406   3.065   2.623   1.865
 1467TIP3    H1 4407   3.015   2.575   1.932
 1467TIP3    H2 4408   3.114   2.555   1.819
 1468TIP3   OH2 4409   0.377   2.828   1.036
 1468TIP3    H1 4410   0.286   2.819   1.008
 1468TIP3    H2 4411   0.379   2.909   1.087
 1469TIP3   OH2 4412   1.505   4.203   2.486
 1469TIP3    H1 4413   1.562   4.162   2.421
 1469TIP3    H2 4414   1.475   4.130   2.540
 1470TIP3   OH2 4415   2.676   3.136   3.822
 1470TIP3    H1 4416   2.717   3.188   3.891
 1470TIP3    H2 4417   2.671   3.047   3.859
 1471TIP3   OH2 4418   5.018   2.095   1.697
 1471TIP3    H1 4419   5.056   2.182   1.684
 1471TIP3    H2 4420   5.064   2.061   1.774
 1472TIP3   OH2 4421   0.763   1.293   3.490
 1472TIP3    H1 4422   0.858   1.279   3.496
 1472TIP3    H2 4423   0.735   1.241   3.415
 1473TIP3   OH2 4424   2.611   4.403   2.524
 1473TIP3    H1 4425   2.516   4.396   2.529
 1473TIP3    H2 4426   2.642   4.374   2.610
 1474TIP3   OH2 4427   1.000   3.901   0.517
 1474TIP3    H1 4428   0.975   3.926   0.428
 1474TIP3    H2 4429   1.036   3.813   0.508
 1475TIP3   OH2 4430   0.580   5.171   4.628
 1475TIP3    H1 4431   0.558   5.206   4.542
 1475TIP3    H2 4432   0.534   5.229   4.689
 1476TIP3   OH2 4433   0.737   4.412   1.473
 1476TIP3    H1 4434   0.754   4.355   1.548
 1476TIP3    H2 4435   0.823   4.447   1.450
 1477TIP3   OH2 4436   1.691   4.105   2.310
 1477TIP3    H1 4437   1.629   4.079   2.241
 1477TIP3    H2 4438   1.754   4.161   2.264
 1478TIP3   OH2 4439   3.256   3.936   3.940
 1478TIP3    H1 4440   3.295   4.023   3.931
 1478TIP3    H2 4441   3.283   3.889   3.861
 1479TIP3   OH2 4442   3.804   1.577   3.866
 1479TIP3    H1 4443   3.811   1.490   3.826
 1479TIP3    H2 4444   3.868   1.575   3.937
 1480TIP3   OH2 4445   1.855   2.275   1.698
 1480TIP3    H1 4446   1.815   2.332   1.764
 1480TIP3    H2 4447   1.833   2.317   1.615
 1481TIP3   OH2 4448   4.432   0.431   5.102
 1481TIP3    H1 4449   4.366   0.491   5.136
 1481TIP3    H2 4450   4.503   0.488   5.072
 1482TIP3   OH2 4451   2.057   1.428   4.470
 1482TIP3    H1 4452   2.027   1.364   4.405
 1482TIP3    H2 4453   2.116   1.486   4.421
 1483TIP3   OH2 4454   5.354   2.848   4.704
 1483TIP3    H1 4455   5.411   2.773   4.724
 1483TIP3    H2 4456   5.398   2.923   4.746
 1484TIP3   OH2 4457   3.971   4.841   1.359
 1484TIP3    H1 4458   3.907   4.792   1.411
 1484TIP3    H2 4459   4.044   4.857   1.418
 1485TIP3   OH2 4460   4.748   5.528   0.952
 1485TIP3    H1 4461   4.709   5.495   0.871
 1485TIP3    H2 4462   4.842   5.528   0.935
 1486TIP3   OH2 4463   1.450   1.883   0.890
 1486TIP3    H1 4464   1.414   1.836   0.965
 1486TIP3    H2 4465   1.447   1.975   0.915
 1487TIP3   OH2 4466   3.075   4.470   0.748
 1487TIP3    H1 4467   3.161   4.428   0.742
 1487TIP3    H2 4468   3.090   4.547   0.804
 1488TIP3   OH2 4469   4.299   5.521   4.416
 1488TIP3    H1 4470   4.305   5.611   4.449
 1488TIP3    H2 4471   4.262   5.530   4.329
 1489TIP3   OH2 4472   5.005   5.452   0.971
 1489TIP3    H1 4473   5.052   5.459   1.055
 1489TIP3    H2 4474   5.066   5.406   0.914
 1490TIP3   OH2 4475   5.535   5.584   4.692
 1490TIP3    H1 4476   5.476   5.523   4.737
 1490TIP3    H2 4477   5.547   5.655   4.755
 1491TIP3   OH2 4478   4.286   3.072   3.761
 1491TIP3    H1 4479   4.237   3.150   3.787
 1491TIP3    H2 4480   4.376   3.091   3.789
 1492TIP3   OH2 4481   4.315   4.215   4.760
 1492TIP3    H1 4482   4.376   4.143   4.781
 1492TIP3    H2 4483   4.367   4.275   4.707
 1493TIP3   OH2 4484   0.632   3.078   2.731
 1493TIP3    H1 4485   0.603   3.021   2.660
 1493TIP3    H2 4486   0.706   3.032   2.770
 1494TIP3   OH2 4487   4.017   1.763   4.317
 1494TIP3    H1 4488   4.105   1.729   4.333
 1494TIP3    H2 4489   4.018   1.788   4.224
 1495TIP3   OH2 4490   3.498   4.284   1.130
 1495TIP3    H1 4491   3.451   4.330   1.199
 1495TIP3    H2 4492   3.447   4.302   1.051
 1496TIP3   OH2 4493   4.111   5.112   4.892
 1496TIP3    H1 4494   4.164   5.146   4.820
 1496TIP3    H2 4495   4.047   5.180   4.909
 1497TIP3   OH2 4496   6.174   3.496   3.737
 1497TIP3    H1 4497   6.101   3.473   3.794
 1497TIP3    H2 4498   6.191   3.589   3.757
 1498TIP3   OH2 4499   1.347   0.506   2.052
 1498TIP3    H1 4500   1.386   0.566   2.115
 1498TIP3    H2 4501   1.292   0.562   1.997
 1499TIP3   OH2 4502   3.706   4.780   4.674
 1499TIP3    H1 4503   3.644   4.713   4.703
 1499TIP3    H2 4504   3.789   4.755   4.715
 1500TIP3   OH2 4505   0.774   1.995   4.709
 1500TIP3    H1 4506   0.775   2.084   4.744
 1500TIP3    H2 4507   0.857   1.957   4.739
 1501TIP3   OH2 4508   1.110   4.430   5.025
 1501TIP3    H1 4509   1.185   4.373   5.005
 1501TIP3    H2 4510   1.137   4.476   5.105
 1502TIP3   OH2 4511   0.824   0.490   3.588
 1502TIP3    H1 4512   0.750   0.478   3.528
 1502TIP3    H2 4513   0.898   0.450   3.543
 1503TIP3   OH2 4514   4.036   2.584   4.479
 1503TIP3    H1 4515   4.043   2.601   4.573
 1503TIP3    H2 4516   4.047   2.669   4.439
 1504TIP3   OH2 4517   3.129   1.647   3.768
 1504TIP3    H1 4518   3.066   1.719   3.777
 1504TIP3    H2 4519   3.213   1.691   3.754
 1505TIP3   OH2 4520   0.748   1.867   2.452
 1505TIP3    H1 4521   0.786   1.941   2.405
 1505TIP3    H2 4522   0.696   1.908   2.521
 1506TIP3   OH2 4523   5.200   3.534   3.098
 1506TIP3    H1 4524   5.205   3.440   3.079
 1506TIP3    H2 4525   5.276   3.551   3.154
 1507TIP3   OH2 4526   5.013   0.740   0.969
 1507TIP3    H1 4527   5.070   0.671   0.936
 1507TIP3    H2 4528   4.965   0.770   0.892
 1508TIP3   OH2 4529   5.441   3.889   3.986
 1508TIP3    H1 4530   5.520   3.883   4.039
 1508TIP3    H2 4531   5.472   3.889   3.896
 1509TIP3   OH2 4532   5.758   4.637   1.845
 1509TIP3    H1 4533   5.817   4.675   1.910
 1509TIP3    H2 4534   5.687   4.598   1.897
 1510TIP3   OH2 4535   1.842   3.524   5.181
 1510TIP3    H1 4536   1.852   3.498   5.089
 1510TIP3    H2 4537   1.905   3.469   5.228
 1511TIP3   OH2 4538   5.881   3.759   0.772
 1511TIP3    H1 4539   5.825   3.682   0.786
 1511TIP3    H2 4540   5.889   3.799   0.858
 1512TIP3   OH2 4541   1.608   5.732   1.356
 1512TIP3    H1 4542   1.612   5.791   1.281
 1512TIP3    H2 4543   1.692   5.686   1.355
 1513TIP3   OH2 4544   2.405   5.283   4.578
 1513TIP3    H1 4545   2.442   5.360   4.621
 1513TIP3    H2 4546   2.461   5.211   4.607
 1514TIP3   OH2 4547   0.780   0.760   4.333
 1514TIP3    H1 4548   0.843   0.765   4.262
 1514TIP3    H2 4549   0.699   0.730   4.291
 1515TIP3   OH2 4550   0.011   4.189   4.599
 1515TIP3    H1 4551   0.086   4.247   4.615
 1515TIP3    H2 4552   0.012   4.174   4.504
 1516TIP3   OH2 4553   5.536   4.367   4.263
 1516TIP3    H1 4554   5.454   4.416   4.259
 1516TIP3    H2 4555   5.517   4.284   4.219
 1517TIP3   OH2 4556   2.275   2.804   4.675
 1517TIP3    H1 4557   2.364   2.777   4.699
 1517TIP3    H2 4558   2.288   2.889   4.632
 1518TIP3   OH2 4559   5.843   4.893   3.306
 1518TIP3    H1 4560   5.938   4.892   3.321
 1518TIP3    H2 4561   5.830   4.835   3.232
 1519TIP3   OH2 4562   0.814   5.841   5.136
 1519TIP3    H1 4563   0.896   5.891   5.147
 1519TIP3    H2 4564   0.750   5.907   5.109
 1520TIP3   OH2 4565   3.900   2.530   1.584
 1520TIP3    H1 4566   3.856   2.500   1.663
 1520TIP3    H2 4567   3.916   2.623   1.599
 1521TIP3   OH2 4568   5.879   3.093   4.205
 1521TIP3    H1 4569   5.806   3.131   4.254
 1521TIP3    H2 4570   5.945   3.073   4.271
 1522TIP3   OH2 4571   3.371   2.007   3.545
 1522TIP3    H1 4572   3.369   2.028   3.451
 1522TIP3    H2 4573   3.302   2.061   3.583
 1523TIP3   OH2 4574   2.220   4.647   2.684
 1523TIP3    H1 4575   2.169   4.703   2.626
 1523TIP3    H2 4576   2.309   4.652   2.650
 1524TIP3   OH2 4577   4.901   1.934   2.015
 1524TIP3    H1 4578   4.929   1.897   2.099
 1524TIP3    H2 4579   4.983   1.961   1.973
 1525TIP3   OH2 4580   3.536   2.560   4.411
 1525TIP3    H1 4581   3.497   2.473   4.412
 1525TIP3    H2 4582   3.608   2.553   4.348
 1526TIP3   OH2 4583   4.489   3.487   4.918
 1526TIP3    H1 4584   4.458   3.408   4.961
 1526TIP3    H2 4585   4.456   3.480   4.828
 1527TIP3   OH2 4586   5.050   5.220   4.379
 1527TIP3    H1 4587   5.069   5.279   4.453
 1527TIP3    H2 4588   5.116   5.242   4.314
 1528TIP3   OH2 4589   4.267   5.268   0.402
 1528TIP3    H1 4590   4.299   5.186   0.440
 1528TIP3    H2 4591   4.337   5.297   0.345
 1529TIP3   OH2 4592   0.317   3.909   4.957
 1529TIP3    H1 4593   0.340   3.849   5.029
 1529TIP3    H2 4594   0.253   3.860   4.906
 1530TIP3   OH2 4595   3.644   4.255   3.250
 1530TIP3    H1 4596   3.688   4.314   3.311
 1530TIP3    H2 4597   3.551   4.277   3.257
 1531TIP3   OH2 4598   4.327   0.433   4.575
 1531TIP3    H1 4599   4.249   0.387   4.543
 1531TIP3    H2 4600   4.307   0.452   4.667
 1532TIP3   OH2 4601   3.240   3.155   1.696
 1532TIP3    H1 4602   3.168   3.183   1.753
 1532TIP3    H2 4603   3.318   3.160   1.752
 1533TIP3   OH2 4604   2.339   0.610   0.093
 1533TIP3    H1 4605   2.301   0.599   0.005
 1533TIP3    H2 4606   2.328   0.703   0.112
 1534TIP3   OH2 4607   6.103   0.690   2.313
 1534TIP3    H1 4608   6.117   0.722   2.224
 1534TIP3    H2 4609   6.108   0.768   2.367
 1535TIP3   OH2 4610   0.889   1.961   0.146
 1535TIP3    H1 4611   0.961   2.010   0.185
 1535TIP3    H2 4612   0.856   2.017   0.077
 1536TIP3   OH2 4613   4.816   3.228   0.283
 1536TIP3    H1 4614   4.777   3.141   0.279
 1536TIP3    H2 4615   4.838   3.240   0.376
 1537TIP3   OH2 4616   5.088   1.315   0.254
 1537TIP3    H1 4617   5.150   1.313   0.327
 1537TIP3    H2 4618   5.140   1.290   0.177
 1538TIP3   OH2 4619   6.259   2.675   3.166
 1538TIP3    H1 4620   6.291   2.608   3.106
 1538TIP3    H2 4621   6.188   2.719   3.118
 1539TIP3   OH2 4622   2.438   0.285   3.574
 1539TIP3    H1 4623   2.502   0.351   3.601
 1539TIP3    H2 4624   2.489   0.224   3.521
 1540TIP3   OH2 4625   0.393   0.452   3.818
 1540TIP3    H1 4626   0.443   0.533   3.820
 1540TIP3    H2 4627   0.302   0.480   3.827
 1541TIP3   OH2 4628   0.127   3.533   2.888
 1541TIP3    H1 4629   0.046   3.537   2.837
 1541TIP3    H2 4630   0.197   3.549   2.825
 1542TIP3   OH2 4631   5.003   4.858   0.969
 1542TIP3    H1 4632   5.019   4.827   0.880
 1542TIP3    H2 4633   5.014   4.780   1.024
 1543TIP3   OH2 4634   3.402   1.946   3.952
 1543TIP3    H1 4635   3.485   1.972   3.913
 1543TIP3    H2 4636   3.372   1.873   3.896
 1544TIP3   OH2 4637   1.155   3.919   1.629
 1544TIP3    H1 4638   1.076   3.912   1.576
 1544TIP3    H2 4639   1.193   4.003   1.604
 1545TIP3   OH2 4640   2.664   2.613   2.460
 1545TIP3    H1 4641   2.616   2.588   2.539
 1545TIP3    H2 4642   2.610   2.579   2.388
 1546TIP3   OH2 4643   6.261   3.748   2.585
 1546TIP3    H1 4644   6.351   3.774   2.601
 1546TIP3    H2 4645   6.218   3.827   2.553
 1547TIP3   OH2 4646   0.282   2.368   3.439
 1547TIP3    H1 4647   0.278   2.272   3.437
 1547TIP3    H2 4648   0.334   2.388   3.517
 1548TIP3   OH2 4649   2.754   2.678   1.726
 1548TIP3    H1 4650   2.844   2.649   1.738
 1548TIP3    H2 4651   2.710   2.603   1.684
 1549TIP3   OH2 4652   4.616   3.768   2.901
 1549TIP3    H1 4653   4.650   3.764   2.812
 1549TIP3    H2 4654   4.692   3.752   2.956
 1550TIP3   OH2 4655   4.810   2.049   4.661
 1550TIP3    H1 4656   4.812   2.091   4.575
 1550TIP3    H2 4657   4.739   2.093   4.708
 1551TIP3   OH2 4658   3.708   5.007   4.200
 1551TIP3    H1 4659   3.712   4.974   4.290
 1551TIP3    H2 4660   3.798   5.002   4.168
 1552TIP3   OH2 4661   2.944   2.934   2.763
 1552TIP3    H1 4662   2.990   3.008   2.723
 1552TIP3    H2 4663   2.987   2.856   2.725
 1553TIP3   OH2 4664   2.642   5.720   1.408
 1553TIP3    H1 4665   2.564   5.723   1.353
 1553TIP3    H2 4666   2.626   5.784   1.477
 1554TIP3   OH2 4667   4.664   3.319   2.560
 1554TIP3    H1 4668   4.587   3.366   2.530
 1554TIP3    H2 4669   4.713   3.384   2.611
 1555TIP3   OH2 4670   4.227   2.775   2.171
 1555TIP3    H1 4671   4.322   2.767   2.180
 1555TIP3    H2 4672   4.192   2.756   2.258
 1556TIP3   OH2 4673   0.944   1.123   2.610
 1556TIP3    H1 4674   0.917   1.100   2.699
 1556TIP3    H2 4675   1.036   1.151   2.619
 1557TIP3   OH2 4676   3.603   1.856   0.476
 1557TIP3    H1 4677   3.581   1.893   0.390
 1557TIP3    H2 4678   3.592   1.929   0.536
 1558TIP3   OH2 4679   5.401   1.724   0.006
 1558TIP3    H1 4680   5.410   1.675   0.088
 1558TIP3    H2 4681   5.484   1.709  -0.039
 1559TIP3   OH2 4682   0.965   1.256   5.001
 1559TIP3    H1 4683   1.002   1.284   5.085
 1559TIP3    H2 4684   0.908   1.328   4.976
 1560TIP3   OH2 4685   5.454   1.600   2.172
 1560TIP3    H1 4686   5.402   1.519   2.167
 1560TIP3    H2 4687   5.388   1.669   2.178
 1561TIP3   OH2 4688   3.746   4.186   4.570
 1561TIP3    H1 4689   3.809   4.258   4.580
 1561TIP3    H2 4690   3.680   4.219   4.509
 1562TIP3   OH2 4691   3.069   1.550   3.149
 1562TIP3    H1 4692   3.025   1.590   3.074
 1562TIP3    H2 4693   3.080   1.458   3.124
 1563TIP3   OH2 4694   2.850   4.175   4.711
 1563TIP3    H1 4695   2.901   4.132   4.642
 1563TIP3    H2 4696   2.916   4.211   4.771
 1564TIP3   OH2 4697   3.948   4.086   0.199
 1564TIP3    H1 4698   3.901   4.169   0.195
 1564TIP3    H2 4699   4.034   4.106   0.162
 1565TIP3   OH2 4700   3.853   0.060   2.189
 1565TIP3    H1 4701   3.798   0.104   2.125
 1565TIP3    H2 4702   3.835  -0.033   2.175
 1566TIP3   OH2 4703   5.598   0.601   3.966
 1566TIP3    H1 4704   5.658   0.558   3.904
 1566TIP3    H2 4705   5.655   0.661   4.016
 1567TIP3   OH2 4706   3.579   5.611   4.768
 1567TIP3    H1 4707   3.544   5.638   4.853
 1567TIP3    H2 4708   3.603   5.693   4.725
 1568TIP3   OH2 4709   1.730   0.486   3.565
 1568TIP3    H1 4710   1.705   0.425   3.635
 1568TIP3    H2 4711   1.775   0.431   3.501
 1569TIP3   OH2 4712   4.478   2.753   2.368
 1569TIP3    H1 4713   4.424   2.770   2.445
 1569TIP3    H2 4714   4.492   2.840   2.330
 1570TIP3   OH2 4715   3.445   2.832   4.343
 1570TIP3    H1 4716   3.511   2.812   4.277
 1570TIP3    H2 4717   3.428   2.749   4.387
 1571TIP3   OH2 4718   2.165   5.699   3.126
 1571TIP3    H1 4719   2.201   5.787   3.129
 1571TIP3    H2 4720   2.109   5.693   3.203
 1572TIP3   OH2 4721   0.366   1.737   1.214
 1572TIP3    H1 4722   0.315   1.816   1.197
 1572TIP3    H2 4723   0.456   1.768   1.224
 1573TIP3   OH2 4724   2.208   4.608   1.347
 1573TIP3    H1 4725   2.277   4.628   1.284
 1573TIP3    H2 4726   2.131   4.586   1.294
 1574TIP3   OH2 4727   2.521   4.238   0.849
 1574TIP3    H1 4728   2.477   4.317   0.818
 1574TIP3    H2 4729   2.595   4.271   0.900
 1575TIP3   OH2 4730   3.792   0.350   2.316
 1575TIP3    H1 4731   3.729   0.326   2.248
 1575TIP3    H2 4732   3.785   0.445   2.324
 1576TIP3   OH2 4733   5.116   1.173   2.610
 1576TIP3    H1 4734   5.097   1.249   2.666
 1576TIP3    H2 4735   5.031   1.131   2.599
 1577TIP3   OH2 4736   0.782   4.189   2.849
 1577TIP3    H1 4737   0.726   4.114   2.869
 1577TIP3    H2 4738   0.848   4.155   2.789
 1578TIP3   OH2 4739   1.140   1.565   3.119
 1578TIP3    H1 4740   1.162   1.657   3.108
 1578TIP3    H2 4741   1.139   1.529   3.030
 1579TIP3   OH2 4742   3.986   5.756   4.866
 1579TIP3    H1 4743   3.900   5.713   4.860
 1579TIP3    H2 4744   4.043   5.704   4.809
 1580TIP3   OH2 4745   1.123   0.676   0.140
 1580TIP3    H1 4746   1.035   0.640   0.126
 1580TIP3    H2 4747   1.118   0.716   0.227
 1581TIP3   OH2 4748   0.513   5.295   2.547
 1581TIP3    H1 4749   0.497   5.297   2.642
 1581TIP3    H2 4750   0.537   5.385   2.525
 1582TIP3   OH2 4751   0.619   0.594   4.161
 1582TIP3    H1 4752   0.524   0.600   4.154
 1582TIP3    H2 4753   0.651   0.597   4.071
 1583TIP3   OH2 4754   1.901   3.211   1.757
 1583TIP3    H1 4755   1.900   3.307   1.765
 1583TIP3    H2 4756   1.816   3.184   1.792
 1584TIP3   OH2 4757   1.783   4.037   2.556
 1584TIP3    H1 4758   1.872   4.070   2.544
 1584TIP3    H2 4759   1.743   4.045   2.469
 1585TIP3   OH2 4760   4.217   1.728   2.262
 1585TIP3    H1 4761   4.273   1.749   2.336
 1585TIP3    H2 4762   4.269   1.669   2.208
 1586TIP3   OH2 4763   1.202   1.216   0.068
 1586TIP3    H1 4764   1.190   1.123   0.086
 1586TIP3    H2 4765   1.297   1.227   0.062
 1587TIP3   OH2 4766   2.947   3.248   3.071
 1587TIP3    H1 4767   2.979   3.301   3.144
 1587TIP3    H2 4768   2.960   3.303   2.993
 1588TIP3   OH2 4769   2.700   2.622   1.374
 1588TIP3    H1 4770   2.742   2.556   1.428
 1588TIP3    H2 4771   2.770   2.657   1.319
 1589TIP3   OH2 4772   4.131   1.837   5.071
 1589TIP3    H1 4773   4.081   1.857   4.992
 1589TIP3    H2 4774   4.108   1.746   5.091
 1590TIP3   OH2 4775   5.398   1.150   3.288
 1590TIP3    H1 4776   5.358   1.077   3.240
 1590TIP3    H2 4777   5.334   1.172   3.355
 1591TIP3   OH2 4778   2.724   4.444   3.543
 1591TIP3    H1 4779   2.808   4.435   3.497
 1591TIP3    H2 4780   2.659   4.449   3.473
 1592TIP3   OH2 4781   5.583   1.391   0.558
 1592TIP3    H1 4782   5.487   1.389   0.565
 1592TIP3    H2 4783   5.611   1.447   0.630
 1593TIP3   OH2 4784   3.100   1.224   0.460
 1593TIP3    H1 4785   3.046   1.283   0.513
 1593TIP3    H2 4786   3.168   1.280   0.424
 1594TIP3   OH2 4787   3.461   2.343   2.523
 1594TIP3    H1 4788   3.426   2.383   2.602
 1594TIP3    H2 4789   3.447   2.408   2.454
 1595TIP3   OH2 4790   1.830   4.486   4.033
 1595TIP3    H1 4791   1.831   4.570   3.987
 1595TIP3    H2 4792   1.808   4.422   3.966
 1596TIP3   OH2 4793   4.749   5.028   4.854
 1596TIP3    H1 4794   4.656   5.047   4.867
 1596TIP3    H2 4795   4.754   4.991   4.766
 1597TIP3   OH2 4796   1.227   5.444   0.891
 1597TIP3    H1 4797   1.262   5.522   0.933
 1597TIP3    H2 4798   1.231   5.463   0.797
 1598TIP3   OH2 4799   3.592   4.463   1.745
 1598TIP3    H1 4800   3.576   4.436   1.836
 1598TIP3    H2 4801   3.530   4.533   1.729
 1599TIP3   OH2 4802   2.656   2.546   3.811
 1599TIP3    H1 4803   2.612   2.630   3.822
 1599TIP3    H2 4804   2.744   2.560   3.846
 1600TIP3   OH2 4805   0.477   4.100   2.716
 1600TIP3    H1 4806   0.556   4.047   2.728
 1600TIP3    H2 4807   0.405   4.044   2.741
 1601TIP3   OH2 4808   5.030   0.313   1.256
 1601TIP3    H1 4809   5.047   0.394   1.207
 1601TIP3    H2 4810   4.935   0.302   1.251
 1602TIP3   OH2 4811   1.064   2.591   0.864
 1602TIP3    H1 4812   1.102   2.558   0.945
 1602TIP3    H2 4813   0.981   2.631   0.890
 1603TIP3   OH2 4814   1.346   4.714   4.694
 1603TIP3    H1 4815   1.402   4.662   4.636
 1603TIP3    H2 4816   1.395   4.794   4.709
 1604TIP3   OH2 4817   3.217   4.833   3.830
 1604TIP3    H1 4818   3.172   4.907   3.870
 1604TIP3    H2 4819   3.299   4.870   3.798
 1605TIP3   OH2 4820   2.795   0.988   1.789
 1605TIP3    H1 4821   2.881   1.014   1.757
 1605TIP3    H2 4822   2.735   1.049   1.746
 1606TIP3   OH2 4823   4.699   0.739   2.802
 1606TIP3    H1 4824   4.781   0.748   2.752
 1606TIP3    H2 4825   4.726   0.697   2.884
 1607TIP3   OH2 4826   0.325   0.853   2.376
 1607TIP3    H1 4827   0.325   0.760   2.353
 1607TIP3    H2 4828   0.418   0.877   2.380
 1608TIP3   OH2 4829   0.139   0.803   2.571
 1608TIP3    H1 4830   0.194   0.842   2.504
 1608TIP3    H2 4831   0.111   0.876   2.625
 1609TIP3   OH2 4832   0.086   5.191   4.800
 1609TIP3    H1 4833   0.109   5.121   4.739
 1609TIP3    H2 4834   0.158   5.254   4.792
 1610TIP3   OH2 4835   4.353   3.951   3.789
 1610TIP3    H1 4836   4.390   3.868   3.756
 1610TIP3    H2 4837   4.263   3.951   3.756
 1611TIP3   OH2 4838   5.904   1.861   3.292
 1611TIP3    H1 4839   5.913   1.917   3.369
 1611TIP3    H2 4840   5.912   1.921   3.217
 1612TIP3   OH2 4841   3.969   4.275   2.171
 1612TIP3    H1 4842   4.059   4.246   2.187
 1612TIP3    H2 4843   3.914   4.204   2.206
 1613TIP3   OH2 4844   0.640   2.263   4.542
 1613TIP3    H1 4845   0.647   2.356   4.567
 1613TIP3    H2 4846   0.729   2.240   4.515
 1614TIP3   OH2 4847   2.947   1.966   3.660
 1614TIP3    H1 4848   2.904   2.047   3.634
 1614TIP3    H2 4849   2.876   1.905   3.676
 1615TIP3   OH2 4850   2.759   1.260   4.945
 1615TIP3    H1 4851   2.802   1.328   4.893
 1615TIP3    H2 4852   2.831   1.205   4.977
 1616TIP3   OH2 4853   0.732   2.045   3.573
 1616TIP3    H1 4854   0.731   1.978   3.504
 1616TIP3    H2 4855   0.642   2.079   3.575
 1617TIP3   OH2 4856   2.484   3.602   3.585
 1617TIP3    H1 4857   2.509   3.529   3.642
 1617TIP3    H2 4858   2.526   3.583   3.501
 1618TIP3   OH2 4859   3.087   3.673   4.128
 1618TIP3    H1 4860   3.142   3.615   4.182
 1618TIP3    H2 4861   3.041   3.727   4.192
 1619TIP3   OH2 4862   4.990   3.962   4.530
 1619TIP3    H1 4863   4.973   3.919   4.446
 1619TIP3    H2 4864   4.998   4.055   4.508
 1620TIP3   OH2 4865   4.956   2.541   2.308
 1620TIP3    H1 4866   4.993   2.595   2.238
 1620TIP3    H2 4867   4.861   2.548   2.296
 1621TIP3   OH2 4868   6.338   0.335   0.885
 1621TIP3    H1 4869   6.293   0.300   0.808
 1621TIP3    H2 4870   6.289   0.414   0.908
 1622TIP3   OH2 4871   5.941   3.764   2.684
 1622TIP3    H1 4872   5.939   3.771   2.588
 1622TIP3    H2 4873   6.000   3.834   2.711
 1623TIP3   OH2 4874   1.004   4.917   5.067
 1623TIP3    H1 4875   1.062   4.868   5.125
 1623TIP3    H2 4876   1.007   5.007   5.100
 1624TIP3   OH2 4877   5.806   5.242   0.496
 1624TIP3    H1 4878   5.801   5.329   0.455
 1624TIP3    H2 4879   5.720   5.203   0.480
 1625TIP3   OH2 4880   2.381   2.730   2.193
 1625TIP3    H1 4881   2.447   2.775   2.141
 1625TIP3    H2 4882   2.363   2.649   2.145
 1626TIP3   OH2 4883   5.692   3.803   3.167
 1626TIP3    H1 4884   5.767   3.772   3.217
 1626TIP3    H2 4885   5.683   3.741   3.095
 1627TIP3   OH2 4886   0.822   5.514   2.170
 1627TIP3    H1 4887   0.781   5.588   2.126
 1627TIP3    H2 4888   0.769   5.438   2.145
 1628TIP3   OH2 4889   4.546   4.718   0.925
 1628TIP3    H1 4890   4.598   4.778   0.978
 1628TIP3    H2 4891   4.511   4.654   0.988
 1629TIP3   OH2 4892   0.502   4.509   2.923
 1629TIP3    H1 4893   0.553   4.444   2.970
 1629TIP3    H2 4894   0.563   4.550   2.863
 1630TIP3   OH2 4895   5.453   0.487   0.917
 1630TIP3    H1 4896   5.427   0.456   1.003
 1630TIP3    H2 4897   5.379   0.538   0.885
 1631TIP3   OH2 4898   3.151   2.609   5.014
 1631TIP3    H1 4899   3.202   2.532   5.040
 1631TIP3    H2 4900   3.203   2.683   5.045
 1632TIP3   OH2 4901   6.022   0.604   3.941
 1632TIP3    H1 4902   5.962   0.651   3.884
 1632TIP3    H2 4903   5.975   0.594   4.024
 1633TIP3   OH2 4904   5.973   3.800   1.837
 1633TIP3    H1 4905   6.049   3.772   1.787
 1633TIP3    H2 4906   5.965   3.736   1.908
 1634TIP3   OH2 4907   1.534   0.604   0.796
 1634TIP3    H1 4908   1.450   0.601   0.752
 1634TIP3    H2 4909   1.594   0.559   0.736
 1635TIP3   OH2 4910   5.157   5.051   5.055
 1635TIP3    H1 4911   5.084   5.111   5.039
 1635TIP3    H2 4912   5.231   5.108   5.078
 1636TIP3   OH2 4913   0.641   3.592   2.147
 1636TIP3    H1 4914   0.602   3.678   2.164
 1636TIP3    H2 4915   0.646   3.551   2.233
 1637TIP3   OH2 4916   4.812   0.415   2.687
 1637TIP3    H1 4917   4.906   0.406   2.704
 1637TIP3    H2 4918   4.784   0.486   2.744
 1638TIP3   OH2 4919   1.109   0.701   4.924
 1638TIP3    H1 4920   1.150   0.619   4.950
 1638TIP3    H2 4921   1.031   0.675   4.876
 1639TIP3   OH2 4922   5.779   4.062   2.411
 1639TIP3    H1 4923   5.723   4.020   2.346
 1639TIP3    H2 4924   5.738   4.040   2.495
 1640TIP3   OH2 4925   3.849   2.673   5.097
 1640TIP3    H1 4926   3.850   2.622   5.016
 1640TIP3    H2 4927   3.768   2.723   5.094
 1641TIP3   OH2 4928   0.230   5.050   3.032
 1641TIP3    H1 4929   0.316   5.043   3.075
 1641TIP3    H2 4930   0.210   5.143   3.036
 1642TIP3   OH2 4931   6.043   3.177   2.283
 1642TIP3    H1 4932   6.086   3.244   2.231
 1642TIP3    H2 4933   6.000   3.121   2.218
 1643TIP3   OH2 4934   0.089   4.145   3.750
 1643TIP3    H1 4935   0.024   4.136   3.679
 1643TIP3    H2 4936   0.047   4.102   3.825
 1644TIP3   OH2 4937   3.380   0.247   3.640
 1644TIP3    H1 4938   3.378   0.261   3.546
 1644TIP3    H2 4939   3.304   0.294   3.673
 1645TIP3   OH2 4940   2.150   0.133   5.132
 1645TIP3    H1 4941   2.104   0.184   5.065
 1645TIP3    H2 4942   2.084   0.073   5.165
 1646TIP3   OH2 4943   4.145   5.642   2.180
 1646TIP3    H1 4944   4.111   5.635   2.091
 1646TIP3    H2 4945   4.068   5.636   2.237
 1647TIP3   OH2 4946   4.349   2.096   4.280
 1647TIP3    H1 4947   4.318   2.071   4.193
 1647TIP3    H2 4948   4.424   2.153   4.264
 1648TIP3   OH2 4949   0.317   2.352   0.802
 1648TIP3    H1 4950   0.250   2.398   0.753
 1648TIP3    H2 4951   0.309   2.385   0.892
 1649TIP3   OH2 4952   4.046   0.113   1.714
 1649TIP3    H1 4953   4.080   0.056   1.783
 1649TIP3    H2 4954   3.951   0.105   1.722
 1650TIP3   OH2 4955   4.162   4.719   1.099
 1650TIP3    H1 4956   4.117   4.804   1.099
 1650TIP3    H2 4957   4.128   4.674   1.177
 1651TIP3   OH2 4958   3.795   3.243   1.833
 1651TIP3    H1 4959   3.815   3.190   1.910
 1651TIP3    H2 4960   3.774   3.330   1.868
 1652TIP3   OH2 4961   1.582   4.485   4.696
 1652TIP3    H1 4962   1.582   4.466   4.603
 1652TIP3    H2 4963   1.516   4.427   4.733
 1653TIP3   OH2 4964   3.318   3.388   3.649
 1653TIP3    H1 4965   3.327   3.378   3.555
 1653TIP3    H2 4966   3.302   3.299   3.681
 1654TIP3   OH2 4967   0.410   0.076   3.423
 1654TIP3    H1 4968   0.346   0.051   3.357
 1654TIP3    H2 4969   0.451  -0.006   3.450
 1655TIP3   OH2 4970   1.685   4.993   1.436
 1655TIP3    H1 4971   1.732   4.998   1.352
 1655TIP3    H2 4972   1.609   4.938   1.416
 1656TIP3   OH2 4973   0.320   1.075   2.963
 1656TIP3    H1 4974   0.301   1.059   2.870
 1656TIP3    H2 4975   0.389   1.014   2.985
 1657TIP3   OH2 4976   3.723   1.062   0.296
 1657TIP3    H1 4977   3.808   1.097   0.269
 1657TIP3    H2 4978   3.709   1.098   0.384
 1658TIP3   OH2 4979   3.676   3.832   2.837
 1658TIP3    H1 4980   3.587   3.856   2.810
 1658TIP3    H2 4981   3.717   3.800   2.756
 1659TIP3   OH2 4982   3.705   2.127   4.378
 1659TIP3    H1 4983   3.657   2.133   4.460
 1659TIP3    H2 4984   3.796   2.143   4.402
 1660TIP3   OH2 4985   3.293   1.888   2.944
 1660TIP3    H1 4986   3.375   1.844   2.920
 1660TIP3    H2 4987   3.262   1.840   3.020
 1661TIP3   OH2 4988   6.071   3.002   3.189
 1661TIP3    H1 4989   6.019   2.929   3.222
 1661TIP3    H2 4990   6.032   3.023   3.104
 1662TIP3   OH2 4991   1.347   3.047   4.265
 1662TIP3    H1 4992   1.397   2.967   4.281
 1662TIP3    H2 4993   1.392   3.114   4.316
 1663TIP3   OH2 4994   4.446   1.079   4.250
 1663TIP3    H1 4995   4.396   0.997   4.244
 1663TIP3    H2 4996   4.522   1.056   4.304
 1664TIP3   OH2 4997   5.419   2.430   4.130
 1664TIP3    H1 4998   5.402   2.339   4.154
 1664TIP3    H2 4999   5.453   2.470   4.210
 1665TIP3   OH2 5000   2.521   5.294   2.495
 1665TIP3    H1 5001   2.576   5.355   2.545
 1665TIP3    H2 5002   2.584   5.237   2.450
 1666TIP3   OH2 5003   2.916   5.405   1.824
 1666TIP3    H1 5004   2.918   5.497   1.849
 1666TIP3    H2 5005   2.828   5.376   1.845
 1667TIP3   OH2 5006   5.417   1.323   1.808
 1667TIP3    H1 5007   5.492   1.379   1.827
 1667TIP3    H2 5008   5.341   1.381   1.817
 1668TIP3   OH2 5009   2.686   2.051   3.327
 1668TIP3    H1 5010   2.679   1.989   3.399
 1668TIP3    H2 5011   2.646   2.006   3.252
 1669TIP3   OH2 5012   0.121   5.884   1.664
 1669TIP3    H1 5013   0.215   5.892   1.648
 1669TIP3    H2 5014   0.102   5.951   1.729
 1670TIP3   OH2 5015   1.737   0.645   4.198
 1670TIP3    H1 5016   1.752   0.656   4.104
 1670TIP3    H2 5017   1.734   0.735   4.232
 1671TIP3   OH2 5018   0.982   5.304   4.854
 1671TIP3    H1 5019   0.954   5.343   4.771
 1671TIP3    H2 5020   0.921   5.231   4.868
 1672TIP3   OH2 5021   1.494   2.105   1.032
 1672TIP3    H1 5022   1.530   2.057   1.106
 1672TIP3    H2 5023   1.509   2.197   1.054
 1673TIP3   OH2 5024   5.861   5.015   5.013
 1673TIP3    H1 5025   5.785   5.007   5.071
 1673TIP3    H2 5026   5.823   5.027   4.926
 1674TIP3   OH2 5027   3.480   2.407   1.092
 1674TIP3    H1 5028   3.417   2.477   1.104
 1674TIP3    H2 5029   3.507   2.413   1.000
 1675TIP3   OH2 5030   2.184   1.460   5.021
 1675TIP3    H1 5031   2.129   1.381   5.017
 1675TIP3    H2 5032   2.138   1.524   4.968
 1676TIP3   OH2 5033   4.118   3.082   2.457
 1676TIP3    H1 5034   4.068   3.076   2.539
 1676TIP3    H2 5035   4.079   3.016   2.400
 1677TIP3   OH2 5036   2.642   4.658   2.823
 1677TIP3    H1 5037   2.725   4.615   2.801
 1677TIP3    H2 5038   2.596   4.664   2.740
 1678TIP3   OH2 5039   3.675   5.653   0.009
 1678TIP3    H1 5040   3.684   5.604   0.090
 1678TIP3    H2 5041   3.746   5.718   0.013
 1679TIP3   OH2 5042   3.208   3.645   0.855
 1679TIP3    H1 5043   3.259   3.588   0.798
 1679TIP3    H2 5044   3.186   3.721   0.801
 1680TIP3   OH2 5045   0.424   0.032   4.350
 1680TIP3    H1 5046   0.359   0.027   4.280
 1680TIP3    H2 5047   0.476  -0.047   4.340
 1681TIP3   OH2 5048   2.373   3.125   2.154
 1681TIP3    H1 5049   2.400   3.105   2.064
 1681TIP3    H2 5050   2.287   3.166   2.144
 1682TIP3   OH2 5051   4.233   1.617   3.147
 1682TIP3    H1 5052   4.172   1.646   3.080
 1682TIP3    H2 5053   4.250   1.525   3.127
 1683TIP3   OH2 5054   1.042   4.266   2.945
 1683TIP3    H1 5055   1.092   4.211   2.884
 1683TIP3    H2 5056   0.958   4.281   2.901
 1684TIP3   OH2 5057   2.904   4.494   0.226
 1684TIP3    H1 5058   2.955   4.439   0.285
 1684TIP3    H2 5059   2.965   4.560   0.194
 1685TIP3   OH2 5060   5.030   3.833   1.593
 1685TIP3    H1 5061   5.074   3.876   1.666
 1685TIP3    H2 5062   5.034   3.740   1.615
 1686TIP3   OH2 5063   5.730   3.769   2.857
 1686TIP3    H1 5064   5.804   3.751   2.799
 1686TIP3    H2 5065   5.684   3.685   2.863
 1687TIP3   OH2 5066   3.015   1.145   5.058
 1687TIP3    H1 5067   3.021   1.062   5.011
 1687TIP3    H2 5068   3.101   1.185   5.048
 1688TIP3   OH2 5069   6.103   4.633   2.672
 1688TIP3    H1 5070   6.141   4.618   2.758
 1688TIP3    H2 5071   6.036   4.565   2.663
 1689TIP3   OH2 5072   2.594   0.447   4.554
 1689TIP3    H1 5073   2.603   0.356   4.582
 1689TIP3    H2 5074   2.500   0.463   4.553
 1690TIP3   OH2 5075   5.974   3.243   1.463
 1690TIP3    H1 5076   5.906   3.228   1.398
 1690TIP3    H2 5077   6.013   3.156   1.477
 1691TIP3   OH2 5078   1.383   4.643   4.961
 1691TIP3    H1 5079   1.352   4.666   4.873
 1691TIP3    H2 5080   1.378   4.547   4.963
 1692TIP3   OH2 5081   5.233   2.836   2.498
 1692TIP3    H1 5082   5.179   2.915   2.504
 1692TIP3    H2 5083   5.277   2.843   2.414
 1693TIP3   OH2 5084   2.166   0.335   4.422
 1693TIP3    H1 5085   2.161   0.429   4.441
 1693TIP3    H2 5086   2.249   0.324   4.376
 1694TIP3   OH2 5087   5.193   2.622   4.646
 1694TIP3    H1 5088   5.199   2.599   4.553
 1694TIP3    H2 5089   5.254   2.696   4.656
 1695TIP3   OH2 5090   3.126   1.943   4.682
 1695TIP3    H1 5091   3.124   2.036   4.702
 1695TIP3    H2 5092   3.150   1.901   4.765
 1696TIP3   OH2 5093   1.123   3.027   2.959
 1696TIP3    H1 5094   1.159   3.070   3.037
 1696TIP3    H2 5095   1.132   2.933   2.978
 1697TIP3   OH2 5096   1.911   2.324   2.514
 1697TIP3    H1 5097   1.931   2.359   2.600
 1697TIP3    H2 5098   1.948   2.236   2.514
 1698TIP3   OH2 5099   5.888   3.586   3.788
 1698TIP3    H1 5100   5.830   3.557   3.858
 1698TIP3    H2 5101   5.898   3.680   3.803
 1699TIP3   OH2 5102   0.274   0.746   0.327
 1699TIP3    H1 5103   0.307   0.805   0.259
 1699TIP3    H2 5104   0.307   0.784   0.408
 1700TIP3   OH2 5105   5.177   1.249   4.325
 1700TIP3    H1 5106   5.198   1.343   4.329
 1700TIP3    H2 5107   5.245   1.207   4.377
 1701TIP3   OH2 5108   2.947   4.522   1.230
 1701TIP3    H1 5109   2.927   4.616   1.235
 1701TIP3    H2 5110   3.036   4.519   1.195
 1702TIP3   OH2 5111   2.001   3.317   2.036
 1702TIP3    H1 5112   1.925   3.331   1.980
 1702TIP3    H2 5113   1.966   3.272   2.113
 1703TIP3   OH2 5114   3.254   0.696   2.287
 1703TIP3    H1 5115   3.324   0.636   2.262
 1703TIP3    H2 5116   3.285   0.782   2.259
 1704TIP3   OH2 5117   2.858   1.118   3.152
 1704TIP3    H1 5118   2.797   1.045   3.140
 1704TIP3    H2 5119   2.919   1.089   3.219
 1705TIP3   OH2 5120   6.155   1.956   4.712
 1705TIP3    H1 5121   6.078   1.902   4.732
 1705TIP3    H2 5122   6.196   1.973   4.797
 1706TIP3   OH2 5123   3.301   4.799   0.348
 1706TIP3    H1 5124   3.344   4.769   0.268
 1706TIP3    H2 5125   3.207   4.788   0.330
 1707TIP3   OH2 5126   1.051   1.827   2.354
 1707TIP3    H1 5127   1.124   1.789   2.404
 1707TIP3    H2 5128   1.080   1.916   2.334
 1708TIP3   OH2 5129   1.693   5.714   3.679
 1708TIP3    H1 5130   1.687   5.731   3.585
 1708TIP3    H2 5131   1.777   5.669   3.689
 1709TIP3   OH2 5132   1.979   5.581   1.839
 1709TIP3    H1 5133   2.035   5.656   1.855
 1709TIP3    H2 5134   2.017   5.538   1.762
 1710TIP3   OH2 5135   1.206   0.418   1.006
 1710TIP3    H1 5136   1.261   0.345   0.978
 1710TIP3    H2 5137   1.254   0.457   1.079
 1711TIP3   OH2 5138   3.799   2.986   4.197
 1711TIP3    H1 5139   3.828   2.970   4.107
 1711TIP3    H2 5140   3.738   2.914   4.216
 1712TIP3   OH2 5141   2.359   0.871   1.160
 1712TIP3    H1 5142   2.283   0.816   1.142
 1712TIP3    H2 5143   2.343   0.952   1.111
 1713TIP3   OH2 5144   3.296   5.580   5.003
 1713TIP3    H1 5145   3.295   5.490   5.036
 1713TIP3    H2 5146   3.204   5.601   4.988
 1714TIP3   OH2 5147   5.752   3.251   1.953
 1714TIP3    H1 5148   5.815   3.180   1.969
 1714TIP3    H2 5149   5.805   3.331   1.956
 1715TIP3   OH2 5150   1.652   5.939   5.204
 1715TIP3    H1 5151   1.573   5.936   5.150
 1715TIP3    H2 5152   1.706   6.007   5.164
 1716TIP3   OH2 5153   3.646   5.174   2.677
 1716TIP3    H1 5154   3.713   5.118   2.637
 1716TIP3    H2 5155   3.589   5.198   2.604
 1717TIP3   OH2 5156   5.360   4.986   4.073
 1717TIP3    H1 5157   5.437   4.930   4.061
 1717TIP3    H2 5158   5.353   5.034   3.990
 1718TIP3   OH2 5159   3.399   5.521   3.829
 1718TIP3    H1 5160   3.363   5.473   3.903
 1718TIP3    H2 5161   3.392   5.613   3.855
 1719TIP3   OH2 5162   0.487   4.778   2.671
 1719TIP3    H1 5163   0.549   4.709   2.645
 1719TIP3    H2 5164   0.540   4.858   2.673
 1720TIP3   OH2 5165   3.237   3.570   2.923
 1720TIP3    H1 5166   3.275   3.583   3.010
 1720TIP3    H2 5167   3.169   3.637   2.916
 1721TIP3   OH2 5168   2.277   3.121   4.857
 1721TIP3    H1 5169   2.197   3.070   4.845
 1721TIP3    H2 5170   2.295   3.116   4.951
 1722TIP3   OH2 5171   0.963   3.671   4.985
 1722TIP3    H1 5172   1.048   3.715   4.991
 1722TIP3    H2 5173   0.974   3.590   5.035
 1723TIP3   OH2 5174   5.997   5.336   1.629
 1723TIP3    H1 5175   5.908   5.309   1.652
 1723TIP3    H2 5176   6.017   5.408   1.688
 1724TIP3   OH2 5177   0.508   2.819   2.064
 1724TIP3    H1 5178   0.524   2.736   2.108
 1724TIP3    H2 5179   0.462   2.872   2.130
 1725TIP3   OH2 5180   5.112   2.307   3.068
 1725TIP3    H1 5181   5.097   2.232   3.126
 1725TIP3    H2 5182   5.187   2.352   3.107
 1726TIP3   OH2 5183   5.307   5.539   2.137
 1726TIP3    H1 5184   5.266   5.576   2.059
 1726TIP3    H2 5185   5.256   5.575   2.210
 1727TIP3   OH2 5186   6.001   1.609   1.707
 1727TIP3    H1 5187   6.088   1.644   1.727
 1727TIP3    H2 5188   6.016   1.550   1.633
 1728TIP3   OH2 5189   4.866   1.518   3.365
 1728TIP3    H1 5190   4.808   1.504   3.440
 1728TIP3    H2 5191   4.888   1.611   3.367
 1729TIP3   OH2 5192   4.319   3.745   1.306
 1729TIP3    H1 5193   4.337   3.713   1.217
 1729TIP3    H2 5194   4.244   3.693   1.336
 1730TIP3   OH2 5195   2.177   1.493   0.500
 1730TIP3    H1 5196   2.180   1.540   0.583
 1730TIP3    H2 5197   2.143   1.557   0.437
 1731TIP3   OH2 5198   2.397   2.493   2.424
 1731TIP3    H1 5199   2.379   2.419   2.481
 1731TIP3    H2 5200   2.400   2.456   2.336
 1732TIP3   OH2 5201   4.910   5.388   3.335
 1732TIP3    H1 5202   4.894   5.294   3.332
 1732TIP3    H2 5203   4.870   5.421   3.254
 1733TIP3   OH2 5204   2.752   5.522   0.379
 1733TIP3    H1 5205   2.663   5.491   0.397
 1733TIP3    H2 5206   2.773   5.488   0.292
 1734TIP3   OH2 5207   2.736   4.971   1.045
 1734TIP3    H1 5208   2.655   4.995   1.091
 1734TIP3    H2 5209   2.797   4.948   1.115
 1735TIP3   OH2 5210  -0.011   2.269   3.363
 1735TIP3    H1 5211   0.074   2.258   3.404
 1735TIP3    H2 5212  -0.011   2.360   3.332
 1736TIP3   OH2 5213   2.870   2.017   1.554
 1736TIP3    H1 5214   2.862   2.102   1.512
 1736TIP3    H2 5215   2.862   2.035   1.647
 1737TIP3   OH2 5216   4.049   1.856   4.039
 1737TIP3    H1 5217   4.137   1.887   4.017
 1737TIP3    H2 5218   4.048   1.764   4.012
 1738TIP3   OH2 5219   1.323   3.141   3.142
 1738TIP3    H1 5220   1.375   3.187   3.076
 1738TIP3    H2 5221   1.341   3.049   3.126
 1739TIP3   OH2 5222   4.057   2.874   4.967
 1739TIP3    H1 5223   4.010   2.821   5.031
 1739TIP3    H2 5224   4.106   2.938   5.020
 1740TIP3   OH2 5225   1.806   4.744   3.403
 1740TIP3    H1 5226   1.862   4.801   3.456
 1740TIP3    H2 5227   1.827   4.656   3.432
 1741TIP3   OH2 5228   3.076   2.708   3.007
 1741TIP3    H1 5229   2.987   2.683   2.983
 1741TIP3    H2 5230   3.071   2.802   3.025
 1742TIP3   OH2 5231   4.401   2.309   5.082
 1742TIP3    H1 5232   4.406   2.232   5.025
 1742TIP3    H2 5233   4.310   2.336   5.077
 1743TIP3   OH2 5234   2.227   4.209   3.413
 1743TIP3    H1 5235   2.183   4.294   3.419
 1743TIP3    H2 5236   2.229   4.190   3.320
 1744TIP3   OH2 5237   3.313   1.423   1.464
 1744TIP3    H1 5238   3.353   1.354   1.412
 1744TIP3    H2 5239   3.220   1.420   1.441
 1745TIP3   OH2 5240   1.171   0.977   0.627
 1745TIP3    H1 5241   1.143   1.066   0.607
 1745TIP3    H2 5242   1.098   0.921   0.601
 1746TIP3   OH2 5243   2.866   4.002   4.992
 1746TIP3    H1 5244   2.952   3.993   4.952
 1746TIP3    H2 5245   2.842   4.093   4.977
 1747TIP3   OH2 5246   1.408   0.527   1.163
 1747TIP3    H1 5247   1.446   0.521   1.250
 1747TIP3    H2 5248   1.454   0.600   1.121
 1748TIP3   OH2 5249   0.888   4.906   1.103
 1748TIP3    H1 5250   0.870   4.907   1.197
 1748TIP3    H2 5251   0.958   4.841   1.093
 1749TIP3   OH2 5252   1.988   4.938   3.492
 1749TIP3    H1 5253   2.054   4.881   3.452
 1749TIP3    H2 5254   2.033   4.977   3.567
 1750TIP3   OH2 5255   1.490   1.946   4.920
 1750TIP3    H1 5256   1.459   2.026   4.877
 1750TIP3    H2 5257   1.526   1.976   5.003
 1751TIP3   OH2 5258   5.962   5.257   3.356
 1751TIP3    H1 5259   5.912   5.329   3.317
 1751TIP3    H2 5260   5.951   5.184   3.295
 1752TIP3   OH2 5261   2.490   2.008   2.273
 1752TIP3    H1 5262   2.562   2.061   2.240
 1752TIP3    H2 5263   2.533   1.944   2.331
 1753TIP3   OH2 5264   4.313   4.924   0.865
 1753TIP3    H1 5265   4.348   4.848   0.817
 1753TIP3    H2 5266   4.218   4.920   0.850
 1754TIP3   OH2 5267   2.087   3.274   3.256
 1754TIP3    H1 5268   2.073   3.192   3.304
 1754TIP3    H2 5269   2.182   3.286   3.256
 1755TIP3   OH2 5270   1.469   0.686   2.261
 1755TIP3    H1 5271   1.517   0.741   2.199
 1755TIP3    H2 5272   1.427   0.747   2.320
 1756TIP3   OH2 5273   0.986   0.900   4.581
 1756TIP3    H1 5274   0.950   0.923   4.666
 1756TIP3    H2 5275   0.933   0.949   4.518
 1757TIP3   OH2 5276   1.947   5.777   2.130
 1757TIP3    H1 5277   1.865   5.730   2.112
 1757TIP3    H2 5278   1.926   5.833   2.206
 1758TIP3   OH2 5279   2.646   2.210   1.487
 1758TIP3    H1 5280   2.617   2.129   1.529
 1758TIP3    H2 5281   2.618   2.202   1.396
 1759TIP3   OH2 5282   2.897   2.268   4.965
 1759TIP3    H1 5283   2.899   2.363   4.954
 1759TIP3    H2 5284   2.825   2.239   4.909
 1760TIP3   OH2 5285   3.750   0.414   0.174
 1760TIP3    H1 5286   3.795   0.447   0.252
 1760TIP3    H2 5287   3.782   0.324   0.164
 1761TIP3   OH2 5288   0.929   0.631   3.334
 1761TIP3    H1 5289   0.842   0.666   3.315
 1761TIP3    H2 5290   0.921   0.537   3.319
 1762TIP3   OH2 5291   1.524   3.249   2.961
 1762TIP3    H1 5292   1.576   3.182   3.005
 1762TIP3    H2 5293   1.585   3.321   2.944
 1763TIP3   OH2 5294   5.010   0.059   4.314
 1763TIP3    H1 5295   5.060   0.140   4.312
 1763TIP3    H2 5296   4.989   0.041   4.222
 1764TIP3   OH2 5297   0.882   1.346   4.028
 1764TIP3    H1 5298   0.818   1.374   4.093
 1764TIP3    H2 5299   0.940   1.422   4.018
 1765TIP3   OH2 5300   0.448   1.303   3.317
 1765TIP3    H1 5301   0.510   1.235   3.344
 1765TIP3    H2 5302   0.369   1.254   3.293
 1766TIP3   OH2 5303   1.608   2.885   3.921
 1766TIP3    H1 5304   1.584   2.950   3.855
 1766TIP3    H2 5305   1.697   2.908   3.947
 1767TIP3   OH2 5306   4.177   1.757   1.005
 1767TIP3    H1 5307   4.090   1.793   0.989
 1767TIP3    H2 5308   4.188   1.761   1.100
 1768TIP3   OH2 5309   2.670   5.749   3.026
 1768TIP3    H1 5310   2.699   5.658   3.016
 1768TIP3    H2 5311   2.638   5.775   2.940
 1769TIP3   OH2 5312   1.290   1.248   3.104
 1769TIP3    H1 5313   1.202   1.267   3.072
 1769TIP3    H2 5314   1.348   1.305   3.054
 1770TIP3   OH2 5315   2.203   3.482   0.294
 1770TIP3    H1 5316   2.262   3.433   0.237
 1770TIP3    H2 5317   2.124   3.495   0.242
 1771TIP3   OH2 5318   2.256   5.024   2.066
 1771TIP3    H1 5319   2.176   5.011   2.016
 1771TIP3    H2 5320   2.308   4.944   2.049
 1772TIP3   OH2 5321   2.308   2.413   5.083
 1772TIP3    H1 5322   2.391   2.422   5.036
 1772TIP3    H2 5323   2.254   2.484   5.050
 1773TIP3   OH2 5324   3.968   4.098   2.507
 1773TIP3    H1 5325   3.949   4.045   2.430
 1773TIP3    H2 5326   4.057   4.075   2.532
 1774TIP3   OH2 5327   1.918   0.323   3.401
 1774TIP3    H1 5328   1.983   0.279   3.346
 1774TIP3    H2 5329   1.926   0.280   3.486
 1775TIP3   OH2 5330   3.238   4.846   1.046
 1775TIP3    H1 5331   3.298   4.772   1.055
 1775TIP3    H2 5332   3.293   4.919   1.018
 1776TIP3   OH2 5333   0.249   2.744   4.407
 1776TIP3    H1 5334   0.235   2.833   4.374
 1776TIP3    H2 5335   0.282   2.757   4.496
 1777TIP3   OH2 5336   3.740   2.781   0.242
 1777TIP3    H1 5337   3.714   2.863   0.199
 1777TIP3    H2 5338   3.743   2.803   0.335
 1778TIP3   OH2 5339   1.269   4.687   3.515
 1778TIP3    H1 5340   1.364   4.678   3.521
 1778TIP3    H2 5341   1.251   4.682   3.421
 1779TIP3   OH2 5342   6.179   0.244   3.274
 1779TIP3    H1 5343   6.144   0.283   3.193
 1779TIP3    H2 5344   6.102   0.211   3.319
 1780TIP3   OH2 5345   5.552   3.603   1.958
 1780TIP3    H1 5346   5.638   3.603   1.916
 1780TIP3    H2 5347   5.495   3.558   1.896
 1781TIP3   OH2 5348   2.387   3.242   2.769
 1781TIP3    H1 5349   2.395   3.162   2.717
 1781TIP3    H2 5350   2.370   3.311   2.704
 1782TIP3   OH2 5351   2.244   4.943   2.949
 1782TIP3    H1 5352   2.149   4.936   2.963
 1782TIP3    H2 5353   2.276   4.854   2.957
 1783TIP3   OH2 5354   0.275   0.982   4.706
 1783TIP3    H1 5355   0.310   1.040   4.774
 1783TIP3    H2 5356   0.353   0.944   4.666
 1784TIP3   OH2 5357   4.912   3.535   0.146
 1784TIP3    H1 5358   4.984   3.593   0.169
 1784TIP3    H2 5359   4.868   3.579   0.074
 1785TIP3   OH2 5360   1.895   3.453   1.450
 1785TIP3    H1 5361   1.961   3.383   1.450
 1785TIP3    H2 5362   1.823   3.417   1.501
 1786TIP3   OH2 5363   1.311   3.989   1.866
 1786TIP3    H1 5364   1.281   4.038   1.789
 1786TIP3    H2 5365   1.234   3.983   1.922
 1787TIP3   OH2 5366   0.604   4.134   0.055
 1787TIP3    H1 5367   0.519   4.099   0.031
 1787TIP3    H2 5368   0.661   4.111  -0.019
 1788TIP3   OH2 5369   5.119   1.198   3.207
 1788TIP3    H1 5370   5.030   1.172   3.229
 1788TIP3    H2 5371   5.112   1.290   3.181
 1789TIP3   OH2 5372   2.376   2.127   5.048
 1789TIP3    H1 5373   2.355   2.121   4.955
 1789TIP3    H2 5374   2.466   2.158   5.051
 1790TIP3   OH2 5375   2.963   5.134   4.612
 1790TIP3    H1 5376   2.931   5.053   4.574
 1790TIP3    H2 5377   2.894   5.198   4.595
 1791TIP3   OH2 5378   3.741   0.659   2.033
 1791TIP3    H1 5379   3.659   0.703   2.009
 1791TIP3    H2 5380   3.781   0.636   1.949
 1792TIP3   OH2 5381   4.396   1.413   0.569
 1792TIP3    H1 5382   4.374   1.481   0.506
 1792TIP3    H2 5383   4.352   1.440   0.650
 1793TIP3   OH2 5384   3.794   0.054   0.843
 1793TIP3    H1 5385   3.710   0.030   0.883
 1793TIP3    H2 5386   3.776   0.056   0.749
 1794TIP3   OH2 5387   3.295   3.611   4.724
 1794TIP3    H1 5388   3.344   3.560   4.788
 1794TIP3    H2 5389   3.238   3.668   4.777
 1795TIP3   OH2 5390   0.716   0.903   1.833
 1795TIP3    H1 5391   0.789   0.954   1.798
 1795TIP3    H2 5392   0.726   0.816   1.794
 1796TIP3   OH2 5393   0.561   0.628   4.797
 1796TIP3    H1 5394   0.559   0.724   4.802
 1796TIP3    H2 5395   0.498   0.600   4.863
 1797TIP3   OH2 5396   4.635   0.084   4.878
 1797TIP3    H1 5397   4.700   0.154   4.866
 1797TIP3    H2 5398   4.551   0.129   4.871
 1798TIP3   OH2 5399   5.443   1.703   4.208
 1798TIP3    H1 5400   5.383   1.773   4.233
 1798TIP3    H2 5401   5.530   1.741   4.223
 1799TIP3   OH2 5402   4.722   2.166   2.298
 1799TIP3    H1 5403   4.706   2.248   2.251
 1799TIP3    H2 5404   4.646   2.111   2.278
 1800TIP3   OH2 5405   2.205   0.405   1.128
 1800TIP3    H1 5406   2.168   0.317   1.118
 1800TIP3    H2 5407   2.149   0.448   1.192
 1801TIP3   OH2 5408   3.253   4.597   3.655
 1801TIP3    H1 5409   3.224   4.606   3.564
 1801TIP3    H2 5410   3.250   4.686   3.690
 1802TIP3   OH2 5411   1.990   0.285   1.988
 1802TIP3    H1 5412   1.958   0.371   1.959
 1802TIP3    H2 5413   2.085   0.295   1.993
 1803TIP3   OH2 5414   3.141   5.045   4.028
 1803TIP3    H1 5415   3.099   5.013   4.107
 1803TIP3    H2 5416   3.167   5.135   4.050
 1804TIP3   OH2 5417   3.544   3.080   1.595
 1804TIP3    H1 5418   3.539   3.014   1.526
 1804TIP3    H2 5419   3.577   3.034   1.671
 1805TIP3   OH2 5420   3.568   2.067   1.718
 1805TIP3    H1 5421   3.503   2.017   1.669
 1805TIP3    H2 5422   3.631   2.001   1.749
 1806TIP3   OH2 5423   3.190   2.956   0.219
 1806TIP3    H1 5424   3.138   2.876   0.227
 1806TIP3    H2 5425   3.209   2.981   0.310
 1807TIP3   OH2 5426   2.637   0.824   1.164
 1807TIP3    H1 5427   2.545   0.847   1.175
 1807TIP3    H2 5428   2.653   0.832   1.070
 1808TIP3   OH2 5429   5.082   0.108   2.139
 1808TIP3    H1 5430   5.067   0.104   2.045
 1808TIP3    H2 5431   5.118   0.196   2.153
 1809TIP3   OH2 5432   4.976   1.860   2.257
 1809TIP3    H1 5433   4.880   1.855   2.265
 1809TIP3    H2 5434   5.007   1.867   2.347
 1810TIP3   OH2 5435   5.034   5.480   5.128
 1810TIP3    H1 5436   5.031   5.511   5.038
 1810TIP3    H2 5437   4.950   5.508   5.165
 1811TIP3   OH2 5438   3.915   4.069   0.494
 1811TIP3    H1 5439   4.005   4.085   0.523
 1811TIP3    H2 5440   3.923   4.039   0.404
 1812TIP3   OH2 5441   4.834   1.679   2.735
 1812TIP3    H1 5442   4.824   1.681   2.640
 1812TIP3    H2 5443   4.880   1.760   2.756
 1813TIP3   OH2 5444   1.401   5.428   0.087
 1813TIP3    H1 5445   1.387   5.445   0.180
 1813TIP3    H2 5446   1.347   5.493   0.042
 1814TIP3   OH2 5447   3.585   2.597   1.329
 1814TIP3    H1 5448   3.645   2.672   1.335
 1814TIP3    H2 5449   3.620   2.545   1.256
 1815TIP3   OH2 5450   0.526   2.455   2.178
 1815TIP3    H1 5451   0.600   2.511   2.202
 1815TIP3    H2 5452   0.554   2.413   2.097
 1816TIP3   OH2 5453   4.451   5.819   1.454
 1816TIP3    H1 5454   4.451   5.724   1.453
 1816TIP3    H2 5455   4.475   5.845   1.365
 1817TIP3   OH2 5456   3.437   1.510   0.939
 1817TIP3    H1 5457   3.447   1.423   0.900
 1817TIP3    H2 5458   3.484   1.568   0.878
 1818TIP3   OH2 5459   4.650   1.857   3.123
 1818TIP3    H1 5460   4.689   1.886   3.040
 1818TIP3    H2 5461   4.723   1.818   3.172
 1819TIP3   OH2 5462   4.165   0.490   2.583
 1819TIP3    H1 5463   4.249   0.532   2.564
 1819TIP3    H2 5464   4.105   0.563   2.596
 1820TIP3   OH2 5465   5.837   4.368   4.114
 1820TIP3    H1 5466   5.837   4.293   4.173
 1820TIP3    H2 5467   5.889   4.434   4.159
 1821TIP3   OH2 5468   3.556   1.619   0.732
 1821TIP3    H1 5469   3.601   1.697   0.700
 1821TIP3    H2 5470   3.550   1.562   0.655
 1822TIP3   OH2 5471   3.231   3.253   1.443
 1822TIP3    H1 5472   3.152   3.201   1.428
 1822TIP3    H2 5473   3.262   3.225   1.529
 1823TIP3   OH2 5474   4.910   4.014   0.996
 1823TIP3    H1 5475   4.939   3.935   1.042
 1823TIP3    H2 5476   4.991   4.060   0.975
 1824TIP3   OH2 5477   4.672   1.694   0.665
 1824TIP3    H1 5478   4.670   1.622   0.728
 1824TIP3    H2 5479   4.717   1.765   0.711
 1825TIP3   OH2 5480   2.139   5.600   2.070
 1825TIP3    H1 5481   2.144   5.546   2.148
 1825TIP3    H2 5482   2.082   5.672   2.094
 1826TIP3   OH2 5483   1.959   0.606   1.634
 1826TIP3    H1 5484   2.038   0.568   1.594
 1826TIP3    H2 5485   1.931   0.673   1.572
 1827TIP3   OH2 5486   4.284   2.836   3.157
 1827TIP3    H1 5487   4.292   2.745   3.132
 1827TIP3    H2 5488   4.304   2.885   3.077
 1828TIP3   OH2 5489   5.215   3.604   4.047
 1828TIP3    H1 5490   5.196   3.697   4.040
 1828TIP3    H2 5491   5.132   3.563   4.070
 1829TIP3   OH2 5492   2.938   3.079   2.422
 1829TIP3    H1 5493   2.919   2.985   2.421
 1829TIP3    H2 5494   2.909   3.110   2.336
 1830TIP3   OH2 5495   0.935   0.357  -0.021
 1830TIP3    H1 5496   0.846   0.366   0.014
 1830TIP3    H2 5497   0.991   0.357   0.056
 1831TIP3   OH2 5498   5.892   3.952   4.231
 1831TIP3    H1 5499   5.922   4.039   4.204
 1831TIP3    H2 5500   5.972   3.907   4.257
 1832TIP3   OH2 5501   3.338   0.264   4.073
 1832TIP3    H1 5502   3.274   0.292   4.008
 1832TIP3    H2 5503   3.330   0.327   4.144
 1833TIP3   OH2 5504   4.196   0.910   1.741
 1833TIP3    H1 5505   4.213   1.002   1.721
 1833TIP3    H2 5506   4.271   0.883   1.793
 1834TIP3   OH2 5507   3.560   5.270   0.612
 1834TIP3    H1 5508   3.620   5.341   0.590
 1834TIP3    H2 5509   3.587   5.243   0.700
 1835TIP3   OH2 5510   2.243   5.604   2.628
 1835TIP3    H1 5511   2.221   5.651   2.708
 1835TIP3    H2 5512   2.179   5.533   2.624
 1836TIP3   OH2 5513   2.613   3.004   0.641
 1836TIP3    H1 5514   2.520   2.979   0.641
 1836TIP3    H2 5515   2.612   3.099   0.649
 1837TIP3   OH2 5516   3.869   3.091   3.161
 1837TIP3    H1 5517   3.952   3.118   3.199
 1837TIP3    H2 5518   3.875   2.995   3.154
 1838TIP3   OH2 5519   4.628   4.775   3.224
 1838TIP3    H1 5520   4.647   4.722   3.147
 1838TIP3    H2 5521   4.537   4.803   3.212
 1839TIP3   OH2 5522   5.698   1.203   1.662
 1839TIP3    H1 5523   5.609   1.167   1.656
 1839TIP3    H2 5524   5.731   1.171   1.746
 1840TIP3   OH2 5525   0.608   0.178   2.846
 1840TIP3    H1 5526   0.701   0.180   2.871
 1840TIP3    H2 5527   0.595   0.257   2.794
 1841TIP3   OH2 5528   3.490   0.695   1.929
 1841TIP3    H1 5529   3.429   0.765   1.950
 1841TIP3    H2 5530   3.439   0.615   1.937
 1842TIP3   OH2 5531   3.526   3.343   4.100
 1842TIP3    H1 5532   3.449   3.318   4.150
 1842TIP3    H2 5533   3.587   3.376   4.166
 1843TIP3   OH2 5534   1.623   2.270   2.912
 1843TIP3    H1 5535   1.570   2.213   2.857
 1843TIP3    H2 5536   1.568   2.347   2.927
 1844TIP3   OH2 5537   3.167   5.153   1.321
 1844TIP3    H1 5538   3.150   5.229   1.265
 1844TIP3    H2 5539   3.135   5.179   1.407
 1845TIP3   OH2 5540   4.682   4.506   0.702
 1845TIP3    H1 5541   4.672   4.498   0.607
 1845TIP3    H2 5542   4.756   4.448   0.723
 1846TIP3   OH2 5543   4.073   2.538   4.158
 1846TIP3    H1 5544   4.163   2.505   4.164
 1846TIP3    H2 5545   4.022   2.463   4.130
 1847TIP3   OH2 5546   4.445   4.300   4.160
 1847TIP3    H1 5547   4.535   4.329   4.144
 1847TIP3    H2 5548   4.450   4.205   4.160
 1848TIP3   OH2 5549   2.620   3.337   2.174
 1848TIP3    H1 5550   2.528   3.330   2.149
 1848TIP3    H2 5551   2.618   3.345   2.270
 1849TIP3   OH2 5552   4.211   4.186   3.096
 1849TIP3    H1 5553   4.290   4.136   3.118
 1849TIP3    H2 5554   4.144   4.119   3.083
 1850TIP3   OH2 5555   4.053   3.039   1.750
 1850TIP3    H1 5556   4.045   3.116   1.693
 1850TIP3    H2 5557   4.044   3.074   1.838
 1851TIP3   OH2 5558   4.154   0.316   3.128
 1851TIP3    H1 5559   4.112   0.342   3.209
 1851TIP3    H2 5560   4.204   0.394   3.101
 1852TIP3   OH2 5561   4.049   1.073   3.482
 1852TIP3    H1 5562   4.069   1.162   3.455
 1852TIP3    H2 5563   4.062   1.073   3.577
 1853TIP3   OH2 5564   4.593   4.261   2.142
 1853TIP3    H1 5565   4.530   4.253   2.213
 1853TIP3    H2 5566   4.580   4.349   2.108
 1854TIP3   OH2 5567   5.486   2.061   2.558
 1854TIP3    H1 5568   5.505   2.009   2.636
 1854TIP3    H2 5569   5.396   2.037   2.534
 1855TIP3   OH2 5570   4.416   2.827   3.617
 1855TIP3    H1 5571   4.326   2.805   3.593
 1855TIP3    H2 5572   4.408   2.898   3.680
 1856TIP3   OH2 5573   5.173   2.231   3.504
 1856TIP3    H1 5574   5.265   2.253   3.521
 1856TIP3    H2 5575   5.147   2.179   3.579
 1857TIP3   OH2 5576   0.005   4.026   3.458
 1857TIP3    H1 5577   0.071   3.962   3.482
 1857TIP3    H2 5578   0.008   4.029   3.362
 1858TIP3   OH2 5579   3.412   5.754   2.285
 1858TIP3    H1 5580   3.445   5.827   2.234
 1858TIP3    H2 5581   3.491   5.707   2.314
 1859TIP3   OH2 5582   4.160   4.707   3.144
 1859TIP3    H1 5583   4.140   4.632   3.088
 1859TIP3    H2 5584   4.102   4.696   3.220
 1860TIP3   OH2 5585   5.659   5.482   5.034
 1860TIP3    H1 5586   5.646   5.559   4.978
 1860TIP3    H2 5587   5.631   5.509   5.121
 1861TIP3   OH2 5588   4.806   4.465   1.856
 1861TIP3    H1 5589   4.895   4.474   1.890
 1861TIP3    H2 5590   4.795   4.371   1.840
 1862TIP3   OH2 5591   3.752   5.548   1.741
 1862TIP3    H1 5592   3.670   5.509   1.774
 1862TIP3    H2 5593   3.729   5.580   1.654
 1863TIP3   OH2 5594   0.806   0.377   0.394
 1863TIP3    H1 5595   0.711   0.365   0.394
 1863TIP3    H2 5596   0.839   0.310   0.335
 1864TIP3   OH2 5597   6.114   2.491   0.622
 1864TIP3    H1 5598   6.070   2.412   0.590
 1864TIP3    H2 5599   6.150   2.466   0.707
 1865TIP3   OH2 5600   4.402   3.874   0.069
 1865TIP3    H1 5601   4.352   3.944   0.028
 1865TIP3    H2 5602   4.337   3.811   0.099
 1866TIP3   OH2 5603   1.621   5.915   3.102
 1866TIP3    H1 5604   1.537   5.961   3.102
 1866TIP3    H2 5605   1.686   5.983   3.116
 1867TIP3   OH2 5606   6.097   3.328   2.596
 1867TIP3    H1 5607   6.115   3.238   2.626
 1867TIP3    H2 5608   6.140   3.333   2.510
 1868TIP3   OH2 5609   3.665   3.108   1.033
 1868TIP3    H1 5610   3.647   3.038   1.096
 1868TIP3    H2 5611   3.641   3.189   1.079
 1869TIP3   OH2 5612   6.108   0.962   0.480
 1869TIP3    H1 5613   6.108   1.057   0.467
 1869TIP3    H2 5614   6.183   0.932   0.428
 1870TIP3   OH2 5615   0.212   5.010   0.855
 1870TIP3    H1 5616   0.129   5.055   0.846
 1870TIP3    H2 5617   0.278   5.077   0.837
 1871TIP3   OH2 5618   0.802   0.292   3.772
 1871TIP3    H1 5619   0.828   0.370   3.723
 1871TIP3    H2 5620   0.738   0.249   3.715
 1872TIP3   OH2 5621   0.191   1.866   3.525
 1872TIP3    H1 5622   0.096   1.875   3.529
 1872TIP3    H2 5623   0.205   1.777   3.492
 1873TIP3   OH2 5624   2.641   5.065   3.132
 1873TIP3    H1 5625   2.601   5.002   3.192
 1873TIP3    H2 5626   2.581   5.140   3.133
 1874TIP3   OH2 5627   3.513   2.858   0.925
 1874TIP3    H1 5628   3.595   2.857   0.974
 1874TIP3    H2 5629   3.447   2.885   0.989
 1875TIP3   OH2 5630   4.364   2.274   4.582
 1875TIP3    H1 5631   4.297   2.302   4.520
 1875TIP3    H2 5632   4.447   2.293   4.539
 1876TIP3   OH2 5633   2.094   1.152   2.525
 1876TIP3    H1 5634   2.111   1.070   2.478
 1876TIP3    H2 5635   2.108   1.220   2.459
 1877TIP3   OH2 5636   3.379   1.699   0.175
 1877TIP3    H1 5637   3.437   1.625   0.194
 1877TIP3    H2 5638   3.321   1.704   0.251
 1878TIP3   OH2 5639   1.704   4.509   0.942
 1878TIP3    H1 5640   1.769   4.468   0.885
 1878TIP3    H2 5641   1.668   4.581   0.890
 1879TIP3   OH2 5642   0.489   4.319   5.028
 1879TIP3    H1 5643   0.411   4.268   5.006
 1879TIP3    H2 5644   0.475   4.347   5.119
 1880TIP3   OH2 5645   0.853   0.962   3.511
 1880TIP3    H1 5646   0.834   1.006   3.429
 1880TIP3    H2 5647   0.947   0.972   3.523
 1881TIP3   OH2 5648   0.234   3.524   4.627
 1881TIP3    H1 5649   0.157   3.478   4.594
 1881TIP3    H2 5650   0.227   3.612   4.590
 1882TIP3   OH2 5651   1.795   4.611   3.126
 1882TIP3    H1 5652   1.821   4.697   3.156
 1882TIP3    H2 5653   1.705   4.601   3.157
 1883TIP3   OH2 5654   4.748   4.445   5.103
 1883TIP3    H1 5655   4.703   4.467   5.021
 1883TIP3    H2 5656   4.679   4.414   5.161
 1884TIP3   OH2 5657   5.480   2.170   5.115
 1884TIP3    H1 5658   5.569   2.135   5.105
 1884TIP3    H2 5659   5.429   2.123   5.050
 1885TIP3   OH2 5660   5.943   0.088   2.853
 1885TIP3    H1 5661   5.887   0.068   2.778
 1885TIP3    H2 5662   5.891   0.062   2.929
 1886TIP3   OH2 5663   5.035   0.488   2.456
 1886TIP3    H1 5664   5.028   0.547   2.381
 1886TIP3    H2 5665   4.977   0.416   2.435
 1887TIP3   OH2 5666   5.033   5.528   0.543
 1887TIP3    H1 5667   5.008   5.435   0.553
 1887TIP3    H2 5668   5.095   5.543   0.614
 1888TIP3   OH2 5669   4.200   5.804   1.203
 1888TIP3    H1 5670   4.221   5.893   1.175
 1888TIP3    H2 5671   4.280   5.754   1.188
 1889TIP3   OH2 5672   1.870   2.774   4.192
 1889TIP3    H1 5673   1.874   2.868   4.210
 1889TIP3    H2 5674   1.807   2.740   4.255
 1890TIP3   OH2 5675   5.954   3.651   2.063
 1890TIP3    H1 5676   5.964   3.574   2.118
 1890TIP3    H2 5677   5.872   3.691   2.091
 1891TIP3   OH2 5678   5.365   5.517   0.969
 1891TIP3    H1 5679   5.382   5.424   0.987
 1891TIP3    H2 5680   5.324   5.517   0.883
 1892TIP3   OH2 5681   2.354   5.337   5.149
 1892TIP3    H1 5682   2.285   5.275   5.173
 1892TIP3    H2 5683   2.319   5.382   5.072
 1893TIP3   OH2 5684   4.802   4.179   4.754
 1893TIP3    H1 5685   4.748   4.247   4.713
 1893TIP3    H2 5686   4.791   4.102   4.698
 1894TIP3   OH2 5687   3.007   1.217   4.207
 1894TIP3    H1 5688   2.925   1.264   4.220
 1894TIP3    H2 5689   3.046   1.256   4.129
 1895TIP3   OH2 5690   5.510   4.165   2.289
 1895TIP3    H1 5691   5.555   4.212   2.360
 1895TIP3    H2 5692   5.449   4.107   2.333
 1896TIP3   OH2 5693   4.534   4.201   3.746
 1896TIP3    H1 5694   4.583   4.144   3.805
 1896TIP3    H2 5695   4.453   4.152   3.727
 1897TIP3   OH2 5696   5.525   0.073   2.569
 1897TIP3    H1 5697   5.541   0.013   2.642
 1897TIP3    H2 5698   5.450   0.035   2.524
 1898TIP3   OH2 5699   2.446   3.828   2.705
 1898TIP3    H1 5700   2.523   3.855   2.655
 1898TIP3    H2 5701   2.387   3.903   2.699
 1899TIP3   OH2 5702   4.538   4.290   2.719
 1899TIP3    H1 5703   4.629   4.261   2.712
 1899TIP3    H2 5704   4.522   4.296   2.813
 1900TIP3   OH2 5705   2.547   3.917   2.077
 1900TIP3    H1 5706   2.579   3.938   2.165
 1900TIP3    H2 5707   2.564   3.997   2.026
 1901TIP3   OH2 5708   5.877   4.439   4.698
 1901TIP3    H1 5709   5.823   4.446   4.619
 1901TIP3    H2 5710   5.963   4.413   4.666
 1902TIP3   OH2 5711   0.096   0.351   0.334
 1902TIP3    H1 5712   0.163   0.284   0.322
 1902TIP3    H2 5713   0.142   0.425   0.371
 1903TIP3   OH2 5714   3.940   4.494   0.841
 1903TIP3    H1 5715   3.847   4.485   0.860
 1903TIP3    H2 5716   3.984   4.455   0.917
 1904TIP3   OH2 5717   6.222   5.520   1.165
 1904TIP3    H1 5718   6.265   5.450   1.213
 1904TIP3    H2 5719   6.294   5.578   1.138
 1905TIP3   OH2 5720   2.520   1.133   3.673
 1905TIP3    H1 5721   2.497   1.136   3.766
 1905TIP3    H2 5722   2.515   1.224   3.644
 1906TIP3   OH2 5723   4.193   5.545   0.146
 1906TIP3    H1 5724   4.254   5.489   0.194
 1906TIP3    H2 5725   4.115   5.491   0.135
 1907TIP3   OH2 5726   4.665   4.013   4.193
 1907TIP3    H1 5727   4.583   4.020   4.144
 1907TIP3    H2 5728   4.733   4.034   4.128
 1908TIP3   OH2 5729   5.043   1.697   1.094
 1908TIP3    H1 5730   5.095   1.654   1.162
 1908TIP3    H2 5731   4.954   1.666   1.109
 1909TIP3   OH2 5732   0.944   2.850   3.323
 1909TIP3    H1 5733   0.999   2.918   3.362
 1909TIP3    H2 5734   0.993   2.769   3.338
 1910TIP3   OH2 5735   1.425   3.159   0.153
 1910TIP3    H1 5736   1.406   3.248   0.123
 1910TIP3    H2 5737   1.341   3.115   0.152
 1911TIP3   OH2 5738   5.232   4.396   0.957
 1911TIP3    H1 5739   5.182   4.476   0.973
 1911TIP3    H2 5740   5.306   4.402   1.018
 1912TIP3   OH2 5741   4.263   4.396   1.914
 1912TIP3    H1 5742   4.206   4.390   1.992
 1912TIP3    H2 5743   4.271   4.306   1.884
 1913TIP3   OH2 5744   0.892   5.920   0.607
 1913TIP3    H1 5745   0.934   5.988   0.553
 1913TIP3    H2 5746   0.815   5.893   0.557
 1914TIP3   OH2 5747   0.327   1.279   0.617
 1914TIP3    H1 5748   0.391   1.324   0.562
 1914TIP3    H2 5749   0.379   1.242   0.688
 1915TIP3   OH2 5750   4.055   4.297   4.731
 1915TIP3    H1 5751   4.150   4.298   4.718
 1915TIP3    H2 5752   4.031   4.205   4.720
 1916TIP3   OH2 5753   2.447   4.316   2.920
 1916TIP3    H1 5754   2.385   4.283   2.855
 1916TIP3    H2 5755   2.446   4.250   2.989
 1917TIP3   OH2 5756   0.063   1.059   4.549
 1917TIP3    H1 5757   0.099   1.046   4.461
 1917TIP3    H2 5758   0.123   1.013   4.607
 1918TIP3   OH2 5759   6.140   0.180   1.481
 1918TIP3    H1 5760   6.210   0.115   1.472
 1918TIP3    H2 5761   6.160   0.225   1.563
 1919TIP3   OH2 5762   1.904   0.277   1.386
 1919TIP3    H1 5763   1.867   0.354   1.429
 1919TIP3    H2 5764   1.928   0.218   1.458
 1920TIP3   OH2 5765   5.640   3.746   1.417
 1920TIP3    H1 5766   5.649   3.816   1.481
 1920TIP3    H2 5767   5.720   3.750   1.365
 1921TIP3   OH2 5768   6.224   0.844   4.439
 1921TIP3    H1 5769   6.219   0.907   4.367
 1921TIP3    H2 5770   6.276   0.889   4.506
 1922TIP3   OH2 5771   0.619   2.286   2.736
 1922TIP3    H1 5772   0.631   2.199   2.697
 1922TIP3    H2 5773   0.612   2.269   2.830
 1923TIP3   OH2 5774   4.523   1.394   4.482
 1923TIP3    H1 5775   4.592   1.337   4.445
 1923TIP3    H2 5776   4.487   1.440   4.406
 1924TIP3   OH2 5777   0.591   4.408   0.430
 1924TIP3    H1 5778   0.672   4.435   0.388
 1924TIP3    H2 5779   0.577   4.318   0.401
 1925TIP3   OH2 5780   4.692   2.972   4.289
 1925TIP3    H1 5781   4.730   3.059   4.305
 1925TIP3    H2 5782   4.604   2.977   4.325
 1926TIP3   OH2 5783   1.427   0.860   4.469
 1926TIP3    H1 5784   1.360   0.908   4.420
 1926TIP3    H2 5785   1.466   0.926   4.527
 1927TIP3   OH2 5786   4.382   5.716   0.796
 1927TIP3    H1 5787   4.324   5.647   0.763
 1927TIP3    H2 5788   4.337   5.798   0.774
 1928TIP3   OH2 5789   4.323   4.595   0.314
 1928TIP3    H1 5790   4.268   4.672   0.332
 1928TIP3    H2 5791   4.344   4.601   0.221
 1929TIP3   OH2 5792   0.729   5.488   4.981
 1929TIP3    H1 5793   0.729   5.581   4.955
 1929TIP3    H2 5794   0.821   5.463   4.982
 1930TIP3   OH2 5795   4.995   5.103   0.832
 1930TIP3    H1 5796   4.994   5.031   0.895
 1930TIP3    H2 5797   4.913   5.150   0.849
 1931TIP3   OH2 5798   5.150   4.610   5.051
 1931TIP3    H1 5799   5.069   4.608   4.999
 1931TIP3    H2 5800   5.138   4.682   5.112
 1932TIP3   OH2 5801   1.370   2.808   3.344
 1932TIP3    H1 5802   1.284   2.780   3.375
 1932TIP3    H2 5803   1.362   2.806   3.248
 1933TIP3   OH2 5804   3.360   4.880   1.599
 1933TIP3    H1 5805   3.329   4.805   1.548
 1933TIP3    H2 5806   3.290   4.898   1.661
 1934TIP3   OH2 5807   4.319   2.262   3.324
 1934TIP3    H1 5808   4.399   2.210   3.329
 1934TIP3    H2 5809   4.317   2.311   3.406
 1935TIP3   OH2 5810   4.913   0.089   2.873
 1935TIP3    H1 5811   4.988   0.037   2.900
 1935TIP3    H2 5812   4.887   0.051   2.789
 1936TIP3   OH2 5813   6.275   2.006   1.165
 1936TIP3    H1 5814   6.267   1.979   1.073
 1936TIP3    H2 5815   6.254   1.927   1.215
 1937TIP3   OH2 5816   5.177   1.403   2.328
 1937TIP3    H1 5817   5.143   1.322   2.365
 1937TIP3    H2 5818   5.217   1.377   2.245
 1938TIP3   OH2 5819   4.855   0.209  -0.004
 1938TIP3    H1 5820   4.763   0.219  -0.029
 1938TIP3    H2 5821   4.852   0.180   0.087
 1939TIP3   OH2 5822   2.629   2.983   1.134
 1939TIP3    H1 5823   2.675   3.009   1.054
 1939TIP3    H2 5824   2.579   2.906   1.109
 1940TIP3   OH2 5825   1.686   0.442   2.946
 1940TIP3    H1 5826   1.618   0.499   2.982
 1940TIP3    H2 5827   1.765   0.467   2.993
 1941TIP3   OH2 5828   3.883   3.572   4.903
 1941TIP3    H1 5829   3.962   3.517   4.901
 1941TIP3    H2 5830   3.910   3.650   4.951
 1942TIP3   OH2 5831   5.067   5.091   0.038
 1942TIP3    H1 5832   5.151   5.047   0.035
 1942TIP3    H2 5833   5.057   5.130  -0.049
 1943TIP3   OH2 5834   5.569   3.721   0.796
 1943TIP3    H1 5835   5.522   3.661   0.854
 1943TIP3    H2 5836   5.508   3.792   0.779
 1944TIP3   OH2 5837   6.281   2.334   3.973
 1944TIP3    H1 5838   6.211   2.304   3.915
 1944TIP3    H2 5839   6.362   2.309   3.928
 1945TIP3   OH2 5840   2.826   5.115   0.635
 1945TIP3    H1 5841   2.756   5.094   0.573
 1945TIP3    H2 5842   2.831   5.210   0.634
 1946TIP3   OH2 5843   1.287   5.804   4.126
 1946TIP3    H1 5844   1.208   5.818   4.074
 1946TIP3    H2 5845   1.356   5.850   4.077
 1947TIP3   OH2 5846   5.001   2.648   2.563
 1947TIP3    H1 5847   4.914   2.685   2.579
 1947TIP3    H2 5848   4.990   2.595   2.484
 1948TIP3   OH2 5849   2.352   1.806   2.526
 1948TIP3    H1 5850   2.440   1.844   2.518
 1948TIP3    H2 5851   2.303   1.845   2.454
 1949TIP3   OH2 5852   5.736   0.059   3.030
 1949TIP3    H1 5853   5.698   0.141   3.063
 1949TIP3    H2 5854   5.666  -0.005   3.038
 1950TIP3   OH2 5855   0.854   3.451   0.003
 1950TIP3    H1 5856   0.903   3.376  -0.033
 1950TIP3    H2 5857   0.773   3.412   0.036
 1951TIP3   OH2 5858   2.587   2.689   4.939
 1951TIP3    H1 5859   2.650   2.757   4.917
 1951TIP3    H2 5860   2.552   2.715   5.024
 1952TIP3   OH2 5861   0.066   5.632   0.928
 1952TIP3    H1 5862   0.080   5.644   0.835
 1952TIP3    H2 5863   0.063   5.720   0.964
 1953TIP3   OH2 5864   2.337   4.011   4.819
 1953TIP3    H1 5865   2.398   4.076   4.853
 1953TIP3    H2 5866   2.389   3.958   4.758
 1954TIP3   OH2 5867   0.452   4.840   0.291
 1954TIP3    H1 5868   0.409   4.754   0.296
 1954TIP3    H2 5869   0.415   4.888   0.365
 1955TIP3   OH2 5870   3.064   1.865   3.121
 1955TIP3    H1 5871   3.010   1.823   3.188
 1955TIP3    H2 5872   3.018   1.946   3.099
 1956TIP3   OH2 5873   2.047   2.950   4.386
 1956TIP3    H1 5874   2.121   3.000   4.419
 1956TIP3    H2 5875   1.982   2.954   4.457
 1957TIP3   OH2 5876   2.700   1.387   2.650
 1957TIP3    H1 5877   2.704   1.349   2.562
 1957TIP3    H2 5878   2.644   1.465   2.640
 1958TIP3   OH2 5879   1.099   1.037   3.592
 1958TIP3    H1 5880   1.047   1.091   3.651
 1958TIP3    H2 5881   1.156   0.987   3.650
 1959TIP3   OH2 5882   6.188   2.247   4.239
 1959TIP3    H1 5883   6.121   2.178   4.241
 1959TIP3    H2 5884   6.219   2.247   4.149
 1960TIP3   OH2 5885   2.020   1.922   2.932
 1960TIP3    H1 5886   1.959   1.983   2.891
 1960TIP3    H2 5887   1.971   1.883   3.004
 1961TIP3   OH2 5888   1.598   3.916   5.165
 1961TIP3    H1 5889   1.689   3.938   5.184
 1961TIP3    H2 5890   1.597   3.820   5.159
 1962TIP3   OH2 5891   3.237   5.802   4.738
 1962TIP3    H1 5892   3.321   5.766   4.767
 1962TIP3    H2 5893   3.175   5.773   4.805
 1963TIP3   OH2 5894   2.788   0.103   5.043
 1963TIP3    H1 5895   2.703   0.090   5.001
 1963TIP3    H2 5896   2.819   0.187   5.008
 1964TIP3   OH2 5897   6.209   1.517   4.565
 1964TIP3    H1 5898   6.252   1.594   4.602
 1964TIP3    H2 5899   6.276   1.450   4.564
 1965TIP3   OH2 5900   1.136   1.359   3.759
 1965TIP3    H1 5901   1.147   1.453   3.769
 1965TIP3    H2 5902   1.223   1.326   3.737
 1966TIP3   OH2 5903   4.581   2.210   4.185
 1966TIP3    H1 5904   4.601   2.217   4.091
 1966TIP3    H2 5905   4.576   2.301   4.215
 1967TIP3   OH2 5906   3.900   3.883   1.370
 1967TIP3    H1 5907   3.911   3.911   1.279
 1967TIP3    H2 5908   3.809   3.853   1.375
 1968TIP3   OH2 5909   2.224   2.669   3.433
 1968TIP3    H1 5910   2.175   2.719   3.368
 1968TIP3    H2 5911   2.299   2.725   3.454
 1969TIP3   OH2 5912   4.919   5.404   2.126
 1969TIP3    H1 5913   4.869   5.484   2.139
 1969TIP3    H2 5914   4.986   5.428   2.062
 1970TIP3   OH2 5915   2.530   0.709   4.348
 1970TIP3    H1 5916   2.468   0.664   4.405
 1970TIP3    H2 5917   2.483   0.787   4.317
 1971TIP3   OH2 5918   0.638   5.885   0.255
 1971TIP3    H1 5919   0.685   5.819   0.306
 1971TIP3    H2 5920   0.593   5.836   0.187
 1972TIP3   OH2 5921   3.979   5.067   3.721
 1972TIP3    H1 5922   4.049   5.039   3.662
 1972TIP3    H2 5923   3.963   4.991   3.778
 1973TIP3   OH2 5924   4.269   5.501   1.704
 1973TIP3    H1 5925   4.337   5.434   1.710
 1973TIP3    H2 5926   4.188   5.456   1.726
 1974TIP3   OH2 5927   3.530   0.289   2.481
 1974TIP3    H1 5928   3.557   0.379   2.466
 1974TIP3    H2 5929   3.435   0.291   2.468
 1975TIP3   OH2 5930   1.242   3.762   5.052
 1975TIP3    H1 5931   1.265   3.729   4.965
 1975TIP3    H2 5932   1.282   3.849   5.056
 1976TIP3   OH2 5933   1.616   0.815   4.885
 1976TIP3    H1 5934   1.534   0.852   4.918
 1976TIP3    H2 5935   1.591   0.731   4.847
 1977TIP3   OH2 5936   5.092   4.345   1.702
 1977TIP3    H1 5937   5.138   4.306   1.627
 1977TIP3    H2 5938   5.012   4.382   1.664
 1978TIP3   OH2 5939   0.488   2.606   0.159
 1978TIP3    H1 5940   0.567   2.591   0.107
 1978TIP3    H2 5941   0.457   2.518   0.180
 1979TIP3   OH2 5942   2.426   2.518   4.343
 1979TIP3    H1 5943   2.354   2.471   4.385
 1979TIP3    H2 5944   2.465   2.570   4.413
 1980TIP3   OH2 5945   5.937   0.142   1.269
 1980TIP3    H1 5946   5.895   0.079   1.327
 1980TIP3    H2 5947   6.013   0.173   1.319
 1981TIP3   OH2 5948   0.294   0.194   2.554
 1981TIP3    H1 5949   0.228   0.263   2.565
 1981TIP3    H2 5950   0.254   0.116   2.590
 1982TIP3   OH2 5951   1.397   1.277   3.392
 1982TIP3    H1 5952   1.462   1.335   3.354
 1982TIP3    H2 5953   1.331   1.267   3.323
 1983TIP3   OH2 5954   2.068   3.443   4.186
 1983TIP3    H1 5955   2.091   3.483   4.102
 1983TIP3    H2 5956   2.014   3.368   4.163
 1984TIP3   OH2 5957   4.768   5.436   0.699
 1984TIP3    H1 5958   4.691   5.463   0.650
 1984TIP3    H2 5959   4.806   5.365   0.647
 1985TIP3   OH2 5960   2.284   2.550   1.983
 1985TIP3    H1 5961   2.352   2.512   1.927
 1985TIP3    H2 5962   2.205   2.550   1.929
 1986TIP3   OH2 5963   4.033   4.849   0.878
 1986TIP3    H1 5964   3.977   4.866   0.953
 1986TIP3    H2 5965   3.999   4.767   0.841
 1987TIP3   OH2 5966   3.937   1.451   0.508
 1987TIP3    H1 5967   3.927   1.432   0.415
 1987TIP3    H2 5968   3.901   1.539   0.519
 1988TIP3   OH2 5969   0.761   4.305   1.742
 1988TIP3    H1 5970   0.848   4.291   1.778
 1988TIP3    H2 5971   0.726   4.379   1.793
 1989TIP3   OH2 5972   1.295   2.538   3.607
 1989TIP3    H1 5973   1.240   2.548   3.529
 1989TIP3    H2 5974   1.360   2.608   3.599
 1990TIP3   OH2 5975   4.217   4.792   1.983
 1990TIP3    H1 5976   4.291   4.755   2.030
 1990TIP3    H2 5977   4.155   4.720   1.975
 1991TIP3   OH2 5978   5.379   3.582   2.180
 1991TIP3    H1 5979   5.445   3.605   2.113
 1991TIP3    H2 5980   5.363   3.489   2.166
 1992TIP3   OH2 5981   5.716   1.113   1.149
 1992TIP3    H1 5982   5.683   1.128   1.237
 1992TIP3    H2 5983   5.808   1.138   1.153
 1993TIP3   OH2 5984   5.200   0.967   0.792
 1993TIP3    H1 5985   5.219   1.058   0.812
 1993TIP3    H2 5986   5.107   0.956   0.812
 1994TIP3   OH2 5987   3.434   2.940   2.526
 1994TIP3    H1 5988   3.340   2.928   2.511
 1994TIP3    H2 5989   3.449   2.904   2.613
 1995TIP3   OH2 5990   4.254   4.105   5.160
 1995TIP3    H1 5991   4.214   4.139   5.241
 1995TIP3    H2 5992   4.259   4.181   5.102
 1996TIP3   OH2 5993   5.677   4.042   3.581
 1996TIP3    H1 5994   5.745   4.092   3.626
 1996TIP3    H2 5995   5.677   4.077   3.492
 1997TIP3   OH2 5996   4.898   1.592   0.229
 1997TIP3    H1 5997   4.955   1.600   0.152
 1997TIP3    H2 5998   4.958   1.589   0.303
 1998TIP3   OH2 5999   5.660   2.369   4.979
 1998TIP3    H1 6000   5.625   2.360   5.068
 1998TIP3    H2 6001   5.745   2.410   4.992
 1999TIP3   OH2 6002   1.363   1.297   0.491
 1999TIP3    H1 6003   1.270   1.308   0.512
 1999TIP3    H2 6004   1.409   1.332   0.567
 2000TIP3   OH2 6005   4.743   3.955   3.429
 2000TIP3    H1 6006   4.678   3.899   3.473
 2000TIP3    H2 6007   4.819   3.898   3.417
 2001TIP3   OH2 6008   0.278   2.199   1.394
 2001TIP3    H1 6009   0.330   2.132   1.439
 2001TIP3    H2 6010   0.223   2.237   1.463
 2002TIP3   OH2 6011   3.990   2.239   4.880
 2002TIP3    H1 6012   3.896   2.252   4.893
 2002TIP3    H2 6013   3.997   2.165   4.820
 2003TIP3   OH2 6014   5.422   0.921   3.875
 2003TIP3    H1 6015   5.488   0.977   3.916
 2003TIP3    H2 6016   5.379   0.878   3.949
 2004TIP3   OH2 6017   2.985   0.935   1.390
 2004TIP3    H1 6018   2.938   1.012   1.421
 2004TIP3    H2 6019   3.055   0.922   1.454
 2005TIP3   OH2 6020   1.493   4.320   1.745
 2005TIP3    H1 6021   1.547   4.337   1.669
 2005TIP3    H2 6022   1.551   4.333   1.820
 2006TIP3   OH2 6023   4.341   5.039   2.004
 2006TIP3    H1 6024   4.299   4.967   1.957
 2006TIP3    H2 6025   4.324   5.022   2.096
 2007TIP3   OH2 6026   4.794   3.840   0.573
 2007TIP3    H1 6027   4.794   3.745   0.568
 2007TIP3    H2 6028   4.860   3.861   0.638
 2008TIP3   OH2 6029   3.201   2.243   4.703
 2008TIP3    H1 6030   3.126   2.300   4.685
 2008TIP3    H2 6031   3.174   2.191   4.779
 2009TIP3   OH2 6032   2.210   5.051   4.304
 2009TIP3    H1 6033   2.255   4.968   4.317
 2009TIP3    H2 6034   2.124   5.038   4.343
 2010TIP3   OH2 6035   3.046   2.076   3.998
 2010TIP3    H1 6036   3.131   2.116   3.984
 2010TIP3    H2 6037   3.043   2.056   4.091
 2011TIP3   OH2 6038   3.727   0.165   3.651
 2011TIP3    H1 6039   3.729   0.089   3.708
 2011TIP3    H2 6040   3.707   0.130   3.564
 2012TIP3   OH2 6041   3.669   5.451   3.746
 2012TIP3    H1 6042   3.584   5.463   3.789
 2012TIP3    H2 6043   3.682   5.356   3.747
 2013TIP3   OH2 6044   5.054   4.311   1.199
 2013TIP3    H1 6045   5.091   4.228   1.229
 2013TIP3    H2 6046   5.080   4.319   1.108
 2014TIP3   OH2 6047   4.418   3.020   2.245
 2014TIP3    H1 6048   4.497   3.046   2.292
 2014TIP3    H2 6049   4.364   3.099   2.244
 2015TIP3   OH2 6050   6.177   0.025   2.724
 2015TIP3    H1 6051   6.214   0.107   2.691
 2015TIP3    H2 6052   6.113   0.052   2.789
 2016TIP3   OH2 6053   4.738   2.238   1.878
 2016TIP3    H1 6054   4.703   2.152   1.902
 2016TIP3    H2 6055   4.745   2.284   1.961
 2017TIP3   OH2 6056   1.214   0.493   3.851
 2017TIP3    H1 6057   1.126   0.522   3.876
 2017TIP3    H2 6058   1.210   0.398   3.856
 2018TIP3   OH2 6059   2.257   3.798   4.964
 2018TIP3    H1 6060   2.273   3.881   4.918
 2018TIP3    H2 6061   2.208   3.745   4.901
 2019TIP3   OH2 6062   2.378   1.655   1.183
 2019TIP3    H1 6063   2.285   1.630   1.179
 2019TIP3    H2 6064   2.412   1.633   1.096
 2020TIP3   OH2 6065   4.163   2.120   0.138
 2020TIP3    H1 6066   4.171   2.210   0.168
 2020TIP3    H2 6067   4.090   2.120   0.076
 2021TIP3   OH2 6068   2.576   5.804   4.821
 2021TIP3    H1 6069   2.574   5.888   4.867
 2021TIP3    H2 6070   2.485   5.788   4.796
 2022TIP3   OH2 6071   0.543   4.978   1.876
 2022TIP3    H1 6072   0.488   4.986   1.798
 2022TIP3    H2 6073   0.630   5.005   1.848
 2023TIP3   OH2 6074   0.770   0.106   0.508
 2023TIP3    H1 6075   0.794   0.067   0.423
 2023TIP3    H2 6076   0.735   0.032   0.558
 2024TIP3   OH2 6077   0.845   1.083   4.441
 2024TIP3    H1 6078   0.759   1.077   4.482
 2024TIP3    H2 6079   0.877   1.171   4.464
 2025TIP3   OH2 6080   5.155   0.639   2.653
 2025TIP3    H1 6081   5.244   0.613   2.628
 2025TIP3    H2 6082   5.098   0.581   2.602
 2026TIP3   OH2 6083   5.429   3.140   3.742
 2026TIP3    H1 6084   5.375   3.212   3.776
 2026TIP3    H2 6085   5.366   3.077   3.707
 2027TIP3   OH2 6086   5.922   0.532   4.184
 2027TIP3    H1 6087   5.918   0.617   4.229
 2027TIP3    H2 6088   5.850   0.482   4.221
 2028TIP3   OH2 6089   6.073   2.746   1.067
 2028TIP3    H1 6090   6.065   2.817   1.003
 2028TIP3    H2 6091   5.987   2.705   1.069
 2029TIP3   OH2 6092   3.775   2.557   3.518
 2029TIP3    H1 6093   3.837   2.496   3.557
 2029TIP3    H2 6094   3.826   2.636   3.501
 2030TIP3   OH2 6095   4.260   1.790   0.582
 2030TIP3    H1 6096   4.305   1.837   0.652
 2030TIP3    H2 6097   4.243   1.857   0.516
 2031TIP3   OH2 6098   5.722   4.591   0.001
 2031TIP3    H1 6099   5.691   4.682  -0.001
 2031TIP3    H2 6100   5.697   4.559   0.087
 2032TIP3   OH2 6101   3.254   4.581   3.999
 2032TIP3    H1 6102   3.277   4.664   3.957
 2032TIP3    H2 6103   3.336   4.550   4.037
 2033TIP3   OH2 6104   0.152   2.957   4.255
 2033TIP3    H1 6105   0.118   2.999   4.334
 2033TIP3    H2 6106   0.209   3.022   4.215
 2034TIP3   OH2 6107   4.778   0.560   4.214
 2034TIP3    H1 6108   4.685   0.578   4.228
 2034TIP3    H2 6109   4.824   0.630   4.260
 2035TIP3   OH2 6110   2.201   5.340   0.147
 2035TIP3    H1 6111   2.108   5.347   0.126
 2035TIP3    H2 6112   2.203   5.330   0.242
 2036TIP3   OH2 6113   0.180   4.280   1.641
 2036TIP3    H1 6114   0.129   4.199   1.630
 2036TIP3    H2 6115   0.148   4.337   1.572
 2037TIP3   OH2 6116   6.063   4.451   1.565
 2037TIP3    H1 6117   6.059   4.455   1.660
 2037TIP3    H2 6118   6.135   4.510   1.542
 2038TIP3   OH2 6119   0.636   1.325   1.943
 2038TIP3    H1 6120   0.643   1.229   1.944
 2038TIP3    H2 6121   0.707   1.354   2.001
 2039TIP3   OH2 6122   4.465   5.840   1.151
 2039TIP3    H1 6123   4.485   5.931   1.129
 2039TIP3    H2 6124   4.533   5.789   1.108
 2040TIP3   OH2 6125   5.921   2.552   2.814
 2040TIP3    H1 6126   5.995   2.504   2.777
 2040TIP3    H2 6127   5.883   2.492   2.878
 2041TIP3   OH2 6128   1.640   4.063   3.318
 2041TIP3    H1 6129   1.676   4.006   3.250
 2041TIP3    H2 6130   1.546   4.045   3.318
 2042TIP3   OH2 6131   4.449   5.565   1.379
 2042TIP3    H1 6132   4.501   5.555   1.299
 2042TIP3    H2 6133   4.378   5.501   1.370
 2043TIP3   OH2 6134   3.379   3.754   1.431
 2043TIP3    H1 6135   3.318   3.781   1.500
 2043TIP3    H2 6136   3.346   3.669   1.401
 2044TIP3   OH2 6137   3.168   1.171   2.740
 2044TIP3    H1 6138   3.139   1.083   2.766
 2044TIP3    H2 6139   3.092   1.227   2.758
 2045TIP3   OH2 6140   3.527   4.573   2.670
 2045TIP3    H1 6141   3.559   4.643   2.727
 2045TIP3    H2 6142   3.593   4.504   2.678
 2046TIP3   OH2 6143   0.620   0.680   0.210
 2046TIP3    H1 6144   0.553   0.626   0.253
 2046TIP3    H2 6145   0.616   0.653   0.118
 2047TIP3   OH2 6146   4.002   2.571   0.319
 2047TIP3    H1 6147   3.924   2.613   0.356
 2047TIP3    H2 6148   4.072   2.634   0.333
 2048TIP3   OH2 6149   5.993   5.023   0.846
 2048TIP3    H1 6150   5.971   5.044   0.936
 2048TIP3    H2 6151   5.910   5.031   0.798
 2049TIP3   OH2 6152   0.224   3.905   4.534
 2049TIP3    H1 6153   0.301   3.851   4.517
 2049TIP3    H2 6154   0.252   3.994   4.514
 2050TIP3   OH2 6155   0.322   1.500   0.856
 2050TIP3    H1 6156   0.412   1.468   0.857
 2050TIP3    H2 6157   0.269   1.422   0.873
 2051TIP3   OH2 6158   2.841   5.188   3.339
 2051TIP3    H1 6159   2.801   5.129   3.403
 2051TIP3    H2 6160   2.797   5.166   3.257
 2052TIP3   OH2 6161   1.532   4.397   4.426
 2052TIP3    H1 6162   1.622   4.411   4.395
 2052TIP3    H2 6163   1.479   4.457   4.374
 2053TIP3   OH2 6164   2.567   4.231   0.421
 2053TIP3    H1 6165   2.661   4.232   0.399
 2053TIP3    H2 6166   2.543   4.323   0.428
 2054TIP3   OH2 6167   0.716   2.099   2.024
 2054TIP3    H1 6168   0.764   2.132   2.100
 2054TIP3    H2 6169   0.785   2.081   1.960
 2055TIP3   OH2 6170   4.026   0.579   1.455
 2055TIP3    H1 6171   3.992   0.594   1.367
 2055TIP3    H2 6172   4.045   0.485   1.458
 2056TIP3   OH2 6173   4.724   0.327   3.778
 2056TIP3    H1 6174   4.655   0.394   3.775
 2056TIP3    H2 6175   4.687   0.258   3.833
 2057TIP3   OH2 6176   0.351   3.044   0.292
 2057TIP3    H1 6177   0.299   3.120   0.265
 2057TIP3    H2 6178   0.297   2.968   0.269
 2058TIP3   OH2 6179   5.171   3.269   3.088
 2058TIP3    H1 6180   5.244   3.211   3.066
 2058TIP3    H2 6181   5.111   3.212   3.137
 2059TIP3   OH2 6182   0.611   2.775   3.056
 2059TIP3    H1 6183   0.660   2.693   3.066
 2059TIP3    H2 6184   0.677   2.844   3.066
 2060TIP3   OH2 6185   2.795   2.791   4.365
 2060TIP3    H1 6186   2.812   2.728   4.295
 2060TIP3    H2 6187   2.864   2.856   4.357
 2061TIP3   OH2 6188   1.311   0.886   4.065
 2061TIP3    H1 6189   1.332   0.792   4.070
 2061TIP3    H2 6190   1.215   0.889   4.066
 2062TIP3   OH2 6191   3.201   4.850   2.570
 2062TIP3    H1 6192   3.258   4.811   2.504
 2062TIP3    H2 6193   3.260   4.896   2.629
 2063TIP3   OH2 6194   3.874   4.352   0.172
 2063TIP3    H1 6195   3.823   4.433   0.175
 2063TIP3    H2 6196   3.950   4.369   0.227
 2064TIP3   OH2 6197   3.247   0.585   3.023
 2064TIP3    H1 6198   3.198   0.663   3.046
 2064TIP3    H2 6199   3.180   0.520   3.002
 2065TIP3   OH2 6200   2.374   1.443   0.304
 2065TIP3    H1 6201   2.326   1.460   0.384
 2065TIP3    H2 6202   2.455   1.401   0.332
 2066TIP3   OH2 6203   6.264   5.586   5.153
 2066TIP3    H1 6204   6.230   5.507   5.111
 2066TIP3    H2 6205   6.332   5.617   5.093
 2067TIP3   OH2 6206   4.158   3.564   2.151
 2067TIP3    H1 6207   4.085   3.597   2.205
 2067TIP3    H2 6208   4.137   3.594   2.063
 2068TIP3   OH2 6209   4.411   0.217   4.925
 2068TIP3    H1 6210   4.422   0.297   4.977
 2068TIP3    H2 6211   4.348   0.165   4.974
 2069TIP3   OH2 6212   3.074   0.733   3.482
 2069TIP3    H1 6213   3.040   0.704   3.566
 2069TIP3    H2 6214   3.067   0.656   3.425
 2070TIP3   OH2 6215   1.820   0.490   0.308
 2070TIP3    H1 6216   1.778   0.562   0.260
 2070TIP3    H2 6217   1.914   0.503   0.292
 2071TIP3   OH2 6218   5.482   1.967   4.367
 2071TIP3    H1 6219   5.473   1.892   4.425
 2071TIP3    H2 6220   5.577   1.977   4.356
 2072TIP3   OH2 6221   2.860   0.787   2.560
 2072TIP3    H1 6222   2.795   0.750   2.501
 2072TIP3    H2 6223   2.932   0.814   2.503
 2073TIP3   OH2 6224   1.949   3.807   1.777
 2073TIP3    H1 6225   1.976   3.767   1.859
 2073TIP3    H2 6226   1.970   3.743   1.710
 2074TIP3   OH2 6227   3.510   5.192   0.348
 2074TIP3    H1 6228   3.570   5.233   0.411
 2074TIP3    H2 6229   3.444   5.149   0.403
 2075TIP3   OH2 6230   1.318   1.740   4.963
 2075TIP3    H1 6231   1.368   1.819   4.941
 2075TIP3    H2 6232   1.230   1.758   4.929
 2076TIP3   OH2 6233   5.352   0.063   1.987
 2076TIP3    H1 6234   5.335  -0.030   2.007
 2076TIP3    H2 6235   5.323   0.073   1.896
 2077TIP3   OH2 6236   3.945   2.823   2.643
 2077TIP3    H1 6237   3.863   2.785   2.673
 2077TIP3    H2 6238   3.943   2.914   2.675
 2078TIP3   OH2 6239   5.917   4.688   4.860
 2078TIP3    H1 6240   5.864   4.664   4.936
 2078TIP3    H2 6241   5.915   4.611   4.804
 2079TIP3   OH2 6242   5.763   5.075   0.705
 2079TIP3    H1 6243   5.737   5.006   0.644
 2079TIP3    H2 6244   5.797   5.145   0.650
 2080TIP3   OH2 6245   1.531   3.175   0.611
 2080TIP3    H1 6246   1.553   3.216   0.527
 2080TIP3    H2 6247   1.597   3.208   0.672
 2081TIP3   OH2 6248   5.131   0.804   4.581
 2081TIP3    H1 6249   5.158   0.743   4.513
 2081TIP3    H2 6250   5.186   0.882   4.567
 2082TIP3   OH2 6251   3.137   5.381   1.180
 2082TIP3    H1 6252   3.109   5.433   1.255
 2082TIP3    H2 6253   3.170   5.444   1.117
 2083TIP3   OH2 6254   2.654   0.423   3.833
 2083TIP3    H1 6255   2.720   0.432   3.902
 2083TIP3    H2 6256   2.599   0.350   3.861
 2084TIP3   OH2 6257   4.372   1.989   1.182
 2084TIP3    H1 6258   4.323   2.044   1.243
 2084TIP3    H2 6259   4.436   2.047   1.142
 2085TIP3   OH2 6260   4.120   2.759   1.219
 2085TIP3    H1 6261   4.043   2.792   1.173
 2085TIP3    H2 6262   4.088   2.681   1.264
 2086TIP3   OH2 6263   2.770   2.036   0.360
 2086TIP3    H1 6264   2.697   1.983   0.391
 2086TIP3    H2 6265   2.765   2.030   0.264
 2087TIP3   OH2 6266   3.108   0.065   4.110
 2087TIP3    H1 6267   3.037   0.066   4.047
 2087TIP3    H2 6268   3.179   0.113   4.066
 2088TIP3   OH2 6269   3.698   1.539   1.096
 2088TIP3    H1 6270   3.621   1.595   1.098
 2088TIP3    H2 6271   3.749   1.570   1.021
 2089TIP3   OH2 6272   1.626   2.193   0.588
 2089TIP3    H1 6273   1.617   2.284   0.561
 2089TIP3    H2 6274   1.597   2.142   0.513
 2090TIP3   OH2 6275   0.729   3.162   3.781
 2090TIP3    H1 6276   0.736   3.239   3.725
 2090TIP3    H2 6277   0.789   3.098   3.742
 2091TIP3   OH2 6278   4.521   3.339   1.442
 2091TIP3    H1 6279   4.535   3.417   1.495
 2091TIP3    H2 6280   4.478   3.277   1.501
 2092TIP3   OH2 6281   6.325   5.411   3.906
 2092TIP3    H1 6282   6.231   5.427   3.898
 2092TIP3    H2 6283   6.336   5.378   3.995
 2093TIP3   OH2 6284   1.006   5.897   1.795
 2093TIP3    H1 6285   0.979   5.967   1.737
 2093TIP3    H2 6286   0.990   5.931   1.883
 2094TIP3   OH2 6287   6.155   2.594   0.313
 2094TIP3    H1 6288   6.129   2.685   0.322
 2094TIP3    H2 6289   6.086   2.544   0.357
 2095TIP3   OH2 6290   1.891   2.974   0.272
 2095TIP3    H1 6291   1.832   2.918   0.221
 2095TIP3    H2 6292   1.913   2.921   0.349
 2096TIP3   OH2 6293   1.156   5.977   3.001
 2096TIP3    H1 6294   1.078   5.938   2.961
 2096TIP3    H2 6295   1.206   6.012   2.927
 2097TIP3   OH2 6296   2.410   0.364   2.918
 2097TIP3    H1 6297   2.347   0.294   2.905
 2097TIP3    H2 6298   2.486   0.339   2.865
 2098TIP3   OH2 6299   2.761   0.380   4.094
 2098TIP3    H1 6300   2.747   0.470   4.123
 2098TIP3    H2 6301   2.691   0.330   4.137
 2099TIP3   OH2 6302   1.346   0.673  -0.033
 2099TIP3    H1 6303   1.389   0.745   0.014
 2099TIP3    H2 6304   1.283   0.638   0.030
 2100TIP3   OH2 6305   1.146   4.212   3.395
 2100TIP3    H1 6306   1.187   4.266   3.462
 2100TIP3    H2 6307   1.061   4.186   3.432
 2101TIP3   OH2 6308   4.110   4.730   3.930
 2101TIP3    H1 6309   4.073   4.701   3.847
 2101TIP3    H2 6310   4.184   4.671   3.944
 2102TIP3   OH2 6311   0.655   5.941   1.454
 2102TIP3    H1 6312   0.628   6.029   1.480
 2102TIP3    H2 6313   0.734   5.953   1.402
 2103TIP3   OH2 6314   3.226   3.768   5.033
 2103TIP3    H1 6315   3.166   3.787   5.105
 2103TIP3    H2 6316   3.298   3.720   5.074
 2104TIP3   OH2 6317   3.856   3.661   3.010
 2104TIP3    H1 6318   3.852   3.670   2.914
 2104TIP3    H2 6319   3.936   3.707   3.035
 2105TIP3   OH2 6320   4.726   3.645   1.058
 2105TIP3    H1 6321   4.771   3.608   1.134
 2105TIP3    H2 6322   4.647   3.592   1.049
 2106TIP3   OH2 6323   3.282   0.497   2.073
 2106TIP3    H1 6324   3.218   0.434   2.106
 2106TIP3    H2 6325   3.342   0.443   2.020
 2107TIP3   OH2 6326   4.098   3.620   1.894
 2107TIP3    H1 6327   4.147   3.700   1.876
 2107TIP3    H2 6328   4.008   3.641   1.871
 2108TIP3   OH2 6329   3.496   2.077   2.439
 2108TIP3    H1 6330   3.480   2.158   2.487
 2108TIP3    H2 6331   3.412   2.031   2.443
 2109TIP3   OH2 6332   1.965   1.890   4.082
 2109TIP3    H1 6333   1.883   1.898   4.032
 2109TIP3    H2 6334   2.001   1.979   4.081
 2110TIP3   OH2 6335   4.227   5.971   1.515
 2110TIP3    H1 6336   4.285   5.905   1.476
 2110TIP3    H2 6337   4.162   5.920   1.563
 2111TIP3   OH2 6338   2.344   4.056   4.432
 2111TIP3    H1 6339   2.424   4.004   4.421
 2111TIP3    H2 6340   2.282   4.019   4.370
 2112TIP3   OH2 6341   5.501   4.860   4.764
 2112TIP3    H1 6342   5.501   4.849   4.669
 2112TIP3    H2 6343   5.540   4.780   4.798
 2113TIP3   OH2 6344   2.394   2.761   3.054
 2113TIP3    H1 6345   2.329   2.691   3.047
 2113TIP3    H2 6346   2.475   2.717   3.081
 2114TIP3   OH2 6347   3.659   4.082   1.851
 2114TIP3    H1 6348   3.708   4.157   1.883
 2114TIP3    H2 6349   3.626   4.109   1.765
 2115TIP3   OH2 6350   5.806   1.681   3.951
 2115TIP3    H1 6351   5.868   1.641   3.890
 2115TIP3    H2 6352   5.836   1.654   4.038
 2116TIP3   OH2 6353   0.160   3.859   1.063
 2116TIP3    H1 6354   0.209   3.924   1.112
 2116TIP3    H2 6355   0.207   3.850   0.980
 2117TIP3   OH2 6356   0.133   3.817   2.115
 2117TIP3    H1 6357   0.164   3.800   2.026
 2117TIP3    H2 6358   0.162   3.742   2.166
 2118TIP3   OH2 6359   1.860   3.215   4.164
 2118TIP3    H1 6360   1.920   3.141   4.171
 2118TIP3    H2 6361   1.828   3.211   4.074
 2119TIP3   OH2 6362   1.504   0.325   4.013
 2119TIP3    H1 6363   1.528   0.396   4.072
 2119TIP3    H2 6364   1.410   0.313   4.026
 2120TIP3   OH2 6365   3.442   2.410   1.484
 2120TIP3    H1 6366   3.349   2.426   1.467
 2120TIP3    H2 6367   3.487   2.479   1.436
 2121TIP3   OH2 6368   2.423   4.674   1.191
 2121TIP3    H1 6369   2.483   4.659   1.118
 2121TIP3    H2 6370   2.476   4.718   1.257
 2122TIP3   OH2 6371   2.462   3.018   2.629
 2122TIP3    H1 6372   2.506   3.040   2.547
 2122TIP3    H2 6373   2.430   2.929   2.616
 2123TIP3   OH2 6374   4.355   4.675   2.262
 2123TIP3    H1 6375   4.285   4.729   2.298
 2123TIP3    H2 6376   4.429   4.735   2.250
 2124TIP3   OH2 6377   4.373   1.025   2.246
 2124TIP3    H1 6378   4.385   1.062   2.334
 2124TIP3    H2 6379   4.411   0.937   2.252
 2125TIP3   OH2 6380   2.698   4.470   0.894
 2125TIP3    H1 6381   2.725   4.436   0.979
 2125TIP3    H2 6382   2.655   4.553   0.913
 2126TIP3   OH2 6383   1.253   3.476   3.424
 2126TIP3    H1 6384   1.175   3.497   3.474
 2126TIP3    H2 6385   1.311   3.551   3.436
 2127TIP3   OH2 6386   2.456   2.018   0.824
 2127TIP3    H1 6387   2.531   2.074   0.841
 2127TIP3    H2 6388   2.406   2.064   0.757
 2128TIP3   OH2 6389   3.069   1.088   1.768
 2128TIP3    H1 6390   3.087   1.056   1.857
 2128TIP3    H2 6391   3.018   1.168   1.781
 2129TIP3   OH2 6392   4.997   0.485   3.522
 2129TIP3    H1 6393   5.044   0.409   3.555
 2129TIP3    H2 6394   4.965   0.530   3.600
 2130TIP3   OH2 6395   2.961   0.797   2.229
 2130TIP3    H1 6396   3.021   0.849   2.282
 2130TIP3    H2 6397   3.014   0.766   2.155
 2131TIP3   OH2 6398   2.707   3.422   1.241
 2131TIP3    H1 6399   2.634   3.482   1.250
 2131TIP3    H2 6400   2.776   3.474   1.198
 2132TIP3   OH2 6401   6.114   3.077   4.362
 2132TIP3    H1 6402   6.127   3.015   4.433
 2132TIP3    H2 6403   6.123   3.025   4.282
 2133TIP3   OH2 6404   4.770   0.211   1.313
 2133TIP3    H1 6405   4.783   0.129   1.267
 2133TIP3    H2 6406   4.683   0.204   1.352
 2134TIP3   OH2 6407   5.283   1.504   3.884
 2134TIP3    H1 6408   5.371   1.534   3.861
 2134TIP3    H2 6409   5.298   1.421   3.930
 2135TIP3   OH2 6410   1.281   5.700   4.853
 2135TIP3    H1 6411   1.203   5.705   4.798
 2135TIP3    H2 6412   1.340   5.767   4.818
 2136TIP3   OH2 6413   3.989   5.732   1.046
 2136TIP3    H1 6414   4.021   5.642   1.046
 2136TIP3    H2 6415   4.048   5.778   1.106
 2137TIP3   OH2 6416   5.981   0.060   3.685
 2137TIP3    H1 6417   6.006   0.079   3.775
 2137TIP3    H2 6418   6.032  -0.018   3.662
 2138TIP3   OH2 6419   3.409   0.745   0.977
 2138TIP3    H1 6420   3.401   0.651   0.993
 2138TIP3    H2 6421   3.358   0.760   0.896
 2139TIP3   OH2 6422   2.895   5.536   4.061
 2139TIP3    H1 6423   2.804   5.539   4.090
 2139TIP3    H2 6424   2.891   5.546   3.966
 2140TIP3   OH2 6425   5.393   2.138   1.798
 2140TIP3    H1 6426   5.457   2.093   1.743
 2140TIP3    H2 6427   5.355   2.205   1.741
 2141TIP3   OH2 6428   2.136   3.224   3.840
 2141TIP3    H1 6429   2.185   3.167   3.899
 2141TIP3    H2 6430   2.109   3.167   3.768
 2142TIP3   OH2 6431   1.086   2.914   0.747
 2142TIP3    H1 6432   1.163   2.881   0.700
 2142TIP3    H2 6433   1.120   2.935   0.835
 2143TIP3   OH2 6434   1.783   2.221   2.274
 2143TIP3    H1 6435   1.815   2.268   2.351
 2143TIP3    H2 6436   1.752   2.290   2.215
 2144TIP3   OH2 6437   3.576   4.282   2.829
 2144TIP3    H1 6438   3.524   4.221   2.776
 2144TIP3    H2 6439   3.667   4.257   2.813
 2145TIP3   OH2 6440   5.527   0.931   0.665
 2145TIP3    H1 6441   5.564   0.975   0.741
 2145TIP3    H2 6442   5.604   0.898   0.617
 2146TIP3   OH2 6443   1.520   0.483   4.236
 2146TIP3    H1 6444   1.560   0.417   4.294
 2146TIP3    H2 6445   1.593   0.540   4.211
 2147TIP3   OH2 6446   2.485   3.700   0.120
 2147TIP3    H1 6447   2.531   3.771   0.165
 2147TIP3    H2 6448   2.463   3.638   0.189
 2148TIP3   OH2 6449   6.023   4.827   4.413
 2148TIP3    H1 6450   5.946   4.879   4.439
 2148TIP3    H2 6451   6.088   4.846   4.480
 2149TIP3   OH2 6452   5.555   2.470   4.351
 2149TIP3    H1 6453   5.544   2.426   4.435
 2149TIP3    H2 6454   5.630   2.527   4.363
 2150TIP3   OH2 6455   4.557   2.201   0.102
 2150TIP3    H1 6456   4.614   2.271   0.073
 2150TIP3    H2 6457   4.600   2.165   0.180
 2151TIP3   OH2 6458   3.860   2.837   3.084
 2151TIP3    H1 6459   3.919   2.764   3.101
 2151TIP3    H2 6460   3.805   2.806   3.012
 2152TIP3   OH2 6461   3.656   0.701   3.517
 2152TIP3    H1 6462   3.561   0.698   3.523
 2152TIP3    H2 6463   3.679   0.790   3.543
 2153TIP3   OH2 6464   5.574   2.869   2.397
 2153TIP3    H1 6465   5.547   2.842   2.485
 2153TIP3    H2 6466   5.622   2.795   2.362
 2154TIP3   OH2 6467   5.118   4.571   2.815
 2154TIP3    H1 6468   5.062   4.500   2.847
 2154TIP3    H2 6469   5.162   4.604   2.893
 2155TIP3   OH2 6470   4.888   4.858   0.133
 2155TIP3    H1 6471   4.953   4.900   0.076
 2155TIP3    H2 6472   4.940   4.804   0.192
 2156TIP3   OH2 6473   0.405   5.806   3.413
 2156TIP3    H1 6474   0.366   5.885   3.373
 2156TIP3    H2 6475   0.337   5.774   3.472
 2157TIP3   OH2 6476   4.341   0.787   3.407
 2157TIP3    H1 6477   4.340   0.694   3.429
 2157TIP3    H2 6478   4.322   0.790   3.314
 2158TIP3   OH2 6479   5.532   2.795   2.686
 2158TIP3    H1 6480   5.623   2.800   2.716
 2158TIP3    H2 6481   5.484   2.851   2.746
 2159TIP3   OH2 6482   4.568   5.969   0.629
 2159TIP3    H1 6483   4.635   5.907   0.659
 2159TIP3    H2 6484   4.485   5.924   0.646
 2160TIP3   OH2 6485   4.807   0.232   4.472
 2160TIP3    H1 6486   4.862   0.238   4.394
 2160TIP3    H2 6487   4.862   0.187   4.536
 2161TIP3   OH2 6488   2.020   1.527   3.340
 2161TIP3    H1 6489   2.113   1.550   3.342
 2161TIP3    H2 6490   1.983   1.569   3.417
 2162TIP3   OH2 6491   6.235   1.326   1.727
 2162TIP3    H1 6492   6.325   1.354   1.746
 2162TIP3    H2 6493   6.189   1.335   1.811
 2163TIP3   OH2 6494   4.433   5.099   4.824
 2163TIP3    H1 6495   4.417   5.092   4.918
 2163TIP3    H2 6496   4.398   5.185   4.800
 2164TIP3   OH2 6497   1.150   3.284   2.758
 2164TIP3    H1 6498   1.151   3.194   2.791
 2164TIP3    H2 6499   1.242   3.308   2.752
 2165TIP3   OH2 6500   4.532   3.952   0.495
 2165TIP3    H1 6501   4.596   4.006   0.448
 2165TIP3    H2 6502   4.585   3.891   0.546
 2166TIP3   OH2 6503   3.438   4.943   0.713
 2166TIP3    H1 6504   3.392   4.908   0.790
 2166TIP3    H2 6505   3.486   5.018   0.747
 2167TIP3   OH2 6506   3.680   2.299   4.936
 2167TIP3    H1 6507   3.696   2.206   4.952
 2167TIP3    H2 6508   3.603   2.301   4.880
 2168TIP3   OH2 6509   1.317   2.473   0.759
 2168TIP3    H1 6510   1.362   2.389   0.770
 2168TIP3    H2 6511   1.381   2.538   0.789
 2169TIP3   OH2 6512   2.522   1.122   5.007
 2169TIP3    H1 6513   2.566   1.045   4.970
 2169TIP3    H2 6514   2.591   1.188   5.013
 2170TIP3   OH2 6515   1.715   3.687   2.025
 2170TIP3    H1 6516   1.658   3.636   2.083
 2170TIP3    H2 6517   1.803   3.673   2.061
 2171TIP3   OH2 6518   6.340   5.574   4.890
 2171TIP3    H1 6519   6.379   5.614   4.813
 2171TIP3    H2 6520   6.255   5.542   4.861
 2172TIP3   OH2 6521   3.510   2.928   3.264
 2172TIP3    H1 6522   3.498   2.864   3.334
 2172TIP3    H2 6523   3.531   2.876   3.187
 2173TIP3   OH2 6524   0.272   2.189   3.081
 2173TIP3    H1 6525   0.255   2.256   3.148
 2173TIP3    H2 6526   0.329   2.125   3.124
 2174TIP3   OH2 6527   5.696   3.730   0.516
 2174TIP3    H1 6528   5.790   3.713   0.528
 2174TIP3    H2 6529   5.658   3.715   0.603
 2175TIP3   OH2 6530   0.922   4.282   0.729
 2175TIP3    H1 6531   0.949   4.304   0.640
 2175TIP3    H2 6532   0.947   4.190   0.739
 2176TIP3   OH2 6533   5.943   3.986   0.364
 2176TIP3    H1 6534   6.037   3.990   0.346
 2176TIP3    H2 6535   5.934   3.911   0.423
 2177TIP3   OH2 6536   0.030   0.396   2.883
 2177TIP3    H1 6537   0.080   0.462   2.835
 2177TIP3    H2 6538   0.096   0.340   2.922
 2178TIP3   OH2 6539   5.931   0.045   3.963
 2178TIP3    H1 6540   6.018   0.009   3.981
 2178TIP3    H2 6541   5.876   0.014   4.035
 2179TIP3   OH2 6542   4.364   5.470   2.177
 2179TIP3    H1 6543   4.359   5.416   2.099
 2179TIP3    H2 6544   4.292   5.533   2.168
 2180TIP3   OH2 6545   3.528   0.803   0.388
 2180TIP3    H1 6546   3.575   0.838   0.463
 2180TIP3    H2 6547   3.482   0.878   0.351
 2181TIP3   OH2 6548   6.199   3.646   4.720
 2181TIP3    H1 6549   6.244   3.656   4.636
 2181TIP3    H2 6550   6.189   3.735   4.752
 2182TIP3   OH2 6551   5.353   0.423   3.267
 2182TIP3    H1 6552   5.340   0.454   3.357
 2182TIP3    H2 6553   5.406   0.491   3.226
 2183TIP3   OH2 6554   0.099   4.937   0.421
 2183TIP3    H1 6555   0.182   4.984   0.423
 2183TIP3    H2 6556   0.040   4.992   0.370
 2184TIP3   OH2 6557   4.580   3.579   1.634
 2184TIP3    H1 6558   4.576   3.599   1.728
 2184TIP3    H2 6559   4.652   3.517   1.626
 2185TIP3   OH2 6560   4.281   4.848   1.471
 2185TIP3    H1 6561   4.300   4.758   1.443
 2185TIP3    H2 6562   4.351   4.869   1.533
 2186TIP3   OH2 6563   4.101   3.170   1.993
 2186TIP3    H1 6564   4.193   3.148   2.009
 2186TIP3    H2 6565   4.100   3.265   1.985
 2187TIP3   OH2 6566   1.292   3.282   0.544
 2187TIP3    H1 6567   1.243   3.306   0.622
 2187TIP3    H2 6568   1.357   3.220   0.575
 2188TIP3   OH2 6569   0.739   3.899   0.631
 2188TIP3    H1 6570   0.766   3.832   0.694
 2188TIP3    H2 6571   0.820   3.945   0.610
 2189TIP3   OH2 6572   0.841   1.791   2.178
 2189TIP3    H1 6573   0.778   1.738   2.228
 2189TIP3    H2 6574   0.918   1.796   2.235
 2190TIP3   OH2 6575   3.266   4.541   2.782
 2190TIP3    H1 6576   3.311   4.624   2.799
 2190TIP3    H2 6577   3.329   4.489   2.733
 2191TIP3   OH2 6578   2.932   3.497   2.535
 2191TIP3    H1 6579   2.935   3.404   2.560
 2191TIP3    H2 6580   2.856   3.504   2.478
 2192TIP3   OH2 6581   3.122   2.240   0.687
 2192TIP3    H1 6582   3.142   2.207   0.774
 2192TIP3    H2 6583   3.156   2.330   0.687
 2193TIP3   OH2 6584   4.265   0.323   1.242
 2193TIP3    H1 6585   4.170   0.319   1.251
 2193TIP3    H2 6586   4.297   0.250   1.294
 2194TIP3   OH2 6587   1.778   0.272   4.258
 2194TIP3    H1 6588   1.829   0.344   4.294
 2194TIP3    H2 6589   1.842   0.203   4.242
 2195TIP3   OH2 6590   2.544   5.846   0.163
 2195TIP3    H1 6591   2.514   5.937   0.159
 2195TIP3    H2 6592   2.635   5.852   0.195
 2196TIP3   OH2 6593   5.926   1.962   1.502
 2196TIP3    H1 6594   5.840   1.925   1.481
 2196TIP3    H2 6595   5.988   1.897   1.469
 2197TIP3   OH2 6596   3.578   3.976   3.376
 2197TIP3    H1 6597   3.584   4.042   3.445
 2197TIP3    H2 6598   3.595   4.024   3.295
 2198TIP3   OH2 6599   2.669   4.486   5.114
 2198TIP3    H1 6600   2.577   4.507   5.128
 2198TIP3    H2 6601   2.715   4.567   5.132
 2199TIP3   OH2 6602   3.318   1.758   2.657
 2199TIP3    H1 6603   3.307   1.731   2.748
 2199TIP3    H2 6604   3.411   1.745   2.639
 2200TIP3   OH2 6605   6.176   5.902   4.488
 2200TIP3    H1 6606   6.188   5.921   4.581
 2200TIP3    H2 6607   6.085   5.875   4.480
 2201TIP3   OH2 6608   3.800   3.305   2.452
 2201TIP3    H1 6609   3.840   3.391   2.437
 2201TIP3    H2 6610   3.832   3.252   2.378
 2202TIP3   OH2 6611   3.626   4.020   4.218
 2202TIP3    H1 6612   3.638   4.085   4.287
 2202TIP3    H2 6613   3.536   3.988   4.229
 2203TIP3   OH2 6614   2.885   3.224   2.153
 2203TIP3    H1 6615   2.923   3.311   2.138
 2203TIP3    H2 6616   2.793   3.241   2.170
 2204TIP3   OH2 6617   0.702   4.133   4.747
 2204TIP3    H1 6618   0.615   4.097   4.763
 2204TIP3    H2 6619   0.736   4.081   4.674
 2205TIP3   OH2 6620   1.283   4.860   2.692
 2205TIP3    H1 6621   1.311   4.923   2.758
 2205TIP3    H2 6622   1.293   4.775   2.734
 2206TIP3   OH2 6623   1.626   5.256   3.608
 2206TIP3    H1 6624   1.579   5.337   3.626
 2206TIP3    H2 6625   1.558   5.194   3.583
 2207TIP3   OH2 6626   4.984   0.396   0.904
 2207TIP3    H1 6627   4.943   0.442   0.977
 2207TIP3    H2 6628   5.017   0.466   0.847
 2208TIP3   OH2 6629   5.340   5.433   4.017
 2208TIP3    H1 6630   5.380   5.466   3.936
 2208TIP3    H2 6631   5.316   5.512   4.066
 2209TIP3   OH2 6632   1.533   4.636   3.188
 2209TIP3    H1 6633   1.452   4.585   3.190
 2209TIP3    H2 6634   1.538   4.677   3.274
 2210TIP3   OH2 6635   3.475   2.512   2.304
 2210TIP3    H1 6636   3.553   2.565   2.284
 2210TIP3    H2 6637   3.414   2.531   2.234
 2211TIP3   OH2 6638   4.398   3.717   2.395
 2211TIP3    H1 6639   4.416   3.789   2.455
 2211TIP3    H2 6640   4.352   3.758   2.322
 2212TIP3   OH2 6641   0.252   0.929   3.383
 2212TIP3    H1 6642   0.264   0.946   3.476
 2212TIP3    H2 6643   0.205   0.846   3.379
 2213TIP3   OH2 6644   3.243   1.257   5.013
 2213TIP3    H1 6645   3.332   1.238   5.043
 2213TIP3    H2 6646   3.211   1.324   5.073
 2214TIP3   OH2 6647   4.085   3.605   1.399
 2214TIP3    H1 6648   3.990   3.598   1.410
 2214TIP3    H2 6649   4.121   3.578   1.483
 2215TIP3   OH2 6650   1.095   3.077   1.334
 2215TIP3    H1 6651   1.132   3.165   1.337
 2215TIP3    H2 6652   1.001   3.090   1.338
 2216TIP3   OH2 6653   3.548   3.560   1.281
 2216TIP3    H1 6654   3.555   3.465   1.269
 2216TIP3    H2 6655   3.511   3.591   1.198
 2217TIP3   OH2 6656   3.170   3.675   2.153
 2217TIP3    H1 6657   3.082   3.711   2.144
 2217TIP3    H2 6658   3.160   3.599   2.210
 2218TIP3   OH2 6659   3.338   0.515   4.295
 2218TIP3    H1 6660   3.394   0.581   4.255
 2218TIP3    H2 6661   3.399   0.445   4.322
 2219TIP3   OH2 6662   6.039   1.372   4.839
 2219TIP3    H1 6663   6.069   1.281   4.836
 2219TIP3    H2 6664   6.097   1.413   4.904
 2220TIP3   OH2 6665   3.309   2.201   3.955
 2220TIP3    H1 6666   3.371   2.215   4.027
 2220TIP3    H2 6667   3.331   2.114   3.922
 2221TIP3   OH2 6668   3.470   3.561   2.273
 2221TIP3    H1 6669   3.375   3.552   2.269
 2221TIP3    H2 6670   3.503   3.472   2.273
 2222TIP3   OH2 6671   1.123   2.555   1.124
 2222TIP3    H1 6672   1.179   2.616   1.172
 2222TIP3    H2 6673   1.179   2.480   1.105
 2223TIP3   OH2 6674   2.026   4.549   1.167
 2223TIP3    H1 6675   2.050   4.481   1.104
 2223TIP3    H2 6676   1.997   4.622   1.113
 2224TIP3   OH2 6677   4.342   2.439   4.140
 2224TIP3    H1 6678   4.331   2.402   4.052
 2224TIP3    H2 6679   4.435   2.461   4.144
 2225TIP3   OH2 6680   4.472   3.520   0.944
 2225TIP3    H1 6681   4.484   3.528   0.849
 2225TIP3    H2 6682   4.393   3.466   0.953
 2226TIP3   OH2 6683   2.220   1.225   3.617
 2226TIP3    H1 6684   2.216   1.278   3.538
 2226TIP3    H2 6685   2.312   1.226   3.644
 2227TIP3   OH2 6686   3.199   1.457   4.815
 2227TIP3    H1 6687   3.239   1.528   4.867
 2227TIP3    H2 6688   3.249   1.379   4.840
 2228TIP3   OH2 6689   2.355   3.555   2.676
 2228TIP3    H1 6690   2.271   3.534   2.636
 2228TIP3    H2 6691   2.342   3.641   2.716
 2229TIP3   OH2 6692   3.316   2.629   0.947
 2229TIP3    H1 6693   3.406   2.615   0.916
 2229TIP3    H2 6694   3.281   2.698   0.890
 2230TIP3   OH2 6695   3.059   4.698   2.898
 2230TIP3    H1 6696   3.152   4.709   2.921
 2230TIP3    H2 6697   3.021   4.785   2.911
 2231TIP3   OH2 6698   5.071   0.925   3.856
 2231TIP3    H1 6699   5.083   0.987   3.784
 2231TIP3    H2 6700   5.079   0.979   3.935
 2232TIP3   OH2 6701   3.621   2.945   0.423
 2232TIP3    H1 6702   3.556   2.898   0.476
 2232TIP3    H2 6703   3.571   3.016   0.382
 2233TIP3   OH2 6704   1.690   5.682   4.840
 2233TIP3    H1 6705   1.750   5.637   4.781
 2233TIP3    H2 6706   1.646   5.611   4.888
 2234TIP3   OH2 6707   5.705   4.756   3.569
 2234TIP3    H1 6708   5.681   4.672   3.531
 2234TIP3    H2 6709   5.800   4.761   3.557
 2235TIP3   OH2 6710   1.047   1.181   2.163
 2235TIP3    H1 6711   1.076   1.098   2.200
 2235TIP3    H2 6712   1.122   1.239   2.172
 2236TIP3   OH2 6713   5.002   0.097   1.888
 2236TIP3    H1 6714   4.936   0.030   1.869
 2236TIP3    H2 6715   5.059   0.097   1.812
 2237TIP3   OH2 6716   3.403   4.345   3.322
 2237TIP3    H1 6717   3.331   4.285   3.344
 2237TIP3    H2 6718   3.360   4.429   3.305
 2238TIP3   OH2 6719   0.734   2.637   2.190
 2238TIP3    H1 6720   0.772   2.671   2.109
 2238TIP3    H2 6721   0.782   2.682   2.260
 2239TIP3   OH2 6722   3.989   0.855   2.098
 2239TIP3    H1 6723   3.904   0.881   2.064
 2239TIP3    H2 6724   4.052   0.906   2.046
 2240TIP3   OH2 6725   5.283   4.203   4.963
 2240TIP3    H1 6726   5.288   4.272   5.030
 2240TIP3    H2 6727   5.242   4.246   4.888
 2241TIP3   OH2 6728   5.233   1.868   1.546
 2241TIP3    H1 6729   5.206   1.776   1.552
 2241TIP3    H2 6730   5.162   1.917   1.588
 2242TIP3   OH2 6731   3.629   0.447   5.155
 2242TIP3    H1 6732   3.701   0.389   5.130
 2242TIP3    H2 6733   3.615   0.503   5.078
 2243TIP3   OH2 6734   1.167   5.249   3.002
 2243TIP3    H1 6735   1.185   5.157   3.022
 2243TIP3    H2 6736   1.249   5.294   3.022
 2244TIP3   OH2 6737   0.646   4.464   3.725
 2244TIP3    H1 6738   0.555   4.484   3.746
 2244TIP3    H2 6739   0.660   4.377   3.762
 2245TIP3   OH2 6740   4.092   2.076   1.313
 2245TIP3    H1 6741   4.085   1.982   1.296
 2245TIP3    H2 6742   4.053   2.088   1.400
 2246TIP3   OH2 6743   4.730   5.883   2.816
 2246TIP3    H1 6744   4.708   5.858   2.726
 2246TIP3    H2 6745   4.764   5.972   2.807
 2247TIP3   OH2 6746   0.945   0.464   1.067
 2247TIP3    H1 6747   1.034   0.443   1.039
 2247TIP3    H2 6748   0.891   0.455   0.988
 2248TIP3   OH2 6749   2.756   4.287   2.777
 2248TIP3    H1 6750   2.797   4.360   2.824
 2248TIP3    H2 6751   2.685   4.258   2.835
 2249TIP3   OH2 6752   0.679   4.353   3.078
 2249TIP3    H1 6753   0.736   4.312   3.013
 2249TIP3    H2 6754   0.613   4.287   3.097
 2250TIP3   OH2 6755   1.317   0.663   0.526
 2250TIP3    H1 6756   1.397   0.711   0.503
 2250TIP3    H2 6757   1.248   0.728   0.520
 2251TIP3   OH2 6758   3.777   5.176   2.977
 2251TIP3    H1 6759   3.786   5.083   2.997
 2251TIP3    H2 6760   3.750   5.179   2.886
 2252TIP3   OH2 6761   4.711   3.011   1.822
 2252TIP3    H1 6762   4.641   2.946   1.827
 2252TIP3    H2 6763   4.703   3.061   1.903
 2253TIP3   OH2 6764   4.569   4.272   3.065
 2253TIP3    H1 6765   4.653   4.306   3.094
 2253TIP3    H2 6766   4.506   4.304   3.130
 2254TIP3   OH2 6767   3.774   5.380   0.406
 2254TIP3    H1 6768   3.862   5.357   0.436
 2254TIP3    H2 6769   3.751   5.459   0.454
 2255TIP3   OH2 6770   5.013   1.657   0.479
 2255TIP3    H1 6771   5.081   1.597   0.511
 2255TIP3    H2 6772   4.985   1.706   0.557
 2256TIP3   OH2 6773   5.427   4.373   3.398
 2256TIP3    H1 6774   5.357   4.432   3.427
 2256TIP3    H2 6775   5.428   4.303   3.464
 2257TIP3   OH2 6776   2.128   0.205   3.261
 2257TIP3    H1 6777   2.195   0.263   3.224
 2257TIP3    H2 6778   2.131   0.126   3.207
 2258TIP3   OH2 6779   5.926   4.533   1.133
 2258TIP3    H1 6780   5.910   4.568   1.221
 2258TIP3    H2 6781   5.939   4.439   1.146
 2259TIP3   OH2 6782   2.015   2.039   3.404
 2259TIP3    H1 6783   2.055   2.120   3.372
 2259TIP3    H2 6784   2.051   2.027   3.492
 2260TIP3   OH2 6785   1.982   4.694   3.712
 2260TIP3    H1 6786   2.010   4.782   3.688
 2260TIP3    H2 6787   2.056   4.638   3.688
 2261TIP3   OH2 6788   3.736   2.805   3.891
 2261TIP3    H1 6789   3.806   2.777   3.832
 2261TIP3    H2 6790   3.745   2.900   3.896
 2262TIP3   OH2 6791   5.493   5.743   3.100
 2262TIP3    H1 6792   5.427   5.742   3.170
 2262TIP3    H2 6793   5.464   5.814   3.043
 2263TIP3   OH2 6794   5.402   0.817   1.619
 2263TIP3    H1 6795   5.353   0.796   1.540
 2263TIP3    H2 6796   5.451   0.737   1.639
 2264TIP3   OH2 6797   4.046   5.640   3.532
 2264TIP3    H1 6798   3.971   5.691   3.500
 2264TIP3    H2 6799   4.123   5.688   3.501
 2265TIP3   OH2 6800   2.944   2.331   1.263
 2265TIP3    H1 6801   2.985   2.245   1.275
 2265TIP3    H2 6802   2.908   2.354   1.348
 2266TIP3   OH2 6803   0.891   2.587   0.048
 2266TIP3    H1 6804   0.803   2.549   0.044
 2266TIP3    H2 6805   0.902   2.630  -0.037
 2267TIP3   OH2 6806   0.987   1.951   3.618
 2267TIP3    H1 6807   0.892   1.958   3.608
 2267TIP3    H2 6808   1.011   2.024   3.675
 2268TIP3   OH2 6809   2.192   4.003   3.917
 2268TIP3    H1 6810   2.167   4.024   3.827
 2268TIP3    H2 6811   2.122   3.946   3.949
 2269TIP3   OH2 6812   0.883   0.636   0.310
 2269TIP3    H1 6813   0.798   0.662   0.275
 2269TIP3    H2 6814   0.883   0.540   0.306
 2270TIP3   OH2 6815   4.680   3.504   3.424
 2270TIP3    H1 6816   4.761   3.453   3.420
 2270TIP3    H2 6817   4.680   3.554   3.342
 2271TIP3   OH2 6818   0.914   1.359   1.989
 2271TIP3    H1 6819   0.938   1.288   2.048
 2271TIP3    H2 6820   0.961   1.340   1.908
 2272TIP3   OH2 6821   0.801   4.929   0.847
 2272TIP3    H1 6822   0.824   4.911   0.938
 2272TIP3    H2 6823   0.868   4.883   0.796
 2273TIP3   OH2 6824   1.876   4.113   0.923
 2273TIP3    H1 6825   1.968   4.116   0.951
 2273TIP3    H2 6826   1.873   4.041   0.860
 2274TIP3   OH2 6827   1.637   3.353   1.151
 2274TIP3    H1 6828   1.606   3.279   1.099
 2274TIP3    H2 6829   1.638   3.321   1.241
 2275TIP3   OH2 6830   1.206   1.199   2.620
 2275TIP3    H1 6831   1.230   1.231   2.533
 2275TIP3    H2 6832   1.260   1.120   2.631
 2276TIP3   OH2 6833   0.557   5.566   2.486
 2276TIP3    H1 6834   0.538   5.582   2.394
 2276TIP3    H2 6835   0.622   5.633   2.509
 2277TIP3   OH2 6836   1.483   5.129   0.147
 2277TIP3    H1 6837   1.545   5.156   0.214
 2277TIP3    H2 6838   1.442   5.210   0.117
 2278TIP3   OH2 6839   5.882   5.937   4.226
 2278TIP3    H1 6840   5.884   6.021   4.272
 2278TIP3    H2 6841   5.958   5.940   4.168
 2279TIP3   OH2 6842   5.419   0.402   4.048
 2279TIP3    H1 6843   5.464   0.474   4.005
 2279TIP3    H2 6844   5.469   0.324   4.023
 2280TIP3   OH2 6845   1.728   3.386   4.343
 2280TIP3    H1 6846   1.799   3.334   4.305
 2280TIP3    H2 6847   1.685   3.426   4.268
 2281TIP3   OH2 6848   2.712   3.923   2.639
 2281TIP3    H1 6849   2.771   3.852   2.665
 2281TIP3    H2 6850   2.771   3.990   2.603
 2282TIP3   OH2 6851   2.069   4.468   2.436
 2282TIP3    H1 6852   2.040   4.541   2.490
 2282TIP3    H2 6853   2.014   4.473   2.358
 2283TIP3   OH2 6854   3.595   1.547   0.311
 2283TIP3    H1 6855   3.681   1.586   0.295
 2283TIP3    H2 6856   3.594   1.527   0.404
 2284TIP3   OH2 6857   5.959   1.068   2.943
 2284TIP3    H1 6858   5.968   0.976   2.919
 2284TIP3    H2 6859   5.887   1.069   3.006
 2285TIP3   OH2 6860   1.890   5.461   3.042
 2285TIP3    H1 6861   1.895   5.555   3.063
 2285TIP3    H2 6862   1.842   5.457   2.959
 2286TIP3   OH2 6863   5.722   1.944   4.622
 2286TIP3    H1 6864   5.775   1.906   4.692
 2286TIP3    H2 6865   5.678   2.019   4.663
 2287TIP3   OH2 6866   0.568   3.825   1.900
 2287TIP3    H1 6867   0.662   3.806   1.905
 2287TIP3    H2 6868   0.560   3.914   1.935
 2288TIP3   OH2 6869   4.745   1.739   2.490
 2288TIP3    H1 6870   4.745   1.731   2.395
 2288TIP3    H2 6871   4.742   1.833   2.507
 2289TIP3   OH2 6872   2.836   5.042   1.659
 2289TIP3    H1 6873   2.757   5.085   1.627
 2289TIP3    H2 6874   2.807   4.956   1.689
 2290TIP3   OH2 6875   2.368   3.508   0.678
 2290TIP3    H1 6876   2.430   3.435   0.673
 2290TIP3    H2 6877   2.423   3.585   0.695
 2291TIP3   OH2 6878   3.694   1.353   3.375
 2291TIP3    H1 6879   3.734   1.285   3.321
 2291TIP3    H2 6880   3.602   1.328   3.381
 2292TIP3   OH2 6881   1.468   2.281   2.305
 2292TIP3    H1 6882   1.500   2.192   2.321
 2292TIP3    H2 6883   1.482   2.295   2.211
 2293TIP3   OH2 6884   3.647   0.622   2.986
 2293TIP3    H1 6885   3.742   0.628   2.981
 2293TIP3    H2 6886   3.628   0.605   3.078
 2294TIP3   OH2 6887   0.875   2.873   4.693
 2294TIP3    H1 6888   0.857   2.834   4.607
 2294TIP3    H2 6889   0.868   2.967   4.679
 2295TIP3   OH2 6890   5.761   0.844   4.001
 2295TIP3    H1 6891   5.691   0.908   3.984
 2295TIP3    H2 6892   5.784   0.811   3.915
 2296TIP3   OH2 6893   2.150   2.888   1.211
 2296TIP3    H1 6894   2.068   2.938   1.207
 2296TIP3    H2 6895   2.212   2.939   1.159
 2297TIP3   OH2 6896   3.941   2.943   4.735
 2297TIP3    H1 6897   3.968   2.911   4.821
 2297TIP3    H2 6898   3.959   3.037   4.738
 2298TIP3   OH2 6899   2.152   2.873   2.772
 2298TIP3    H1 6900   2.138   2.945   2.710
 2298TIP3    H2 6901   2.223   2.822   2.734
 2299TIP3   OH2 6902   0.174   1.501   0.600
 2299TIP3    H1 6903   0.233   1.428   0.581
 2299TIP3    H2 6904   0.186   1.518   0.694
 2300TIP3   OH2 6905   4.628   1.924   1.011
 2300TIP3    H1 6906   4.613   1.830   1.009
 2300TIP3    H2 6907   4.638   1.945   1.104
 2301TIP3   OH2 6908   2.811   3.750   3.411
 2301TIP3    H1 6909   2.905   3.767   3.398
 2301TIP3    H2 6910   2.794   3.778   3.501
 2302TIP3   OH2 6911   4.597   3.014   1.464
 2302TIP3    H1 6912   4.634   2.939   1.416
 2302TIP3    H2 6913   4.511   3.028   1.424
 2303TIP3   OH2 6914   0.130   4.552   2.329
 2303TIP3    H1 6915   0.162   4.619   2.391
 2303TIP3    H2 6916   0.083   4.602   2.262
 2304TIP3   OH2 6917   1.756   0.712   3.912
 2304TIP3    H1 6918   1.724   0.666   3.834
 2304TIP3    H2 6919   1.795   0.792   3.878
 2305TIP3   OH2 6920   0.236   5.876   4.386
 2305TIP3    H1 6921   0.215   5.791   4.424
 2305TIP3    H2 6922   0.232   5.936   4.461
 2306TIP3   OH2 6923   4.526   1.692   5.013
 2306TIP3    H1 6924   4.505   1.672   5.104
 2306TIP3    H2 6925   4.620   1.711   5.014
 2307TIP3   OH2 6926   1.375   4.541   1.902
 2307TIP3    H1 6927   1.363   4.630   1.869
 2307TIP3    H2 6928   1.384   4.487   1.823
 2308TIP3   OH2 6929   3.152   0.432   1.682
 2308TIP3    H1 6930   3.066   0.456   1.648
 2308TIP3    H2 6931   3.177   0.505   1.738
 2309TIP3   OH2 6932   1.278   5.452   1.264
 2309TIP3    H1 6933   1.205   5.470   1.324
 2309TIP3    H2 6934   1.266   5.512   1.192
 2310TIP3   OH2 6935   5.562   0.071   4.521
 2310TIP3    H1 6936   5.545   0.096   4.612
 2310TIP3    H2 6937   5.590   0.152   4.479
 2311TIP3   OH2 6938   0.051   1.514   2.596
 2311TIP3    H1 6939   0.029   1.494   2.505
 2311TIP3    H2 6940   0.147   1.516   2.598
 2312TIP3   OH2 6941   5.047   5.474   2.596
 2312TIP3    H1 6942   5.140   5.458   2.616
 2312TIP3    H2 6943   5.047   5.503   2.505
 2313TIP3   OH2 6944   4.704   2.383   4.732
 2313TIP3    H1 6945   4.708   2.338   4.816
 2313TIP3    H2 6946   4.628   2.441   4.739
 2314TIP3   OH2 6947   3.889   4.929   4.972
 2314TIP3    H1 6948   3.908   4.843   4.936
 2314TIP3    H2 6949   3.974   4.974   4.974
 2315TIP3   OH2 6950   2.998   3.418   2.871
 2315TIP3    H1 6951   3.070   3.476   2.845
 2315TIP3    H2 6952   2.986   3.360   2.796
 2316TIP3   OH2 6953   4.470   4.819   3.741
 2316TIP3    H1 6954   4.382   4.796   3.712
 2316TIP3    H2 6955   4.528   4.762   3.691
 2317TIP3   OH2 6956   1.937   1.526   0.334
 2317TIP3    H1 6957   1.878   1.560   0.402
 2317TIP3    H2 6958   1.919   1.581   0.258
 2318TIP3   OH2 6959   0.020   0.950   4.930
 2318TIP3    H1 6960  -0.019   0.891   4.994
 2318TIP3    H2 6961   0.103   0.977   4.969
 2319TIP3   OH2 6962   0.332   3.926   2.968
 2319TIP3    H1 6963   0.271   3.877   3.023
 2319TIP3    H2 6964   0.291   3.928   2.882
 2320TIP3   OH2 6965   2.230   3.094   0.256
 2320TIP3    H1 6966   2.306   3.089   0.198
 2320TIP3    H2 6967   2.158   3.120   0.198
 2321TIP3   OH2 6968   5.245   1.676   2.925
 2321TIP3    H1 6969   5.164   1.659   2.972
 2321TIP3    H2 6970   5.238   1.624   2.845
 2322TIP3   OH2 6971   0.706   1.270   3.043
 2322TIP3    H1 6972   0.629   1.271   2.986
 2322TIP3    H2 6973   0.707   1.357   3.084
 2323TIP3   OH2 6974   4.988   4.904   2.339
 2323TIP3    H1 6975   4.907   4.948   2.362
 2323TIP3    H2 6976   4.975   4.813   2.365
 2324TIP3   OH2 6977   1.365   1.999   2.240
 2324TIP3    H1 6978   1.329   2.022   2.154
 2324TIP3    H2 6979   1.380   1.904   2.235
 2325TIP3   OH2 6980   1.874   3.211   2.668
 2325TIP3    H1 6981   1.865   3.202   2.762
 2325TIP3    H2 6982   1.940   3.146   2.643
 2326TIP3   OH2 6983   1.106   4.043   0.722
 2326TIP3    H1 6984   1.059   4.001   0.650
 2326TIP3    H2 6985   1.193   4.062   0.686
 2327TIP3   OH2 6986   0.599   0.859   2.444
 2327TIP3    H1 6987   0.684   0.860   2.398
 2327TIP3    H2 6988   0.616   0.810   2.524
 2328TIP3   OH2 6989   0.220   0.249   2.975
 2328TIP3    H1 6990   0.185   0.220   3.059
 2328TIP3    H2 6991   0.315   0.254   2.989
 2329TIP3   OH2 6992   6.088   5.509   3.789
 2329TIP3    H1 6993   6.023   5.579   3.789
 2329TIP3    H2 6994   6.115   5.501   3.698
 2330TIP3   OH2 6995   4.732   0.851   3.855
 2330TIP3    H1 6996   4.764   0.921   3.798
 2330TIP3    H2 6997   4.722   0.893   3.941
 2331TIP3   OH2 6998   2.298   1.277   4.146
 2331TIP3    H1 6999   2.291   1.187   4.178
 2331TIP3    H2 7000   2.351   1.322   4.212
 2332TIP3   OH2 7001   1.798   2.115   3.626
 2332TIP3    H1 7002   1.709   2.079   3.620
 2332TIP3    H2 7003   1.802   2.180   3.556
 2333TIP3   OH2 7004   4.857   1.306   3.825
 2333TIP3    H1 7005   4.910   1.371   3.871
 2333TIP3    H2 7006   4.791   1.279   3.889
 2334TIP3   OH2 7007   5.633   3.447   2.480
 2334TIP3    H1 7008   5.688   3.435   2.557
 2334TIP3    H2 7009   5.610   3.540   2.482
 2335TIP3   OH2 7010   3.428   5.793   1.001
 2335TIP3    H1 7011   3.355   5.853   0.985
 2335TIP3    H2 7012   3.507   5.848   0.992
 2336TIP3   OH2 7013   6.117   5.078   2.409
 2336TIP3    H1 7014   6.090   5.112   2.494
 2336TIP3    H2 7015   6.201   5.036   2.425
 2337TIP3   OH2 7016   2.330   0.072   4.630
 2337TIP3    H1 7017   2.240   0.105   4.636
 2337TIP3    H2 7018   2.355   0.052   4.720
 2338TIP3   OH2 7019   0.520   2.385   3.644
 2338TIP3    H1 7020   0.481   2.467   3.676
 2338TIP3    H2 7021   0.562   2.347   3.722
 2339TIP3   OH2 7022   3.607   3.402   0.899
 2339TIP3    H1 7023   3.591   3.467   0.830
 2339TIP3    H2 7024   3.520   3.379   0.931
 2340TIP3   OH2 7025   2.775   0.883   0.485
 2340TIP3    H1 7026   2.835   0.907   0.556
 2340TIP3    H2 7027   2.820   0.914   0.406
 2341TIP3   OH2 7028   0.379   3.378   2.214
 2341TIP3    H1 7029   0.370   3.283   2.221
 2341TIP3    H2 7030   0.465   3.397   2.252
 2342TIP3   OH2 7031   0.739   2.458   2.434
 2342TIP3    H1 7032   0.790   2.515   2.376
 2342TIP3    H2 7033   0.670   2.515   2.467
 2343TIP3   OH2 7034   1.437   2.894   2.789
 2343TIP3    H1 7035   1.498   2.875   2.860
 2343TIP3    H2 7036   1.491   2.938   2.723
 2344TIP3   OH2 7037   0.256   5.844   0.847
 2344TIP3    H1 7038   0.303   5.777   0.797
 2344TIP3    H2 7039   0.206   5.892   0.781
 2345TIP3   OH2 7040   5.683   4.885   1.036
 2345TIP3    H1 7041   5.765   4.927   1.063
 2345TIP3    H2 7042   5.648   4.846   1.116
 2346TIP3   OH2 7043   3.735   1.995   1.212
 2346TIP3    H1 7044   3.685   1.917   1.233
 2346TIP3    H2 7045   3.728   2.050   1.289
 2347TIP3   OH2 7046   3.532   0.161   4.716
 2347TIP3    H1 7047   3.509   0.068   4.711
 2347TIP3    H2 7048   3.471   0.204   4.656
 2348TIP3   OH2 7049   1.037   2.329   5.016
 2348TIP3    H1 7050   1.084   2.246   5.012
 2348TIP3    H2 7051   1.069   2.378   4.941
 2349TIP3   OH2 7052   4.363   3.033   1.987
 2349TIP3    H1 7053   4.372   2.989   2.072
 2349TIP3    H2 7054   4.452   3.064   1.967
 2350TIP3   OH2 7055   3.498   4.515   3.682
 2350TIP3    H1 7056   3.418   4.567   3.683
 2350TIP3    H2 7057   3.535   4.527   3.769
 2351TIP3   OH2 7058   3.877   5.861   1.771
 2351TIP3    H1 7059   3.860   5.809   1.850
 2351TIP3    H2 7060   3.946   5.814   1.725
 2352TIP3   OH2 7061   4.597   0.474   1.167
 2352TIP3    H1 7062   4.563   0.542   1.110
 2352TIP3    H2 7063   4.548   0.485   1.249
 2353TIP3   OH2 7064   1.375   4.134   3.325
 2353TIP3    H1 7065   1.285   4.163   3.313
 2353TIP3    H2 7066   1.425   4.215   3.335
 2354TIP3   OH2 7067   1.667   4.936   0.546
 2354TIP3    H1 7068   1.757   4.902   0.548
 2354TIP3    H2 7069   1.676   5.027   0.519
 2355TIP3   OH2 7070   0.906   1.629   0.412
 2355TIP3    H1 7071   0.867   1.603   0.328
 2355TIP3    H2 7072   0.888   1.555   0.471
 2356TIP3   OH2 7073   4.125   5.903   0.401
 2356TIP3    H1 7074   4.038   5.876   0.430
 2356TIP3    H2 7075   4.173   5.920   0.482
 2357TIP3   OH2 7076   2.217   4.229   4.240
 2357TIP3    H1 7077   2.222   4.136   4.262
 2357TIP3    H2 7078   2.308   4.258   4.240
 2358TIP3   OH2 7079   4.210   3.983   2.564
 2358TIP3    H1 7080   4.269   4.022   2.500
 2358TIP3    H2 7081   4.267   3.940   2.627
 2359TIP3   OH2 7082   0.392   2.436   2.664
 2359TIP3    H1 7083   0.320   2.386   2.626
 2359TIP3    H2 7084   0.454   2.370   2.695
 2360TIP3   OH2 7085   4.739   4.089   3.869
 2360TIP3    H1 7086   4.817   4.046   3.834
 2360TIP3    H2 7087   4.768   4.177   3.893
 2361TIP3   OH2 7088   1.840   3.474   1.812
 2361TIP3    H1 7089   1.812   3.443   1.898
 2361TIP3    H2 7090   1.768   3.528   1.781
 2362TIP3   OH2 7091   2.042   2.056   2.493
 2362TIP3    H1 7092   2.035   1.984   2.557
 2362TIP3    H2 7093   2.047   2.012   2.408
 2363TIP3   OH2 7094   0.923   3.530   2.314
 2363TIP3    H1 7095   0.908   3.486   2.397
 2363TIP3    H2 7096   0.963   3.613   2.337
 2364TIP3   OH2 7097   4.181   1.718   1.862
 2364TIP3    H1 7098   4.106   1.706   1.920
 2364TIP3    H2 7099   4.210   1.808   1.879
 2365TIP3   OH2 7100   0.138   3.338   3.449
 2365TIP3    H1 7101   0.083   3.322   3.372
 2365TIP3    H2 7102   0.204   3.269   3.447
 2366TIP3   OH2 7103   5.762   3.611   1.761
 2366TIP3    H1 7104   5.782   3.523   1.728
 2366TIP3    H2 7105   5.844   3.660   1.750
 2367TIP3   OH2 7106   5.805   1.328   4.997
 2367TIP3    H1 7107   5.895   1.337   4.966
 2367TIP3    H2 7108   5.801   1.241   5.035
 2368TIP3   OH2 7109   0.788   5.279   2.671
 2368TIP3    H1 7110   0.811   5.304   2.581
 2368TIP3    H2 7111   0.866   5.236   2.705
 2369TIP3   OH2 7112   6.180   3.835   2.121
 2369TIP3    H1 7113   6.115   3.800   2.182
 2369TIP3    H2 7114   6.164   3.789   2.039
 2370TIP3   OH2 7115   2.956   2.480   2.474
 2370TIP3    H1 7116   2.983   2.557   2.424
 2370TIP3    H2 7117   2.887   2.511   2.532
 2371TIP3   OH2 7118   4.293   0.482   2.186
 2371TIP3    H1 7119   4.202   0.511   2.176
 2371TIP3    H2 7120   4.307   0.421   2.114
 2372TIP3   OH2 7121   2.402   3.202   4.641
 2372TIP3    H1 7122   2.374   3.185   4.731
 2372TIP3    H2 7123   2.497   3.217   4.647
 2373TIP3   OH2 7124   0.005   1.397   2.063
 2373TIP3    H1 7125   0.058   1.433   1.993
 2373TIP3    H2 7126   0.068   1.350   2.119
 2374TIP3   OH2 7127   1.069   4.389   2.381
 2374TIP3    H1 7128   1.154   4.370   2.422
 2374TIP3    H2 7129   1.063   4.325   2.309
 2375TIP3   OH2 7130   4.354   2.181   3.893
 2375TIP3    H1 7131   4.332   2.095   3.927
 2375TIP3    H2 7132   4.450   2.181   3.887
 2376TIP3   OH2 7133   1.745   3.155   4.779
 2376TIP3    H1 7134   1.822   3.182   4.828
 2376TIP3    H2 7135   1.771   3.165   4.687
 2377TIP3   OH2 7136   1.744   5.452   2.825
 2377TIP3    H1 7137   1.698   5.490   2.749
 2377TIP3    H2 7138   1.734   5.357   2.813
 2378TIP3   OH2 7139   4.920   0.757   1.725
 2378TIP3    H1 7140   4.959   0.675   1.695
 2378TIP3    H2 7141   4.931   0.818   1.652
 2379TIP3   OH2 7142   3.581   2.527   0.869
 2379TIP3    H1 7143   3.581   2.471   0.791
 2379TIP3    H2 7144   3.673   2.551   0.882
 2380TIP3   OH2 7145   4.352   3.720   2.997
 2380TIP3    H1 7146   4.327   3.663   2.923
 2380TIP3    H2 7147   4.448   3.727   2.989
 2381TIP3   OH2 7148   2.994   5.077   3.754
 2381TIP3    H1 7149   3.030   5.123   3.830
 2381TIP3    H2 7150   3.022   5.129   3.679
 2382TIP3   OH2 7151   0.010   3.522   2.140
 2382TIP3    H1 7152  -0.042   3.581   2.194
 2382TIP3    H2 7153   0.034   3.574   2.063
 2383TIP3   OH2 7154   1.855   2.689   1.648
 2383TIP3    H1 7155   1.910   2.664   1.722
 2383TIP3    H2 7156   1.916   2.692   1.574
 2384TIP3   OH2 7157   1.090   1.381   4.244
 2384TIP3    H1 7158   1.167   1.375   4.300
 2384TIP3    H2 7159   1.049   1.464   4.269
 2385TIP3   OH2 7160   0.484   5.455   3.961
 2385TIP3    H1 7161   0.461   5.546   3.981
 2385TIP3    H2 7162   0.405   5.418   3.920
 2386TIP3   OH2 7163   4.351   1.626   0.374
 2386TIP3    H1 7164   4.426   1.672   0.336
 2386TIP3    H2 7165   4.281   1.691   0.373
 2387TIP3   OH2 7166   3.337   0.616   1.430
 2387TIP3    H1 7167   3.341   0.698   1.381
 2387TIP3    H2 7168   3.370   0.637   1.517
 2388TIP3   OH2 7169   5.407   3.558   4.333
 2388TIP3    H1 7170   5.373   3.546   4.245
 2388TIP3    H2 7171   5.351   3.624   4.372
 2389TIP3   OH2 7172   5.019   0.098   3.809
 2389TIP3    H1 7173   5.077   0.171   3.832
 2389TIP3    H2 7174   4.975   0.127   3.728
 2390TIP3   OH2 7175   4.268   5.544   2.589
 2390TIP3    H1 7176   4.173   5.554   2.597
 2390TIP3    H2 7177   4.304   5.613   2.644
 2391TIP3   OH2 7178   4.239   1.491   2.828
 2391TIP3    H1 7179   4.254   1.571   2.879
 2391TIP3    H2 7180   4.240   1.520   2.737
 2392TIP3   OH2 7181   5.720   1.033   2.788
 2392TIP3    H1 7182   5.637   1.080   2.779
 2392TIP3    H2 7183   5.748   1.051   2.877
 2393TIP3   OH2 7184   2.974   3.036   4.846
 2393TIP3    H1 7185   3.003   3.113   4.798
 2393TIP3    H2 7186   3.017   3.044   4.932
 2394TIP3   OH2 7187   2.863   4.323   0.697
 2394TIP3    H1 7188   2.792   4.355   0.753
 2394TIP3    H2 7189   2.941   4.366   0.732
 2395TIP3   OH2 7190   1.753   2.823   3.280
 2395TIP3    H1 7191   1.759   2.849   3.371
 2395TIP3    H2 7192   1.702   2.742   3.281
 2396TIP3   OH2 7193   1.213   3.594   3.761
 2396TIP3    H1 7194   1.227   3.665   3.823
 2396TIP3    H2 7195   1.119   3.595   3.743
 2397TIP3   OH2 7196   4.092   3.933   4.271
 2397TIP3    H1 7197   3.997   3.921   4.280
 2397TIP3    H2 7198   4.126   3.845   4.258
 2398TIP3   OH2 7199   1.219   4.689   1.284
 2398TIP3    H1 7200   1.213   4.784   1.287
 2398TIP3    H2 7201   1.173   4.664   1.204
 2399TIP3   OH2 7202   0.156   2.965   1.352
 2399TIP3    H1 7203   0.232   3.001   1.305
 2399TIP3    H2 7204   0.090   2.954   1.284
 2400TIP3   OH2 7205   5.448   0.382   0.289
 2400TIP3    H1 7206   5.453   0.299   0.336
 2400TIP3    H2 7207   5.470   0.448   0.355
 2401TIP3   OH2 7208   4.678   5.014   1.428
 2401TIP3    H1 7209   4.613   5.084   1.417
 2401TIP3    H2 7210   4.719   5.006   1.342
 2402TIP3   OH2 7211   0.791   1.280   0.934
 2402TIP3    H1 7212   0.840   1.336   0.874
 2402TIP3    H2 7213   0.840   1.284   1.016
 2403TIP3   OH2 7214   3.411   1.156   0.584
 2403TIP3    H1 7215   3.341   1.133   0.645
 2403TIP3    H2 7216   3.389   1.111   0.503
 2404TIP3   OH2 7217   0.801   0.867   3.203
 2404TIP3    H1 7218   0.824   0.787   3.156
 2404TIP3    H2 7219   0.880   0.888   3.253
 2405TIP3   OH2 7220   6.055   2.752   2.977
 2405TIP3    H1 7221   6.039   2.837   2.935
 2405TIP3    H2 7222   6.001   2.690   2.928
 2406TIP3   OH2 7223   5.433   0.400   2.159
 2406TIP3    H1 7224   5.365   0.335   2.143
 2406TIP3    H2 7225   5.497   0.355   2.214
 2407TIP3   OH2 7226   3.962   0.234   4.561
 2407TIP3    H1 7227   3.885   0.282   4.592
 2407TIP3    H2 7228   3.973   0.163   4.625
 2408TIP3   OH2 7229   4.372   0.957   1.446
 2408TIP3    H1 7230   4.298   0.915   1.403
 2408TIP3    H2 7231   4.431   0.982   1.374
 2409TIP3   OH2 7232   3.054   0.352   2.140
 2409TIP3    H1 7233   3.039   0.316   2.053
 2409TIP3    H2 7234   3.067   0.275   2.196
 2410TIP3   OH2 7235   2.617   1.838   2.004
 2410TIP3    H1 7236   2.593   1.771   2.068
 2410TIP3    H2 7237   2.614   1.920   2.052
 2411TIP3   OH2 7238   0.218   1.092   1.265
 2411TIP3    H1 7239   0.168   1.039   1.327
 2411TIP3    H2 7240   0.309   1.085   1.294
 2412TIP3   OH2 7241   1.299   2.424   1.488
 2412TIP3    H1 7242   1.233   2.470   1.540
 2412TIP3    H2 7243   1.248   2.362   1.435
 2413TIP3   OH2 7244   6.023   4.411   5.049
 2413TIP3    H1 7245   6.117   4.409   5.032
 2413TIP3    H2 7246   5.989   4.334   5.003
 2414TIP3   OH2 7247   5.027   4.258   4.435
 2414TIP3    H1 7248   4.933   4.262   4.414
 2414TIP3    H2 7249   5.059   4.346   4.417
 2415TIP3   OH2 7250   4.334   4.071   3.360
 2415TIP3    H1 7251   4.337   4.035   3.272
 2415TIP3    H2 7252   4.425   4.086   3.383
 2416TIP3   OH2 7253   0.269   3.450   1.183
 2416TIP3    H1 7254   0.319   3.471   1.262
 2416TIP3    H2 7255   0.332   3.458   1.111
 2417TIP3   OH2 7256   5.499   5.922   0.227
 2417TIP3    H1 7257   5.459   5.998   0.185
 2417TIP3    H2 7258   5.593   5.931   0.210
 2418TIP3   OH2 7259   1.448   5.474   4.176
 2418TIP3    H1 7260   1.407   5.521   4.249
 2418TIP3    H2 7261   1.540   5.499   4.181
 2419TIP3   OH2 7262   2.516   5.334   3.531
 2419TIP3    H1 7263   2.565   5.386   3.468
 2419TIP3    H2 7264   2.573   5.330   3.608
 2420TIP3   OH2 7265   3.254   0.182   4.409
 2420TIP3    H1 7266   3.338   0.224   4.388
 2420TIP3    H2 7267   3.188   0.237   4.365
 2421TIP3   OH2 7268   0.083   3.149   1.091
 2421TIP3    H1 7269   0.086   3.173   0.999
 2421TIP3    H2 7270   0.029   3.071   1.095
 2422TIP3   OH2 7271   5.409   5.018   2.589
 2422TIP3    H1 7272   5.330   5.066   2.562
 2422TIP3    H2 7273   5.380   4.968   2.666
 2423TIP3   OH2 7274   0.777   5.798   2.501
 2423TIP3    H1 7275   0.750   5.799   2.592
 2423TIP3    H2 7276   0.739   5.877   2.463
 2424TIP3   OH2 7277   4.902   3.596   3.768
 2424TIP3    H1 7278   4.973   3.641   3.722
 2424TIP3    H2 7279   4.935   3.507   3.782
 2425TIP3   OH2 7280   5.345   5.785   3.980
 2425TIP3    H1 7281   5.275   5.730   3.946
 2425TIP3    H2 7282   5.360   5.850   3.911
 2426TIP3   OH2 7283   0.990   0.743   1.062
 2426TIP3    H1 7284   1.023   0.729   0.973
 2426TIP3    H2 7285   0.974   0.655   1.095
 2427TIP3   OH2 7286   3.632   3.648   4.791
 2427TIP3    H1 7287   3.722   3.621   4.811
 2427TIP3    H2 7288   3.579   3.610   4.861
 2428TIP3   OH2 7289   0.294   5.082   2.757
 2428TIP3    H1 7290   0.219   5.044   2.801
 2428TIP3    H2 7291   0.363   5.017   2.766
 2429TIP3   OH2 7292   3.736   1.087   3.910
 2429TIP3    H1 7293   3.815   1.102   3.962
 2429TIP3    H2 7294   3.687   1.169   3.916
 2430TIP3   OH2 7295   4.082   2.532   0.940
 2430TIP3    H1 7296   4.096   2.497   0.852
 2430TIP3    H2 7297   4.098   2.457   0.998
 2431TIP3   OH2 7298   4.657   1.656   4.135
 2431TIP3    H1 7299   4.629   1.746   4.117
 2431TIP3    H2 7300   4.744   1.665   4.172
 2432TIP3   OH2 7301   3.514   3.971   2.344
 2432TIP3    H1 7302   3.427   3.958   2.307
 2432TIP3    H2 7303   3.503   3.954   2.437
 2433TIP3   OH2 7304   0.446   2.310   0.151
 2433TIP3    H1 7305   0.410   2.279   0.234
 2433TIP3    H2 7306   0.370   2.326   0.096
 2434TIP3   OH2 7307   2.740   2.338   3.003
 2434TIP3    H1 7308   2.650   2.336   2.970
 2434TIP3    H2 7309   2.731   2.349   3.098
 2435TIP3   OH2 7310   5.471   3.123   2.466
 2435TIP3    H1 7311   5.501   3.035   2.441
 2435TIP3    H2 7312   5.417   3.152   2.393
 2436TIP3   OH2 7313   3.768   5.274   4.289
 2436TIP3    H1 7314   3.734   5.189   4.261
 2436TIP3    H2 7315   3.809   5.311   4.211
 2437TIP3   OH2 7316   5.942   5.842   3.800
 2437TIP3    H1 7317   5.989   5.824   3.882
 2437TIP3    H2 7318   6.011   5.842   3.734
 2438TIP3   OH2 7319   3.795   0.540   3.791
 2438TIP3    H1 7320   3.807   0.533   3.886
 2438TIP3    H2 7321   3.721   0.483   3.772
 2439TIP3   OH2 7322   2.544   3.409   3.759
 2439TIP3    H1 7323   2.593   3.461   3.822
 2439TIP3    H2 7324   2.508   3.337   3.810
 2440TIP3   OH2 7325   2.012   4.737   2.468
 2440TIP3    H1 7326   1.943   4.759   2.405
 2440TIP3    H2 7327   2.083   4.797   2.447
 2441TIP3   OH2 7328   1.098   2.876   1.160
 2441TIP3    H1 7329   1.090   2.944   1.226
 2441TIP3    H2 7330   1.174   2.825   1.187
 2442TIP3   OH2 7331   4.079   1.442   4.224
 2442TIP3    H1 7332   4.015   1.379   4.190
 2442TIP3    H2 7333   4.138   1.389   4.278
 2443TIP3   OH2 7334   4.189   3.938   4.939
 2443TIP3    H1 7335   4.210   3.995   5.013
 2443TIP3    H2 7336   4.265   3.880   4.931
 2444TIP3   OH2 7337   3.253   2.971   4.196
 2444TIP3    H1 7338   3.306   2.977   4.117
 2444TIP3    H2 7339   3.310   2.928   4.260
 2445TIP3   OH2 7340   6.364   3.547   4.104
 2445TIP3    H1 7341   6.274   3.517   4.112
 2445TIP3    H2 7342   6.360   3.622   4.044
 2446TIP3   OH2 7343   1.621   1.967   3.105
 2446TIP3    H1 7344   1.656   2.055   3.095
 2446TIP3    H2 7345   1.606   1.937   3.015
 2447TIP3   OH2 7346   2.881   4.854   1.950
 2447TIP3    H1 7347   2.964   4.898   1.964
 2447TIP3    H2 7348   2.817   4.925   1.941
 2448TIP3   OH2 7349   0.138   4.399   2.956
 2448TIP3    H1 7350   0.154   4.489   2.984
 2448TIP3    H2 7351   0.196   4.387   2.881
 2449TIP3   OH2 7352   5.664   5.050   2.550
 2449TIP3    H1 7353   5.667   5.083   2.460
 2449TIP3    H2 7354   5.571   5.035   2.568
 2450TIP3   OH2 7355   2.206   0.898   2.447
 2450TIP3    H1 7356   2.137   0.888   2.381
 2450TIP3    H2 7357   2.220   0.809   2.481
 2451TIP3   OH2 7358   5.440   1.730   3.570
 2451TIP3    H1 7359   5.485   1.811   3.550
 2451TIP3    H2 7360   5.350   1.744   3.540
 2452TIP3   OH2 7361   5.288   1.806   0.723
 2452TIP3    H1 7362   5.193   1.809   0.712
 2452TIP3    H2 7363   5.302   1.802   0.818
 2453TIP3   OH2 7364   0.052   0.649   1.352
 2453TIP3    H1 7365   0.026   0.689   1.434
 2453TIP3    H2 7366   0.095   0.567   1.377
 2454TIP3   OH2 7367   5.573   0.604   1.588
 2454TIP3    H1 7368   5.620   0.544   1.646
 2454TIP3    H2 7369   5.563   0.556   1.506
 2455TIP3   OH2 7370   1.239   1.695   0.812
 2455TIP3    H1 7371   1.275   1.696   0.901
 2455TIP3    H2 7372   1.169   1.761   0.814
 2456TIP3   OH2 7373   2.617   4.775   2.182
 2456TIP3    H1 7374   2.635   4.783   2.276
 2456TIP3    H2 7375   2.691   4.725   2.147
 2457TIP3   OH2 7376   0.782   2.022   0.828
 2457TIP3    H1 7377   0.713   1.959   0.846
 2457TIP3    H2 7378   0.737   2.097   0.788
 2458TIP3   OH2 7379   3.533   0.269   4.350
 2458TIP3    H1 7380   3.583   0.204   4.398
 2458TIP3    H2 7381   3.593   0.301   4.283
 2459TIP3   OH2 7382   6.102   2.916   0.862
 2459TIP3    H1 7383   6.170   2.876   0.808
 2459TIP3    H2 7384   6.040   2.953   0.798
 2460TIP3   OH2 7385   1.884   5.787   0.290
 2460TIP3    H1 7386   1.883   5.788   0.194
 2460TIP3    H2 7387   1.803   5.742   0.314
 2461TIP3   OH2 7388   5.643   3.265   0.403
 2461TIP3    H1 7389   5.689   3.344   0.373
 2461TIP3    H2 7390   5.639   3.209   0.325
 2462TIP3   OH2 7391   4.180   2.196   3.668
 2462TIP3    H1 7392   4.181   2.286   3.637
 2462TIP3    H2 7393   4.243   2.194   3.739
 2463TIP3   OH2 7394   5.346   2.828   2.244
 2463TIP3    H1 7395   5.438   2.811   2.267
 2463TIP3    H2 7396   5.351   2.881   2.165
 2464TIP3   OH2 7397   1.890   1.181   1.811
 2464TIP3    H1 7398   1.948   1.240   1.764
 2464TIP3    H2 7399   1.947   1.114   1.847
 2465TIP3   OH2 7400   4.761   0.985   3.053
 2465TIP3    H1 7401   4.802   0.959   2.971
 2465TIP3    H2 7402   4.747   1.079   3.045
 2466TIP3   OH2 7403   1.825   2.373   1.442
 2466TIP3    H1 7404   1.839   2.456   1.397
 2466TIP3    H2 7405   1.805   2.311   1.372
 2467TIP3   OH2 7406   1.535   2.443   3.892
 2467TIP3    H1 7407   1.580   2.461   3.810
 2467TIP3    H2 7408   1.571   2.359   3.921
 2468TIP3   OH2 7409   1.072   0.879   2.486
 2468TIP3    H1 7410   1.050   0.956   2.539
 2468TIP3    H2 7411   1.168   0.880   2.483
 2469TIP3   OH2 7412   3.149   4.799   0.766
 2469TIP3    H1 7413   3.073   4.848   0.733
 2469TIP3    H2 7414   3.146   4.810   0.861
 2470TIP3   OH2 7415   4.143   5.444   3.250
 2470TIP3    H1 7416   4.086   5.514   3.218
 2470TIP3    H2 7417   4.113   5.366   3.203
 2471TIP3   OH2 7418   0.583   2.070   3.177
 2471TIP3    H1 7419   0.678   2.059   3.179
 2471TIP3    H2 7420   0.555   2.050   3.266
 2472TIP3   OH2 7421   5.584   1.769   0.617
 2472TIP3    H1 7422   5.496   1.786   0.585
 2472TIP3    H2 7423   5.628   1.725   0.544
 2473TIP3   OH2 7424   4.112   3.113   3.256
 2473TIP3    H1 7425   4.191   3.150   3.215
 2473TIP3    H2 7426   4.124   3.130   3.349
 2474TIP3   OH2 7427   1.826   2.170   4.977
 2474TIP3    H1 7428   1.760   2.131   5.034
 2474TIP3    H2 7429   1.784   2.250   4.944
 2475TIP3   OH2 7430   0.212   1.951   4.952
 2475TIP3    H1 7431   0.240   2.021   5.010
 2475TIP3    H2 7432   0.154   1.994   4.889
 2476TIP3   OH2 7433   5.128   1.604   0.060
 2476TIP3    H1 7434   5.207   1.646   0.026
 2476TIP3    H2 7435   5.155   1.565   0.143
 2477TIP3   OH2 7436   5.983   1.269   0.817
 2477TIP3    H1 7437   5.995   1.312   0.732
 2477TIP3    H2 7438   6.065   1.221   0.832
 2478TIP3   OH2 7439   0.081   1.614   5.167
 2478TIP3    H1 7440   0.128   1.531   5.158
 2478TIP3    H2 7441   0.095   1.659   5.084
 2479TIP3   OH2 7442   3.266   5.890   3.606
 2479TIP3    H1 7443   3.297   5.851   3.524
 2479TIP3    H2 7444   3.290   5.982   3.599
 2480TIP3   OH2 7445   0.575   0.237   1.317
 2480TIP3    H1 7446   0.566   0.150   1.280
 2480TIP3    H2 7447   0.667   0.259   1.306
 2481TIP3   OH2 7448   5.750   1.631   3.250
 2481TIP3    H1 7449   5.809   1.705   3.265
 2481TIP3    H2 7450   5.665   1.670   3.233
 2482TIP3   OH2 7451   0.750   2.954   5.106
 2482TIP3    H1 7452   0.715   3.040   5.129
 2482TIP3    H2 7453   0.827   2.973   5.053
 2483TIP3   OH2 7454   5.885   4.599   1.401
 2483TIP3    H1 7455   5.908   4.676   1.453
 2483TIP3    H2 7456   5.899   4.525   1.460
 2484TIP3   OH2 7457   5.483   1.695   2.541
 2484TIP3    H1 7458   5.488   1.737   2.627
 2484TIP3    H2 7459   5.575   1.682   2.516
 2485TIP3   OH2 7460   5.024   1.797   0.755
 2485TIP3    H1 7461   4.980   1.880   0.769
 2485TIP3    H2 7462   4.973   1.734   0.805
 2486TIP3   OH2 7463   5.578   3.220   1.027
 2486TIP3    H1 7464   5.508   3.175   1.075
 2486TIP3    H2 7465   5.640   3.151   1.004
 2487TIP3   OH2 7466   0.144   1.881   3.088
 2487TIP3    H1 7467   0.060   1.912   3.053
 2487TIP3    H2 7468   0.194   1.960   3.107
 2488TIP3   OH2 7469   5.922   4.250   4.363
 2488TIP3    H1 7470   5.876   4.226   4.443
 2488TIP3    H2 7471   5.997   4.302   4.392
 2489TIP3   OH2 7472   4.368   2.664   0.606
 2489TIP3    H1 7473   4.389   2.728   0.674
 2489TIP3    H2 7474   4.445   2.664   0.549
 2490TIP3   OH2 7475   2.717   4.879   4.688
 2490TIP3    H1 7476   2.759   4.888   4.774
 2490TIP3    H2 7477   2.789   4.877   4.626
 2491TIP3   OH2 7478   2.312   3.466   4.339
 2491TIP3    H1 7479   2.225   3.466   4.300
 2491TIP3    H2 7480   2.299   3.431   4.427
 2492TIP3   OH2 7481   2.079   4.694   4.246
 2492TIP3    H1 7482   2.137   4.658   4.312
 2492TIP3    H2 7483   2.137   4.720   4.174
 2493TIP3   OH2 7484   2.044   1.223   0.462
 2493TIP3    H1 7485   2.119   1.178   0.500
 2493TIP3    H2 7486   2.064   1.316   0.473
 2494TIP3   OH2 7487   1.379   4.024   0.998
 2494TIP3    H1 7488   1.456   4.081   1.004
 2494TIP3    H2 7489   1.355   4.006   1.089
 2495TIP3   OH2 7490   1.243   2.858   4.543
 2495TIP3    H1 7491   1.297   2.848   4.620
 2495TIP3    H2 7492   1.301   2.836   4.470
 2496TIP3   OH2 7493   2.999   5.456   2.449
 2496TIP3    H1 7494   3.061   5.409   2.393
 2496TIP3    H2 7495   2.994   5.404   2.529
 2497TIP3   OH2 7496   5.955   0.608   3.513
 2497TIP3    H1 7497   6.040   0.650   3.526
 2497TIP3    H2 7498   5.968   0.518   3.542
 2498TIP3   OH2 7499   2.428   2.556   1.416
 2498TIP3    H1 7500   2.411   2.523   1.328
 2498TIP3    H2 7501   2.518   2.589   1.412
 2499TIP3   OH2 7502   5.678   2.521   0.569
 2499TIP3    H1 7503   5.669   2.432   0.604
 2499TIP3    H2 7504   5.674   2.510   0.474
 2500TIP3   OH2 7505   2.508   1.615   2.679
 2500TIP3    H1 7506   2.449   1.671   2.628
 2500TIP3    H2 7507   2.463   1.602   2.762
 2501TIP3   OH2 7508   1.638   3.692   2.915
 2501TIP3    H1 7509   1.545   3.714   2.906
 2501TIP3    H2 7510   1.683   3.752   2.856
 2502TIP3   OH2 7511   0.139   1.808   2.401
 2502TIP3    H1 7512   0.178   1.722   2.388
 2502TIP3    H2 7513   0.186   1.866   2.341
 2503TIP3   OH2 7514   2.116   2.233   4.934
 2503TIP3    H1 7515   2.037   2.179   4.937
 2503TIP3    H2 7516   2.179   2.185   4.988
 2504TIP3   OH2 7517   0.121   3.743   3.114
 2504TIP3    H1 7518   0.126   3.685   3.038
 2504TIP3    H2 7519   0.172   3.699   3.182
 2505TIP3   OH2 7520   4.182   0.799   4.906
 2505TIP3    H1 7521   4.098   0.764   4.936
 2505TIP3    H2 7522   4.204   0.867   4.969
 2506TIP3   OH2 7523   3.724   3.090   3.931
 2506TIP3    H1 7524   3.785   3.133   3.871
 2506TIP3    H2 7525   3.680   3.162   3.977
 2507TIP3   OH2 7526   0.626   1.734   3.191
 2507TIP3    H1 7527   0.659   1.645   3.175
 2507TIP3    H2 7528   0.532   1.727   3.176
 2508TIP3   OH2 7529   0.648   4.376   4.051
 2508TIP3    H1 7530   0.723   4.426   4.020
 2508TIP3    H2 7531   0.686   4.307   4.106
 2509TIP3   OH2 7532   0.474   1.814   4.927
 2509TIP3    H1 7533   0.417   1.883   4.893
 2509TIP3    H2 7534   0.525   1.786   4.850
 2510TIP3   OH2 7535   3.245   4.126   3.385
 2510TIP3    H1 7536   3.182   4.124   3.314
 2510TIP3    H2 7537   3.201   4.082   3.458
 2511TIP3   OH2 7538   4.808   1.823   4.819
 2511TIP3    H1 7539   4.755   1.769   4.760
 2511TIP3    H2 7540   4.803   1.911   4.782
 2512TIP3   OH2 7541   1.392   1.196   3.894
 2512TIP3    H1 7542   1.329   1.173   3.962
 2512TIP3    H2 7543   1.474   1.209   3.941
 2513TIP3   OH2 7544   2.572   3.080   1.840
 2513TIP3    H1 7545   2.566   3.042   1.753
 2513TIP3    H2 7546   2.486   3.065   1.879
 2514TIP3   OH2 7547   5.675   3.625   4.303
 2514TIP3    H1 7548   5.588   3.589   4.318
 2514TIP3    H2 7549   5.704   3.653   4.390
 2515TIP3   OH2 7550   4.554   3.116   3.867
 2515TIP3    H1 7551   4.525   3.127   3.957
 2515TIP3    H2 7552   4.646   3.092   3.874
 2516TIP3   OH2 7553   0.617   1.659   1.511
 2516TIP3    H1 7554   0.646   1.749   1.498
 2516TIP3    H2 7555   0.678   1.623   1.576
 2517TIP3   OH2 7556   5.133   4.172   0.909
 2517TIP3    H1 7557   5.151   4.266   0.915
 2517TIP3    H2 7558   5.220   4.131   0.906
 2518TIP3   OH2 7559   5.545   0.021   1.217
 2518TIP3    H1 7560   5.548   0.087   1.286
 2518TIP3    H2 7561   5.478   0.053   1.156
 2519TIP3   OH2 7562   3.500   0.998   2.994
 2519TIP3    H1 7563   3.463   1.012   2.907
 2519TIP3    H2 7564   3.424   0.977   3.048
 2520TIP3   OH2 7565   4.479   0.908   3.766
 2520TIP3    H1 7566   4.572   0.920   3.747
 2520TIP3    H2 7567   4.446   0.856   3.692
 2521TIP3   OH2 7568   6.197   3.599   0.557
 2521TIP3    H1 7569   6.280   3.575   0.516
 2521TIP3    H2 7570   6.182   3.530   0.621
 2522TIP3   OH2 7571   1.655   2.906   1.552
 2522TIP3    H1 7572   1.629   2.884   1.641
 2522TIP3    H2 7573   1.704   2.829   1.522
 2523TIP3   OH2 7574   4.704   5.687   4.641
 2523TIP3    H1 7575   4.755   5.673   4.561
 2523TIP3    H2 7576   4.675   5.778   4.636
 2524TIP3   OH2 7577   2.087   5.511   4.251
 2524TIP3    H1 7578   2.041   5.458   4.185
 2524TIP3    H2 7579   2.175   5.474   4.254
 2525TIP3   OH2 7580   0.150   5.551   2.380
 2525TIP3    H1 7581   0.152   5.490   2.453
 2525TIP3    H2 7582   0.223   5.523   2.324
 2526TIP3   OH2 7583   5.536   2.652   1.617
 2526TIP3    H1 7584   5.474   2.648   1.543
 2526TIP3    H2 7585   5.619   2.626   1.579
 2527TIP3   OH2 7586   5.866   5.490   4.105
 2527TIP3    H1 7587   5.899   5.400   4.094
 2527TIP3    H2 7588   5.797   5.498   4.038
 2528TIP3   OH2 7589   2.753   4.374   1.128
 2528TIP3    H1 7590   2.725   4.336   1.211
 2528TIP3    H2 7591   2.820   4.438   1.151
 2529TIP3   OH2 7592   3.447   1.042   0.292
 2529TIP3    H1 7593   3.543   1.031   0.289
 2529TIP3    H2 7594   3.431   1.126   0.250
 2530TIP3   OH2 7595   3.065   2.994   1.175
 2530TIP3    H1 7596   3.013   2.954   1.245
 2530TIP3    H2 7597   3.048   2.939   1.099
 2531TIP3   OH2 7598   4.114   0.256   4.107
 2531TIP3    H1 7599   4.086   0.347   4.099
 2531TIP3    H2 7600   4.032   0.206   4.106
 2532TIP3   OH2 7601   1.400   2.901   2.430
 2532TIP3    H1 7602   1.491   2.931   2.441
 2532TIP3    H2 7603   1.407   2.806   2.430
 2533TIP3   OH2 7604   2.086   1.228   0.810
 2533TIP3    H1 7605   2.051   1.237   0.722
 2533TIP3    H2 7606   2.135   1.146   0.809
 2534TIP3   OH2 7607   0.555   4.089   2.000
 2534TIP3    H1 7608   0.636   4.130   2.030
 2534TIP3    H2 7609   0.525   4.145   1.928
 2535TIP3   OH2 7610   5.826   4.286   1.404
 2535TIP3    H1 7611   5.783   4.206   1.374
 2535TIP3    H2 7612   5.914   4.281   1.368
 2536TIP3   OH2 7613   0.389   5.152   1.716
 2536TIP3    H1 7614   0.422   5.230   1.671
 2536TIP3    H2 7615   0.299   5.174   1.740
 2537TIP3   OH2 7616   5.958   4.863   2.735
 2537TIP3    H1 7617   5.911   4.851   2.653
 2537TIP3    H2 7618   6.013   4.785   2.743
 2538TIP3   OH2 7619   0.511   0.206   0.758
 2538TIP3    H1 7620   0.471   0.143   0.698
 2538TIP3    H2 7621   0.579   0.156   0.803
 2539TIP3   OH2 7622   0.194   4.993   4.634
 2539TIP3    H1 7623   0.276   4.951   4.660
 2539TIP3    H2 7624   0.190   4.981   4.539
 2540TIP3   OH2 7625   3.900   2.806   3.660
 2540TIP3    H1 7626   3.901   2.818   3.565
 2540TIP3    H2 7627   3.991   2.822   3.687
 2541TIP3   OH2 7628  -0.003   1.587   1.286
 2541TIP3    H1 7629   0.055   1.658   1.315
 2541TIP3    H2 7630   0.026   1.511   1.336
 2542TIP3   OH2 7631   1.515   3.146   4.661
 2542TIP3    H1 7632   1.593   3.164   4.713
 2542TIP3    H2 7633   1.519   3.208   4.588
 2543TIP3   OH2 7634   0.672   5.597   3.482
 2543TIP3    H1 7635   0.586   5.601   3.524
 2543TIP3    H2 7636   0.658   5.630   3.394
 2544TIP3   OH2 7637   2.717   2.319   0.601
 2544TIP3    H1 7638   2.735   2.412   0.613
 2544TIP3    H2 7639   2.776   2.292   0.531
 2545TIP3   OH2 7640   2.610   0.651   0.199
 2545TIP3    H1 7641   2.542   0.646   0.267
 2545TIP3    H2 7642   2.563   0.677   0.120
 2546TIP3   OH2 7643   5.939   4.047   0.677
 2546TIP3    H1 7644   5.952   4.101   0.599
 2546TIP3    H2 7645   5.996   3.971   0.663
 2547TIP3   OH2 7646   5.421   2.565   1.373
 2547TIP3    H1 7647   5.353   2.522   1.321
 2547TIP3    H2 7648   5.478   2.607   1.308
 2548TIP3   OH2 7649   2.876   5.689   1.822
 2548TIP3    H1 7650   2.886   5.737   1.739
 2548TIP3    H2 7651   2.950   5.719   1.875
 2549TIP3   OH2 7652   4.824   3.223   4.313
 2549TIP3    H1 7653   4.911   3.234   4.352
 2549TIP3    H2 7654   4.770   3.289   4.356
 2550TIP3   OH2 7655   2.183   4.204   1.439
 2550TIP3    H1 7656   2.210   4.156   1.361
 2550TIP3    H2 7657   2.171   4.137   1.506
 2551TIP3   OH2 7658   5.792   4.457   2.299
 2551TIP3    H1 7659   5.793   4.505   2.216
 2551TIP3    H2 7660   5.701   4.432   2.311
 2552TIP3   OH2 7661   2.264   1.102   1.025
 2552TIP3    H1 7662   2.177   1.140   1.031
 2552TIP3    H2 7663   2.319   1.157   1.081
 2553TIP3   OH2 7664   6.189   0.612   0.794
 2553TIP3    H1 7665   6.138   0.535   0.820
 2553TIP3    H2 7666   6.127   0.666   0.745
 2554TIP3   OH2 7667   4.623   2.697   0.417
 2554TIP3    H1 7668   4.653   2.606   0.423
 2554TIP3    H2 7669   4.691   2.748   0.460
 2555TIP3   OH2 7670   3.517   0.374   1.420
 2555TIP3    H1 7671   3.465   0.349   1.496
 2555TIP3    H2 7672   3.484   0.461   1.397
 2556TIP3   OH2 7673   4.157   5.300   2.698
 2556TIP3    H1 7674   4.244   5.309   2.658
 2556TIP3    H2 7675   4.101   5.359   2.647
 2557TIP3   OH2 7676   5.698   4.740   1.255
 2557TIP3    H1 7677   5.696   4.693   1.171
 2557TIP3    H2 7678   5.775   4.704   1.301
 2558TIP3   OH2 7679   5.745   5.297   1.745
 2558TIP3    H1 7680   5.690   5.375   1.740
 2558TIP3    H2 7681   5.719   5.254   1.827
 2559TIP3   OH2 7682   5.263   1.704   3.251
 2559TIP3    H1 7683   5.272   1.634   3.315
 2559TIP3    H2 7684   5.182   1.749   3.274
 2560TIP3   OH2 7685   5.039   2.781   1.090
 2560TIP3    H1 7686   5.060   2.843   1.020
 2560TIP3    H2 7687   5.119   2.729   1.101
 2561TIP3   OH2 7688   3.598   0.181   0.321
 2561TIP3    H1 7689   3.522   0.235   0.339
 2561TIP3    H2 7690   3.661   0.204   0.390
 2562TIP3   OH2 7691   2.794   3.556   5.055
 2562TIP3    H1 7692   2.803   3.477   5.001
 2562TIP3    H2 7693   2.817   3.628   4.997
 2563TIP3   OH2 7694   1.829   5.470   3.453
 2563TIP3    H1 7695   1.743   5.428   3.442
 2563TIP3    H2 7696   1.861   5.439   3.537
 2564TIP3   OH2 7697   1.951   5.171   2.713
 2564TIP3    H1 7698   1.981   5.203   2.799
 2564TIP3    H2 7699   1.920   5.082   2.731
 2565TIP3   OH2 7700   2.883   3.786   1.281
 2565TIP3    H1 7701   2.974   3.811   1.265
 2565TIP3    H2 7702   2.862   3.725   1.210
 2566TIP3   OH2 7703   5.349   4.055   3.351
 2566TIP3    H1 7704   5.309   4.114   3.287
 2566TIP3    H2 7705   5.324   3.967   3.321
 2567TIP3   OH2 7706   2.310   5.528   2.976
 2567TIP3    H1 7707   2.279   5.592   2.912
 2567TIP3    H2 7708   2.289   5.567   3.061
 2568TIP3   OH2 7709   1.830   5.573   2.441
 2568TIP3    H1 7710   1.923   5.565   2.419
 2568TIP3    H2 7711   1.784   5.540   2.363
 2569TIP3   OH2 7712   3.046   0.900   4.434
 2569TIP3    H1 7713   3.114   0.844   4.472
 2569TIP3    H2 7714   2.967   0.847   4.436
 2570TIP3   OH2 7715   4.112   2.856   0.094
 2570TIP3    H1 7716   4.091   2.769   0.059
 2570TIP3    H2 7717   4.167   2.838   0.170
 2571TIP3   OH2 7718   0.106   0.431   1.490
 2571TIP3    H1 7719   0.180   0.371   1.488
 2571TIP3    H2 7720   0.032   0.380   1.457
 2572TIP3   OH2 7721   5.174   0.139   0.223
 2572TIP3    H1 7722   5.200   0.140   0.131
 2572TIP3    H2 7723   5.110   0.210   0.231
 2573TIP3   OH2 7724   5.673   0.990   0.929
 2573TIP3    H1 7725   5.594   0.944   0.958
 2573TIP3    H2 7726   5.708   1.030   1.008
 2574TIP3   OH2 7727   1.171   1.054   1.669
 2574TIP3    H1 7728   1.188   0.960   1.663
 2574TIP3    H2 7729   1.214   1.081   1.750
 2575TIP3   OH2 7730   0.227   0.204   0.819
 2575TIP3    H1 7731   0.149   0.259   0.818
 2575TIP3    H2 7732   0.296   0.260   0.783
 2576TIP3   OH2 7733   1.238   2.010   3.887
 2576TIP3    H1 7734   1.284   2.084   3.927
 2576TIP3    H2 7735   1.163   2.050   3.842
 2577TIP3   OH2 7736   0.606   2.728   3.383
 2577TIP3    H1 7737   0.597   2.640   3.345
 2577TIP3    H2 7738   0.688   2.761   3.347
 2578TIP3   OH2 7739   4.849   4.707   2.994
 2578TIP3    H1 7740   4.839   4.719   2.900
 2578TIP3    H2 7741   4.901   4.782   3.023
 2579TIP3   OH2 7742   5.424   2.356   3.840
 2579TIP3    H1 7743   5.442   2.363   3.934
 2579TIP3    H2 7744   5.328   2.357   3.834
 2580TIP3   OH2 7745   0.306   4.644   2.821
 2580TIP3    H1 7746   0.368   4.583   2.862
 2580TIP3    H2 7747   0.359   4.692   2.757
 2581TIP3   OH2 7748   2.540   0.024   2.248
 2581TIP3    H1 7749   2.534   0.004   2.341
 2581TIP3    H2 7750   2.461  -0.013   2.210
 2582TIP3   OH2 7751   1.276   4.911   0.170
 2582TIP3    H1 7752   1.282   4.935   0.262
 2582TIP3    H2 7753   1.349   4.958   0.129
 2583TIP3   OH2 7754   1.596   2.550   4.710
 2583TIP3    H1 7755   1.559   2.550   4.621
 2583TIP3    H2 7756   1.676   2.602   4.703
 2584TIP3   OH2 7757   0.919   4.152   3.960
 2584TIP3    H1 7758   0.904   4.215   3.890
 2584TIP3    H2 7759   0.927   4.204   4.039
 2585TIP3   OH2 7760   4.658   0.800   1.846
 2585TIP3    H1 7761   4.746   0.764   1.834
 2585TIP3    H2 7762   4.614   0.785   1.763
 2586TIP3   OH2 7763   4.481   5.498   1.879
 2586TIP3    H1 7764   4.391   5.475   1.900
 2586TIP3    H2 7765   4.525   5.414   1.865
 2587TIP3   OH2 7766   6.069   3.968   2.830
 2587TIP3    H1 7767   6.012   4.023   2.884
 2587TIP3    H2 7768   6.122   4.029   2.780
 2588TIP3   OH2 7769   5.777   5.620   4.564
 2588TIP3    H1 7770   5.787   5.656   4.651
 2588TIP3    H2 7771   5.682   5.610   4.553
 2589TIP3   OH2 7772   4.964   2.017   4.061
 2589TIP3    H1 7773   4.915   2.079   4.006
 2589TIP3    H2 7774   4.899   1.953   4.088
 2590TIP3   OH2 7775   3.203   5.561   0.933
 2590TIP3    H1 7776   3.157   5.634   0.976
 2590TIP3    H2 7777   3.224   5.595   0.846
 2591TIP3   OH2 7778   1.858   2.664   3.794
 2591TIP3    H1 7779   1.935   2.686   3.741
 2591TIP3    H2 7780   1.849   2.739   3.854
 2592TIP3   OH2 7781   3.747   1.420   5.035
 2592TIP3    H1 7782   3.713   1.486   5.096
 2592TIP3    H2 7783   3.680   1.413   4.967
 2593TIP3   OH2 7784   0.487   3.849   4.235
 2593TIP3    H1 7785   0.546   3.916   4.270
 2593TIP3    H2 7786   0.499   3.774   4.294
 2594TIP3   OH2 7787   1.118   0.262   1.342
 2594TIP3    H1 7788   1.208   0.230   1.337
 2594TIP3    H2 7789   1.122   0.338   1.400
 2595TIP3   OH2 7790   1.449   0.570   1.444
 2595TIP3    H1 7791   1.393   0.526   1.508
 2595TIP3    H2 7792   1.479   0.650   1.489
 2596TIP3   OH2 7793   1.136   4.297   2.064
 2596TIP3    H1 7794   1.203   4.301   2.133
 2596TIP3    H2 7795   1.178   4.336   1.987
 2597TIP3   OH2 7796   3.898   3.149   0.880
 2597TIP3    H1 7797   3.806   3.150   0.907
 2597TIP3    H2 7798   3.944   3.193   0.952
 2598TIP3   OH2 7799   3.314   1.743   1.030
 2598TIP3    H1 7800   3.279   1.717   1.116
 2598TIP3    H2 7801   3.347   1.661   0.992
 2599TIP3   OH2 7802   3.236   3.195   2.442
 2599TIP3    H1 7803   3.142   3.183   2.447
 2599TIP3    H2 7804   3.270   3.165   2.526
 2600TIP3   OH2 7805   4.340  -0.002   3.173
 2600TIP3    H1 7806   4.344   0.051   3.252
 2600TIP3    H2 7807   4.427   0.009   3.133
 2601TIP3   OH2 7808   0.345   0.864   1.085
 2601TIP3    H1 7809   0.415   0.927   1.065
 2601TIP3    H2 7810   0.358   0.793   1.023
 2602TIP3   OH2 7811   4.554   5.073   0.491
 2602TIP3    H1 7812   4.588   4.994   0.532
 2602TIP3    H2 7813   4.597   5.076   0.405
 2603TIP3   OH2 7814   4.134   2.323   5.095
 2603TIP3    H1 7815   4.163   2.239   5.130
 2603TIP3    H2 7816   4.086   2.300   5.015
 2604TIP3   OH2 7817   1.026   2.686   2.613
 2604TIP3    H1 7818   0.977   2.662   2.692
 2604TIP3    H2 7819   1.115   2.702   2.644
 2605TIP3   OH2 7820   5.739   5.290   2.664
 2605TIP3    H1 7821   5.755   5.201   2.633
 2605TIP3    H2 7822   5.822   5.317   2.703
 2606TIP3   OH2 7823   4.157   3.949   1.369
 2606TIP3    H1 7824   4.070   3.909   1.372
 2606TIP3    H2 7825   4.215   3.879   1.339
 2607TIP3   OH2 7826   2.609   4.017   2.311
 2607TIP3    H1 7827   2.667   4.056   2.376
 2607TIP3    H2 7828   2.522   4.051   2.331
 2608TIP3   OH2 7829   1.773   5.129   3.389
 2608TIP3    H1 7830   1.741   5.167   3.471
 2608TIP3    H2 7831   1.837   5.064   3.416
 2609TIP3   OH2 7832   1.057   2.185   3.776
 2609TIP3    H1 7833   0.989   2.253   3.782
 2609TIP3    H2 7834   1.138   2.234   3.759
 2610TIP3   OH2 7835   1.534   3.212   1.689
 2610TIP3    H1 7836   1.525   3.257   1.773
 2610TIP3    H2 7837   1.491   3.128   1.703
 2611TIP3   OH2 7838   5.738   3.893   4.773
 2611TIP3    H1 7839   5.816   3.885   4.827
 2611TIP3    H2 7840   5.668   3.918   4.833
 2612TIP3   OH2 7841   4.207   0.819   3.656
 2612TIP3    H1 7842   4.239   0.820   3.566
 2612TIP3    H2 7843   4.200   0.912   3.680
 2613TIP3   OH2 7844   4.950   0.279   0.464
 2613TIP3    H1 7845   4.902   0.355   0.431
 2613TIP3    H2 7846   4.926   0.272   0.556
 2614TIP3   OH2 7847   3.484   1.866   4.614
 2614TIP3    H1 7848   3.478   1.956   4.647
 2614TIP3    H2 7849   3.466   1.875   4.520
 2615TIP3   OH2 7850   2.967   2.119   3.311
 2615TIP3    H1 7851   2.904   2.104   3.382
 2615TIP3    H2 7852   2.914   2.115   3.231
 2616TIP3   OH2 7853   0.981   4.080   2.676
 2616TIP3    H1 7854   1.011   3.998   2.636
 2616TIP3    H2 7855   1.061   4.130   2.690
 2617TIP3   OH2 7856   2.166   3.003   3.337
 2617TIP3    H1 7857   2.131   2.943   3.270
 2617TIP3    H2 7858   2.228   3.058   3.290
 2618TIP3   OH2 7859   0.214   4.379   3.642
 2618TIP3    H1 7860   0.226   4.354   3.551
 2618TIP3    H2 7861   0.196   4.296   3.687
 2619TIP3   OH2 7862   4.051   2.514   1.364
 2619TIP3    H1 7863   4.022   2.430   1.329
 2619TIP3    H2 7864   3.998   2.528   1.443
 2620TIP3   OH2 7865   4.669   1.787   3.551
 2620TIP3    H1 7866   4.710   1.778   3.465
 2620TIP3    H2 7867   4.674   1.880   3.570
 2621TIP3   OH2 7868   1.401   4.212   1.399
 2621TIP3    H1 7869   1.491   4.232   1.371
 2621TIP3    H2 7870   1.346   4.262   1.339
 2622TIP3   OH2 7871   3.399   3.005   0.049
 2622TIP3    H1 7872   3.340   2.993   0.123
 2622TIP3    H2 7873   3.486   2.986   0.084
 2623TIP3   OH2 7874   5.275   0.835   3.449
 2623TIP3    H1 7875   5.282   0.864   3.357
 2623TIP3    H2 7876   5.266   0.917   3.499
 2624TIP3   OH2 7877   5.069   4.127   0.405
 2624TIP3    H1 7878   5.050   4.187   0.333
 2624TIP3    H2 7879   5.015   4.050   0.388
 2625TIP3   OH2 7880   3.080   2.025   2.848
 2625TIP3    H1 7881   3.146   1.958   2.867
 2625TIP3    H2 7882   3.030   2.032   2.929
 2626TIP3   OH2 7883   1.889   5.072   4.261
 2626TIP3    H1 7884   1.891   4.976   4.256
 2626TIP3    H2 7885   1.930   5.093   4.345
 2627TIP3   OH2 7886   3.273   2.197  -0.001
 2627TIP3    H1 7887   3.329   2.128  -0.037
 2627TIP3    H2 7888   3.248   2.164   0.086
 2628TIP3   OH2 7889   0.839   5.558   1.812
 2628TIP3    H1 7890   0.803   5.533   1.727
 2628TIP3    H2 7891   0.762   5.584   1.864
 2629TIP3   OH2 7892   5.080   4.057   1.339
 2629TIP3    H1 7893   4.992   4.094   1.331
 2629TIP3    H2 7894   5.094   4.013   1.255
 2630TIP3   OH2 7895   4.845   1.194   0.573
 2630TIP3    H1 7896   4.842   1.155   0.485
 2630TIP3    H2 7897   4.934   1.178   0.603
 2631TIP3   OH2 7898   1.943   2.796   0.493
 2631TIP3    H1 7899   1.955   2.837   0.579
 2631TIP3    H2 7900   2.006   2.724   0.492
 2632TIP3   OH2 7901   3.373   5.117   1.146
 2632TIP3    H1 7902   3.293   5.111   1.197
 2632TIP3    H2 7903   3.416   5.196   1.177
 2633TIP3   OH2 7904   4.482   0.866   2.917
 2633TIP3    H1 7905   4.400   0.820   2.897
 2633TIP3    H2 7906   4.549   0.819   2.869
 2634TIP3   OH2 7907   2.720   1.022   0.079
 2634TIP3    H1 7908   2.749   1.074   0.004
 2634TIP3    H2 7909   2.779   1.049   0.150
 2635TIP3   OH2 7910   2.807   3.459   2.014
 2635TIP3    H1 7911   2.742   3.409   2.064
 2635TIP3    H2 7912   2.757   3.531   1.975
 2636TIP3   OH2 7913   2.728   5.116   2.370
 2636TIP3    H1 7914   2.739   5.157   2.284
 2636TIP3    H2 7915   2.731   5.022   2.353
 2637TIP3   OH2 7916   5.971   1.520   1.036
 2637TIP3    H1 7917   5.966   1.439   1.086
 2637TIP3    H2 7918   5.980   1.491   0.945
 2638TIP3   OH2 7919   5.889   0.507   4.532
 2638TIP3    H1 7920   5.971   0.523   4.485
 2638TIP3    H2 7921   5.831   0.577   4.503
 2639TIP3   OH2 7922   5.851   4.964   4.139
 2639TIP3    H1 7923   5.843   5.037   4.078
 2639TIP3    H2 7924   5.944   4.941   4.135
 2640TIP3   OH2 7925   0.666   3.942   2.833
 2640TIP3    H1 7926   0.655   3.907   2.922
 2640TIP3    H2 7927   0.640   3.869   2.776
 2641TIP3   OH2 7928   5.269   5.710   1.337
 2641TIP3    H1 7929   5.256   5.799   1.370
 2641TIP3    H2 7930   5.329   5.721   1.263
 2642TIP3   OH2 7931   1.659   3.057   1.335
 2642TIP3    H1 7932   1.633   2.983   1.389
 2642TIP3    H2 7933   1.637   3.134   1.386
 2643TIP3   OH2 7934   0.761   0.677   1.684
 2643TIP3    H1 7935   0.758   0.613   1.613
 2643TIP3    H2 7936   0.834   0.734   1.662
 2644TIP3   OH2 7937   0.890   2.524   3.376
 2644TIP3    H1 7938   0.877   2.459   3.445
 2644TIP3    H2 7939   0.836   2.493   3.304
 2645TIP3   OH2 7940   5.765   5.307   1.376
 2645TIP3    H1 7941   5.789   5.348   1.293
 2645TIP3    H2 7942   5.845   5.264   1.405
 2646TIP3   OH2 7943   0.934   0.978   2.864
 2646TIP3    H1 7944   0.863   0.914   2.869
 2646TIP3    H2 7945   1.014   0.926   2.855
 2647TIP3   OH2 7946   3.660   3.026   0.113
 2647TIP3    H1 7947   3.676   3.115   0.146
 2647TIP3    H2 7948   3.744   2.998   0.077
 2648TIP3   OH2 7949   0.058   4.840   3.832
 2648TIP3    H1 7950   0.091   4.779   3.765
 2648TIP3    H2 7951   0.016   4.783   3.897
 2649TIP3   OH2 7952   0.867   4.717   2.955
 2649TIP3    H1 7953   0.870   4.734   2.861
 2649TIP3    H2 7954   0.886   4.802   2.995
 2650TIP3   OH2 7955   2.842   5.548   1.457
 2650TIP3    H1 7956   2.768   5.595   1.420
 2650TIP3    H2 7957   2.880   5.608   1.521
 2651TIP3   OH2 7958   5.002   5.555   3.525
 2651TIP3    H1 7959   4.972   5.523   3.610
 2651TIP3    H2 7960   4.975   5.487   3.463
 2652TIP3   OH2 7961   5.043   0.032   1.094
 2652TIP3    H1 7962   4.963   0.000   1.136
 2652TIP3    H2 7963   5.023   0.124   1.072
 2653TIP3   OH2 7964   3.753   4.422   1.096
 2653TIP3    H1 7965   3.682   4.367   1.064
 2653TIP3    H2 7966   3.717   4.511   1.093
 2654TIP3   OH2 7967   1.085   3.349   4.539
 2654TIP3    H1 7968   1.155   3.287   4.554
 2654TIP3    H2 7969   1.107   3.425   4.593
 2655TIP3   OH2 7970   4.888   0.119   1.543
 2655TIP3    H1 7971   4.983   0.131   1.535
 2655TIP3    H2 7972   4.854   0.145   1.457
 2656TIP3   OH2 7973   4.648   5.557   2.936
 2656TIP3    H1 7974   4.574   5.498   2.952
 2656TIP3    H2 7975   4.680   5.532   2.849
 2657TIP3   OH2 7976   2.657   0.257   2.794
 2657TIP3    H1 7977   2.669   0.172   2.837
 2657TIP3    H2 7978   2.622   0.235   2.708
 2658TIP3   OH2 7979   4.548   0.576   4.863
 2658TIP3    H1 7980   4.592   0.538   4.787
 2658TIP3    H2 7981   4.455   0.561   4.846
 2659TIP3   OH2 7982   5.596   2.832   0.201
 2659TIP3    H1 7983   5.627   2.829   0.291
 2659TIP3    H2 7984   5.676   2.841   0.148
 2660TIP3   OH2 7985   3.749   4.270   3.912
 2660TIP3    H1 7986   3.806   4.197   3.889
 2660TIP3    H2 7987   3.663   4.229   3.928
 2661TIP3   OH2 7988   2.638   3.262   0.050
 2661TIP3    H1 7989   2.651   3.355   0.033
 2661TIP3    H2 7990   2.726   3.228   0.065
 2662TIP3   OH2 7991   4.875   2.667   0.081
 2662TIP3    H1 7992   4.933   2.730   0.039
 2662TIP3    H2 7993   4.789   2.684   0.042
 2663TIP3   OH2 7994   0.106   5.441   2.618
 2663TIP3    H1 7995   0.197   5.447   2.645
 2663TIP3    H2 7996   0.056   5.471   2.695
 2664TIP3   OH2 7997   2.761   4.683   1.775
 2664TIP3    H1 7998   2.694   4.633   1.822
 2664TIP3    H2 7999   2.815   4.721   1.843
 2665TIP3   OH2 8000   2.238   0.986   2.831
 2665TIP3    H1 8001   2.183   1.063   2.818
 2665TIP3    H2 8002   2.283   1.003   2.914
 2666TIP3   OH2 8003   1.841   5.751   5.051
 2666TIP3    H1 8004   1.768   5.722   5.107
 2666TIP3    H2 8005   1.801   5.766   4.966
 2667TIP3   OH2 8006   2.837   2.936   0.503
 2667TIP3    H1 8007   2.787   2.924   0.423
 2667TIP3    H2 8008   2.772   2.962   0.568
 2668TIP3   OH2 8009   1.993   0.521   1.257
 2668TIP3    H1 8010   1.961   0.447   1.205
 2668TIP3    H2 8011   1.915   0.571   1.279
 2669TIP3   OH2 8012   3.129   3.512   4.953
 2669TIP3    H1 8013   3.093   3.472   5.032
 2669TIP3    H2 8014   3.153   3.601   4.980
 2670TIP3   OH2 8015   0.938   2.228   3.239
 2670TIP3    H1 8016   0.901   2.236   3.152
 2670TIP3    H2 8017   0.949   2.134   3.253
 2671TIP3   OH2 8018   5.179   2.788   1.368
 2671TIP3    H1 8019   5.265   2.802   1.408
 2671TIP3    H2 8020   5.197   2.741   1.287
 2672TIP3   OH2 8021   0.494   2.997   3.425
 2672TIP3    H1 8022   0.527   2.910   3.446
 2672TIP3    H2 8023   0.565   3.038   3.375
 2673TIP3   OH2 8024   4.418   5.031   1.114
 2673TIP3    H1 8025   4.356   4.993   1.052
 2673TIP3    H2 8026   4.471   5.091   1.063
 2674TIP3   OH2 8027   3.692   3.952   3.095
 2674TIP3    H1 8028   3.619   4.008   3.069
 2674TIP3    H2 8029   3.700   3.889   3.023
 2675TIP3   OH2 8030   4.158   0.039   2.338
 2675TIP3    H1 8031   4.129  -0.004   2.419
 2675TIP3    H2 8032   4.142   0.132   2.354
 2676TIP3   OH2 8033   4.737   3.539   5.002
 2676TIP3    H1 8034   4.642   3.546   4.992
 2676TIP3    H2 8035   4.752   3.451   5.035
 2677TIP3   OH2 8036   0.600   5.950   3.589
 2677TIP3    H1 8037   0.538   5.877   3.585
 2677TIP3    H2 8038   0.559   6.018   3.536
 2678TIP3   OH2 8039   6.227   1.471   4.264
 2678TIP3    H1 8040   6.226   1.514   4.350
 2678TIP3    H2 8041   6.142   1.428   4.257
 2679TIP3   OH2 8042   4.201   4.056   1.631
 2679TIP3    H1 8043   4.108   4.036   1.641
 2679TIP3    H2 8044   4.221   4.030   1.541
 2680TIP3   OH2 8045   4.892   4.887   0.487
 2680TIP3    H1 8046   4.824   4.944   0.452
 2680TIP3    H2 8047   4.934   4.850   0.410
 2681TIP3   OH2 8048   2.192   2.141   4.414
 2681TIP3    H1 8049   2.168   2.050   4.397
 2681TIP3    H2 8050   2.211   2.143   4.508
 2682TIP3   OH2 8051   5.197   0.361   1.455
 2682TIP3    H1 8052   5.156   0.358   1.369
 2682TIP3    H2 8053   5.288   0.335   1.439
 2683TIP3   OH2 8054   4.785   5.385   5.038
 2683TIP3    H1 8055   4.821   5.454   4.983
 2683TIP3    H2 8056   4.692   5.383   5.017
 2684TIP3   OH2 8057   0.778   2.428   4.242
 2684TIP3    H1 8058   0.769   2.450   4.335
 2684TIP3    H2 8059   0.850   2.365   4.239
 2685TIP3   OH2 8060   6.138   4.447   0.897
 2685TIP3    H1 8061   6.102   4.527   0.860
 2685TIP3    H2 8062   6.188   4.475   0.974
 2686TIP3   OH2 8063   4.582   1.191   3.540
 2686TIP3    H1 8064   4.658   1.250   3.545
 2686TIP3    H2 8065   4.526   1.230   3.473
 2687TIP3   OH2 8066   3.839   1.131   3.252
 2687TIP3    H1 8067   3.889   1.192   3.196
 2687TIP3    H2 8068   3.905   1.070   3.285
 2688TIP3   OH2 8069   2.755   5.407   2.609
 2688TIP3    H1 8070   2.823   5.441   2.668
 2688TIP3    H2 8071   2.762   5.462   2.531
 2689TIP3   OH2 8072   1.431   2.685   4.024
 2689TIP3    H1 8073   1.371   2.738   4.077
 2689TIP3    H2 8074   1.496   2.748   3.992
 2690TIP3   OH2 8075   5.216   4.864   1.188
 2690TIP3    H1 8076   5.220   4.933   1.122
 2690TIP3    H2 8077   5.304   4.859   1.224
 2691TIP3   OH2 8078   4.996   1.679   3.043
 2691TIP3    H1 8079   4.991   1.768   3.077
 2691TIP3    H2 8080   4.908   1.644   3.057
 2692TIP3   OH2 8081   5.460   2.065   1.053
 2692TIP3    H1 8082   5.383   2.029   1.096
 2692TIP3    H2 8083   5.485   1.998   0.989
 2693TIP3   OH2 8084   0.079   3.768   0.751
 2693TIP3    H1 8085   0.115   3.847   0.792
 2693TIP3    H2 8086   0.000   3.798   0.706
 2694TIP3   OH2 8087   2.494   4.022   0.216
 2694TIP3    H1 8088   2.492   3.961   0.290
 2694TIP3    H2 8089   2.524   4.105   0.253
 2695TIP3   OH2 8090   5.666   0.918   4.972
 2695TIP3    H1 8091   5.582   0.956   4.996
 2695TIP3    H2 8092   5.730   0.966   5.024
 2696TIP3   OH2 8093   3.997   1.027   0.645
 2696TIP3    H1 8094   4.054   1.103   0.659
 2696TIP3    H2 8095   4.008   1.006   0.552
 2697TIP3   OH2 8096   0.396   0.830   2.775
 2697TIP3    H1 8097   0.338   0.772   2.824
 2697TIP3    H2 8098   0.342   0.906   2.754
 2698TIP3   OH2 8099   0.605   2.304   1.574
 2698TIP3    H1 8100   0.627   2.333   1.485
 2698TIP3    H2 8101   0.689   2.276   1.611
 2699TIP3   OH2 8102   2.983   5.811   2.216
 2699TIP3    H1 8103   3.010   5.902   2.201
 2699TIP3    H2 8104   2.908   5.799   2.158
 2700TIP3   OH2 8105   3.887   1.319   4.745
 2700TIP3    H1 8106   3.960   1.298   4.803
 2700TIP3    H2 8107   3.822   1.360   4.802
 2701TIP3   OH2 8108   5.878   3.778   5.037
 2701TIP3    H1 8109   5.963   3.813   5.010
 2701TIP3    H2 8110   5.890   3.683   5.036
 2702TIP3   OH2 8111   4.152   2.619   2.868
 2702TIP3    H1 8112   4.187   2.554   2.807
 2702TIP3    H2 8113   4.063   2.636   2.837
 2703TIP3   OH2 8114   0.860   1.020   0.417
 2703TIP3    H1 8115   0.795   0.990   0.353
 2703TIP3    H2 8116   0.819   1.005   0.502
 2704TIP3   OH2 8117   4.751   4.153   0.722
 2704TIP3    H1 8118   4.762   4.065   0.686
 2704TIP3    H2 8119   4.835   4.196   0.707
 2705TIP3   OH2 8120   4.295   4.094   1.131
 2705TIP3    H1 8121   4.366   4.064   1.187
 2705TIP3    H2 8122   4.339   4.136   1.057
 2706TIP3   OH2 8123   5.336   5.439   4.874
 2706TIP3    H1 8124   5.292   5.441   4.959
 2706TIP3    H2 8125   5.265   5.437   4.810
 2707TIP3   OH2 8126   5.898   0.647   1.141
 2707TIP3    H1 8127   5.923   0.715   1.079
 2707TIP3    H2 8128   5.956   0.660   1.215
 2708TIP3   OH2 8129   1.547   1.728   0.666
 2708TIP3    H1 8130   1.528   1.751   0.756
 2708TIP3    H2 8131   1.463   1.699   0.630
 2709TIP3   OH2 8132   6.311   3.260   2.448
 2709TIP3    H1 8133   6.386   3.319   2.438
 2709TIP3    H2 8134   6.293   3.228   2.360
 2710TIP3   OH2 8135   3.860   2.863   3.408
 2710TIP3    H1 8136   3.906   2.808   3.344
 2710TIP3    H2 8137   3.847   2.946   3.363
 2711TIP3   OH2 8138   4.030   0.411   3.648
 2711TIP3    H1 8139   3.966   0.408   3.719
 2711TIP3    H2 8140   3.978   0.429   3.569
 2712TIP3   OH2 8141   2.366   5.011   0.384
 2712TIP3    H1 8142   2.369   4.997   0.289
 2712TIP3    H2 8143   2.437   5.073   0.401
 2713TIP3   OH2 8144   0.894   5.940   4.336
 2713TIP3    H1 8145   0.950   5.864   4.352
 2713TIP3    H2 8146   0.924   5.975   4.252
 2714TIP3   OH2 8147   3.481   4.835   4.143
 2714TIP3    H1 8148   3.570   4.863   4.165
 2714TIP3    H2 8149   3.426   4.882   4.206
 2715TIP3   OH2 8150   4.267   0.338   1.736
 2715TIP3    H1 8151   4.174   0.320   1.729
 2715TIP3    H2 8152   4.290   0.312   1.825
 2716TIP3   OH2 8153   1.064   5.762   4.487
 2716TIP3    H1 8154   1.097   5.708   4.558
 2716TIP3    H2 8155   1.132   5.827   4.472
 2717TIP3   OH2 8156   0.900   2.016   1.863
 2717TIP3    H1 8157   0.952   1.941   1.890
 2717TIP3    H2 8158   0.961   2.071   1.813
 2718TIP3   OH2 8159   2.102   1.472   1.602
 2718TIP3    H1 8160   2.136   1.419   1.675
 2718TIP3    H2 8161   2.166   1.542   1.591
 2719TIP3   OH2 8162   2.971   5.129   1.966
 2719TIP3    H1 8163   2.877   5.140   1.953
 2719TIP3    H2 8164   2.984   5.138   2.060
 2720TIP3   OH2 8165   0.747   5.700   0.411
 2720TIP3    H1 8166   0.720   5.668   0.498
 2720TIP3    H2 8167   0.833   5.659   0.396
 2721TIP3   OH2 8168   6.242   5.958   0.930
 2721TIP3    H1 8169   6.310   5.989   0.989
 2721TIP3    H2 8170   6.160   5.975   0.977
 2722TIP3   OH2 8171   2.865   3.749   4.887
 2722TIP3    H1 8172   2.911   3.760   4.804
 2722TIP3    H2 8173   2.866   3.836   4.927
 2723TIP3   OH2 8174   2.358   0.356   3.210
 2723TIP3    H1 8175   2.407   0.406   3.275
 2723TIP3    H2 8176   2.376   0.400   3.127
 2724TIP3   OH2 8177   5.259   0.627   0.292
 2724TIP3    H1 8178   5.314   0.551   0.311
 2724TIP3    H2 8179   5.301   0.668   0.215
 2725TIP3   OH2 8180   5.347   2.594   2.629
 2725TIP3    H1 8181   5.426   2.648   2.622
 2725TIP3    H2 8182   5.379   2.508   2.656
 2726TIP3   OH2 8183   6.094   2.544   4.039
 2726TIP3    H1 8184   6.118   2.624   3.993
 2726TIP3    H2 8185   6.172   2.489   4.034
 2727TIP3   OH2 8186   3.282   1.655   1.638
 2727TIP3    H1 8187   3.315   1.567   1.622
 2727TIP3    H2 8188   3.189   1.643   1.657
 2728TIP3   OH2 8189   3.562   3.120   0.741
 2728TIP3    H1 8190   3.572   3.148   0.832
 2728TIP3    H2 8191   3.468   3.125   0.725
 2729TIP3   OH2 8192   2.809   4.272   3.149
 2729TIP3    H1 8193   2.760   4.191   3.162
 2729TIP3    H2 8194   2.749   4.329   3.100
 2730TIP3   OH2 8195   6.061   5.013   1.948
 2730TIP3    H1 8196   6.091   5.056   1.867
 2730TIP3    H2 8197   5.966   5.011   1.940
 2731TIP3   OH2 8198   0.997  -0.003   2.733
 2731TIP3    H1 8199   0.962   0.077   2.771
 2731TIP3    H2 8200   0.987   0.009   2.638
 2732TIP3   OH2 8201   4.321   0.273   2.001
 2732TIP3    H1 8202   4.381   0.220   2.055
 2732TIP3    H2 8203   4.234   0.237   2.019
 2733TIP3   OH2 8204   1.999   5.800   2.491
 2733TIP3    H1 8205   2.047   5.756   2.561
 2733TIP3    H2 8206   1.922   5.746   2.477
 2734TIP3   OH2 8207   0.505   0.933   4.164
 2734TIP3    H1 8208   0.450   1.008   4.142
 2734TIP3    H2 8209   0.595   0.967   4.163
 2735TIP3   OH2 8210   0.154   3.057   3.646
 2735TIP3    H1 8211   0.121   2.995   3.581
 2735TIP3    H2 8212   0.110   3.139   3.626
 2736TIP3   OH2 8213   0.871   4.542   4.035
 2736TIP3    H1 8214   0.862   4.606   4.106
 2736TIP3    H2 8215   0.908   4.592   3.962
 2737TIP3   OH2 8216   5.140   2.403   3.888
 2737TIP3    H1 8217   5.120   2.351   3.966
 2737TIP3    H2 8218   5.057   2.410   3.842
 2738TIP3   OH2 8219   3.184   2.674   1.176
 2738TIP3    H1 8220   3.226   2.649   1.093
 2738TIP3    H2 8221   3.255   2.713   1.227
 2739TIP3   OH2 8222   1.438   5.252   4.610
 2739TIP3    H1 8223   1.511   5.294   4.565
 2739TIP3    H2 8224   1.394   5.324   4.656
 2740TIP3   OH2 8225   2.922   3.928   0.418
 2740TIP3    H1 8226   2.938   4.021   0.432
 2740TIP3    H2 8227   2.906   3.893   0.506
 2741TIP3   OH2 8228   5.225   4.115   2.300
 2741TIP3    H1 8229   5.198   4.184   2.360
 2741TIP3    H2 8230   5.156   4.111   2.234
 2742TIP3   OH2 8231   1.150   0.177   0.438
 2742TIP3    H1 8232   1.114   0.160   0.526
 2742TIP3    H2 8233   1.236   0.135   0.439
 2743TIP3   OH2 8234   2.159   5.148   4.726
 2743TIP3    H1 8235   2.237   5.202   4.735
 2743TIP3    H2 8236   2.097   5.184   4.790
 2744TIP3   OH2 8237   2.099   2.114   4.093
 2744TIP3    H1 8238   2.193   2.131   4.095
 2744TIP3    H2 8239   2.064   2.179   4.033
 2745TIP3   OH2 8240   6.299   2.227   0.350
 2745TIP3    H1 8241   6.279   2.133   0.353
 2745TIP3    H2 8242   6.234   2.263   0.290
 2746TIP3   OH2 8243   2.080   0.311   0.079
 2746TIP3    H1 8244   2.087   0.406   0.065
 2746TIP3    H2 8245   2.163   0.286   0.118
 2747TIP3   OH2 8246   3.095   3.596   0.299
 2747TIP3    H1 8247   3.129   3.683   0.319
 2747TIP3    H2 8248   3.110   3.586   0.205
 2748TIP3   OH2 8249   5.905   2.690   5.018
 2748TIP3    H1 8250   5.898   2.762   4.955
 2748TIP3    H2 8251   5.891   2.611   4.966
 2749TIP3   OH2 8252   6.035   2.206   0.549
 2749TIP3    H1 8253   6.066   2.198   0.639
 2749TIP3    H2 8254   5.982   2.128   0.535
 2750TIP3   OH2 8255   2.186   2.494   1.538
 2750TIP3    H1 8256   2.181   2.399   1.546
 2750TIP3    H2 8257   2.273   2.511   1.502
 2751TIP3   OH2 8258   1.764   1.948   2.382
 2751TIP3    H1 8259   1.678   1.961   2.423
 2751TIP3    H2 8260   1.773   2.022   2.323
 2752TIP3   OH2 8261   6.296   5.174   3.125
 2752TIP3    H1 8262   6.272   5.174   3.218
 2752TIP3    H2 8263   6.375   5.228   3.120
 2753TIP3   OH2 8264   5.459   3.756   1.715
 2753TIP3    H1 8265   5.529   3.691   1.713
 2753TIP3    H2 8266   5.413   3.740   1.798
 2754TIP3   OH2 8267   5.982   2.791   1.885
 2754TIP3    H1 8268   5.908   2.757   1.935
 2754TIP3    H2 8269   6.057   2.780   1.944
 2755TIP3   OH2 8270   5.162   5.904   3.663
 2755TIP3    H1 8271   5.246   5.867   3.690
 2755TIP3    H2 8272   5.161   5.892   3.568
 2756TIP3   OH2 8273   5.912   0.805   4.238
 2756TIP3    H1 8274   5.846   0.815   4.169
 2756TIP3    H2 8275   5.974   0.876   4.222
 2757TIP3   OH2 8276   3.860   0.502   1.831
 2757TIP3    H1 8277   3.843   0.480   1.739
 2757TIP3    H2 8278   3.945   0.545   1.830
 2758TIP3   OH2 8279   4.736   1.420   3.605
 2758TIP3    H1 8280   4.666   1.469   3.649
 2758TIP3    H2 8281   4.785   1.378   3.676
 2759TIP3   OH2 8282   0.490   1.373   4.711
 2759TIP3    H1 8283   0.440   1.432   4.767
 2759TIP3    H2 8284   0.494   1.417   4.626
 2760TIP3   OH2 8285   0.040   3.222   2.992
 2760TIP3    H1 8286   0.019   3.133   3.021
 2760TIP3    H2 8287   0.061   3.213   2.899
 2761TIP3   OH2 8288   5.175   0.314   3.667
 2761TIP3    H1 8289   5.226   0.239   3.695
 2761TIP3    H2 8290   5.224   0.390   3.698
 2762TIP3   OH2 8291   3.254   5.399   2.029
 2762TIP3    H1 8292   3.214   5.348   2.099
 2762TIP3    H2 8293   3.284   5.333   1.966
 2763TIP3   OH2 8294   4.468   3.803   4.467
 2763TIP3    H1 8295   4.453   3.896   4.447
 2763TIP3    H2 8296   4.561   3.789   4.450
 2764TIP3   OH2 8297   3.119   2.261   2.710
 2764TIP3    H1 8298   3.103   2.186   2.767
 2764TIP3    H2 8299   3.127   2.224   2.622
 2765TIP3   OH2 8300   4.887   2.772   4.320
 2765TIP3    H1 8301   4.893   2.759   4.415
 2765TIP3    H2 8302   4.810   2.828   4.308
 2766TIP3   OH2 8303   5.855   0.292   3.874
 2766TIP3    H1 8304   5.923   0.352   3.903
 2766TIP3    H2 8305   5.891   0.205   3.889
 2767TIP3   OH2 8306   4.490   2.048   2.219
 2767TIP3    H1 8307   4.417   2.107   2.237
 2767TIP3    H2 8308   4.454   1.960   2.237
 2768TIP3   OH2 8309   5.627   5.880   4.133
 2768TIP3    H1 8310   5.701   5.914   4.184
 2768TIP3    H2 8311   5.668   5.841   4.055
 2769TIP3   OH2 8312   0.723   4.778   0.206
 2769TIP3    H1 8313   0.787   4.850   0.205
 2769TIP3    H2 8314   0.645   4.817   0.245
 2770TIP3   OH2 8315   0.608   5.942   2.007
 2770TIP3    H1 8316   0.582   5.982   2.090
 2770TIP3    H2 8317   0.550   5.983   1.942
 2771TIP3   OH2 8318   1.603   2.444   2.035
 2771TIP3    H1 8319   1.680   2.451   1.978
 2771TIP3    H2 8320   1.563   2.361   2.012
 2772TIP3   OH2 8321   1.446   5.437   3.438
 2772TIP3    H1 8322   1.493   5.499   3.382
 2772TIP3    H2 8323   1.420   5.488   3.514
 2773TIP3   OH2 8324   1.296   2.681   4.869
 2773TIP3    H1 8325   1.302   2.730   4.951
 2773TIP3    H2 8326   1.373   2.708   4.820
 2774TIP3   OH2 8327   3.373   4.343   4.728
 2774TIP3    H1 8328   3.310   4.349   4.657
 2774TIP3    H2 8329   3.370   4.252   4.756
 2775TIP3   OH2 8330   5.165   4.466   0.372
 2775TIP3    H1 8331   5.251   4.486   0.411
 2775TIP3    H2 8332   5.177   4.382   0.329
 2776TIP3   OH2 8333   2.339   5.419   1.951
 2776TIP3    H1 8334   2.263   5.464   1.988
 2776TIP3    H2 8335   2.342   5.449   1.860
 2777TIP3   OH2 8336   5.696   0.833   0.251
 2777TIP3    H1 8337   5.605   0.803   0.256
 2777TIP3    H2 8338   5.732   0.786   0.175
 2778TIP3   OH2 8339   3.250   1.441   0.406
 2778TIP3    H1 8340   3.277   1.528   0.437
 2778TIP3    H2 8341   3.165   1.456   0.364
 2779TIP3   OH2 8342   3.882   5.923   3.146
 2779TIP3    H1 8343   3.876   5.999   3.089
 2779TIP3    H2 8344   3.806   5.931   3.205
 2780TIP3   OH2 8345   0.456   4.977   2.341
 2780TIP3    H1 8346   0.384   5.024   2.382
 2780TIP3    H2 8347   0.522   4.967   2.410
 2781TIP3   OH2 8348   1.296   5.912   4.464
 2781TIP3    H1 8349   1.236   5.979   4.431
 2781TIP3    H2 8350   1.382   5.939   4.430
 2782TIP3   OH2 8351   4.337   1.250   5.149
 2782TIP3    H1 8352   4.261   1.300   5.120
 2782TIP3    H2 8353   4.394   1.245   5.072
 2783TIP3   OH2 8354   3.982   5.031   2.673
 2783TIP3    H1 8355   4.070   4.994   2.660
 2783TIP3    H2 8356   3.997   5.115   2.716
 2784TIP3   OH2 8357   4.373   5.781   4.454
 2784TIP3    H1 8358   4.426   5.782   4.375
 2784TIP3    H2 8359   4.436   5.793   4.525
 2785TIP3   OH2 8360   4.432   1.506   4.243
 2785TIP3    H1 8361   4.409   1.453   4.166
 2785TIP3    H2 8362   4.516   1.546   4.220
 2786TIP3   OH2 8363   3.098   3.258   4.748
 2786TIP3    H1 8364   3.184   3.285   4.716
 2786TIP3    H2 8365   3.079   3.317   4.821
 2787TIP3   OH2 8366   2.470   1.828   1.793
 2787TIP3    H1 8367   2.535   1.819   1.863
 2787TIP3    H2 8368   2.414   1.751   1.802
 2788TIP3   OH2 8369   1.939   5.316   4.083
 2788TIP3    H1 8370   1.872   5.316   4.015
 2788TIP3    H2 8371   1.910   5.250   4.145
 2789TIP3   OH2 8372   0.678   4.785   2.053
 2789TIP3    H1 8373   0.659   4.759   2.143
 2789TIP3    H2 8374   0.616   4.856   2.035
 2790TIP3   OH2 8375   2.991   1.852   0.085
 2790TIP3    H1 8376   3.053   1.846   0.158
 2790TIP3    H2 8377   3.024   1.924   0.031
 2791TIP3   OH2 8378   5.410   2.860   0.648
 2791TIP3    H1 8379   5.327   2.861   0.599
 2791TIP3    H2 8380   5.474   2.827   0.585
 2792TIP3   OH2 8381   4.828   0.146   3.606
 2792TIP3    H1 8382   4.759   0.084   3.632
 2792TIP3    H2 8383   4.811   0.224   3.659
 2793TIP3   OH2 8384   4.902   4.321   3.977
 2793TIP3    H1 8385   4.994   4.320   4.001
 2793TIP3    H2 8386   4.892   4.400   3.924
 2794TIP3   OH2 8387   0.420   3.452   3.677
 2794TIP3    H1 8388   0.440   3.391   3.605
 2794TIP3    H2 8389   0.334   3.426   3.707
 2795TIP3   OH2 8390   0.882   3.611   4.124
 2795TIP3    H1 8391   0.878   3.678   4.193
 2795TIP3    H2 8392   0.839   3.535   4.163
 2796TIP3   OH2 8393   2.285   1.619   1.824
 2796TIP3    H1 8394   2.314   1.584   1.909
 2796TIP3    H2 8395   2.195   1.648   1.840
 2797TIP3   OH2 8396   0.885   1.609   3.707
 2797TIP3    H1 8397   0.798   1.641   3.728
 2797TIP3    H2 8398   0.871   1.524   3.666
 2798TIP3   OH2 8399   4.239   0.786   2.809
 2798TIP3    H1 8400   4.200   0.699   2.818
 2798TIP3    H2 8401   4.172   0.846   2.844
 2799TIP3   OH2 8402   4.130   0.645   4.313
 2799TIP3    H1 8403   4.178   0.691   4.382
 2799TIP3    H2 8404   4.145   0.552   4.331
 2800TIP3   OH2 8405   4.898   6.004   4.144
 2800TIP3    H1 8406   4.981   5.967   4.173
 2800TIP3    H2 8407   4.848   5.929   4.112
 2801TIP3   OH2 8408   4.728   1.766   2.214
 2801TIP3    H1 8409   4.650   1.796   2.167
 2801TIP3    H2 8410   4.753   1.685   2.170
 2802TIP3   OH2 8411   3.709   2.200   0.991
 2802TIP3    H1 8412   3.791   2.218   0.944
 2802TIP3    H2 8413   3.733   2.136   1.057
 2803TIP3   OH2 8414   5.149   5.370   0.117
 2803TIP3    H1 8415   5.190   5.346   0.200
 2803TIP3    H2 8416   5.075   5.311   0.108
 2804TIP3   OH2 8417   0.305   1.930   1.572
 2804TIP3    H1 8418   0.278   1.913   1.662
 2804TIP3    H2 8419   0.398   1.951   1.577
 2805TIP3   OH2 8420   2.495   2.460   4.842
 2805TIP3    H1 8421   2.533   2.540   4.877
 2805TIP3    H2 8422   2.505   2.467   4.747
 2806TIP3   OH2 8423   4.527   2.572   3.499
 2806TIP3    H1 8424   4.436   2.543   3.506
 2806TIP3    H2 8425   4.521   2.663   3.470
 2807TIP3   OH2 8426   5.396   1.428   4.223
 2807TIP3    H1 8427   5.433   1.516   4.218
 2807TIP3    H2 8428   5.370   1.419   4.315
 2808TIP3   OH2 8429   5.246   1.120   4.928
 2808TIP3    H1 8430   5.330   1.166   4.933
 2808TIP3    H2 8431   5.180   1.190   4.930
 2809TIP3   OH2 8432   6.055   4.142   3.250
 2809TIP3    H1 8433   5.965   4.162   3.223
 2809TIP3    H2 8434   6.100   4.226   3.249
 2810TIP3   OH2 8435   5.510   1.733   3.151
 2810TIP3    H1 8436   5.508   1.645   3.114
 2810TIP3    H2 8437   5.420   1.748   3.181
 2811TIP3   OH2 8438   0.579   2.440   3.384
 2811TIP3    H1 8439   0.612   2.415   3.470
 2811TIP3    H2 8440   0.483   2.435   3.392
 2812TIP3   OH2 8441   1.259   1.854   4.295
 2812TIP3    H1 8442   1.334   1.802   4.267
 2812TIP3    H2 8443   1.237   1.821   4.382
 2813TIP3   OH2 8444   5.053   2.920   3.615
 2813TIP3    H1 8445   5.062   2.828   3.641
 2813TIP3    H2 8446   5.006   2.916   3.531
 2814TIP3   OH2 8447   0.435   1.486   2.034
 2814TIP3    H1 8448   0.434   1.441   2.119
 2814TIP3    H2 8449   0.498   1.436   1.982
 2815TIP3   OH2 8450   2.549   5.368   2.955
 2815TIP3    H1 8451   2.536   5.290   2.901
 2815TIP3    H2 8452   2.461   5.404   2.966
 2816TIP3   OH2 8453   3.910   4.693   0.632
 2816TIP3    H1 8454   3.842   4.737   0.683
 2816TIP3    H2 8455   3.909   4.602   0.662
 2817TIP3   OH2 8456   1.126   0.042   4.114
 2817TIP3    H1 8457   1.151   0.092   4.036
 2817TIP3    H2 8458   1.049   0.087   4.149
 2818TIP3   OH2 8459   0.512   1.523   3.433
 2818TIP3    H1 8460   0.453   1.575   3.489
 2818TIP3    H2 8461   0.469   1.439   3.424
 2819TIP3   OH2 8462   5.673   3.037   3.838
 2819TIP3    H1 8463   5.738   3.015   3.772
 2819TIP3    H2 8464   5.592   3.051   3.788
 2820TIP3   OH2 8465   1.437   2.296   1.737
 2820TIP3    H1 8466   1.471   2.208   1.751
 2820TIP3    H2 8467   1.513   2.347   1.708
 2821TIP3   OH2 8468   5.118   1.055   4.091
 2821TIP3    H1 8469   5.195   1.096   4.049
 2821TIP3    H2 8470   5.100   1.110   4.167
 2822TIP3   OH2 8471   6.141   0.417   2.335
 2822TIP3    H1 8472   6.199   0.376   2.271
 2822TIP3    H2 8473   6.149   0.511   2.317
 2823TIP3   OH2 8474   2.807   4.880   4.945
 2823TIP3    H1 8475   2.847   4.958   4.983
 2823TIP3    H2 8476   2.730   4.863   5.000
 2824TIP3   OH2 8477   4.195   3.084   5.060
 2824TIP3    H1 8478   4.173   3.163   5.109
 2824TIP3    H2 8479   4.256   3.112   4.993
 2825TIP3   OH2 8480   0.134   5.558   4.658
 2825TIP3    H1 8481   0.219   5.514   4.649
 2825TIP3    H2 8482   0.070   5.490   4.636
 2826TIP3   OH2 8483   3.560   4.768   0.181
 2826TIP3    H1 8484   3.550   4.863   0.181
 2826TIP3    H2 8485   3.550   4.743   0.089
 2827TIP3   OH2 8486   0.499   0.379   1.710
 2827TIP3    H1 8487   0.441   0.455   1.719
 2827TIP3    H2 8488   0.495   0.356   1.617
 2828TIP3   OH2 8489   2.230   2.849   0.402
 2828TIP3    H1 8490   2.205   2.913   0.336
 2828TIP3    H2 8491   2.252   2.901   0.479
 2829TIP3   OH2 8492   1.111   1.247   0.597
 2829TIP3    H1 8493   1.122   1.335   0.633
 2829TIP3    H2 8494   1.035   1.254   0.540
 2830TIP3   OH2 8495   6.175   4.252   3.605
 2830TIP3    H1 8496   6.133   4.318   3.550
 2830TIP3    H2 8497   6.237   4.208   3.546
 2831TIP3   OH2 8498   3.911   2.263   4.174
 2831TIP3    H1 8499   3.888   2.189   4.118
 2831TIP3    H2 8500   3.911   2.226   4.263
 2832TIP3   OH2 8501   1.881   3.916   4.539
 2832TIP3    H1 8502   1.962   3.927   4.590
 2832TIP3    H2 8503   1.911   3.885   4.453
 2833TIP3   OH2 8504   0.641   2.015   2.675
 2833TIP3    H1 8505   0.584   1.981   2.743
 2833TIP3    H2 8506   0.729   2.010   2.713
 2834TIP3   OH2 8507   1.468   5.708   3.944
 2834TIP3    H1 8508   1.523   5.668   4.011
 2834TIP3    H2 8509   1.380   5.677   3.963
 2835TIP3   OH2 8510   2.189   2.272   2.505
 2835TIP3    H1 8511   2.169   2.179   2.515
 2835TIP3    H2 8512   2.178   2.290   2.412
 2836TIP3   OH2 8513   3.316   5.656   2.014
 2836TIP3    H1 8514   3.365   5.673   2.095
 2836TIP3    H2 8515   3.295   5.562   2.018
 2837TIP3   OH2 8516   2.554   3.427   5.183
 2837TIP3    H1 8517   2.551   3.522   5.173
 2837TIP3    H2 8518   2.464   3.398   5.169
 2838TIP3   OH2 8519   5.725   2.361   1.012
 2838TIP3    H1 8520   5.664   2.350   1.085
 2838TIP3    H2 8521   5.669   2.362   0.934
 2839TIP3   OH2 8522   3.413   2.600   4.882
 2839TIP3    H1 8523   3.401   2.681   4.931
 2839TIP3    H2 8524   3.455   2.540   4.944
 2840TIP3   OH2 8525   0.241   5.065   2.487
 2840TIP3    H1 8526   0.155   5.101   2.465
 2840TIP3    H2 8527   0.263   5.104   2.571
 2841TIP3   OH2 8528   5.078   4.955   4.315
 2841TIP3    H1 8529   5.102   5.043   4.344
 2841TIP3    H2 8530   4.992   4.965   4.275
 2842TIP3   OH2 8531   0.073   5.754   3.275
 2842TIP3    H1 8532   0.087   5.768   3.369
 2842TIP3    H2 8533   0.098   5.837   3.234
 2843TIP3   OH2 8534   6.347   3.384   4.738
 2843TIP3    H1 8535   6.307   3.471   4.731
 2843TIP3    H2 8536   6.303   3.343   4.812
 2844TIP3   OH2 8537   3.383   2.030   0.656
 2844TIP3    H1 8538   3.313   1.966   0.668
 2844TIP3    H2 8539   3.425   2.036   0.742
 2845TIP3   OH2 8540   6.008   2.453   3.723
 2845TIP3    H1 8541   6.043   2.406   3.647
 2845TIP3    H2 8542   6.062   2.532   3.729
 2846TIP3   OH2 8543   3.097   5.079   0.694
 2846TIP3    H1 8544   3.018   5.109   0.649
 2846TIP3    H2 8545   3.088   5.112   0.783
 2847TIP3   OH2 8546   5.969   4.686   3.629
 2847TIP3    H1 8547   5.960   4.614   3.567
 2847TIP3    H2 8548   6.002   4.645   3.709
 2848TIP3   OH2 8549   1.805   4.050   1.218
 2848TIP3    H1 8550   1.774   4.105   1.290
 2848TIP3    H2 8551   1.746   4.071   1.145
 2849TIP3   OH2 8552   5.113   4.476   3.248
 2849TIP3    H1 8553   5.061   4.407   3.289
 2849TIP3    H2 8554   5.183   4.494   3.311
 2850TIP3   OH2 8555   2.597   4.033   4.681
 2850TIP3    H1 8556   2.601   3.939   4.702
 2850TIP3    H2 8557   2.687   4.063   4.688
 2851TIP3   OH2 8558   1.845   0.873   2.513
 2851TIP3    H1 8559   1.903   0.831   2.577
 2851TIP3    H2 8560   1.893   0.868   2.430
 2852TIP3   OH2 8561   2.915   4.000   2.110
 2852TIP3    H1 8562   2.835   3.996   2.163
 2852TIP3    H2 8563   2.920   3.914   2.068
 2853TIP3   OH2 8564   0.036   3.225   2.712
 2853TIP3    H1 8565   0.004   3.265   2.630
 2853TIP3    H2 8566   0.078   3.144   2.684
 2854TIP3   OH2 8567   1.491   4.498   2.164
 2854TIP3    H1 8568   1.578   4.499   2.124
 2854TIP3    H2 8569   1.431   4.515   2.091
 2855TIP3   OH2 8570   5.317   4.405   4.706
 2855TIP3    H1 8571   5.233   4.361   4.695
 2855TIP3    H2 8572   5.324   4.462   4.629
 2856TIP3   OH2 8573   0.294   1.193   1.028
 2856TIP3    H1 8574   0.333   1.134   0.964
 2856TIP3    H2 8575   0.269   1.135   1.101
 2857TIP3   OH2 8576   2.163   2.100   3.114
 2857TIP3    H1 8577   2.112   2.085   3.194
 2857TIP3    H2 8578   2.103   2.080   3.043
 2858TIP3   OH2 8579   4.622   3.658   1.914
 2858TIP3    H1 8580   4.702   3.695   1.950
 2858TIP3    H2 8581   4.563   3.650   1.990
 2859TIP3   OH2 8582   3.088   1.856   1.452
 2859TIP3    H1 8583   3.004   1.836   1.410
 2859TIP3    H2 8584   3.152   1.851   1.380
 2860TIP3   OH2 8585   1.013   4.197   1.501
 2860TIP3    H1 8586   1.104   4.195   1.531
 2860TIP3    H2 8587   1.014   4.254   1.425
 2861TIP3   OH2 8588   0.395   2.967   3.693
 2861TIP3    H1 8589   0.431   2.989   3.607
 2861TIP3    H2 8590   0.302   2.987   3.686
 2862TIP3   OH2 8591   0.450   5.165   1.105
 2862TIP3    H1 8592   0.454   5.231   1.036
 2862TIP3    H2 8593   0.364   5.123   1.094
 2863TIP3   OH2 8594   1.561   5.220   0.682
 2863TIP3    H1 8595   1.478   5.228   0.635
 2863TIP3    H2 8596   1.626   5.205   0.614
 2864TIP3   OH2 8597   2.476   4.288   4.219
 2864TIP3    H1 8598   2.515   4.231   4.285
 2864TIP3    H2 8599   2.477   4.235   4.139
 2865TIP3   OH2 8600   3.359   3.932   0.914
 2865TIP3    H1 8601   3.449   3.944   0.944
 2865TIP3    H2 8602   3.307   3.986   0.973
 2866TIP3   OH2 8603   1.283   5.250   0.585
 2866TIP3    H1 8604   1.304   5.340   0.611
 2866TIP3    H2 8605   1.190   5.254   0.561
 2867TIP3   OH2 8606   6.081   2.847   4.204
 2867TIP3    H1 8607   6.120   2.820   4.287
 2867TIP3    H2 8608   6.014   2.781   4.187
 2868TIP3   OH2 8609   4.963   4.595   3.507
 2868TIP3    H1 8610   4.981   4.558   3.593
 2868TIP3    H2 8611   4.904   4.533   3.465
 2869TIP3   OH2 8612   3.189   0.049   2.538
 2869TIP3    H1 8613   3.157   0.060   2.628
 2869TIP3    H2 8614   3.278   0.015   2.548
 2870TIP3   OH2 8615   2.038   3.014   1.873
 2870TIP3    H1 8616   1.958   2.974   1.906
 2870TIP3    H2 8617   2.008   3.079   1.810
 2871TIP3   OH2 8618   6.020   0.520   4.793
 2871TIP3    H1 8619   5.979   0.485   4.714
 2871TIP3    H2 8620   6.044   0.610   4.769
 2872TIP3   OH2 8621   2.563   2.083   1.720
 2872TIP3    H1 8622   2.649   2.052   1.747
 2872TIP3    H2 8623   2.502   2.024   1.766
 2873TIP3   OH2 8624   4.044   0.355   4.822
 2873TIP3    H1 8625   4.073   0.267   4.848
 2873TIP3    H2 8626   3.981   0.340   4.752
 2874TIP3   OH2 8627   3.666   0.765   1.049
 2874TIP3    H1 8628   3.683   0.854   1.018
 2874TIP3    H2 8629   3.576   0.747   1.022
 2875TIP3   OH2 8630   5.507   1.310   1.205
 2875TIP3    H1 8631   5.532   1.272   1.289
 2875TIP3    H2 8632   5.465   1.239   1.157
 2876TIP3   OH2 8633   1.784   4.590   4.871
 2876TIP3    H1 8634   1.844   4.584   4.797
 2876TIP3    H2 8635   1.703   4.551   4.839
 2877TIP3   OH2 8636   2.288   5.567   1.353
 2877TIP3    H1 8637   2.236   5.633   1.400
 2877TIP3    H2 8638   2.274   5.486   1.402
 2878TIP3   OH2 8639   0.245   2.164   2.817
 2878TIP3    H1 8640   0.319   2.106   2.800
 2878TIP3    H2 8641   0.247   2.178   2.912
 2879TIP3   OH2 8642   5.220   1.414   0.523
 2879TIP3    H1 8643   5.153   1.417   0.591
 2879TIP3    H2 8644   5.275   1.339   0.546
 2880TIP3   OH2 8645   4.504   0.816   1.624
 2880TIP3    H1 8646   4.469   0.872   1.555
 2880TIP3    H2 8647   4.438   0.747   1.633
 2881TIP3   OH2 8648   1.133   5.781   2.350
 2881TIP3    H1 8649   1.081   5.747   2.423
 2881TIP3    H2 8650   1.196   5.841   2.390
 2882TIP3   OH2 8651   5.224   2.732   0.819
 2882TIP3    H1 8652   5.271   2.797   0.767
 2882TIP3    H2 8653   5.292   2.691   0.873
 2883TIP3   OH2 8654   0.594   1.991   3.955
 2883TIP3    H1 8655   0.533   1.941   4.009
 2883TIP3    H2 8656   0.676   1.992   4.005
 2884TIP3   OH2 8657   2.949   0.643   3.740
 2884TIP3    H1 8658   2.955   0.584   3.816
 2884TIP3    H2 8659   2.905   0.721   3.775
 2885TIP3   OH2 8660   0.456   4.015   4.724
 2885TIP3    H1 8661   0.420   4.009   4.812
 2885TIP3    H2 8662   0.452   3.925   4.691
 2886TIP3   OH2 8663   3.923   2.811   2.078
 2886TIP3    H1 8664   3.978   2.790   2.003
 2886TIP3    H2 8665   3.932   2.736   2.137
 2887TIP3   OH2 8666   0.173   4.646   3.660
 2887TIP3    H1 8667   0.138   4.558   3.649
 2887TIP3    H2 8668   0.251   4.647   3.606
 2888TIP3   OH2 8669   3.312   2.244   2.079
 2888TIP3    H1 8670   3.313   2.155   2.114
 2888TIP3    H2 8671   3.396   2.253   2.033
 2889TIP3   OH2 8672   3.784   2.552   4.870
 2889TIP3    H1 8673   3.763   2.460   4.884
 2889TIP3    H2 8674   3.738   2.575   4.789
 2890TIP3   OH2 8675   2.444   2.817   0.865
 2890TIP3    H1 8676   2.540   2.819   0.858
 2890TIP3    H2 8677   2.427   2.816   0.959
 2891TIP3   OH2 8678   0.225   4.375   2.002
 2891TIP3    H1 8679   0.220   4.285   1.971
 2891TIP3    H2 8680   0.230   4.368   2.097
 2892TIP3   OH2 8681   2.750   5.081   3.630
 2892TIP3    H1 8682   2.690   5.008   3.614
 2892TIP3    H2 8683   2.820   5.044   3.683
 2893TIP3   OH2 8684   0.515   3.354   3.212
 2893TIP3    H1 8685   0.441   3.352   3.151
 2893TIP3    H2 8686   0.523   3.446   3.237
 2894TIP3   OH2 8687   2.405   5.056   3.445
 2894TIP3    H1 8688   2.455   5.014   3.514
 2894TIP3    H2 8689   2.384   4.986   3.384
 2895TIP3   OH2 8690   5.176   5.917   1.766
 2895TIP3    H1 8691   5.178   5.961   1.851
 2895TIP3    H2 8692   5.238   5.845   1.776
 2896TIP3   OH2 8693   4.483   2.820   0.206
 2896TIP3    H1 8694   4.527   2.770   0.275
 2896TIP3    H2 8695   4.443   2.894   0.253
 2897TIP3   OH2 8696   0.172   4.063   2.802
 2897TIP3    H1 8697   0.144   4.083   2.891
 2897TIP3    H2 8698   0.195   4.148   2.765
 2898TIP3   OH2 8699   4.857   5.116   3.307
 2898TIP3    H1 8700   4.824   5.130   3.218
 2898TIP3    H2 8701   4.889   5.025   3.306
 2899TIP3   OH2 8702   4.726   0.774   4.561
 2899TIP3    H1 8703   4.732   0.682   4.587
 2899TIP3    H2 8704   4.743   0.823   4.642
 2900TIP3   OH2 8705   2.534   4.922   3.855
 2900TIP3    H1 8706   2.528   4.828   3.872
 2900TIP3    H2 8707   2.586   4.956   3.928
 2901TIP3   OH2 8708   4.936   5.756   1.430
 2901TIP3    H1 8709   5.019   5.766   1.383
 2901TIP3    H2 8710   4.959   5.705   1.508
 2902TIP3   OH2 8711   3.915   0.486   0.631
 2902TIP3    H1 8712   3.844   0.496   0.694
 2902TIP3    H2 8713   3.991   0.462   0.684
 2903TIP3   OH2 8714   1.282   4.840   2.122
 2903TIP3    H1 8715   1.231   4.808   2.047
 2903TIP3    H2 8716   1.250   4.788   2.196
 2904TIP3   OH2 8717   2.493   2.321   1.831
 2904TIP3    H1 8718   2.555   2.264   1.786
 2904TIP3    H2 8719   2.458   2.268   1.903
 2905TIP3   OH2 8720   0.439   1.351   2.973
 2905TIP3    H1 8721   0.369   1.286   2.984
 2905TIP3    H2 8722   0.437   1.402   3.054
 2906TIP3   OH2 8723   0.560   0.915   4.690
 2906TIP3    H1 8724   0.655   0.917   4.705
 2906TIP3    H2 8725   0.546   0.979   4.620
 2907TIP3   OH2 8726   3.846   4.917   3.420
 2907TIP3    H1 8727   3.770   4.915   3.479
 2907TIP3    H2 8728   3.887   5.002   3.435
 2908TIP3   OH2 8729   2.469   5.168   4.123
 2908TIP3    H1 8730   2.404   5.219   4.173
 2908TIP3    H2 8731   2.477   5.086   4.172
 2909TIP3   OH2 8732   6.268   4.626   1.590
 2909TIP3    H1 8733   6.259   4.599   1.681
 2909TIP3    H2 8734   6.217   4.707   1.584
 2910TIP3   OH2 8735   4.224   1.226   4.375
 2910TIP3    H1 8736   4.309   1.191   4.346
 2910TIP3    H2 8737   4.188   1.156   4.430
 2911TIP3   OH2 8738   3.669   3.891   1.024
 2911TIP3    H1 8739   3.665   3.830   1.098
 2911TIP3    H2 8740   3.681   3.834   0.948
 2912TIP3   OH2 8741   1.609   4.257   5.110
 2912TIP3    H1 8742   1.635   4.186   5.168
 2912TIP3    H2 8743   1.684   4.271   5.053
 2913TIP3   OH2 8744   4.836   1.066   2.277
 2913TIP3    H1 8745   4.848   1.039   2.186
 2913TIP3    H2 8746   4.823   1.160   2.273
 2914TIP3   OH2 8747   0.578   5.838   4.404
 2914TIP3    H1 8748   0.596   5.873   4.316
 2914TIP3    H2 8749   0.664   5.812   4.437
 2915TIP3   OH2 8750   5.775   3.243   4.406
 2915TIP3    H1 8751   5.682   3.227   4.392
 2915TIP3    H2 8752   5.779   3.320   4.462
 2916TIP3   OH2 8753   0.683   5.520   4.400
 2916TIP3    H1 8754   0.641   5.435   4.389
 2916TIP3    H2 8755   0.677   5.538   4.494
 2917TIP3   OH2 8756   0.845   2.832   0.621
 2917TIP3    H1 8757   0.784   2.847   0.694
 2917TIP3    H2 8758   0.930   2.860   0.654
 2918TIP3   OH2 8759   5.053   4.714   0.300
 2918TIP3    H1 8760   5.087   4.625   0.302
 2918TIP3    H2 8761   5.130   4.769   0.288
 2919TIP3   OH2 8762   4.362   0.691   4.482
 2919TIP3    H1 8763   4.366   0.601   4.513
 2919TIP3    H2 8764   4.377   0.745   4.560
 2920TIP3   OH2 8765   6.172   2.768   1.374
 2920TIP3    H1 8766   6.121   2.742   1.298
 2920TIP3    H2 8767   6.248   2.709   1.372
 2921TIP3   OH2 8768   5.908   2.213   0.043
 2921TIP3    H1 8769   5.833   2.219  -0.017
 2921TIP3    H2 8770   5.934   2.304   0.057
 2922TIP3   OH2 8771   6.054   2.003   2.840
 2922TIP3    H1 8772   5.982   1.992   2.778
 2922TIP3    H2 8773   6.091   1.915   2.851
 2923TIP3   OH2 8774   4.612   5.021   3.875
 2923TIP3    H1 8775   4.555   4.950   3.844
 2923TIP3    H2 8776   4.670   5.038   3.801
 2924TIP3   OH2 8777   3.444   3.864   1.879
 2924TIP3    H1 8778   3.483   3.779   1.861
 2924TIP3    H2 8779   3.512   3.927   1.859
 2925TIP3   OH2 8780   4.424   1.691   3.659
 2925TIP3    H1 8781   4.437   1.622   3.724
 2925TIP3    H2 8782   4.509   1.699   3.615
 2926TIP3   OH2 8783   2.609   1.469   5.018
 2926TIP3    H1 8784   2.535   1.438   5.071
 2926TIP3    H2 8785   2.651   1.389   4.987
 2927TIP3   OH2 8786   4.263   1.339   3.128
 2927TIP3    H1 8787   4.214   1.258   3.122
 2927TIP3    H2 8788   4.326   1.335   3.055
 2928TIP3   OH2 8789   0.312   5.958   4.151
 2928TIP3    H1 8790   0.304   5.879   4.097
 2928TIP3    H2 8791   0.296   5.927   4.240
 2929TIP3   OH2 8792   0.797   0.097   1.582
 2929TIP3    H1 8793   0.779   0.051   1.500
 2929TIP3    H2 8794   0.840   0.032   1.637
 2930TIP3   OH2 8795   3.687   0.765   0.148
 2930TIP3    H1 8796   3.632   0.778   0.225
 2930TIP3    H2 8797   3.711   0.672   0.152
 2931TIP3   OH2 8798   6.052   5.862   2.415
 2931TIP3    H1 8799   6.064   5.911   2.334
 2931TIP3    H2 8800   6.008   5.923   2.474
 2932TIP3   OH2 8801   0.244   3.694   0.536
 2932TIP3    H1 8802   0.196   3.682   0.618
 2932TIP3    H2 8803   0.333   3.716   0.562
 2933TIP3   OH2 8804   3.830   5.318   2.124
 2933TIP3    H1 8805   3.764   5.249   2.123
 2933TIP3    H2 8806   3.783   5.397   2.096
 2934TIP3   OH2 8807   0.758   0.759   3.665
 2934TIP3    H1 8808   0.775   0.828   3.601
 2934TIP3    H2 8809   0.791   0.679   3.622
 2935TIP3   OH2 8810   5.734   5.836   3.565
 2935TIP3    H1 8811   5.800   5.766   3.565
 2935TIP3    H2 8812   5.653   5.792   3.592
 2936TIP3   OH2 8813   2.519   4.568   4.503
 2936TIP3    H1 8814   2.485   4.622   4.574
 2936TIP3    H2 8815   2.610   4.551   4.528
 2937TIP3   OH2 8816   0.593   5.056   2.628
 2937TIP3    H1 8817   0.653   5.067   2.553
 2937TIP3    H2 8818   0.573   5.145   2.656
 2938TIP3   OH2 8819   4.347   3.400   2.835
 2938TIP3    H1 8820   4.357   3.440   2.748
 2938TIP3    H2 8821   4.385   3.313   2.826
 2939TIP3   OH2 8822   3.123   5.571   1.698
 2939TIP3    H1 8823   3.189   5.501   1.701
 2939TIP3    H2 8824   3.040   5.525   1.711
 2940TIP3   OH2 8825   4.449   5.171   0.846
 2940TIP3    H1 8826   4.544   5.159   0.834
 2940TIP3    H2 8827   4.412   5.085   0.826
 2941TIP3   OH2 8828   2.472   5.130   1.706
 2941TIP3    H1 8829   2.496   5.038   1.703
 2941TIP3    H2 8830   2.379   5.130   1.731
 2942TIP3   OH2 8831   5.151   1.138   1.372
 2942TIP3    H1 8832   5.236   1.098   1.355
 2942TIP3    H2 8833   5.135   1.195   1.297
 2943TIP3   OH2 8834   1.846   1.860   4.908
 2943TIP3    H1 8835   1.917   1.899   4.857
 2943TIP3    H2 8836   1.768   1.907   4.880
 2944TIP3   OH2 8837   0.033   2.479   2.540
 2944TIP3    H1 8838   0.119   2.442   2.520
 2944TIP3    H2 8839  -0.029   2.420   2.496
 2945TIP3   OH2 8840   3.368   3.941   4.266
 2945TIP3    H1 8841   3.363   3.890   4.346
 2945TIP3    H2 8842   3.277   3.961   4.243
 2946TIP3   OH2 8843   0.063   1.949   2.650
 2946TIP3    H1 8844   0.065   1.931   2.556
 2946TIP3    H2 8845   0.132   2.014   2.664
 2947TIP3   OH2 8846   5.402   1.022   2.104
 2947TIP3    H1 8847   5.322   1.075   2.110
 2947TIP3    H2 8848   5.370   0.934   2.083
 2948TIP3   OH2 8849   5.995   1.065   4.062
 2948TIP3    H1 8850   6.008   1.005   3.988
 2948TIP3    H2 8851   5.903   1.054   4.085
 2949TIP3   OH2 8852   4.725   3.576   4.274
 2949TIP3    H1 8853   4.635   3.596   4.249
 2949TIP3    H2 8854   4.721   3.490   4.316
 2950TIP3   OH2 8855   3.735   1.851   0.796
 2950TIP3    H1 8856   3.655   1.869   0.846
 2950TIP3    H2 8857   3.749   1.929   0.743
 2951TIP3   OH2 8858   0.758   4.582   1.168
 2951TIP3    H1 8859   0.825   4.522   1.136
 2951TIP3    H2 8860   0.780   4.666   1.127
 2952TIP3   OH2 8861   2.975   4.633   3.832
 2952TIP3    H1 8862   3.044   4.661   3.892
 2952TIP3    H2 8863   2.895   4.637   3.886
 2953TIP3   OH2 8864   5.801   5.015   3.546
 2953TIP3    H1 8865   5.751   4.951   3.597
 2953TIP3    H2 8866   5.798   4.982   3.457
 2954TIP3   OH2 8867   4.535   2.649   1.602
 2954TIP3    H1 8868   4.547   2.686   1.515
 2954TIP3    H2 8869   4.618   2.605   1.621
 2955TIP3   OH2 8870   1.609   0.110   3.690
 2955TIP3    H1 8871   1.655   0.057   3.755
 2955TIP3    H2 8872   1.562   0.046   3.636
 2956TIP3   OH2 8873   4.928   5.623   4.107
 2956TIP3    H1 8874   4.983   5.585   4.176
 2956TIP3    H2 8875   4.906   5.550   4.051
 2957TIP3   OH2 8876   4.627   5.354   0.439
 2957TIP3    H1 8877   4.631   5.266   0.478
 2957TIP3    H2 8878   4.673   5.346   0.356
 2958TIP3   OH2 8879   1.169   1.397   2.841
 2958TIP3    H1 8880   1.105   1.338   2.882
 2958TIP3    H2 8881   1.194   1.353   2.760
 2959TIP3   OH2 8882   2.470   4.548   4.233
 2959TIP3    H1 8883   2.478   4.454   4.216
 2959TIP3    H2 8884   2.485   4.556   4.328
 2960TIP3   OH2 8885   0.288   3.394   1.946
 2960TIP3    H1 8886   0.321   3.392   2.035
 2960TIP3    H2 8887   0.239   3.312   1.935
 2961TIP3   OH2 8888   0.410   1.951   0.750
 2961TIP3    H1 8889   0.406   1.884   0.818
 2961TIP3    H2 8890   0.321   1.952   0.713
 2962TIP3   OH2 8891   0.964  -0.011   1.379
 2962TIP3    H1 8892   0.996   0.038   1.454
 2962TIP3    H2 8893   0.953   0.055   1.310
 2963TIP3   OH2 8894   4.453   4.035   4.043
 2963TIP3    H1 8895   4.360   4.053   4.031
 2963TIP3    H2 8896   4.485   4.015   3.955
 2964TIP3   OH2 8897   3.836   3.354   1.058
 2964TIP3    H1 8898   3.868   3.445   1.053
 2964TIP3    H2 8899   3.750   3.357   1.016
 2965TIP3   OH2 8900   3.446   4.701   3.410
 2965TIP3    H1 8901   3.387   4.676   3.338
 2965TIP3    H2 8902   3.530   4.662   3.386
 2966TIP3   OH2 8903   3.431   0.738   4.103
 2966TIP3    H1 8904   3.523   0.718   4.086
 2966TIP3    H2 8905   3.406   0.799   4.034
 2967TIP3   OH2 8906   4.110   3.317   0.287
 2967TIP3    H1 8907   4.196   3.359   0.279
 2967TIP3    H2 8908   4.129   3.226   0.310
 2968TIP3   OH2 8909   4.239   1.426   1.754
 2968TIP3    H1 8910   4.174   1.446   1.687
 2968TIP3    H2 8911   4.245   1.507   1.806
 2969TIP3   OH2 8912   2.374   1.468   4.384
 2969TIP3    H1 8913   2.412   1.497   4.467
 2969TIP3    H2 8914   2.346   1.548   4.340
 2970TIP3   OH2 8915   2.954   3.439   1.638
 2970TIP3    H1 8916   2.985   3.387   1.713
 2970TIP3    H2 8917   2.867   3.404   1.619
 2971TIP3   OH2 8918   5.282   2.599   4.386
 2971TIP3    H1 8919   5.229   2.672   4.352
 2971TIP3    H2 8920   5.366   2.607   4.340
 2972TIP3   OH2 8921   0.365   5.789   3.806
 2972TIP3    H1 8922   0.278   5.818   3.778
 2972TIP3    H2 8923   0.349   5.745   3.890
 2973TIP3   OH2 8924   5.612   4.792   1.648
 2973TIP3    H1 8925   5.683   4.747   1.694
 2973TIP3    H2 8926   5.532   4.763   1.693
 2974TIP3   OH2 8927   4.645   5.364   3.716
 2974TIP3    H1 8928   4.557   5.402   3.711
 2974TIP3    H2 8929   4.639   5.297   3.784
 2975TIP3   OH2 8930   0.577   3.877   3.074
 2975TIP3    H1 8931   0.599   3.949   3.133
 2975TIP3    H2 8932   0.489   3.896   3.043
 2976TIP3   OH2 8933   3.273   1.598   2.915
 2976TIP3    H1 8934   3.316   1.552   2.987
 2976TIP3    H2 8935   3.186   1.559   2.910
 2977TIP3   OH2 8936   2.493   5.213   1.449
 2977TIP3    H1 8937   2.565   5.276   1.450
 2977TIP3    H2 8938   2.484   5.186   1.541
 2978TIP3   OH2 8939   4.548   5.915   2.358
 2978TIP3    H1 8940   4.601   5.921   2.279
 2978TIP3    H2 8941   4.507   5.828   2.352
 2979TIP3   OH2 8942   3.732   5.031  -0.023
 2979TIP3    H1 8943   3.789   4.964   0.014
 2979TIP3    H2 8944   3.653   5.027   0.031
 2980TIP3   OH2 8945   2.564   0.229   4.856
 2980TIP3    H1 8946   2.532   0.144   4.886
 2980TIP3    H2 8947   2.485   0.280   4.839
 2981TIP3   OH2 8948   1.837   1.518   4.637
 2981TIP3    H1 8949   1.896   1.580   4.592
 2981TIP3    H2 8950   1.783   1.573   4.693
 2982TIP3   OH2 8951   1.876   0.173   2.933
 2982TIP3    H1 8952   1.847   0.083   2.944
 2982TIP3    H2 8953   1.817   0.210   2.868
 2983TIP3   OH2 8954   0.719   1.883   1.687
 2983TIP3    H1 8955   0.658   1.830   1.739
 2983TIP3    H2 8956   0.782   1.916   1.751
 2984TIP3   OH2 8957   0.483   0.323   3.304
 2984TIP3    H1 8958   0.483   0.246   3.247
 2984TIP3    H2 8959   0.430   0.297   3.380
 2985TIP3   OH2 8960   4.814   0.901   4.811
 2985TIP3    H1 8961   4.811   0.995   4.794
 2985TIP3    H2 8962   4.723   0.877   4.830
 2986TIP3   OH2 8963   0.282   4.343   0.322
 2986TIP3    H1 8964   0.306   4.308   0.408
 2986TIP3    H2 8965   0.297   4.437   0.329
 2987TIP3   OH2 8966   2.803   2.531   4.242
 2987TIP3    H1 8967   2.889   2.503   4.210
 2987TIP3    H2 8968   2.778   2.464   4.305
 2988TIP3   OH2 8969   0.344   1.314   1.591
 2988TIP3    H1 8970   0.439   1.308   1.601
 2988TIP3    H2 8971   0.310   1.256   1.659
 2989TIP3   OH2 8972   3.932   1.498   0.182
 2989TIP3    H1 8973   3.906   1.590   0.178
 2989TIP3    H2 8974   3.987   1.485   0.105
 2990TIP3   OH2 8975   0.859   4.666   3.734
 2990TIP3    H1 8976   0.795   4.596   3.723
 2990TIP3    H2 8977   0.877   4.697   3.646
 2991TIP3   OH2 8978   1.953   0.266   1.110
 2991TIP3    H1 8979   1.966   0.271   1.205
 2991TIP3    H2 8980   1.886   0.199   1.098
 2992TIP3   OH2 8981   2.821   5.804   4.661
 2992TIP3    H1 8982   2.739   5.818   4.709
 2992TIP3    H2 8983   2.882   5.772   4.728
 2993TIP3   OH2 8984   4.225   1.501   0.029
 2993TIP3    H1 8985   4.312   1.517  -0.007
 2993TIP3    H2 8986   4.178   1.583   0.017
 2994TIP3   OH2 8987   2.698   3.193   1.574
 2994TIP3    H1 8988   2.698   3.104   1.611
 2994TIP3    H2 8989   2.654   3.183   1.490
 2995TIP3   OH2 8990   2.162   4.840   0.239
 2995TIP3    H1 8991   2.152   4.848   0.144
 2995TIP3    H2 8992   2.205   4.921   0.266
 2996TIP3   OH2 8993   2.721   3.913   1.714
 2996TIP3    H1 8994   2.804   3.867   1.724
 2996TIP3    H2 8995   2.655   3.844   1.711
 2997TIP3   OH2 8996   2.927   2.607   3.888
 2997TIP3    H1 8997   2.949   2.564   3.971
 2997TIP3    H2 8998   2.957   2.547   3.821
 2998TIP3   OH2 8999   5.263   3.143   4.944
 2998TIP3    H1 9000   5.340   3.116   4.894
 2998TIP3    H2 9001   5.213   3.198   4.883
 2999TIP3   OH2 9002   5.388   1.408   2.763
 2999TIP3    H1 9003   5.330   1.332   2.758
 2999TIP3    H2 9004   5.415   1.424   2.673
 3000TIP3   OH2 9005   0.993   5.242   0.678
 3000TIP3    H1 9006   1.006   5.323   0.630
 3000TIP3    H2 9007   0.949   5.268   0.759
 3001TIP3   OH2 9008   1.211   0.267   3.368
 3001TIP3    H1 9009   1.131   0.248   3.416
 3001TIP3    H2 9010   1.182   0.308   3.287
 3002TIP3   OH2 9011   3.256   1.770   4.878
 3002TIP3    H1 9012   3.294   1.715   4.946
 3002TIP3    H2 9013   3.198   1.712   4.829
 3003TIP3   OH2 9014   3.699   3.829   0.736
 3003TIP3    H1 9015   3.748   3.767   0.682
 3003TIP3    H2 9016   3.736   3.914   0.714
 3004TIP3   OH2 9017   3.012  -0.008   4.780
 3004TIP3    H1 9018   3.092   0.043   4.790
 3004TIP3    H2 9019   2.941   0.056   4.787
 3005TIP3   OH2 9020   2.502   0.843   0.030
 3005TIP3    H1 9021   2.435   0.853   0.099
 3005TIP3    H2 9022   2.569   0.908   0.051
 3006TIP3   OH2 9023   5.596   2.490   0.118
 3006TIP3    H1 9024   5.553   2.502   0.203
 3006TIP3    H2 9025   5.539   2.429   0.071
 3007TIP3   OH2 9026   6.023   0.337   3.532
 3007TIP3    H1 9027   6.095   0.328   3.469
 3007TIP3    H2 9028   6.005   0.247   3.561
 3008TIP3   OH2 9029   6.062   3.294   2.931
 3008TIP3    H1 9030   6.153   3.286   2.901
 3008TIP3    H2 9031   6.052   3.387   2.952
 3009TIP3   OH2 9032   6.279   5.976   0.188
 3009TIP3    H1 9033   6.263   5.911   0.257
 3009TIP3    H2 9034   6.345   5.935   0.132
 3010TIP3   OH2 9035   0.832  -0.014   4.887
 3010TIP3    H1 9036   0.737  -0.011   4.883
 3010TIP3    H2 9037   0.859   0.076   4.869
 3011TIP3   OH2 9038   4.251   3.490   1.613
 3011TIP3    H1 9039   4.290   3.552   1.675
 3011TIP3    H2 9040   4.283   3.404   1.642
 3012TIP3   OH2 9041   3.272   2.907   2.132
 3012TIP3    H1 9042   3.291   2.822   2.172
 3012TIP3    H2 9043   3.277   2.890   2.038
 3013TIP3   OH2 9044   4.860   0.098   0.229
 3013TIP3    H1 9045   4.821   0.130   0.311
 3013TIP3    H2 9046   4.911   0.022   0.256
 3014TIP3   OH2 9047   2.068   2.285   1.249
 3014TIP3    H1 9048   2.053   2.303   1.342
 3014TIP3    H2 9049   2.164   2.288   1.240
 3015TIP3   OH2 9050   1.907   2.199   2.904
 3015TIP3    H1 9051   1.815   2.223   2.914
 3015TIP3    H2 9052   1.942   2.263   2.841
 3016TIP3   OH2 9053   4.896   0.040   2.612
 3016TIP3    H1 9054   4.900  -0.042   2.563
 3016TIP3    H2 9055   4.964   0.095   2.572
 3017TIP3   OH2 9056   1.899   0.479   4.431
 3017TIP3    H1 9057   1.829   0.536   4.399
 3017TIP3    H2 9058   1.974   0.537   4.442
 3018TIP3   OH2 9059   0.753   5.750   4.880
 3018TIP3    H1 9060   0.796   5.775   4.962
 3018TIP3    H2 9061   0.781   5.816   4.817
 3019TIP3   OH2 9062   3.299   2.459   1.931
 3019TIP3    H1 9063   3.297   2.417   1.845
 3019TIP3    H2 9064   3.312   2.386   1.992
 3020TIP3   OH2 9065   3.633   4.771   2.834
 3020TIP3    H1 9066   3.694   4.719   2.886
 3020TIP3    H2 9067   3.687   4.814   2.768
 3021TIP3   OH2 9068   0.841   4.017   0.319
 3021TIP3    H1 9069   0.885   4.098   0.293
 3021TIP3    H2 9070   0.765   4.047   0.370
 3022TIP3   OH2 9071   3.052   5.772   1.022
 3022TIP3    H1 9072   2.993   5.712   1.068
 3022TIP3    H2 9073   3.027   5.859   1.054
 3023TIP3   OH2 9074   0.865   4.964   3.785
 3023TIP3    H1 9075   0.849   4.869   3.788
 3023TIP3    H2 9076   0.953   4.971   3.747
 3024TIP3   OH2 9077   0.687   2.323   1.293
 3024TIP3    H1 9078   0.747   2.394   1.269
 3024TIP3    H2 9079   0.638   2.304   1.213
 3025TIP3   OH2 9080   1.268   2.020   1.978
 3025TIP3    H1 9081   1.275   1.950   1.913
 3025TIP3    H2 9082   1.198   2.076   1.945
 3026TIP3   OH2 9083   1.423   2.466   3.002
 3026TIP3    H1 9084   1.370   2.457   2.922
 3026TIP3    H2 9085   1.360   2.456   3.073
 3027TIP3   OH2 9086   2.182   0.490   0.827
 3027TIP3    H1 9087   2.199   0.493   0.921
 3027TIP3    H2 9088   2.159   0.580   0.804
 3028TIP3   OH2 9089   6.309   1.609   4.014
 3028TIP3    H1 9090   6.237   1.637   4.071
 3028TIP3    H2 9091   6.352   1.539   4.062
 3029TIP3   OH2 9092   0.860   3.961   5.083
 3029TIP3    H1 9093   0.819   4.027   5.028
 3029TIP3    H2 9094   0.951   3.989   5.090
 3030TIP3   OH2 9095   4.748   0.531   4.665
 3030TIP3    H1 9096   4.829   0.512   4.713
 3030TIP3    H2 9097   4.736   0.454   4.609
 3031TIP3   OH2 9098   4.776   2.157   0.628
 3031TIP3    H1 9099   4.867   2.159   0.597
 3031TIP3    H2 9100   4.758   2.247   0.655
 3032TIP3   OH2 9101   4.032   1.995   3.361
 3032TIP3    H1 9102   4.010   2.054   3.434
 3032TIP3    H2 9103   3.983   2.030   3.287
 3033TIP3   OH2 9104   4.190   4.114   0.078
 3033TIP3    H1 9105   4.165   4.031   0.037
 3033TIP3    H2 9106   4.243   4.158   0.012
 3034TIP3   OH2 9107   5.151   2.927   5.043
 3034TIP3    H1 9108   5.120   2.872   4.971
 3034TIP3    H2 9109   5.221   2.980   5.004
 3035TIP3   OH2 9110   2.426   2.765   1.140
 3035TIP3    H1 9111   2.451   2.675   1.162
 3035TIP3    H2 9112   2.331   2.766   1.147
 3036TIP3   OH2 9113   2.064   4.573   3.076
 3036TIP3    H1 9114   1.970   4.587   3.090
 3036TIP3    H2 9115   2.069   4.495   3.020
 3037TIP3   OH2 9116   1.762   4.820   2.347
 3037TIP3    H1 9117   1.714   4.868   2.279
 3037TIP3    H2 9118   1.743   4.867   2.428
 3038TIP3   OH2 9119   1.998   2.699   4.679
 3038TIP3    H1 9120   2.044   2.686   4.596
 3038TIP3    H2 9121   1.963   2.612   4.700
 3039TIP3   OH2 9122   3.400   5.011   2.169
 3039TIP3    H1 9123   3.312   5.023   2.205
 3039TIP3    H2 9124   3.392   5.034   2.077
 3040TIP3   OH2 9125   1.647   2.529   1.728
 3040TIP3    H1 9126   1.733   2.548   1.690
 3040TIP3    H2 9127   1.604   2.614   1.733
 3041TIP3   OH2 9128   4.288   0.562   0.760
 3041TIP3    H1 9129   4.208   0.512   0.775
 3041TIP3    H2 9130   4.358   0.496   0.754
 3042TIP3   OH2 9131   4.316   1.778   1.553
 3042TIP3    H1 9132   4.301   1.767   1.646
 3042TIP3    H2 9133   4.231   1.806   1.517
 3043TIP3   OH2 9134   0.461   5.818   4.681
 3043TIP3    H1 9135   0.551   5.803   4.709
 3043TIP3    H2 9136   0.463   5.810   4.585
 3044TIP3   OH2 9137   3.813   3.783   2.579
 3044TIP3    H1 9138   3.828   3.704   2.631
 3044TIP3    H2 9139   3.786   3.750   2.493
 3045TIP3   OH2 9140   2.868   3.577   0.445
 3045TIP3    H1 9141   2.950   3.598   0.400
 3045TIP3    H2 9142   2.875   3.620   0.530
 3046TIP3   OH2 9143   0.160   1.344   5.060
 3046TIP3    H1 9144   0.219   1.394   5.116
 3046TIP3    H2 9145   0.164   1.255   5.094
 3047TIP3   OH2 9146   2.074   1.641   4.855
 3047TIP3    H1 9147   1.989   1.684   4.850
 3047TIP3    H2 9148   2.122   1.675   4.780
 3048TIP3   OH2 9149   3.627   2.125   4.643
 3048TIP3    H1 9150   3.579   2.199   4.679
 3048TIP3    H2 9151   3.694   2.105   4.708
 3049TIP3   OH2 9152   3.960   2.329   3.150
 3049TIP3    H1 9153   3.959   2.245   3.104
 3049TIP3    H2 9154   3.989   2.308   3.239
 3050TIP3   OH2 9155   1.025   5.436   3.296
 3050TIP3    H1 9156   1.014   5.403   3.385
 3050TIP3    H2 9157   1.094   5.381   3.258
 3051TIP3   OH2 9158   6.020   0.373   1.684
 3051TIP3    H1 9159   6.036   0.282   1.711
 3051TIP3    H2 9160   6.072   0.425   1.745
 3052TIP3   OH2 9161   6.261   3.624   5.030
 3052TIP3    H1 9162   6.203   3.626   4.954
 3052TIP3    H2 9163   6.207   3.655   5.102
 3053TIP3   OH2 9164   5.942   0.719   1.649
 3053TIP3    H1 9165   5.862   0.668   1.659
 3053TIP3    H2 9166   5.915   0.798   1.603
 3054TIP3   OH2 9167   3.376   1.780   3.724
 3054TIP3    H1 9168   3.382   1.837   3.647
 3054TIP3    H2 9169   3.441   1.711   3.709
 3055TIP3   OH2 9170   4.617   4.481   4.873
 3055TIP3    H1 9171   4.688   4.524   4.824
 3055TIP3    H2 9172   4.616   4.392   4.839
 3056TIP3   OH2 9173   2.287   5.154   3.099
 3056TIP3    H1 9174   2.314   5.095   3.028
 3056TIP3    H2 9175   2.216   5.107   3.143
 3057TIP3   OH2 9176   5.162   4.041   5.155
 3057TIP3    H1 9177   5.072   4.018   5.133
 3057TIP3    H2 9178   5.197   4.081   5.076
 3058TIP3   OH2 9179   4.987   2.032   1.267
 3058TIP3    H1 9180   4.893   2.021   1.257
 3058TIP3    H2 9181   4.997   2.113   1.316
 3059TIP3   OH2 9182   2.294   3.232   3.024
 3059TIP3    H1 9183   2.235   3.156   3.032
 3059TIP3    H2 9184   2.311   3.239   2.931
 3060TIP3   OH2 9185   3.538   3.017   2.231
 3060TIP3    H1 9186   3.587   2.972   2.300
 3060TIP3    H2 9187   3.447   2.996   2.248
 3061TIP3   OH2 9188   3.484   2.322   4.759
 3061TIP3    H1 9189   3.501   2.415   4.742
 3061TIP3    H2 9190   3.389   2.313   4.752
 3062TIP3   OH2 9191   4.460   3.578   4.651
 3062TIP3    H1 9192   4.430   3.575   4.560
 3062TIP3    H2 9193   4.553   3.599   4.645
 3063TIP3   OH2 9194   1.227   1.169   1.396
 3063TIP3    H1 9195   1.224   1.163   1.492
 3063TIP3    H2 9196   1.296   1.108   1.370
 3064TIP3   OH2 9197   1.675   4.422   2.542
 3064TIP3    H1 9198   1.702   4.417   2.634
 3064TIP3    H2 9199   1.606   4.356   2.533
 3065TIP3   OH2 9200   0.279   2.965   2.573
 3065TIP3    H1 9201   0.324   2.933   2.651
 3065TIP3    H2 9202   0.189   2.936   2.584
 3066TIP3   OH2 9203   0.989   1.610   3.994
 3066TIP3    H1 9204   1.068   1.653   4.028
 3066TIP3    H2 9205   0.921   1.678   3.999
 3067TIP3   OH2 9206   2.997   0.521   3.335
 3067TIP3    H1 9207   2.925   0.466   3.304
 3067TIP3    H2 9208   3.016   0.579   3.261
 3068TIP3   OH2 9209   2.721   4.368   1.420
 3068TIP3    H1 9210   2.628   4.389   1.415
 3068TIP3    H2 9211   2.729   4.312   1.498
 3069TIP3   OH2 9212   2.713   2.454   5.095
 3069TIP3    H1 9213   2.683   2.468   5.005
 3069TIP3    H2 9214   2.753   2.367   5.093
 3070TIP3   OH2 9215   3.505   1.123   5.110
 3070TIP3    H1 9216   3.563   1.102   5.184
 3070TIP3    H2 9217   3.536   1.068   5.038
 3071TIP3   OH2 9218   6.156   1.839   1.391
 3071TIP3    H1 9219   6.116   1.775   1.332
 3071TIP3    H2 9220   6.247   1.811   1.398
 3072TIP3   OH2 9221   1.967   5.755   0.970
 3072TIP3    H1 9222   2.011   5.670   0.967
 3072TIP3    H2 9223   1.922   5.761   0.886
 3073TIP3   OH2 9224   5.934   2.332   4.608
 3073TIP3    H1 9225   5.930   2.239   4.587
 3073TIP3    H2 9226   5.988   2.370   4.539
 3074TIP3   OH2 9227   5.602   5.372   3.561
 3074TIP3    H1 9228   5.690   5.389   3.593
 3074TIP3    H2 9229   5.614   5.338   3.473
 3075TIP3   OH2 9230   1.076   3.889   3.696
 3075TIP3    H1 9231   1.114   3.842   3.770
 3075TIP3    H2 9232   1.148   3.899   3.634
 3076TIP3   OH2 9233   4.048   3.224   1.561
 3076TIP3    H1 9234   4.137   3.259   1.565
 3076TIP3    H2 9235   4.039   3.193   1.471
 3077TIP3   OH2 9236   0.381   5.434   0.511
 3077TIP3    H1 9237   0.433   5.372   0.563
 3077TIP3    H2 9238   0.293   5.429   0.549
 3078TIP3   OH2 9239   2.954   1.983   0.588
 3078TIP3    H1 9240   2.958   2.073   0.619
 3078TIP3    H2 9241   2.862   1.957   0.599
 3079TIP3   OH2 9242   1.915   4.342   1.353
 3079TIP3    H1 9243   1.966   4.262   1.366
 3079TIP3    H2 9244   1.966   4.394   1.292
 3080TIP3   OH2 9245   0.284   4.501   4.410
 3080TIP3    H1 9246   0.377   4.481   4.421
 3080TIP3    H2 9247   0.261   4.554   4.486
 3081TIP3   OH2 9248   1.999   3.603   4.413
 3081TIP3    H1 9249   2.017   3.545   4.339
 3081TIP3    H2 9250   1.972   3.686   4.373
 3082TIP3   OH2 9251   3.176   5.301   2.276
 3082TIP3    H1 9252   3.167   5.208   2.300
 3082TIP3    H2 9253   3.237   5.337   2.341
 3083TIP3   OH2 9254   0.750   5.020   4.413
 3083TIP3    H1 9255   0.812   5.033   4.342
 3083TIP3    H2 9256   0.794   5.057   4.490
 3084TIP3   OH2 9257   4.642   0.833   1.112
 3084TIP3    H1 9258   4.624   0.917   1.068
 3084TIP3    H2 9259   4.572   0.775   1.081
 3085TIP3   OH2 9260   0.996   5.652   2.553
 3085TIP3    H1 9261   0.914   5.698   2.536
 3085TIP3    H2 9262   0.992   5.629   2.646
 3086TIP3   OH2 9263   5.233   2.973   1.839
 3086TIP3    H1 9264   5.259   3.004   1.752
 3086TIP3    H2 9265   5.243   2.878   1.835
 3087TIP3   OH2 9266   1.372   4.670   0.067
 3087TIP3    H1 9267   1.329   4.732   0.126
 3087TIP3    H2 9268   1.344   4.584   0.099
 3088TIP3   OH2 9269   2.354   0.592   4.541
 3088TIP3    H1 9270   2.368   0.661   4.607
 3088TIP3    H2 9271   2.280   0.624   4.489
 3089TIP3   OH2 9272   2.076   2.356   2.747
 3089TIP3    H1 9273   2.119   2.426   2.795
 3089TIP3    H2 9274   2.127   2.346   2.667
 3090TIP3   OH2 9275   2.106   2.370   3.776
 3090TIP3    H1 9276   2.188   2.342   3.816
 3090TIP3    H2 9277   2.045   2.378   3.849
 3091TIP3   OH2 9278   5.325   2.999   4.118
 3091TIP3    H1 9279   5.295   2.989   4.028
 3091TIP3    H2 9280   5.400   2.940   4.125
 3092TIP3   OH2 9281   3.549   4.086   5.054
 3092TIP3    H1 9282   3.624   4.046   5.010
 3092TIP3    H2 9283   3.580   4.104   5.143
 3093TIP3   OH2 9284   5.815   1.413   1.510
 3093TIP3    H1 9285   5.863   1.361   1.447
 3093TIP3    H2 9286   5.764   1.350   1.561
 3094TIP3   OH2 9287   3.181   0.849   4.156
 3094TIP3    H1 9288   3.164   0.886   4.243
 3094TIP3    H2 9289   3.255   0.790   4.169
 3095TIP3   OH2 9290   4.361   1.144   2.489
 3095TIP3    H1 9291   4.329   1.234   2.494
 3095TIP3    H2 9292   4.395   1.126   2.577
 3096TIP3   OH2 9293   1.516   2.580   3.344
 3096TIP3    H1 9294   1.465   2.660   3.330
 3096TIP3    H2 9295   1.525   2.575   3.439
 3097TIP3   OH2 9296   1.070   3.633   0.500
 3097TIP3    H1 9297   1.013   3.643   0.424
 3097TIP3    H2 9298   1.155   3.606   0.464
 3098TIP3   OH2 9299   4.352   3.696   2.719
 3098TIP3    H1 9300   4.384   3.634   2.655
 3098TIP3    H2 9301   4.406   3.774   2.706
 3099TIP3   OH2 9302   2.336   2.240   1.093
 3099TIP3    H1 9303   2.431   2.243   1.107
 3099TIP3    H2 9304   2.311   2.151   1.118
 3100TIP3   OH2 9305   5.489   1.433   0.858
 3100TIP3    H1 9306   5.563   1.373   0.853
 3100TIP3    H2 9307   5.516   1.498   0.922
 3101TIP3   OH2 9308   1.889   1.239   3.049
 3101TIP3    H1 9309   1.848   1.165   3.095
 3101TIP3    H2 9310   1.970   1.203   3.014
 3102TIP3   OH2 9311   1.530   0.004   2.190
 3102TIP3    H1 9312   1.494  -0.073   2.146
 3102TIP3    H2 9313   1.490   0.078   2.145
 3103TIP3   OH2 9314   6.148   1.806   4.149
 3103TIP3    H1 9315   6.059   1.838   4.161
 3103TIP3    H2 9316   6.184   1.800   4.238
 3104TIP3   OH2 9317   2.860   1.694   0.279
 3104TIP3    H1 9318   2.837   1.610   0.241
 3104TIP3    H2 9319   2.884   1.749   0.205
 3105TIP3   OH2 9320   1.902   2.438   3.956
 3105TIP3    H1 9321   1.876   2.516   3.908
 3105TIP3    H2 9322   1.822   2.385   3.961
 3106TIP3   OH2 9323   1.110   4.533   0.162
 3106TIP3    H1 9324   1.097   4.616   0.116
 3106TIP3    H2 9325   1.082   4.550   0.252
 3107TIP3   OH2 9326   0.355   5.167   3.839
 3107TIP3    H1 9327   0.322   5.204   3.921
 3107TIP3    H2 9328   0.305   5.211   3.771
 3108TIP3   OH2 9329   6.137   1.202   2.686
 3108TIP3    H1 9330   6.060   1.241   2.645
 3108TIP3    H2 9331   6.107   1.118   2.721
 3109TIP3   OH2 9332   6.122   0.929   2.454
 3109TIP3    H1 9333   6.179   0.991   2.498
 3109TIP3    H2 9334   6.040   0.933   2.504
 3110TIP3   OH2 9335   5.880   5.617   3.587
 3110TIP3    H1 9336   5.958   5.672   3.598
 3110TIP3    H2 9337   5.916   5.531   3.563
 3111TIP3   OH2 9338   4.574   0.212   1.017
 3111TIP3    H1 9339   4.537   0.153   1.082
 3111TIP3    H2 9340   4.574   0.298   1.059
 3112TIP3   OH2 9341   4.484   5.008   2.799
 3112TIP3    H1 9342   4.573   4.983   2.825
 3112TIP3    H2 9343   4.432   4.929   2.814
 3113TIP3   OH2 9344   5.275   4.595   3.770
 3113TIP3    H1 9345   5.310   4.512   3.804
 3113TIP3    H2 9346   5.352   4.649   3.753
 3114TIP3   OH2 9347   2.202   3.500   2.037
 3114TIP3    H1 9348   2.163   3.583   2.012
 3114TIP3    H2 9349   2.131   3.436   2.028
 3115TIP3   OH2 9350   4.609   3.041   2.575
 3115TIP3    H1 9351   4.635   3.133   2.581
 3115TIP3    H2 9352   4.516   3.044   2.550
 3116TIP3   OH2 9353   0.756   5.427   0.493
 3116TIP3    H1 9354   0.711   5.439   0.410
 3116TIP3    H2 9355   0.696   5.375   0.546
 3117TIP3   OH2 9356   0.161   3.906   0.101
 3117TIP3    H1 9357   0.195   3.957   0.175
 3117TIP3    H2 9358   0.187   3.816   0.120
 3118TIP3   OH2 9359   4.422   2.874   0.792
 3118TIP3    H1 9360   4.370   2.951   0.768
 3118TIP3    H2 9361   4.396   2.856   0.882
 3119TIP3   OH2 9362   5.768   3.530   0.861
 3119TIP3    H1 9363   5.793   3.458   0.918
 3119TIP3    H2 9364   5.673   3.534   0.869
 3120TIP3   OH2 9365   0.771   3.447   5.118
 3120TIP3    H1 9366   0.804   3.424   5.031
 3120TIP3    H2 9367   0.728   3.367   5.149
 3121TIP3   OH2 9368   3.429   4.075   3.071
 3121TIP3    H1 9369   3.434   4.127   3.151
 3121TIP3    H2 9370   3.361   4.116   3.019
 3122TIP3   OH2 9371   5.137   1.102   2.271
 3122TIP3    H1 9372   5.041   1.105   2.273
 3122TIP3    H2 9373   5.158   1.019   2.315
 3123TIP3   OH2 9374   5.025   3.014   2.222
 3123TIP3    H1 9375   5.086   3.062   2.278
 3123TIP3    H2 9376   5.042   3.049   2.134
 3124TIP3   OH2 9377   5.492   2.589   4.734
 3124TIP3    H1 9378   5.532   2.527   4.674
 3124TIP3    H2 9379   5.511   2.554   4.821
 3125TIP3   OH2 9380   5.014   1.498   3.948
 3125TIP3    H1 9381   5.110   1.499   3.945
 3125TIP3    H2 9382   4.990   1.590   3.960
 3126TIP3   OH2 9383   3.404   0.111   3.224
 3126TIP3    H1 9384   3.435   0.181   3.167
 3126TIP3    H2 9385   3.334   0.068   3.174
 3127TIP3   OH2 9386   2.606   5.143   2.776
 3127TIP3    H1 9387   2.687   5.095   2.793
 3127TIP3    H2 9388   2.635   5.225   2.738
 3128TIP3   OH2 9389   3.148   1.423   4.471
 3128TIP3    H1 9390   3.221   1.364   4.455
 3128TIP3    H2 9391   3.187   1.498   4.514
 3129TIP3   OH2 9392   2.361   5.630   0.939
 3129TIP3    H1 9393   2.383   5.612   0.848
 3129TIP3    H2 9394   2.336   5.545   0.976
 3130TIP3   OH2 9395   5.708   3.021   2.179
 3130TIP3    H1 9396   5.695   3.106   2.221
 3130TIP3    H2 9397   5.683   2.957   2.246
 3131TIP3   OH2 9398   3.358   3.359   3.377
 3131TIP3    H1 9399   3.329   3.290   3.317
 3131TIP3    H2 9400   3.440   3.325   3.414
 3132TIP3   OH2 9401   3.700   4.715   3.596
 3132TIP3    H1 9402   3.708   4.688   3.504
 3132TIP3    H2 9403   3.621   4.671   3.627
 3133TIP3   OH2 9404   1.245   0.316   4.100
 3133TIP3    H1 9405   1.177   0.300   4.035
 3133TIP3    H2 9406   1.199   0.331   4.182
 3134TIP3   OH2 9407   3.057   0.624   4.926
 3134TIP3    H1 9408   3.087   0.645   5.014
 3134TIP3    H2 9409   3.019   0.705   4.893
 3135TIP3   OH2 9410   5.124   4.940   3.529
 3135TIP3    H1 9411   5.203   4.909   3.484
 3135TIP3    H2 9412   5.053   4.921   3.468
 3136TIP3   OH2 9413   5.674   2.127   2.373
 3136TIP3    H1 9414   5.629   2.081   2.302
 3136TIP3    H2 9415   5.626   2.103   2.452
 3137TIP3   OH2 9416   1.365   4.315   4.740
 3137TIP3    H1 9417   1.299   4.342   4.676
 3137TIP3    H2 9418   1.404   4.236   4.702
 3138TIP3   OH2 9419   5.685   2.394   2.385
 3138TIP3    H1 9420   5.621   2.427   2.447
 3138TIP3    H2 9421   5.661   2.302   2.372
 3139TIP3   OH2 9422   3.892   1.813   2.513
 3139TIP3    H1 9423   3.872   1.870   2.587
 3139TIP3    H2 9424   3.811   1.810   2.462
 3140TIP3   OH2 9425   3.189   4.641   4.295
 3140TIP3    H1 9426   3.107   4.603   4.327
 3140TIP3    H2 9427   3.203   4.601   4.210
 3141TIP3   OH2 9428   1.117   2.116   2.337
 3141TIP3    H1 9429   1.208   2.115   2.307
 3141TIP3    H2 9430   1.108   2.200   2.383
 3142TIP3   OH2 9431   5.680   4.140   2.064
 3142TIP3    H1 9432   5.676   4.060   2.012
 3142TIP3    H2 9433   5.596   4.143   2.111
 3143TIP3   OH2 9434   6.077   1.178   5.098
 3143TIP3    H1 9435   6.101   1.259   5.143
 3143TIP3    H2 9436   6.147   1.164   5.034
 3144TIP3   OH2 9437   5.254   3.790   4.414
 3144TIP3    H1 9438   5.325   3.850   4.391
 3144TIP3    H2 9439   5.191   3.845   4.461
 3145TIP3   OH2 9440   4.206   3.315   2.376
 3145TIP3    H1 9441   4.142   3.324   2.305
 3145TIP3    H2 9442   4.190   3.227   2.411
 3146TIP3   OH2 9443   1.716   3.312   1.991
 3146TIP3    H1 9444   1.732   3.273   2.077
 3146TIP3    H2 9445   1.622   3.305   1.978
 3147TIP3   OH2 9446   3.339   0.491   0.887
 3147TIP3    H1 9447   3.351   0.481   0.793
 3147TIP3    H2 9448   3.251   0.528   0.897
 3148TIP3   OH2 9449   2.648   0.878   4.900
 3148TIP3    H1 9450   2.623   0.809   4.838
 3148TIP3    H2 9451   2.729   0.914   4.865
 3149TIP3   OH2 9452   3.118   5.630   3.482
 3149TIP3    H1 9453   3.083   5.675   3.558
 3149TIP3    H2 9454   3.097   5.687   3.408
 3150TIP3   OH2 9455   2.338   4.233   0.573
 3150TIP3    H1 9456   2.371   4.295   0.638
 3150TIP3    H2 9457   2.407   4.229   0.507
 3151TIP3   OH2 9458   0.793   2.289   5.160
 3151TIP3    H1 9459   0.860   2.247   5.106
 3151TIP3    H2 9460   0.841   2.358   5.208
 3152TIP3   OH2 9461   2.300   3.023   4.458
 3152TIP3    H1 9462   2.366   2.992   4.396
 3152TIP3    H2 9463   2.347   3.088   4.512
 3153TIP3   OH2 9464   5.001   3.839   3.370
 3153TIP3    H1 9465   4.990   3.812   3.279
 3153TIP3    H2 9466   5.012   3.934   3.365
 3154TIP3   OH2 9467   2.900   2.701   1.185
 3154TIP3    H1 9468   2.884   2.665   1.098
 3154TIP3    H2 9469   2.994   2.689   1.200
 3155TIP3   OH2 9470   3.798   0.331   1.008
 3155TIP3    H1 9471   3.814   0.249   0.962
 3155TIP3    H2 9472   3.735   0.308   1.076
 3156TIP3   OH2 9473   0.849   0.880   2.330
 3156TIP3    H1 9474   0.870   0.825   2.254
 3156TIP3    H2 9475   0.929   0.878   2.383
 3157TIP3   OH2 9476   1.462   1.660   3.004
 3157TIP3    H1 9477   1.489   1.652   3.095
 3157TIP3    H2 9478   1.380   1.709   3.008
 3158TIP3   OH2 9479   4.468   5.004   3.384
 3158TIP3    H1 9480   4.451   5.058   3.461
 3158TIP3    H2 9481   4.552   4.962   3.402
 3159TIP3   OH2 9482   6.284   3.344   3.230
 3159TIP3    H1 9483   6.243   3.264   3.262
 3159TIP3    H2 9484   6.280   3.337   3.135
 3160TIP3   OH2 9485   5.345   2.755   0.103
 3160TIP3    H1 9486   5.338   2.851   0.105
 3160TIP3    H2 9487   5.438   2.738   0.119
 3161TIP3   OH2 9488   0.454   3.795   2.712
 3161TIP3    H1 9489   0.469   3.715   2.762
 3161TIP3    H2 9490   0.453   3.767   2.620
 3162TIP3   OH2 9491   4.778   2.771   1.010
 3162TIP3    H1 9492   4.851   2.763   1.071
 3162TIP3    H2 9493   4.818   2.801   0.928
 3163TIP3   OH2 9494   1.740   5.574   1.724
 3163TIP3    H1 9495   1.734   5.490   1.770
 3163TIP3    H2 9496   1.829   5.604   1.742
 3164TIP3   OH2 9497   2.198   3.989   0.594
 3164TIP3    H1 9498   2.218   4.082   0.600
 3164TIP3    H2 9499   2.283   3.947   0.582
 3165TIP3   OH2 9500   0.235   1.217   0.091
 3165TIP3    H1 9501   0.327   1.240   0.102
 3165TIP3    H2 9502   0.206   1.267   0.014
 3166TIP3   OH2 9503   5.825   2.026   0.788
 3166TIP3    H1 9504   5.894   2.083   0.821
 3166TIP3    H2 9505   5.853   2.003   0.700
 3167TIP3   OH2 9506   3.371   4.095   2.741
 3167TIP3    H1 9507   3.388   4.006   2.709
 3167TIP3    H2 9508   3.327   4.082   2.825
 3168TIP3   OH2 9509   3.029   0.373   4.071
 3168TIP3    H1 9510   2.938   0.362   4.100
 3168TIP3    H2 9511   3.046   0.466   4.082
 3169TIP3   OH2 9512   2.209   3.397   4.601
 3169TIP3    H1 9513   2.123   3.356   4.605
 3169TIP3    H2 9514   2.271   3.324   4.599
 3170TIP3   OH2 9515   0.999   5.344   3.708
 3170TIP3    H1 9516   0.915   5.353   3.664
 3170TIP3    H2 9517   1.058   5.402   3.658
 3171TIP3   OH2 9518   4.008   0.735   2.408
 3171TIP3    H1 9519   4.090   0.762   2.449
 3171TIP3    H2 9520   4.009   0.775   2.322
 3172TIP3   OH2 9521   5.101   1.853   0.304
 3172TIP3    H1 9522   5.071   1.820   0.389
 3172TIP3    H2 9523   5.097   1.777   0.246
 3173TIP3   OH2 9524   2.604   4.727   0.159
 3173TIP3    H1 9525   2.640   4.762   0.240
 3173TIP3    H2 9526   2.680   4.698   0.109
 3174TIP3   OH2 9527   2.837   5.732   2.748
 3174TIP3    H1 9528   2.744   5.751   2.760
 3174TIP3    H2 9529   2.849   5.734   2.653
 3175TIP3   OH2 9530   4.576   1.639   0.942
 3175TIP3    H1 9531   4.630   1.590   1.003
 3175TIP3    H2 9532   4.486   1.622   0.971
 3176TIP3   OH2 9533   2.875   0.729   2.822
 3176TIP3    H1 9534   2.884   0.762   2.733
 3176TIP3    H2 9535   2.795   0.770   2.855
 3177TIP3   OH2 9536   0.547   2.662   4.348
 3177TIP3    H1 9537   0.486   2.593   4.373
 3177TIP3    H2 9538   0.526   2.682   4.257
 3178TIP3   OH2 9539   5.413   0.535   2.483
 3178TIP3    H1 9540   5.469   0.534   2.406
 3178TIP3    H2 9541   5.472   0.554   2.556
 3179TIP3   OH2 9542   3.863   0.268   5.148
 3179TIP3    H1 9543   3.935   0.327   5.126
 3179TIP3    H2 9544   3.883   0.236   5.236
 3180TIP3   OH2 9545   3.417   3.543   1.954
 3180TIP3    H1 9546   3.414   3.591   2.037
 3180TIP3    H2 9547   3.405   3.451   1.978
 3181TIP3   OH2 9548   0.107   4.142   3.070
 3181TIP3    H1 9549   0.175   4.127   3.136
 3181TIP3    H2 9550   0.122   4.233   3.042
 3182TIP3   OH2 9551   5.344   1.996   4.908
 3182TIP3    H1 9552   5.409   2.030   4.846
 3182TIP3    H2 9553   5.360   1.902   4.911
 3183TIP3   OH2 9554   3.060   0.122   1.614
 3183TIP3    H1 9555   3.058   0.212   1.583
 3183TIP3    H2 9556   3.114   0.076   1.549
 3184TIP3   OH2 9557   3.814   1.368   1.767
 3184TIP3    H1 9558   3.874   1.343   1.837
 3184TIP3    H2 9559   3.730   1.332   1.794
 3185TIP3   OH2 9560   5.434   3.118   2.734
 3185TIP3    H1 9561   5.518   3.163   2.746
 3185TIP3    H2 9562   5.430   3.100   2.640
 3186TIP3   OH2 9563   0.878   4.889   1.374
 3186TIP3    H1 9564   0.787   4.895   1.344
 3186TIP3    H2 9565   0.873   4.838   1.455
 3187TIP3   OH2 9566   1.480   0.277   2.098
 3187TIP3    H1 9567   1.394   0.313   2.076
 3187TIP3    H2 9568   1.536   0.354   2.108
 3188TIP3   OH2 9569   0.191   2.955   4.817
 3188TIP3    H1 9570   0.263   2.905   4.779
 3188TIP3    H2 9571   0.130   2.889   4.849
 3189TIP3   OH2 9572   0.550   0.267   4.292
 3189TIP3    H1 9573   0.503   0.348   4.312
 3189TIP3    H2 9574   0.506   0.200   4.345
 3190TIP3   OH2 9575   0.357   0.591   2.270
 3190TIP3    H1 9576   0.315   0.635   2.196
 3190TIP3    H2 9577   0.402   0.516   2.231
 3191TIP3   OH2 9578   3.219   0.730   0.471
 3191TIP3    H1 9579   3.167   0.810   0.461
 3191TIP3    H2 9580   3.296   0.758   0.520
 3192TIP3   OH2 9581   0.146   0.433   2.478
 3192TIP3    H1 9582   0.214   0.490   2.442
 3192TIP3    H2 9583   0.086   0.494   2.523
 3193TIP3   OH2 9584   0.665   4.051   4.339
 3193TIP3    H1 9585   0.645   4.144   4.348
 3193TIP3    H2 9586   0.681   4.021   4.428
 3194TIP3   OH2 9587   4.886   1.682   4.324
 3194TIP3    H1 9588   4.911   1.759   4.375
 3194TIP3    H2 9589   4.961   1.667   4.266
 3195TIP3   OH2 9590   1.660   3.815   4.653
 3195TIP3    H1 9591   1.748   3.849   4.636
 3195TIP3    H2 9592   1.607   3.851   4.582
 3196TIP3   OH2 9593   5.074   2.810   4.816
 3196TIP3    H1 9594   5.106   2.740   4.760
 3196TIP3    H2 9595   5.069   2.886   4.758
 3197TIP3   OH2 9596   4.031   2.635   3.134
 3197TIP3    H1 9597   3.990   2.549   3.130
 3197TIP3    H2 9598   4.116   2.623   3.091
 3198TIP3   OH2 9599   5.273   3.016   3.494
 3198TIP3    H1 9600   5.321   2.939   3.463
 3198TIP3    H2 9601   5.183   2.986   3.504
 3199TIP3   OH2 9602   5.013   3.549   1.617
 3199TIP3    H1 9603   5.075   3.478   1.603
 3199TIP3    H2 9604   4.945   3.536   1.552
 3200TIP3   OH2 9605   6.203   0.085   3.889
 3200TIP3    H1 9606   6.270   0.115   3.951
 3200TIP3    H2 9607   6.252   0.039   3.821
 3201TIP3   OH2 9608   2.126   3.502   3.904
 3201TIP3    H1 9609   2.100   3.416   3.871
 3201TIP3    H2 9610   2.157   3.549   3.827
 3202TIP3   OH2 9611   0.683   5.838   1.077
 3202TIP3    H1 9612   0.739   5.852   1.001
 3202TIP3    H2 9613   0.736   5.865   1.152
 3203TIP3   OH2 9614   4.140   1.092   3.136
 3203TIP3    H1 9615   4.112   1.012   3.180
 3203TIP3    H2 9616   4.155   1.067   3.045
 3204TIP3   OH2 9617   2.870   5.932   0.771
 3204TIP3    H1 9618   2.808   5.887   0.828
 3204TIP3    H2 9619   2.919   5.990   0.830
 3205TIP3   OH2 9620   0.773   2.249   4.845
 3205TIP3    H1 9621   0.826   2.292   4.912
 3205TIP3    H2 9622   0.746   2.320   4.786
 3206TIP3   OH2 9623   0.236   3.378   2.448
 3206TIP3    H1 9624   0.253   3.364   2.355
 3206TIP3    H2 9625   0.315   3.347   2.492
 3207TIP3   OH2 9626   2.911   3.738   2.018
 3207TIP3    H1 9627   2.833   3.682   2.013
 3207TIP3    H2 9628   2.939   3.746   1.927
 3208TIP3   OH2 9629   2.974   4.257   1.312
 3208TIP3    H1 9630   3.002   4.343   1.283
 3208TIP3    H2 9631   2.893   4.273   1.361
 3209TIP3   OH2 9632   0.874   1.289   0.477
 3209TIP3    H1 9633   0.793   1.322   0.437
 3209TIP3    H2 9634   0.873   1.195   0.458
 3210TIP3   OH2 9635   0.214   2.457   3.162
 3210TIP3    H1 9636   0.224   2.478   3.255
 3210TIP3    H2 9637   0.247   2.535   3.117
 3211TIP3   OH2 9638   3.988   1.538   1.152
 3211TIP3    H1 9639   4.006   1.623   1.113
 3211TIP3    H2 9640   3.897   1.545   1.182
 3212TIP3   OH2 9641   4.466   0.392   0.284
 3212TIP3    H1 9642   4.440   0.481   0.305
 3212TIP3    H2 9643   4.431   0.338   0.355
 3213TIP3   OH2 9644   4.295   3.222   1.697
 3213TIP3    H1 9645   4.320   3.129   1.703
 3213TIP3    H2 9646   4.286   3.250   1.788
 3214TIP3   OH2 9647   0.378   1.529   4.922
 3214TIP3    H1 9648   0.416   1.615   4.941
 3214TIP3    H2 9649   0.381   1.483   5.005
 3215TIP3   OH2 9650   4.418   0.159   3.758
 3215TIP3    H1 9651   4.343   0.104   3.738
 3215TIP3    H2 9652   4.494   0.105   3.735
 3216TIP3   OH2 9653   2.426   3.049   1.576
 3216TIP3    H1 9654   2.484   2.980   1.543
 3216TIP3    H2 9655   2.340   3.028   1.540
 3217TIP3   OH2 9656   6.051   4.876   3.969
 3217TIP3    H1 9657   6.034   4.914   3.883
 3217TIP3    H2 9658   6.058   4.782   3.953
 3218TIP3   OH2 9659   2.926   1.255   4.531
 3218TIP3    H1 9660   3.009   1.302   4.523
 3218TIP3    H2 9661   2.911   1.218   4.444
 3219TIP3   OH2 9662   0.063   5.674   4.094
 3219TIP3    H1 9663   0.060   5.701   4.186
 3219TIP3    H2 9664  -0.020   5.628   4.080
 3220TIP3   OH2 9665   1.686   3.986   3.964
 3220TIP3    H1 9666   1.609   3.936   3.937
 3220TIP3    H2 9667   1.671   4.074   3.930
 3221TIP3   OH2 9668   1.725   2.410   4.932
 3221TIP3    H1 9669   1.635   2.442   4.930
 3221TIP3    H2 9670   1.768   2.464   4.998
 3222TIP3   OH2 9671   3.151   0.302   3.832
 3222TIP3    H1 9672   3.094   0.238   3.790
 3222TIP3    H2 9673   3.102   0.332   3.909
 3223TIP3   OH2 9674   3.569   3.801   0.151
 3223TIP3    H1 9675   3.644   3.746   0.131
 3223TIP3    H2 9676   3.584   3.830   0.241
 3224TIP3   OH2 9677   4.288   0.071   0.658
 3224TIP3    H1 9678   4.275  -0.024   0.663
 3224TIP3    H2 9679   4.224   0.107   0.719
 3225TIP3   OH2 9680   0.101   3.767   1.602
 3225TIP3    H1 9681   0.133   3.744   1.515
 3225TIP3    H2 9682   0.066   3.685   1.636
 3226TIP3   OH2 9683   2.589   5.429   3.284
 3226TIP3    H1 9684   2.519   5.494   3.288
 3226TIP3    H2 9685   2.632   5.444   3.200
 3227TIP3   OH2 9686   5.572   3.096   0.184
 3227TIP3    H1 9687   5.556   3.002   0.177
 3227TIP3    H2 9688   5.586   3.125   0.094
 3228TIP3   OH2 9689   2.241   0.676   3.471
 3228TIP3    H1 9690   2.174   0.639   3.414
 3228TIP3    H2 9691   2.206   0.761   3.497
 3229TIP3   OH2 9692   5.477   3.014   0.866
 3229TIP3    H1 9693   5.496   3.108   0.859
 3229TIP3    H2 9694   5.485   2.981   0.777
 3230TIP3   OH2 9695   1.345   3.161   2.282
 3230TIP3    H1 9696   1.298   3.232   2.325
 3230TIP3    H2 9697   1.338   3.087   2.342
 3231TIP3   OH2 9698   1.733   1.581   2.921
 3231TIP3    H1 9699   1.649   1.628   2.921
 3231TIP3    H2 9700   1.709   1.490   2.937
 3232TIP3   OH2 9701   0.800   1.347   2.743
 3232TIP3    H1 9702   0.753   1.417   2.789
 3232TIP3    H2 9703   0.881   1.389   2.713
 3233TIP3   OH2 9704   4.849   5.401   1.858
 3233TIP3    H1 9705   4.823   5.387   1.949
 3233TIP3    H2 9706   4.892   5.487   1.859
 3234TIP3   OH2 9707   2.415   0.029   3.256
 3234TIP3    H1 9708   2.364   0.108   3.238
 3234TIP3    H2 9709   2.497   0.041   3.209
 3235TIP3   OH2 9710   3.230   1.560   3.380
 3235TIP3    H1 9711   3.200   1.632   3.436
 3235TIP3    H2 9712   3.167   1.558   3.308
 3236TIP3   OH2 9713   0.701   2.185   2.455
 3236TIP3    H1 9714   0.686   2.280   2.455
 3236TIP3    H2 9715   0.775   2.172   2.514
 3237TIP3   OH2 9716   3.442   0.817   4.562
 3237TIP3    H1 9717   3.521   0.767   4.583
 3237TIP3    H2 9718   3.375   0.751   4.544
 3238TIP3   OH2 9719   0.174   3.841   3.925
 3238TIP3    H1 9720   0.159   3.882   4.010
 3238TIP3    H2 9721   0.268   3.821   3.925
 3239TIP3   OH2 9722   3.086   4.701   0.191
 3239TIP3    H1 9723   3.101   4.752   0.111
 3239TIP3    H2 9724   3.049   4.763   0.253
 3240TIP3   OH2 9725   4.587   0.160   0.748
 3240TIP3    H1 9726   4.502   0.115   0.749
 3240TIP3    H2 9727   4.606   0.177   0.840
 3241TIP3   OH2 9728   0.032   1.504   2.866
 3241TIP3    H1 9729  -0.063   1.497   2.874
 3241TIP3    H2 9730   0.047   1.512   2.771
 3242TIP3   OH2 9731   4.875   1.415   0.917
 3242TIP3    H1 9732   4.874   1.459   1.002
 3242TIP3    H2 9733   4.782   1.399   0.898
 3243TIP3   OH2 9734   5.532   1.443   0.077
 3243TIP3    H1 9735   5.568   1.405  -0.003
 3243TIP3    H2 9736   5.597   1.422   0.145
 3244TIP3   OH2 9737   0.842   3.160   1.445
 3244TIP3    H1 9738   0.849   3.247   1.407
 3244TIP3    H2 9739   0.841   3.176   1.540
 3245TIP3   OH2 9740   5.045   3.361   1.409
 3245TIP3    H1 9741   5.076   3.415   1.336
 3245TIP3    H2 9742   4.953   3.343   1.388
 3246TIP3   OH2 9743   2.629   2.572   3.481
 3246TIP3    H1 9744   2.710   2.521   3.485
 3246TIP3    H2 9745   2.635   2.633   3.554
 3247TIP3   OH2 9746   5.480   4.323   1.563
 3247TIP3    H1 9747   5.415   4.254   1.550
 3247TIP3    H2 9748   5.428   4.401   1.582
 3248TIP3   OH2 9749   1.992   1.885   0.564
 3248TIP3    H1 9750   2.057   1.849   0.503
 3248TIP3    H2 9751   1.963   1.966   0.523
 3249TIP3   OH2 9752   2.961   4.386   3.398
 3249TIP3    H1 9753   3.049   4.421   3.391
 3249TIP3    H2 9754   2.943   4.350   3.311
 3250TIP3   OH2 9755   2.264   3.683   0.478
 3250TIP3    H1 9756   2.241   3.627   0.404
 3250TIP3    H2 9757   2.286   3.621   0.548
 3251TIP3   OH2 9758   0.548   2.177   0.726
 3251TIP3    H1 9759   0.476   2.239   0.737
 3251TIP3    H2 9760   0.509   2.092   0.745
 3252TIP3   OH2 9761   1.800   3.473   0.968
 3252TIP3    H1 9762   1.752   3.438   1.043
 3252TIP3    H2 9763   1.874   3.519   1.007
 3253TIP3   OH2 9764   4.135   4.950   3.562
 3253TIP3    H1 9765   4.154   4.858   3.543
 3253TIP3    H2 9766   4.196   4.999   3.507
 3254TIP3   OH2 9767   1.736   1.251   4.707
 3254TIP3    H1 9768   1.656   1.227   4.752
 3254TIP3    H2 9769   1.748   1.344   4.726
 3255TIP3   OH2 9770   0.494   2.144   4.865
 3255TIP3    H1 9771   0.568   2.199   4.838
 3255TIP3    H2 9772   0.529   2.090   4.936
 3256TIP3   OH2 9773   5.803   5.452   1.092
 3256TIP3    H1 9774   5.856   5.531   1.100
 3256TIP3    H2 9775   5.740   5.472   1.023
 3257TIP3   OH2 9776   2.183   5.196   4.072
 3257TIP3    H1 9777   2.103   5.249   4.071
 3257TIP3    H2 9778   2.191   5.166   4.163
 3258TIP3   OH2 9779   2.841   4.087   2.472
 3258TIP3    H1 9780   2.933   4.065   2.486
 3258TIP3    H2 9781   2.842   4.178   2.443
 3259TIP3   OH2 9782   4.434   3.755   1.055
 3259TIP3    H1 9783   4.455   3.678   1.002
 3259TIP3    H2 9784   4.514   3.809   1.052
 3260TIP3   OH2 9785   4.484   0.344   2.844
 3260TIP3    H1 9786   4.428   0.266   2.845
 3260TIP3    H2 9787   4.486   0.372   2.753
 3261TIP3   OH2 9788   2.607   2.728   0.445
 3261TIP3    H1 9789   2.623   2.642   0.406
 3261TIP3    H2 9790   2.534   2.713   0.506
 3262TIP3   OH2 9791   2.902   0.676   0.789
 3262TIP3    H1 9792   2.950   0.646   0.712
 3262TIP3    H2 9793   2.877   0.596   0.835
 3263TIP3   OH2 9794   6.172   5.144   1.727
 3263TIP3    H1 9795   6.253   5.190   1.749
 3263TIP3    H2 9796   6.116   5.211   1.689
 3264TIP3   OH2 9797   4.508   1.804   2.704
 3264TIP3    H1 9798   4.597   1.800   2.738
 3264TIP3    H2 9799   4.464   1.868   2.760
 3265TIP3   OH2 9800   4.114   5.738   1.600
 3265TIP3    H1 9801   4.069   5.698   1.526
 3265TIP3    H2 9802   4.184   5.676   1.622
 3266TIP3   OH2 9803   3.211   3.925   1.585
 3266TIP3    H1 9804   3.180   3.869   1.656
 3266TIP3    H2 9805   3.134   3.940   1.530
 3267TIP3   OH2 9806   5.441   2.234   4.471
 3267TIP3    H1 9807   5.453   2.153   4.423
 3267TIP3    H2 9808   5.348   2.255   4.460
 3268TIP3   OH2 9809   6.088   5.577   2.006
 3268TIP3    H1 9810   6.139   5.510   2.053
 3268TIP3    H2 9811   6.007   5.585   2.056
 3269TIP3   OH2 9812   0.188   5.885   2.195
 3269TIP3    H1 9813   0.128   5.943   2.148
 3269TIP3    H2 9814   0.176   5.800   2.154
 3270TIP3   OH2 9815   4.533   1.996   0.521
 3270TIP3    H1 9816   4.499   1.966   0.606
 3270TIP3    H2 9817   4.565   1.916   0.479
 3271TIP3   OH2 9818   1.903   3.810   5.164
 3271TIP3    H1 9819   1.995   3.811   5.189
 3271TIP3    H2 9820   1.881   3.717   5.156
 3272TIP3   OH2 9821   1.283   2.356   5.160
 3272TIP3    H1 9822   1.203   2.405   5.142
 3272TIP3    H2 9823   1.348   2.394   5.101
 3273TIP3   OH2 9824   4.100   3.899   2.040
 3273TIP3    H1 9825   4.015   3.927   2.005
 3273TIP3    H2 9826   4.153   3.880   1.962
 3274TIP3   OH2 9827   5.666   0.835   1.465
 3274TIP3    H1 9828   5.604   0.813   1.535
 3274TIP3    H2 9829   5.645   0.775   1.394
 3275TIP3   OH2 9830   0.420   1.692   2.892
 3275TIP3    H1 9831   0.339   1.674   2.845
 3275TIP3    H2 9832   0.417   1.634   2.968
 3276TIP3   OH2 9833   5.694   4.585   0.524
 3276TIP3    H1 9834   5.739   4.650   0.470
 3276TIP3    H2 9835   5.762   4.522   0.548
 3277TIP3   OH2 9836   2.730   1.481   1.038
 3277TIP3    H1 9837   2.760   1.391   1.054
 3277TIP3    H2 9838   2.635   1.476   1.050
 3278TIP3   OH2 9839   3.932   2.306   1.240
 3278TIP3    H1 9840   3.957   2.220   1.274
 3278TIP3    H2 9841   3.988   2.319   1.163
 3279TIP3   OH2 9842   3.375   5.580   3.552
 3279TIP3    H1 9843   3.376   5.568   3.647
 3279TIP3    H2 9844   3.284   5.563   3.527
 3280TIP3   OH2 9845   6.222   3.893   1.106
 3280TIP3    H1 9846   6.226   3.988   1.120
 3280TIP3    H2 9847   6.304   3.872   1.061
 3281TIP3   OH2 9848   1.882   1.241   4.102
 3281TIP3    H1 9849   1.942   1.269   4.033
 3281TIP3    H2 9850   1.939   1.218   4.175
 3282TIP3   OH2 9851   1.010   3.824   2.606
 3282TIP3    H1 9852   0.959   3.813   2.526
 3282TIP3    H2 9853   0.962   3.775   2.673
 3283TIP3   OH2 9854   5.948   2.871   0.327
 3283TIP3    H1 9855   5.935   2.776   0.332
 3283TIP3    H2 9856   5.956   2.890   0.234
 3284TIP3   OH2 9857   1.543   2.434   0.515
 3284TIP3    H1 9858   1.614   2.468   0.461
 3284TIP3    H2 9859   1.517   2.509   0.570
 3285TIP3   OH2 9860   1.810   2.518   0.371
 3285TIP3    H1 9861   1.816   2.564   0.287
 3285TIP3    H2 9862   1.889   2.464   0.375
 3286TIP3   OH2 9863   3.888   0.811   4.245
 3286TIP3    H1 9864   3.899   0.861   4.326
 3286TIP3    H2 9865   3.948   0.737   4.255
 3287TIP3   OH2 9866   5.609   0.256   2.287
 3287TIP3    H1 9867   5.700   0.283   2.279
 3287TIP3    H2 9868   5.592   0.257   2.381
 3288TIP3   OH2 9869  -0.011   1.863   0.930
 3288TIP3    H1 9870  -0.056   1.786   0.895
 3288TIP3    H2 9871   0.079   1.834   0.944
 3289TIP3   OH2 9872   4.940   5.261   0.543
 3289TIP3    H1 9873   4.992   5.222   0.613
 3289TIP3    H2 9874   4.991   5.246   0.464
 3290TIP3   OH2 9875   4.393   5.253   4.006
 3290TIP3    H1 9876   4.355   5.285   3.924
 3290TIP3    H2 9877   4.414   5.161   3.988
 3291TIP3   OH2 9878   0.620   3.724   1.264
 3291TIP3    H1 9879   0.689   3.733   1.330
 3291TIP3    H2 9880   0.554   3.668   1.305
 3292TIP3   OH2 9881   6.309   2.774   0.723
 3292TIP3    H1 9882   6.264   2.712   0.666
 3292TIP3    H2 9883   6.370   2.820   0.665
 3293TIP3   OH2 9884   3.543   4.562   4.685
 3293TIP3    H1 9885   3.481   4.591   4.618
 3293TIP3    H2 9886   3.492   4.506   4.743
 3294TIP3   OH2 9887   0.311   3.335   3.989
 3294TIP3    H1 9888   0.266   3.253   4.009
 3294TIP3    H2 9889   0.270   3.366   3.909
 3295TIP3   OH2 9890   2.955   4.589   1.603
 3295TIP3    H1 9891   2.887   4.584   1.536
 3295TIP3    H2 9892   2.907   4.600   1.685
 3296TIP3   OH2 9893   4.434   5.668   2.380
 3296TIP3    H1 9894   4.403   5.612   2.451
 3296TIP3    H2 9895   4.386   5.637   2.303
 3297TIP3   OH2 9896   4.903   2.706   1.333
 3297TIP3    H1 9897   4.841   2.778   1.342
 3297TIP3    H2 9898   4.976   2.743   1.284
 3298TIP3   OH2 9899   4.763   1.034   3.685
 3298TIP3    H1 9900   4.844   1.052   3.637
 3298TIP3    H2 9901   4.697   1.087   3.641
 3299TIP3   OH2 9902   1.281   5.337   3.251
 3299TIP3    H1 9903   1.331   5.331   3.169
 3299TIP3    H2 9904   1.327   5.403   3.303
 3300TIP3   OH2 9905   5.643   4.416   2.064
 3300TIP3    H1 9906   5.563   4.377   2.029
 3300TIP3    H2 9907   5.710   4.349   2.054
 3301TIP3   OH2 9908   0.477   5.019   3.146
 3301TIP3    H1 9909   0.506   5.000   3.235
 3301TIP3    H2 9910   0.553   5.062   3.105
 3302TIP3   OH2 9911   0.374   4.590   0.411
 3302TIP3    H1 9912   0.353   4.576   0.503
 3302TIP3    H2 9913   0.447   4.531   0.394
 3303TIP3   OH2 9914   0.535   2.985   3.924
 3303TIP3    H1 9915   0.598   3.051   3.896
 3303TIP3    H2 9916   0.491   2.958   3.843
 3304TIP3   OH2 9917   3.557   1.174   3.631
 3304TIP3    H1 9918   3.503   1.254   3.639
 3304TIP3    H2 9919   3.493   1.103   3.629
 3305TIP3   OH2 9920   4.339   5.609   3.537
 3305TIP3    H1 9921   4.340   5.633   3.444
 3305TIP3    H2 9922   4.304   5.520   3.538
 3306TIP3   OH2 9923   3.828   1.592   0.839
 3306TIP3    H1 9924   3.904   1.621   0.789
 3306TIP3    H2 9925   3.762   1.659   0.823
 3307TIP3   OH2 9926   2.979   4.182   1.778
 3307TIP3    H1 9927   2.958   4.090   1.762
 3307TIP3    H2 9928   2.926   4.206   1.854
 3308TIP3   OH2 9929   3.741   3.067   3.604
 3308TIP3    H1 9930   3.792   2.988   3.620
 3308TIP3    H2 9931   3.650   3.041   3.619
 3309TIP3   OH2 9932   0.761   1.741   1.913
 3309TIP3    H1 9933   0.675   1.706   1.935
 3309TIP3    H2 9934   0.796   1.773   1.996
 3310TIP3   OH2 9935   1.917   0.954   4.122
 3310TIP3    H1 9936   1.905   0.929   4.031
 3310TIP3    H2 9937   1.829   0.958   4.159
 3311TIP3   OH2 9938   0.762   3.680   3.409
 3311TIP3    H1 9939   0.775   3.737   3.484
 3311TIP3    H2 9940   0.848   3.640   3.392
 3312TIP3   OH2 9941   0.645   2.851   0.796
 3312TIP3    H1 9942   0.562   2.806   0.809
 3312TIP3    H2 9943   0.640   2.928   0.852
 3313TIP3   OH2 9944   0.999   2.668   0.315
 3313TIP3    H1 9945   0.999   2.666   0.219
 3313TIP3    H2 9946   0.910   2.695   0.338
 3314TIP3   OH2 9947   5.912   0.560   2.566
 3314TIP3    H1 9948   5.905   0.518   2.652
 3314TIP3    H2 9949   5.991   0.524   2.528
 3315TIP3   OH2 9950   2.495   3.556   4.603
 3315TIP3    H1 9951   2.506   3.586   4.694
 3315TIP3    H2 9952   2.408   3.585   4.578
 3316TIP3   OH2 9953   3.434   0.924   2.130
 3316TIP3    H1 9954   3.453   1.005   2.178
 3316TIP3    H2 9955   3.509   0.913   2.071
 3317TIP3   OH2 9956   2.494   4.847   4.200
 3317TIP3    H1 9957   2.507   4.752   4.197
 3317TIP3    H2 9958   2.575   4.881   4.236
 3318TIP3   OH2 9959   0.934   1.170   0.145
 3318TIP3    H1 9960   0.961   1.144   0.233
 3318TIP3    H2 9961   1.015   1.200   0.103
 3319TIP3   OH2 9962   1.170   5.257   0.242
 3319TIP3    H1 9963   1.208   5.247   0.154
 3319TIP3    H2 9964   1.096   5.197   0.243
 3320TIP3   OH2 9965   2.564   4.924   0.610
 3320TIP3    H1 9966   2.528   4.999   0.563
 3320TIP3    H2 9967   2.542   4.941   0.702
 3321TIP3   OH2 9968   5.593   2.142   4.793
 3321TIP3    H1 9969   5.631   2.088   4.861
 3321TIP3    H2 9970   5.610   2.232   4.822
 3322TIP3   OH2 9971   2.825   0.184   4.760
 3322TIP3    H1 9972   2.832   0.175   4.664
 3322TIP3    H2 9973   2.732   0.183   4.778
 3323TIP3   OH2 9974   3.989   1.752   0.668
 3323TIP3    H1 9975   4.066   1.721   0.620
 3323TIP3    H2 9976   3.922   1.764   0.601
 3324TIP3   OH2 9977   6.119   3.018   2.593
 3324TIP3    H1 9978   6.051   2.953   2.575
 3324TIP3    H2 9979   6.110   3.082   2.522
 3325TIP3   OH2 9980   4.881   1.518   4.555
 3325TIP3    H1 9981   4.883   1.565   4.471
 3325TIP3    H2 9982   4.958   1.548   4.602
 3326TIP3   OH2 9983   1.356   1.544   0.365
 3326TIP3    H1 9984   1.438   1.585   0.338
 3326TIP3    H2 9985   1.382   1.460   0.404
 3327TIP3   OH2 9986   3.962   1.755   4.586
 3327TIP3    H1 9987   3.873   1.722   4.599
 3327TIP3    H2 9988   3.976   1.753   4.492
 3328TIP3   OH2 9989   1.287   5.742   1.991
 3328TIP3    H1 9990   1.225   5.685   1.945
 3328TIP3    H2 9991   1.335   5.683   2.049
 3329TIP3   OH2 9992   2.845   2.861   3.866
 3329TIP3    H1 9993   2.830   2.909   3.948
 3329TIP3    H2 9994   2.888   2.780   3.894
 3330TIP3   OH2 9995   0.910   3.601   0.237
 3330TIP3    H1 9996   0.886   3.563   0.153
 3330TIP3    H2 9997   0.839   3.576   0.296
 3331TIP3   OH2 9998   2.637   1.907   2.465
 3331TIP3    H1 9999   2.693   1.984   2.479
 3331TIP3    H210000   2.692   1.833   2.487
 3332TIP3   OH210001   3.631   3.955   0.383
 3332TIP3    H110002   3.633   4.044   0.348
 3332TIP3    H210003   3.711   3.947   0.435
 3333TIP3   OH210004   0.059   2.122   2.119
 3333TIP3    H110005   0.137   2.084   2.160
 3333TIP3    H210006   0.088   2.152   2.033
 3334TIP3   OH210007   3.047   4.215   0.953
 3334TIP3    H110008   3.072   4.147   1.014
 3334TIP3    H210009   2.997   4.278   1.005
 3335TIP3   OH210010   5.539   2.771   3.628
 3335TIP3    H110011   5.622   2.775   3.675
 3335TIP3    H210012   5.531   2.680   3.600
 3336TIP3   OH210013   2.211   1.001   0.785
 3336TIP3    H110014   2.176   0.915   0.809
 3336TIP3    H210015   2.274   1.021   0.854
 3337TIP3   OH210016   4.522   3.787   0.730
 3337TIP3    H110017   4.431   3.804   0.755
 3337TIP3    H210018   4.574   3.822   0.803
 3338TIP3   OH210019   0.956   4.030   2.294
 3338TIP3    H110020   0.897   3.966   2.332
 3338TIP3    H210021   1.024   4.043   2.360
 3339TIP3   OH210022   0.340   3.241   0.693
 3339TIP3    H110023   0.435   3.229   0.702
 3339TIP3    H210024   0.321   3.321   0.741
 3340TIP3   OH210025   5.287   2.887   3.840
 3340TIP3    H110026   5.305   2.799   3.871
 3340TIP3    H210027   5.257   2.876   3.750
 3341TIP3   OH210028   6.283   0.051   2.419
 3341TIP3    H110029   6.357   0.040   2.479
 3341TIP3    H210030   6.222   0.106   2.467
 3342TIP3   OH210031   4.868   5.796   3.470
 3342TIP3    H110032   4.922   5.726   3.508
 3342TIP3    H210033   4.801   5.750   3.420
 3343TIP3   OH210034   3.088   4.407   2.153
 3343TIP3    H110035   3.079   4.411   2.057
 3343TIP3    H210036   3.174   4.367   2.167
 3344TIP3   OH210037   3.548   5.655   0.297
 3344TIP3    H110038   3.575   5.623   0.383
 3344TIP3    H210039   3.473   5.599   0.274
 3345TIP3   OH210040   5.196   4.656   3.068
 3345TIP3    H110041   5.166   4.740   3.102
 3345TIP3    H210042   5.162   4.591   3.129
 3346TIP3   OH210043   1.143   5.268   2.089
 3346TIP3    H110044   1.122   5.310   2.172
 3346TIP3    H210045   1.166   5.340   2.031
 3347TIP3   OH210046   5.706   0.201   0.897
 3347TIP3    H110047   5.750   0.268   0.949
 3347TIP3    H210048   5.617   0.197   0.933
 3348TIP3   OH210049   3.357   1.263   0.166
 3348TIP3    H110050   3.382   1.267   0.074
 3348TIP3    H210051   3.277   1.316   0.172
 3349TIP3   OH210052   3.542   3.268   1.299
 3349TIP3    H110053   3.519   3.223   1.380
 3349TIP3    H210054   3.485   3.230   1.232
 3350TIP3   OH210055   2.575   1.223   2.444
 3350TIP3    H110056   2.516   1.167   2.494
 3350TIP3    H210057   2.619   1.164   2.384
 3351TIP3   OH210058   0.097   4.334   4.314
 3351TIP3    H110059   0.124   4.320   4.223
 3351TIP3    H210060   0.162   4.394   4.350
 3352TIP3   OH210061   2.691   3.304   3.180
 3352TIP3    H110062   2.772   3.282   3.133
 3352TIP3    H210063   2.637   3.225   3.173
 3353TIP3   OH210064   4.725   3.705   2.599
 3353TIP3    H110065   4.715   3.633   2.662
 3353TIP3    H210066   4.819   3.725   2.601
 3354TIP3   OH210067   5.670   5.920   1.020
 3354TIP3    H110068   5.649   6.004   0.979
 3354TIP3    H210069   5.740   5.885   0.965
 3355TIP3   OH210070   5.248   4.274   3.089
 3355TIP3    H110071   5.195   4.347   3.121
 3355TIP3    H210072   5.338   4.309   3.086
 3356TIP3   OH210073   2.115   0.752   1.407
 3356TIP3    H110074   2.063   0.685   1.363
 3356TIP3    H210075   2.202   0.713   1.414
 3357TIP3   OH210076   2.943   5.111   5.101
 3357TIP3    H110077   2.854   5.144   5.087
 3357TIP3    H210078   2.997   5.189   5.110
 3358TIP3   OH210079   4.463   2.716   1.352
 3358TIP3    H110080   4.433   2.629   1.378
 3358TIP3    H210081   4.383   2.769   1.349
 3359TIP3   OH210082   4.991   2.275   1.954
 3359TIP3    H110083   4.930   2.222   1.903
 3359TIP3    H210084   4.939   2.348   1.987
 3360TIP3   OH210085   3.954   1.193   0.217
 3360TIP3    H110086   3.964   1.153   0.130
 3360TIP3    H210087   3.953   1.287   0.199
 3361TIP3   OH210088   4.376   5.408   3.774
 3361TIP3    H110089   4.304   5.471   3.766
 3361TIP3    H210090   4.335   5.323   3.759
 3362TIP3   OH210091   0.635   2.954   4.354
 3362TIP3    H110092   0.547   2.982   4.376
 3362TIP3    H210093   0.639   2.862   4.380
 3363TIP3   OH210094   0.363   5.946   1.565
 3363TIP3    H110095   0.411   6.028   1.549
 3363TIP3    H210096   0.360   5.904   1.480
 3364TIP3   OH210097   2.306   1.131   3.304
 3364TIP3    H110098   2.214   1.153   3.322
 3364TIP3    H210099   2.348   1.215   3.288
 3365TIP3   OH210100   1.065   4.616   1.083
 3365TIP3    H110101   1.109   4.652   1.006
 3365TIP3    H210102   1.065   4.521   1.068
 3366TIP3   OH210103   4.406   3.154   4.904
 3366TIP3    H110104   4.452   3.071   4.894
 3366TIP3    H210105   4.362   3.168   4.820
 3367TIP3   OH210106   3.416   3.404   0.394
 3367TIP3    H110107   3.373   3.487   0.413
 3367TIP3    H210108   3.505   3.428   0.368
 3368TIP3   OH210109   3.448   1.449   2.140
 3368TIP3    H110110   3.537   1.419   2.153
 3368TIP3    H210111   3.394   1.393   2.196
 3369TIP3   OH210112   6.234   2.749   3.934
 3369TIP3    H110113   6.269   2.708   4.014
 3369TIP3    H210114   6.205   2.835   3.962
 3370TIP3   OH210115   1.718   1.069   1.315
 3370TIP3    H110116   1.681   1.025   1.392
 3370TIP3    H210117   1.812   1.056   1.323
 3371TIP3   OH210118   6.258   2.033   4.941
 3371TIP3    H110119   6.286   2.123   4.957
 3371TIP3    H210120   6.243   1.997   5.028
 3372TIP3   OH210121   0.893   4.792   1.654
 3372TIP3    H110122   0.802   4.772   1.673
 3372TIP3    H210123   0.936   4.707   1.646
 3373TIP3   OH210124   0.400   5.262   1.423
 3373TIP3    H110125   0.327   5.297   1.372
 3373TIP3    H210126   0.448   5.207   1.361
 3374TIP3   OH210127   5.326   2.019   3.377
 3374TIP3    H110128   5.345   2.001   3.285
 3374TIP3    H210129   5.238   2.058   3.376
 3375TIP3   OH210130   3.762   2.081   2.467
 3375TIP3    H110131   3.796   2.071   2.378
 3375TIP3    H210132   3.672   2.048   2.461
 3376TIP3   OH210133   3.780   3.270   1.538
 3376TIP3    H110134   3.867   3.274   1.578
 3376TIP3    H210135   3.728   3.216   1.597
 3377TIP3   OH210136   0.235   3.585   2.646
 3377TIP3    H110137   0.324   3.561   2.672
 3377TIP3    H210138   0.214   3.525   2.574
 3378TIP3   OH210139   4.445   0.160   3.382
 3378TIP3    H110140   4.386   0.232   3.400
 3378TIP3    H210141   4.528   0.202   3.357
 3379TIP3   OH210142   0.801   2.719   4.482
 3379TIP3    H110143   0.711   2.689   4.469
 3379TIP3    H210144   0.840   2.718   4.394
 3380TIP3   OH210145   5.160   5.634   3.838
 3380TIP3    H110146   5.150   5.542   3.858
 3380TIP3    H210147   5.089   5.654   3.777
 3381TIP3   OH210148   4.947   5.770   2.925
 3381TIP3    H110149   4.996   5.784   2.844
 3381TIP3    H210150   4.857   5.793   2.903
 3382TIP3   OH210151   1.199   1.407   1.283
 3382TIP3    H110152   1.256   1.368   1.216
 3382TIP3    H210153   1.176   1.334   1.341
 3383TIP3   OH210154   0.885   2.120   1.328
 3383TIP3    H110155   0.810   2.179   1.322
 3383TIP3    H210156   0.959   2.171   1.294
 3384TIP3   OH210157   0.692   5.422   1.364
 3384TIP3    H110158   0.599   5.436   1.348
 3384TIP3    H210159   0.715   5.346   1.310
 3385TIP3   OH210160   4.292   3.450   0.687
 3385TIP3    H110161   4.386   3.465   0.687
 3385TIP3    H210162   4.268   3.448   0.780
 3386TIP3   OH210163   2.049   5.341   4.944
 3386TIP3    H110164   1.966   5.362   4.901
 3386TIP3    H210165   2.035   5.255   4.982
 3387TIP3   OH210166   2.616   1.005   2.276
 3387TIP3    H110167   2.677   0.992   2.204
 3387TIP3    H210168   2.537   1.039   2.235
 3388TIP3   OH210169   3.014   5.850   3.662
 3388TIP3    H110170   3.101   5.880   3.637
 3388TIP3    H210171   2.989   5.905   3.736
 3389TIP3   OH210172   5.631   2.924   4.438
 3389TIP3    H110173   5.578   3.003   4.437
 3389TIP3    H210174   5.630   2.895   4.529
 3390TIP3   OH210175   5.996   5.085   4.536
 3390TIP3    H110176   5.968   5.173   4.560
 3390TIP3    H210177   6.069   5.098   4.476
 3391TIP3   OH210178   1.618   1.029   0.573
 3391TIP3    H110179   1.609   1.107   0.628
 3391TIP3    H210180   1.712   1.016   0.566
 3392TIP3   OH210181   4.373   2.234   0.526
 3392TIP3    H110182   4.413   2.280   0.600
 3392TIP3    H210183   4.418   2.149   0.523
 3393TIP3   OH210184   0.883   2.761   4.215
 3393TIP3    H110185   0.833   2.709   4.153
 3393TIP3    H210186   0.869   2.852   4.188
 3394TIP3   OH210187   0.152   1.729   0.432
 3394TIP3    H110188   0.063   1.696   0.418
 3394TIP3    H210189   0.182   1.684   0.511
 3395TIP3   OH210190   0.925   5.701   3.530
 3395TIP3    H110191   0.931   5.782   3.480
 3395TIP3    H210192   0.850   5.655   3.494
 3396TIP3   OH210193   2.330   1.632   1.490
 3396TIP3    H110194   2.338   1.626   1.395
 3396TIP3    H210195   2.327   1.726   1.508
 3397TIP3   OH210196   3.965   5.223   4.526
 3397TIP3    H110197   4.055   5.243   4.501
 3397TIP3    H210198   3.912   5.252   4.452
 3398TIP3   OH210199   2.817   4.079   3.474
 3398TIP3    H110200   2.861   4.159   3.446
 3398TIP3    H210201   2.732   4.082   3.429
 3399TIP3   OH210202   6.228   0.713   3.579
 3399TIP3    H110203   6.232   0.805   3.552
 3399TIP3    H210204   6.312   0.676   3.551
 3400TIP3   OH210205   2.571   5.751   4.048
 3400TIP3    H110206   2.513   5.824   4.071
 3400TIP3    H210207   2.553   5.735   3.956
 3401TIP3   OH210208   1.016   4.521   1.427
 3401TIP3    H110209   1.054   4.511   1.515
 3401TIP3    H210210   1.053   4.603   1.394
 3402TIP3   OH210211   1.415   0.462   4.741
 3402TIP3    H110212   1.357   0.529   4.704
 3402TIP3    H210213   1.460   0.425   4.666
 3403TIP3   OH210214   5.071   3.550   0.455
 3403TIP3    H110215   5.129   3.609   0.502
 3403TIP3    H210216   5.081   3.574   0.363
 3404TIP3   OH210217   2.835   2.400   3.419
 3404TIP3    H110218   2.903   2.413   3.352
 3404TIP3    H210219   2.761   2.363   3.371
 3405TIP3   OH210220   0.845   5.073   4.104
 3405TIP3    H110221   0.774   5.118   4.058
 3405TIP3    H210222   0.922   5.126   4.085
 3406TIP3   OH210223   3.190   4.119   2.961
 3406TIP3    H110224   3.171   4.213   2.959
 3406TIP3    H210225   3.132   4.081   2.894
 3407TIP3   OH210226   1.392   1.784   0.051
 3407TIP3    H110227   1.407   1.851  -0.015
 3407TIP3    H210228   1.320   1.732   0.016
 3408TIP3   OH210229   3.632   0.833   0.645
 3408TIP3    H110230   3.639   0.928   0.633
 3408TIP3    H210231   3.716   0.808   0.684
 3409TIP3   OH210232   5.353   4.862   3.415
 3409TIP3    H110233   5.374   4.917   3.490
 3409TIP3    H210234   5.427   4.871   3.356
 3410TIP3   OH210235   0.799   3.192   1.762
 3410TIP3    H110236   0.874   3.244   1.790
 3410TIP3    H210237   0.726   3.226   1.814
 3411TIP3   OH210238   1.535   2.171   4.143
 3411TIP3    H110239   1.549   2.158   4.049
 3411TIP3    H210240   1.605   2.122   4.184
 3412TIP3   OH210241   1.131   4.859   3.712
 3412TIP3    H110242   1.211   4.808   3.712
 3412TIP3    H210243   1.091   4.841   3.626
 3413TIP3   OH210244   1.381   2.707   0.336
 3413TIP3    H110245   1.435   2.640   0.293
 3413TIP3    H210246   1.444   2.772   0.366
 3414TIP3   OH210247   3.973   5.667   4.531
 3414TIP3    H110248   4.005   5.757   4.528
 3414TIP3    H210249   3.931   5.654   4.446
 3415TIP3   OH210250   2.743   3.766   2.382
 3415TIP3    H110251   2.700   3.848   2.404
 3415TIP3    H210252   2.799   3.747   2.457
 3416TIP3   OH210253   4.604   2.636   2.690
 3416TIP3    H110254   4.652   2.565   2.648
 3416TIP3    H210255   4.604   2.706   2.624
 3417TIP3   OH210256   6.122   5.836   1.994
 3417TIP3    H110257   6.094   5.749   2.023
 3417TIP3    H210258   6.140   5.825   1.900
 3418TIP3   OH210259   4.959   3.331   3.838
 3418TIP3    H110260   4.959   3.262   3.771
 3418TIP3    H210261   4.989   3.288   3.917
 3419TIP3   OH210262   4.099   0.834   3.949
 3419TIP3    H110263   4.070   0.909   4.002
 3419TIP3    H210264   4.137   0.873   3.871
 3420TIP3   OH210265   4.461   3.168   4.123
 3420TIP3    H110266   4.473   3.230   4.195
 3420TIP3    H210267   4.386   3.115   4.150
 3421TIP3   OH210268   2.637   4.476   3.044
 3421TIP3    H110269   2.617   4.522   2.963
 3421TIP3    H210270   2.552   4.445   3.075
 3422TIP3   OH210271   2.952   1.705   2.244
 3422TIP3    H110272   2.872   1.676   2.287
 3422TIP3    H210273   2.943   1.800   2.236
 3423TIP3   OH210274   5.088   1.534   3.684
 3423TIP3    H110275   5.005   1.560   3.724
 3423TIP3    H210276   5.150   1.530   3.758
 3424TIP3   OH210277   2.042   5.670   1.427
 3424TIP3    H110278   2.029   5.758   1.463
 3424TIP3    H210279   1.981   5.664   1.354
 3425TIP3   OH210280   2.119   2.281   3.344
 3425TIP3    H110281   2.109   2.364   3.390
 3425TIP3    H210282   2.178   2.301   3.271
 3426TIP3   OH210283   0.360   0.215   4.793
 3426TIP3    H110284   0.304   0.257   4.728
 3426TIP3    H210285   0.444   0.261   4.785
 3427TIP3   OH210286   5.572   3.881   0.201
 3427TIP3    H110287   5.612   3.919   0.279
 3427TIP3    H210288   5.644   3.873   0.139
 3428TIP3   OH210289   1.620   3.325   1.455
 3428TIP3    H110290   1.546   3.384   1.440
 3428TIP3    H210291   1.602   3.284   1.539
 3429TIP3   OH210292   2.451   2.563   1.699
 3429TIP3    H110293   2.436   2.547   1.606
 3429TIP3    H210294   2.492   2.483   1.731
 3430TIP3   OH210295   3.528   3.282   0.097
 3430TIP3    H110296   3.488   3.205   0.058
 3430TIP3    H210297   3.524   3.266   0.192
 3431TIP3   OH210298   0.389   0.571   1.116
 3431TIP3    H110299   0.443   0.507   1.069
 3431TIP3    H210300   0.323   0.519   1.162
 3432TIP3   OH210301   6.099   5.132   2.702
 3432TIP3    H110302   6.076   5.055   2.754
 3432TIP3    H210303   6.055   5.205   2.746
 3433TIP3   OH210304   5.440   4.295   1.934
 3433TIP3    H110305   5.391   4.229   1.982
 3433TIP3    H210306   5.374   4.354   1.899
 3434TIP3   OH210307   2.467   5.771   5.135
 3434TIP3    H110308   2.519   5.714   5.192
 3434TIP3    H210309   2.518   5.851   5.127
 3435TIP3   OH210310   1.366   5.150   2.299
 3435TIP3    H110311   1.277   5.121   2.320
 3435TIP3    H210312   1.365   5.244   2.315
 3436TIP3   OH210313   5.228   2.128   0.869
 3436TIP3    H110314   5.183   2.064   0.924
 3436TIP3    H210315   5.160   2.161   0.811
 3437TIP3   OH210316   2.874   2.284   3.907
 3437TIP3    H110317   2.851   2.332   3.986
 3437TIP3    H210318   2.921   2.207   3.938
 3438TIP3   OH210319   2.895   3.565   4.651
 3438TIP3    H110320   2.964   3.628   4.670
 3438TIP3    H210321   2.909   3.494   4.714
 3439TIP3   OH210322   0.625   1.137   2.791
 3439TIP3    H110323   0.554   1.145   2.727
 3439TIP3    H210324   0.678   1.216   2.777
 3440TIP3   OH210325   6.136   3.688   1.641
 3440TIP3    H110326   6.139   3.598   1.607
 3440TIP3    H210327   6.147   3.743   1.564
 3441TIP3   OH210328   1.927   1.047   1.514
 3441TIP3    H110329   1.845   0.997   1.520
 3441TIP3    H210330   1.980   1.015   1.587
 3442TIP3   OH210331   6.311   1.658   0.715
 3442TIP3    H110332   6.356   1.618   0.642
 3442TIP3    H210333   6.343   1.611   0.792
 3443TIP3   OH210334   5.661   3.511   3.428
 3443TIP3    H110335   5.751   3.518   3.457
 3443TIP3    H210336   5.625   3.436   3.475
 3444TIP3   OH210337   1.099   3.465   4.113
 3444TIP3    H110338   1.056   3.386   4.082
 3444TIP3    H210339   1.034   3.534   4.102
 3445TIP3   OH210340   2.930   1.000   2.805
 3445TIP3    H110341   2.956   0.918   2.846
 3445TIP3    H210342   2.852   0.978   2.754
 3446TIP3   OH210343   4.878   3.063   5.009
 3446TIP3    H110344   4.857   3.085   4.918
 3446TIP3    H210345   4.970   3.037   5.008
 3447TIP3   OH210346   4.387   2.335   1.889
 3447TIP3    H110347   4.477   2.334   1.922
 3447TIP3    H210348   4.373   2.424   1.858
 3448TIP3   OH210349   2.162   2.625   3.090
 3448TIP3    H110350   2.112   2.693   3.137
 3448TIP3    H210351   2.118   2.618   3.005
 3449TIP3   OH210352   1.431   4.907   3.822
 3449TIP3    H110353   1.393   4.983   3.866
 3449TIP3    H210354   1.501   4.878   3.881
 3450TIP3   OH210355   0.848   3.853   0.107
 3450TIP3    H110356   0.908   3.787   0.142
 3450TIP3    H210357   0.847   3.922   0.174
 3451TIP3   OH210358   2.551   1.888   1.236
 3451TIP3    H110359   2.473   1.848   1.198
 3451TIP3    H210360   2.553   1.855   1.326
 3452TIP3   OH210361   4.039   5.676   3.114
 3452TIP3    H110362   3.954   5.717   3.099
 3452TIP3    H210363   4.063   5.640   3.028
 3453TIP3   OH210364   1.354   3.869   4.623
 3453TIP3    H110365   1.363   3.964   4.627
 3453TIP3    H210366   1.297   3.853   4.548
 3454TIP3   OH210367   3.516   1.434   1.863
 3454TIP3    H110368   3.460   1.511   1.863
 3454TIP3    H210369   3.507   1.397   1.951
 3455TIP3   OH210370   4.460   1.498   4.843
 3455TIP3    H110371   4.520   1.433   4.879
 3455TIP3    H210372   4.478   1.578   4.891
 3456TIP3   OH210373   1.094   4.084   4.582
 3456TIP3    H110374   1.097   4.177   4.606
 3456TIP3    H210375   1.120   4.038   4.662
 3457TIP3   OH210376   3.145   5.008   2.298
 3457TIP3    H110377   3.139   4.913   2.294
 3457TIP3    H210378   3.091   5.032   2.373
 3458TIP3   OH210379   3.605   3.607   0.432
 3458TIP3    H110380   3.669   3.643   0.494
 3458TIP3    H210381   3.653   3.600   0.349
 3459TIP3   OH210382   3.533   0.798   2.608
 3459TIP3    H110383   3.509   0.777   2.699
 3459TIP3    H210384   3.628   0.803   2.609
 3460TIP3   OH210385   2.090   5.800   0.576
 3460TIP3    H110386   2.119   5.833   0.491
 3460TIP3    H210387   2.086   5.705   0.565
 3461TIP3   OH210388   3.165   5.670   2.566
 3461TIP3    H110389   3.086   5.631   2.528
 3461TIP3    H210390   3.168   5.635   2.655
 3462TIP3   OH210391   4.129   0.314   0.311
 3462TIP3    H110392   4.053   0.290   0.364
 3462TIP3    H210393   4.198   0.331   0.375
 3463TIP3   OH210394   4.759   5.247   1.184
 3463TIP3    H110395   4.689   5.234   1.248
 3463TIP3    H210396   4.830   5.287   1.234
 3464TIP3   OH210397   5.835   1.638   1.931
 3464TIP3    H110398   5.883   1.620   2.011
 3464TIP3    H210399   5.890   1.604   1.861
 3465TIP3   OH210400   2.023   3.207   4.644
 3465TIP3    H110401   2.040   3.123   4.688
 3465TIP3    H210402   1.969   3.183   4.569
 3466TIP3   OH210403   2.656   5.649   3.539
 3466TIP3    H110404   2.659   5.699   3.458
 3466TIP3    H210405   2.731   5.589   3.533
 3467TIP3   OH210406   2.491   4.229   4.972
 3467TIP3    H110407   2.583   4.244   4.950
 3467TIP3    H210408   2.447   4.311   4.946
 3468TIP3   OH210409   0.858   5.836   0.869
 3468TIP3    H110410   0.878   5.876   0.784
 3468TIP3    H210411   0.917   5.762   0.876
 3469TIP3   OH210412   4.366   5.985   5.058
 3469TIP3    H110413   4.359   5.892   5.079
 3469TIP3    H210414   4.432   6.018   5.119
 3470TIP3   OH210415   1.418   4.192   4.236
 3470TIP3    H110416   1.497   4.146   4.208
 3470TIP3    H210417   1.408   4.263   4.172
 3471TIP3   OH210418   0.891   1.907   0.496
 3471TIP3    H110419   0.901   1.843   0.425
 3471TIP3    H210420   0.831   1.865   0.557
 3472TIP3   OH210421   1.083   4.815   0.022
 3472TIP3    H110422   1.158   4.837   0.077
 3472TIP3    H210423   1.023   4.888   0.033
 3473TIP3   OH210424   5.119   5.875   4.264
 3473TIP3    H110425   5.187   5.911   4.321
 3473TIP3    H210426   5.109   5.785   4.294
 3474TIP3   OH210427   1.158   3.294   0.051
 3474TIP3    H110428   1.167   3.389   0.043
 3474TIP3    H210429   1.123   3.281   0.139
 3475TIP3   OH210430   1.913   5.935   1.468
 3475TIP3    H110431   1.824   5.972   1.472
 3475TIP3    H210432   1.956   5.969   1.546
 3476TIP3   OH210433   0.068   1.353   3.886
 3476TIP3    H110434   0.157   1.378   3.912
 3476TIP3    H210435   0.034   1.431   3.842
 3477TIP3   OH210436   3.038   3.791   4.685
 3477TIP3    H110437   3.075   3.845   4.755
 3477TIP3    H210438   3.027   3.852   4.612
 3478TIP3   OH210439   1.363   2.400   1.134
 3478TIP3    H110440   1.437   2.415   1.074
 3478TIP3    H210441   1.402   2.406   1.221
 3479TIP3   OH210442   4.637   2.695   0.752
 3479TIP3    H110443   4.696   2.763   0.717
 3479TIP3    H210444   4.569   2.744   0.798
 3480TIP3   OH210445   5.708   2.221   2.737
 3480TIP3    H110446   5.732   2.128   2.736
 3480TIP3    H210447   5.682   2.237   2.828
 3481TIP3   OH210448   4.032   3.527   3.733
 3481TIP3    H110449   3.950   3.511   3.781
 3481TIP3    H210450   4.004   3.571   3.653
 3482TIP3   OH210451   3.942   0.552   3.047
 3482TIP3    H110452   3.966   0.460   3.051
 3482TIP3    H210453   3.923   0.576   3.137
 3483TIP3   OH210454   4.100   3.752   3.086
 3483TIP3    H110455   4.087   3.706   3.169
 3483TIP3    H210456   4.194   3.744   3.068
 3484TIP3   OH210457   5.640   4.090   0.739
 3484TIP3    H110458   5.624   4.162   0.678
 3484TIP3    H210459   5.735   4.075   0.735
 3485TIP3   OH210460   3.390   5.589   1.499
 3485TIP3    H110461   3.441   5.636   1.433
 3485TIP3    H210462   3.328   5.655   1.533
 3486TIP3   OH210463   4.306   0.326   0.503
 3486TIP3    H110464   4.364   0.381   0.556
 3486TIP3    H210465   4.286   0.251   0.559
 3487TIP3   OH210466   0.048   2.582   3.567
 3487TIP3    H110467   0.082   2.497   3.596
 3487TIP3    H210468   0.125   2.631   3.539
 3488TIP3   OH210469   2.097   5.435   3.835
 3488TIP3    H110470   2.002   5.436   3.850
 3488TIP3    H210471   2.111   5.361   3.776
 3489TIP3   OH210472   1.806   4.538   2.320
 3489TIP3    H110473   1.765   4.623   2.306
 3489TIP3    H210474   1.778   4.512   2.408
 3490TIP3   OH210475   2.628   3.862   3.941
 3490TIP3    H110476   2.654   3.872   3.849
 3490TIP3    H210477   2.653   3.773   3.963
 3491TIP3   OH210478   0.565   3.015   0.517
 3491TIP3    H110479   0.574   2.919   0.511
 3491TIP3    H210480   0.486   3.035   0.467
 3492TIP3   OH210481   3.682   0.717   4.025
 3492TIP3    H110482   3.676   0.756   3.938
 3492TIP3    H210483   3.745   0.772   4.072
 3493TIP3   OH210484   2.717   2.186   0.838
 3493TIP3    H110485   2.762   2.250   0.894
 3493TIP3    H210486   2.715   2.227   0.752
 3494TIP3   OH210487   4.584   3.444   2.999
 3494TIP3    H110488   4.491   3.429   2.979
 3494TIP3    H210489   4.617   3.357   3.024
 3495TIP3   OH210490   5.909   3.748   3.322
 3495TIP3    H110491   5.899   3.670   3.376
 3495TIP3    H210492   5.936   3.816   3.384
 3496TIP3   OH210493   2.419   0.159   0.873
 3496TIP3    H110494   2.349   0.181   0.812
 3496TIP3    H210495   2.374   0.122   0.949
 3497TIP3   OH210496   5.244   5.118   1.046
 3497TIP3    H110497   5.277   5.197   1.088
 3497TIP3    H210498   5.267   5.128   0.953
 3498TIP3   OH210499   3.757   5.360   2.395
 3498TIP3    H110500   3.764   5.324   2.306
 3498TIP3    H210501   3.785   5.289   2.452
 3499TIP3   OH210502   1.646   0.363   1.530
 3499TIP3    H110503   1.644   0.332   1.620
 3499TIP3    H210504   1.593   0.442   1.530
 3500TIP3   OH210505   1.569   3.075   3.739
 3500TIP3    H110506   1.573   3.067   3.644
 3500TIP3    H210507   1.477   3.066   3.760
 3501TIP3   OH210508   4.357   4.506   3.820
 3501TIP3    H110509   4.309   4.554   3.753
 3501TIP3    H210510   4.365   4.417   3.785
 3502TIP3   OH210511   4.193   2.359   4.398
 3502TIP3    H110512   4.241   2.358   4.315
 3502TIP3    H210513   4.145   2.442   4.396
 3503TIP3   OH210514   1.156   2.165   0.744
 3503TIP3    H110515   1.245   2.182   0.774
 3503TIP3    H210516   1.157   2.074   0.714
 3504TIP3   OH210517   3.433   2.362   0.296
 3504TIP3    H110518   3.408   2.436   0.240
 3504TIP3    H210519   3.489   2.308   0.241
 3505TIP3   OH210520   4.516   0.332   1.599
 3505TIP3    H110521   4.583   0.343   1.666
 3505TIP3    H210522   4.433   0.343   1.645
 3506TIP3   OH210523   3.408   2.129   4.247
 3506TIP3    H110524   3.389   2.037   4.228
 3506TIP3    H210525   3.500   2.129   4.274
 3507TIP3   OH210526   0.906   2.427   2.761
 3507TIP3    H110527   0.884   2.346   2.714
 3507TIP3    H210528   0.829   2.483   2.750
 3508TIP3   OH210529   5.045   3.105   0.696
 3508TIP3    H110530   5.132   3.141   0.682
 3508TIP3    H210531   5.015   3.143   0.778
 3509TIP3   OH210532   3.265   0.287   2.400
 3509TIP3    H110533   3.250   0.203   2.444
 3509TIP3    H210534   3.215   0.350   2.451
 3510TIP3   OH210535   6.253   2.457   4.673
 3510TIP3    H110536   6.195   2.500   4.610
 3510TIP3    H210537   6.204   2.461   4.756
 3511TIP3   OH210538   2.481   3.847   0.432
 3511TIP3    H110539   2.400   3.798   0.441
 3511TIP3    H210540   2.497   3.883   0.520
 3512TIP3   OH210541   5.928   0.087   2.317
 3512TIP3    H110542   5.974   0.143   2.379
 3512TIP3    H210543   5.910   0.144   2.242
 3513TIP3   OH210544   2.505   5.657   3.792
 3513TIP3    H110545   2.413   5.639   3.769
 3513TIP3    H210546   2.555   5.623   3.719
 3514TIP3   OH210547   2.379   2.493   1.166
 3514TIP3    H110548   2.293   2.536   1.167
 3514TIP3    H210549   2.360   2.402   1.146
 3515TIP3   OH210550   0.911   0.877   0.035
 3515TIP3    H110551   0.819   0.898   0.021
 3515TIP3    H210552   0.943   0.946   0.093
 3516TIP3   OH210553   5.418   1.450   2.460
 3516TIP3    H110554   5.327   1.444   2.431
 3516TIP3    H210555   5.439   1.544   2.456
 3517TIP3   OH210556   1.093   2.955   1.993
 3517TIP3    H110557   1.005   2.940   2.025
 3517TIP3    H210558   1.105   2.890   1.924
 3518TIP3   OH210559   5.461   1.073   2.971
 3518TIP3    H110560   5.384   1.060   3.026
 3518TIP3    H210561   5.426   1.076   2.882
 3519TIP3   OH210562   5.596   4.121   0.378
 3519TIP3    H110563   5.514   4.129   0.330
 3519TIP3    H210564   5.592   4.191   0.444
 3520TIP3   OH210565   5.881   2.746   2.627
 3520TIP3    H110566   5.936   2.723   2.552
 3520TIP3    H210567   5.892   2.674   2.688
 3521TIP3   OH210568   3.755   5.832   0.242
 3521TIP3    H110569   3.672   5.784   0.246
 3521TIP3    H210570   3.809   5.793   0.311
 3522TIP3   OH210571   0.973   4.823   3.465
 3522TIP3    H110572   1.041   4.771   3.422
 3522TIP3    H210573   0.970   4.904   3.415
 3523TIP3   OH210574   5.756   4.460   3.072
 3523TIP3    H110575   5.800   4.402   3.011
 3523TIP3    H210576   5.794   4.546   3.055
 3524TIP3   OH210577   3.436   2.971   3.999
 3524TIP3    H110578   3.477   2.942   3.918
 3524TIP3    H210579   3.504   3.022   4.044
 3525TIP3   OH210580   3.688   3.897   3.962
 3525TIP3    H110581   3.671   3.948   4.041
 3525TIP3    H210582   3.603   3.860   3.938
 3526TIP3   OH210583   2.771   0.294   2.013
 3526TIP3    H110584   2.848   0.257   1.970
 3526TIP3    H210585   2.753   0.375   1.966
 3527TIP3   OH210586   0.870   2.255   0.959
 3527TIP3    H110587   0.853   2.163   0.940
 3527TIP3    H210588   0.939   2.280   0.898
 3528TIP3   OH210589   5.965   3.545   4.797
 3528TIP3    H110590   6.019   3.598   4.739
 3528TIP3    H210591   6.028   3.489   4.843
 3529TIP3   OH210592   4.789   4.689   2.111
 3529TIP3    H110593   4.795   4.639   2.192
 3529TIP3    H210594   4.871   4.739   2.108
 3530TIP3   OH210595   3.248   1.642   1.262
 3530TIP3    H110596   3.206   1.700   1.325
 3530TIP3    H210597   3.319   1.600   1.311
 3531TIP3   OH210598   2.987   0.980   3.364
 3531TIP3    H110599   2.988   1.055   3.424
 3531TIP3    H210600   3.052   0.919   3.401
 3532TIP3   OH210601   3.542   5.805   1.844
 3532TIP3    H110602   3.494   5.852   1.775
 3532TIP3    H210603   3.473   5.770   1.901
 3533TIP3   OH210604   4.436   0.434   4.165
 3533TIP3    H110605   4.459   0.521   4.200
 3533TIP3    H210606   4.342   0.438   4.152
 3534TIP3   OH210607   4.528   4.573   1.751
 3534TIP3    H110608   4.571   4.587   1.667
 3534TIP3    H210609   4.438   4.602   1.737
 3535TIP3   OH210610   4.753   2.586   1.834
 3535TIP3    H110611   4.730   2.505   1.879
 3535TIP3    H210612   4.849   2.587   1.834
 3536TIP3   OH210613   5.558   5.149   0.463
 3536TIP3    H110614   5.484   5.146   0.404
 3536TIP3    H210615   5.573   5.059   0.490
 3537TIP3   OH210616   4.645   5.664   3.356
 3537TIP3    H110617   4.632   5.612   3.277
 3537TIP3    H210618   4.572   5.639   3.413
 3538TIP3   OH210619   2.627   5.519   0.693
 3538TIP3    H110620   2.708   5.552   0.657
 3538TIP3    H210621   2.558   5.567   0.647
 3539TIP3   OH210622   2.993   0.624   1.798
 3539TIP3    H110623   3.027   0.674   1.724
 3539TIP3    H210624   2.937   0.558   1.758
 3540TIP3   OH210625   1.226   3.311   0.817
 3540TIP3    H110626   1.241   3.226   0.859
 3540TIP3    H210627   1.261   3.375   0.878
 3541TIP3   OH210628   1.272   0.762   1.702
 3541TIP3    H110629   1.352   0.793   1.660
 3541TIP3    H210630   1.292   0.671   1.726
 3542TIP3   OH210631   3.223   0.662   4.499
 3542TIP3    H110632   3.220   0.606   4.577
 3542TIP3    H210633   3.247   0.602   4.427
 3543TIP3   OH210634   2.002   0.869   4.405
 3543TIP3    H110635   1.942   0.900   4.472
 3543TIP3    H210636   1.957   0.886   4.322
 3544TIP3   OH210637   0.378   1.754   0.951
 3544TIP3    H110638   0.340   1.671   0.921
 3544TIP3    H210639   0.391   1.742   1.045
 3545TIP3   OH210640   2.835   2.885   3.474
 3545TIP3    H110641   2.930   2.883   3.489
 3545TIP3    H210642   2.824   2.952   3.406
 3546TIP3   OH210643   1.440   1.984   0.600
 3546TIP3    H110644   1.475   1.898   0.623
 3546TIP3    H210645   1.346   1.977   0.617
 3547TIP3   OH210646   4.224   3.842   1.819
 3547TIP3    H110647   4.226   3.903   1.745
 3547TIP3    H210648   4.315   3.837   1.848
 3548TIP3   OH210649   3.090   3.840   3.374
 3548TIP3    H110650   3.110   3.894   3.298
 3548TIP3    H210651   3.100   3.899   3.449
 3549TIP3   OH210652   4.712   3.618   3.150
 3549TIP3    H110653   4.656   3.591   3.077
 3549TIP3    H210654   4.800   3.591   3.124
 3550TIP3   OH210655   4.771   3.373   1.613
 3550TIP3    H110656   4.765   3.278   1.596
 3550TIP3    H210657   4.862   3.386   1.641
 3551TIP3   OH210658   1.703   5.053   4.805
 3551TIP3    H110659   1.755   4.986   4.849
 3551TIP3    H210660   1.636   5.078   4.870
 3552TIP3   OH210661   5.411   2.139   4.159
 3552TIP3    H110662   5.452   2.084   4.226
 3552TIP3    H210663   5.329   2.094   4.138
 3553TIP3   OH210664   1.505   4.318   2.821
 3553TIP3    H110665   1.546   4.341   2.904
 3553TIP3    H210666   1.545   4.234   2.797
 3554TIP3   OH210667   2.831   2.224   3.629
 3554TIP3    H110668   2.847   2.280   3.706
 3554TIP3    H210669   2.841   2.284   3.554
 3555TIP3   OH210670   0.131   4.989   4.362
 3555TIP3    H110671   0.160   4.990   4.271
 3555TIP3    H210672   0.087   4.905   4.373
 3556TIP3   OH210673   4.808   5.033   4.553
 3556TIP3    H110674   4.769   5.120   4.553
 3556TIP3    H210675   4.803   5.005   4.461
 3557TIP3   OH210676   1.992   0.304   2.635
 3557TIP3    H110677   2.033   0.301   2.548
 3557TIP3    H210678   1.899   0.293   2.618
 3558TIP3   OH210679   5.998   0.793   2.869
 3558TIP3    H110680   6.074   0.735   2.861
 3558TIP3    H210681   5.959   0.769   2.954
 3559TIP3   OH210682   2.890   5.361   0.540
 3559TIP3    H110683   2.847   5.416   0.474
 3559TIP3    H210684   2.930   5.424   0.600
 3560TIP3   OH210685   5.609   1.428   4.808
 3560TIP3    H110686   5.676   1.406   4.873
 3560TIP3    H210687   5.562   1.501   4.847
 3561TIP3   OH210688   0.876   2.225   2.976
 3561TIP3    H110689   0.894   2.297   2.915
 3561TIP3    H210690   0.888   2.145   2.923
 3562TIP3   OH210691   6.309   2.944   2.942
 3562TIP3    H110692   6.216   2.959   2.959
 3562TIP3    H210693   6.310   2.870   2.882
 3563TIP3   OH210694   1.500   3.245   4.407
 3563TIP3    H110695   1.416   3.278   4.377
 3563TIP3    H210696   1.562   3.316   4.390
 3564TIP3   OH210697   5.267   5.114   3.240
 3564TIP3    H110698   5.361   5.131   3.242
 3564TIP3    H210699   5.232   5.161   3.316
 3565TIP3   OH210700   3.923   2.031   3.715
 3565TIP3    H110701   4.000   2.083   3.691
 3565TIP3    H210702   3.955   1.941   3.719
 3566TIP3   OH210703   5.238   1.886   4.071
 3566TIP3    H110704   5.294   1.901   3.995
 3566TIP3    H210705   5.156   1.930   4.050
 3567TIP3   OH210706   5.108   0.122   2.483
 3567TIP3    H110707   5.181   0.061   2.468
 3567TIP3    H210708   5.150   0.206   2.500
 3568TIP3   OH210709   4.702   2.121   0.330
 3568TIP3    H110710   4.668   2.069   0.403
 3568TIP3    H210711   4.788   2.152   0.360
 3569TIP3   OH210712   4.477   5.476   0.872
 3569TIP3    H110713   4.413   5.427   0.821
 3569TIP3    H210714   4.468   5.566   0.843
 3570TIP3   OH210715   4.661   3.881   1.730
 3570TIP3    H110716   4.588   3.912   1.676
 3570TIP3    H210717   4.624   3.811   1.783
 3571TIP3   OH210718   1.323   3.842   2.212
 3571TIP3    H110719   1.358   3.786   2.143
 3571TIP3    H210720   1.264   3.901   2.167
 3572TIP3   OH210721   4.559   5.574   4.320
 3572TIP3    H110722   4.556   5.489   4.276
 3572TIP3    H210723   4.488   5.572   4.384
 3573TIP3   OH210724   1.241   5.198   4.386
 3573TIP3    H110725   1.308   5.209   4.454
 3573TIP3    H210726   1.201   5.284   4.378
 3574TIP3   OH210727   3.873   5.170   3.324
 3574TIP3    H110728   3.958   5.182   3.283
 3574TIP3    H210729   3.819   5.127   3.258
 3575TIP3   OH210730   1.812   4.906   3.197
 3575TIP3    H110731   1.744   4.971   3.214
 3575TIP3    H210732   1.816   4.853   3.277
 3576TIP3   OH210733   3.765   5.391   4.025
 3576TIP3    H110734   3.682   5.422   4.061
 3576TIP3    H210735   3.811   5.470   3.998
 3577TIP3   OH210736   5.514   4.991   1.357
 3577TIP3    H110737   5.599   4.948   1.349
 3577TIP3    H210738   5.455   4.921   1.385
 3578TIP3   OH210739   3.727   0.243   3.153
 3578TIP3    H110740   3.650   0.283   3.112
 3578TIP3    H210741   3.795   0.247   3.086
 3579TIP3   OH210742   3.430   5.600   1.182
 3579TIP3    H110743   3.449   5.643   1.265
 3579TIP3    H210744   3.437   5.669   1.116
 3580TIP3   OH210745   1.141   4.574   3.768
 3580TIP3    H110746   1.197   4.592   3.843
 3580TIP3    H210747   1.070   4.638   3.775
 3581TIP3   OH210748   1.971   1.602   4.036
 3581TIP3    H110749   1.890   1.628   3.994
 3581TIP3    H210750   1.979   1.508   4.021
 3582TIP3   OH210751   1.017   5.527   4.245
 3582TIP3    H110752   1.043   5.540   4.154
 3582TIP3    H210753   0.942   5.585   4.257
 3583TIP3   OH210754   5.986   1.332   1.268
 3583TIP3    H110755   5.996   1.276   1.190
 3583TIP3    H210756   6.067   1.319   1.317
 3584TIP3   OH210757   3.511   1.560   4.066
 3584TIP3    H110758   3.482   1.608   4.144
 3584TIP3    H210759   3.581   1.614   4.030
 3585TIP3   OH210760   3.148   5.845   1.807
 3585TIP3    H110761   3.159   5.753   1.782
 3585TIP3    H210762   3.214   5.892   1.756
 3586TIP3   OH210763   5.333   3.555   4.728
 3586TIP3    H110764   5.367   3.515   4.808
 3586TIP3    H210765   5.263   3.496   4.701
 3587TIP3   OH210766   0.484   1.462   0.462
 3587TIP3    H110767   0.466   1.556   0.449
 3587TIP3    H210768   0.572   1.460   0.501
 3588TIP3   OH210769   2.575   1.297   4.662
 3588TIP3    H110770   2.605   1.220   4.710
 3588TIP3    H210771   2.479   1.288   4.661
 3589TIP3   OH210772   4.399   5.814   3.764
 3589TIP3    H110773   4.329   5.874   3.740
 3589TIP3    H210774   4.386   5.737   3.709
 3590TIP3   OH210775   1.578   4.777   4.015
 3590TIP3    H110776   1.669   4.748   4.008
 3590TIP3    H210777   1.583   4.862   4.059
 3591TIP3   OH210778   0.801   3.394   4.274
 3591TIP3    H110779   0.748   3.317   4.295
 3591TIP3    H210780   0.891   3.365   4.285
 3592TIP3   OH210781   2.218   1.623   3.691
 3592TIP3    H110782   2.255   1.571   3.763
 3592TIP3    H210783   2.227   1.714   3.721
 3593TIP3   OH210784   0.907   5.326   3.041
 3593TIP3    H110785   0.992   5.316   2.998
 3593TIP3    H210786   0.928   5.348   3.132
 3594TIP3   OH210787   3.644   5.627   2.377
 3594TIP3    H110788   3.710   5.673   2.325
 3594TIP3    H210789   3.671   5.535   2.373
 3595TIP3   OH210790   3.107   0.564   1.080
 3595TIP3    H110791   3.029   0.526   1.038
 3595TIP3    H210792   3.077   0.650   1.110
 3596TIP3   OH210793   3.484   3.203   5.050
 3596TIP3    H110794   3.474   3.268   4.980
 3596TIP3    H210795   3.474   3.254   5.131
 3597TIP3   OH210796   1.336   4.632   3.986
 3597TIP3    H110797   1.271   4.702   3.981
 3597TIP3    H210798   1.420   4.677   3.980
 3598TIP3   OH210799   2.041   4.090   3.661
 3598TIP3    H110800   2.125   4.092   3.616
 3598TIP3    H210801   1.981   4.045   3.601
 3599TIP3   OH210802   2.146   2.602   1.118
 3599TIP3    H110803   2.053   2.585   1.133
 3599TIP3    H210804   2.149   2.639   1.029
 3600TIP3   OH210805   1.451   3.339   1.933
 3600TIP3    H110806   1.390   3.403   1.897
 3600TIP3    H210807   1.398   3.262   1.952
 3601TIP3   OH210808   0.789   1.506   2.204
 3601TIP3    H110809   0.833   1.458   2.274
 3601TIP3    H210810   0.830   1.472   2.124
 3602TIP3   OH210811   0.607   3.655   4.738
 3602TIP3    H110812   0.574   3.636   4.826
 3602TIP3    H210813   0.695   3.691   4.752
 3603TIP3   OH210814   2.490   2.885   0.266
 3603TIP3    H110815   2.416   2.847   0.313
 3603TIP3    H210816   2.567   2.851   0.311
 3604TIP3   OH210817   5.247   4.867   2.768
 3604TIP3    H110818   5.198   4.808   2.710
 3604TIP3    H210819   5.329   4.821   2.785
 3605TIP3   OH210820   2.937   4.812   2.564
 3605TIP3    H110821   2.914   4.722   2.589
 3605TIP3    H210822   3.033   4.810   2.557
 3606TIP3   OH210823   1.846   3.185   2.219
 3606TIP3    H110824   1.898   3.104   2.223
 3606TIP3    H210825   1.763   3.161   2.259
 3607TIP3   OH210826   3.575   2.496   3.950
 3607TIP3    H110827   3.561   2.482   3.856
 3607TIP3    H210828   3.663   2.463   3.966
 3608TIP3   OH210829   2.065   5.849   1.872
 3608TIP3    H110830   2.161   5.845   1.862
 3608TIP3    H210831   2.051   5.847   1.967
 3609TIP3   OH210832   5.820   5.429   3.153
 3609TIP3    H110833   5.810   5.524   3.157
 3609TIP3    H210834   5.759   5.401   3.085
 3610TIP3   OH210835   3.579   4.165   1.619
 3610TIP3    H110836   3.556   4.258   1.620
 3610TIP3    H210837   3.509   4.123   1.569
 3611TIP3   OH210838   0.612   5.677   1.936
 3611TIP3    H110839   0.542   5.697   1.874
 3611TIP3    H210840   0.651   5.763   1.955
 3612TIP3   OH210841   0.874   3.796   4.320
 3612TIP3    H110842   0.914   3.865   4.267
 3612TIP3    H210843   0.786   3.828   4.338
 3613TIP3   OH210844   5.158   3.061   1.445
 3613TIP3    H110845   5.102   3.085   1.371
 3613TIP3    H210846   5.174   2.968   1.434
 3614TIP3   OH210847   2.032   4.954   1.915
 3614TIP3    H110848   2.029   4.983   1.824
 3614TIP3    H210849   1.952   4.990   1.954
 3615TIP3   OH210850   4.403   3.428   3.400
 3615TIP3    H110851   4.412   3.361   3.333
 3615TIP3    H210852   4.483   3.480   3.393
 3616TIP3   OH210853   3.109   4.058   2.312
 3616TIP3    H110854   3.179   4.004   2.275
 3616TIP3    H210855   3.040   4.057   2.245
 3617TIP3   OH210856   1.385  -0.022   2.835
 3617TIP3    H110857   1.456   0.034   2.866
 3617TIP3    H210858   1.305   0.022   2.865
 3618TIP3   OH210859   1.686   0.970   3.653
 3618TIP3    H110860   1.671   0.991   3.745
 3618TIP3    H210861   1.609   1.002   3.607
 3619TIP3   OH210862   6.108   2.983   1.505
 3619TIP3    H110863   6.191   3.030   1.505
 3619TIP3    H210864   6.125   2.903   1.454
 3620TIP3   OH210865   5.803   4.553   5.167
 3620TIP3    H110866   5.849   4.603   5.235
 3620TIP3    H210867   5.872   4.514   5.115
 3621TIP3   OH210868   2.313   4.439   0.328
 3621TIP3    H110869   2.267   4.504   0.381
 3621TIP3    H210870   2.406   4.454   0.347
 3622TIP3   OH210871   6.014   5.100   3.122
 3622TIP3    H110872   5.994   5.012   3.089
 3622TIP3    H210873   6.109   5.104   3.120
 3623TIP3   OH210874   1.604   4.119   4.687
 3623TIP3    H110875   1.574   4.144   4.599
 3623TIP3    H210876   1.598   4.024   4.688
 3624TIP3   OH210877   2.603   3.896   3.660
 3624TIP3    H110878   2.602   3.809   3.620
 3624TIP3    H210879   2.527   3.940   3.624
 3625TIP3   OH210880   3.872   4.928   3.938
 3625TIP3    H110881   3.805   4.861   3.923
 3625TIP3    H210882   3.938   4.885   3.992
 3626TIP3   OH210883   6.078   2.310   3.482
 3626TIP3    H110884   6.096   2.394   3.440
 3626TIP3    H210885   6.103   2.245   3.417
 3627TIP3   OH210886   1.970   1.782   2.550
 3627TIP3    H110887   1.894   1.824   2.510
 3627TIP3    H210888   2.000   1.720   2.484
 3628TIP3   OH210889   2.420   1.040   2.581
 3628TIP3    H110890   2.351   1.027   2.516
 3628TIP3    H210891   2.374   1.059   2.662
 3629TIP3   OH210892   1.515   5.155   1.123
 3629TIP3    H110893   1.537   5.239   1.162
 3629TIP3    H210894   1.552   5.158   1.035
 3630TIP3   OH210895   1.003   4.886   4.585
 3630TIP3    H110896   0.963   4.950   4.644
 3630TIP3    H210897   1.019   4.935   4.505
 3631TIP3   OH210898   5.485   5.653   1.186
 3631TIP3    H110899   5.512   5.584   1.246
 3631TIP3    H210900   5.467   5.608   1.103
 3632TIP3   OH210901   0.523   0.346   0.992
 3632TIP3    H110902   0.544   0.288   1.065
 3632TIP3    H210903   0.507   0.286   0.919
 3633TIP3   OH210904   4.312   4.026   4.414
 3633TIP3    H110905   4.281   3.982   4.334
 3633TIP3    H210906   4.261   3.987   4.484
 3634TIP3   OH210907   4.523   1.767   1.246
 3634TIP3    H110908   4.451   1.704   1.238
 3634TIP3    H210909   4.479   1.853   1.247
 3635TIP3   OH210910   3.504   0.563   2.409
 3635TIP3    H110911   3.578   0.584   2.352
 3635TIP3    H210912   3.510   0.627   2.480
 3636TIP3   OH210913   1.356   4.617   2.374
 3636TIP3    H110914   1.416   4.659   2.435
 3636TIP3    H210915   1.412   4.579   2.307
 3637TIP3   OH210916   5.848   1.328   3.077
 3637TIP3    H110917   5.799   1.249   3.103
 3637TIP3    H210918   5.789   1.401   3.100
 3638TIP3   OH210919   2.298   0.912   4.537
 3638TIP3    H110920   2.316   0.986   4.480
 3638TIP3    H210921   2.219   0.872   4.501
 3639TIP3   OH210922   5.446   0.240   1.396
 3639TIP3    H110923   5.532   0.282   1.393
 3639TIP3    H210924   5.451   0.183   1.473
 3640TIP3   OH210925   1.653   4.231   3.833
 3640TIP3    H110926   1.747   4.241   3.844
 3640TIP3    H210927   1.621   4.319   3.815
 3641TIP3   OH210928   5.215   2.994   0.967
 3641TIP3    H110929   5.153   3.060   0.934
 3641TIP3    H210930   5.299   3.017   0.928
 3642TIP3   OH210931   1.905   2.101   0.394
 3642TIP3    H110932   1.810   2.092   0.396
 3642TIP3    H210933   1.925   2.157   0.469
 3643TIP3   OH210934   6.039   1.801   1.053
 3643TIP3    H110935   6.053   1.714   1.016
 3643TIP3    H210936   6.010   1.785   1.143
 3644TIP3   OH210937   0.262   4.231   2.221
 3644TIP3    H110938   0.327   4.228   2.291
 3644TIP3    H210939   0.216   4.147   2.228
 3645TIP3   OH210940   3.320   2.294   1.717
 3645TIP3    H110941   3.381   2.321   1.648
 3645TIP3    H210942   3.288   2.208   1.689
 3646TIP3   OH210943   4.857   3.077   3.744
 3646TIP3    H110944   4.930   3.048   3.690
 3646TIP3    H210945   4.838   3.002   3.801
 3647TIP3   OH210946   1.400   5.621   2.534
 3647TIP3    H110947   1.363   5.597   2.619
 3647TIP3    H210948   1.352   5.700   2.508
 3648TIP3   OH210949   5.285   3.249   0.167
 3648TIP3    H110950   5.381   3.253   0.160
 3648TIP3    H210951   5.267   3.269   0.259
 3649TIP3   OH210952   4.742   1.175   1.258
 3649TIP3    H110953   4.791   1.108   1.211
 3649TIP3    H210954   4.698   1.225   1.190
 3650TIP3   OH210955   2.748   1.476   0.774
 3650TIP3    H110956   2.657   1.497   0.755
 3650TIP3    H210957   2.757   1.490   0.868
 3651TIP3   OH210958   4.554   0.857   4.936
 3651TIP3    H110959   4.568   0.769   4.972
 3651TIP3    H210960   4.487   0.845   4.869
 3652TIP3   OH210961   5.768   1.537   0.799
 3652TIP3    H110962   5.784   1.607   0.862
 3652TIP3    H210963   5.783   1.456   0.847
 3653TIP3   OH210964   2.329   1.824   4.573
 3653TIP3    H110965   2.268   1.782   4.513
 3653TIP3    H210966   2.413   1.781   4.556
 3654TIP3   OH210967   0.384   4.638   3.140
 3654TIP3    H110968   0.405   4.729   3.161
 3654TIP3    H210969   0.433   4.620   3.060
 3655TIP3   OH210970   0.784   4.311   3.372
 3655TIP3    H110971   0.832   4.337   3.293
 3655TIP3    H210972   0.780   4.391   3.425
 3656TIP3   OH210973   5.579   5.520   1.766
 3656TIP3    H110974   5.584   5.554   1.856
 3656TIP3    H210975   5.578   5.598   1.711
 3657TIP3   OH210976   5.686   1.887   1.927
 3657TIP3    H110977   5.729   1.802   1.941
 3657TIP3    H210978   5.638   1.876   1.845
 3658TIP3   OH210979   5.025   5.615   1.671
 3658TIP3    H110980   5.120   5.615   1.686
 3658TIP3    H210981   4.989   5.661   1.747
 3659TIP3   OH210982   3.657   5.593   0.540
 3659TIP3    H110983   3.612   5.597   0.624
 3659TIP3    H210984   3.727   5.659   0.547
 3660TIP3   OH210985   2.035   0.315   1.715
 3660TIP3    H110986   2.112   0.322   1.658
 3660TIP3    H210987   2.006   0.405   1.728
 3661TIP3   OH210988   1.142   5.037   0.805
 3661TIP3    H110989   1.143   5.096   0.880
 3661TIP3    H210990   1.082   5.077   0.743
 3662TIP3   OH210991   0.561   5.917   0.620
 3662TIP3    H110992   0.479   5.961   0.599
 3662TIP3    H210993   0.629   5.981   0.598
 3663TIP3   OH210994   1.032   2.377   0.656
 3663TIP3    H110995   1.082   2.301   0.687
 3663TIP3    H210996   1.010   2.355   0.565
 3664TIP3   OH210997   0.454   3.756   5.167
 3664TIP3    H110998   0.479   3.681   5.221
 3664TIP3    H210999   0.523   3.762   5.100
 3665TIP3   OH211000   3.897   0.919   1.319
 3665TIP3    H111001   3.805   0.947   1.319
 3665TIP3    H211002   3.907   0.872   1.402
 3666TIP3   OH211003   5.646   4.855   3.950
 3666TIP3    H111004   5.665   4.816   4.035
 3666TIP3    H211005   5.723   4.908   3.930
 3667TIP3   OH211006   4.009   2.985   2.896
 3667TIP3    H111007   3.934   3.043   2.883
 3667TIP3    H211008   3.990   2.939   2.978
 3668TIP3   OH211009   2.983   1.976   2.299
 3668TIP3    H111010   2.986   1.955   2.392
 3668TIP3    H211011   3.064   2.024   2.283
 3669TIP3   OH211012   3.056   4.067   3.205
 3669TIP3    H111013   2.964   4.091   3.195
 3669TIP3    H211014   3.100   4.104   3.129
 3670TIP3   OH211015   1.256   0.662   3.639
 3670TIP3    H111016   1.258   0.738   3.697
 3670TIP3    H211017   1.255   0.587   3.698
 3671TIP3   OH211018   0.449   1.845   4.141
 3671TIP3    H111019   0.478   1.862   4.231
 3671TIP3    H211020   0.372   1.789   4.151
 3672TIP3   OH211021   0.434   2.830   2.752
 3672TIP3    H111022   0.499   2.841   2.821
 3672TIP3    H211023   0.376   2.761   2.784
 3673TIP3   OH211024   2.225   1.681   0.695
 3673TIP3    H111025   2.220   1.610   0.760
 3673TIP3    H211026   2.197   1.759   0.743
 3674TIP3   OH211027   5.264   0.021   4.074
 3674TIP3    H111028   5.237  -0.066   4.103
 3674TIP3    H211029   5.272   0.072   4.154
 3675TIP3   OH211030   2.703   3.163   5.096
 3675TIP3    H111031   2.758   3.095   5.136
 3675TIP3    H211032   2.716   3.240   5.151
 3676TIP3   OH211033   0.789   5.212   1.182
 3676TIP3    H111034   0.736   5.136   1.204
 3676TIP3    H211035   0.877   5.190   1.213
 3677TIP3   OH211036   1.869   2.441   1.950
 3677TIP3    H111037   1.945   2.469   1.900
 3677TIP3    H211038   1.858   2.507   2.018
 3678TIP3   OH211039   1.096   0.348   0.229
 3678TIP3    H111040   1.173   0.403   0.224
 3678TIP3    H211041   1.114   0.288   0.302
 3679TIP3   OH211042   6.213   1.980   0.396
 3679TIP3    H111043   6.195   1.936   0.313
 3679TIP3    H211044   6.197   1.913   0.462
 3680TIP3   OH211045   4.051   0.139   0.855
 3680TIP3    H111046   3.965   0.102   0.837
 3680TIP3    H211047   4.070   0.114   0.945
 3681TIP3   OH211048   4.110   4.442   3.056
 3681TIP3    H111049   4.016   4.430   3.048
 3681TIP3    H211050   4.146   4.353   3.058
 3682TIP3   OH211051   1.109   2.767   3.026
 3682TIP3    H111052   1.039   2.780   2.963
 3682TIP3    H211053   1.101   2.676   3.053
 3683TIP3   OH211054   1.855   4.759   2.685
 3683TIP3    H111055   1.794   4.821   2.645
 3683TIP3    H211056   1.919   4.740   2.617
 3684TIP3   OH211057   0.998   0.982   1.965
 3684TIP3    H111058   0.999   1.063   2.016
 3684TIP3    H211059   0.914   0.941   1.985
 3685TIP3   OH211060   4.788   4.173   2.670
 3685TIP3    H111061   4.872   4.129   2.653
 3685TIP3    H211062   4.755   4.131   2.749
 3686TIP3   OH211063   5.097   4.720   2.581
 3686TIP3    H111064   5.111   4.645   2.638
 3686TIP3    H211065   5.027   4.692   2.521
 3687TIP3   OH211066   4.627   2.002   1.978
 3687TIP3    H111067   4.716   1.973   1.997
 3687TIP3    H211068   4.600   2.052   2.056
 3688TIP3   OH211069   1.285   0.263   3.706
 3688TIP3    H111070   1.253   0.306   3.627
 3688TIP3    H211071   1.369   0.304   3.725
 3689TIP3   OH211072   2.799   0.740  -0.005
 3689TIP3    H111073   2.754   0.657   0.010
 3689TIP3    H211074   2.733   0.807   0.012
 3690TIP3   OH211075   2.623   1.648   2.234
 3690TIP3    H111076   2.561   1.633   2.306
 3690TIP3    H211077   2.628   1.563   2.189
 3691TIP3   OH211078   5.085   5.004   4.667
 3691TIP3    H111079   5.130   4.928   4.630
 3691TIP3    H211080   5.000   5.005   4.623
 3692TIP3   OH211081   5.722   1.284   0.883
 3692TIP3    H111082   5.689   1.202   0.920
 3692TIP3    H211083   5.817   1.272   0.880
 3693TIP3   OH211084   1.882   5.984   1.101
 3693TIP3    H111085   1.937   5.913   1.070
 3693TIP3    H211086   1.795   5.944   1.113
 3694TIP3   OH211087   0.261   4.562   5.095
 3694TIP3    H111088   0.317   4.504   5.146
 3694TIP3    H211089   0.312   4.642   5.084
 3695TIP3   OH211090   3.200   2.611   2.194
 3695TIP3    H111091   3.189   2.516   2.206
 3695TIP3    H211092   3.195   2.623   2.099
 3696TIP3   OH211093   4.088   2.353   2.633
 3696TIP3    H111094   4.103   2.282   2.695
 3696TIP3    H211095   4.171   2.361   2.586
 3697TIP3   OH211096   1.888   2.476   0.074
 3697TIP3    H111097   1.836   2.395   0.074
 3697TIP3    H211098   1.856   2.525  -0.002
 3698TIP3   OH211099   3.059   2.710   1.578
 3698TIP3    H111100   3.074   2.750   1.664
 3698TIP3    H211101   3.021   2.780   1.525
 3699TIP3   OH211102   4.463   1.872   3.317
 3699TIP3    H111103   4.462   1.785   3.358
 3699TIP3    H211104   4.535   1.867   3.253
 3700TIP3   OH211105   1.923   0.024   4.099
 3700TIP3    H111106   1.952   0.054   4.185
 3700TIP3    H211107   1.901   0.104   4.052
 3701TIP3   OH211108   0.926   4.897   2.023
 3701TIP3    H111109   0.900   4.989   2.019
 3701TIP3    H211110   0.844   4.849   2.029
 3702TIP3   OH211111   1.142   4.357   4.583
 3702TIP3    H111112   1.179   4.385   4.500
 3702TIP3    H211113   1.052   4.390   4.582
 3703TIP3   OH211114   0.199   5.314   3.432
 3703TIP3    H111115   0.136   5.378   3.398
 3703TIP3    H211116   0.177   5.306   3.525
 3704TIP3   OH211117   4.036   5.460   4.698
 3704TIP3    H111118   3.985   5.408   4.636
 3704TIP3    H211119   4.080   5.526   4.645
 3705TIP3   OH211120   0.354   1.532   2.665
 3705TIP3    H111121   0.418   1.479   2.713
 3705TIP3    H211122   0.338   1.483   2.584
 3706TIP3   OH211123   5.941   0.078   4.650
 3706TIP3    H111124   5.980   0.119   4.573
 3706TIP3    H211125   5.920   0.151   4.708
 3707TIP3   OH211126   2.665   0.942   3.251
 3707TIP3    H111127   2.605   0.873   3.279
 3707TIP3    H211128   2.671   1.001   3.326
 3708TIP3   OH211129   2.103   2.200   0.041
 3708TIP3    H111130   2.151   2.142  -0.018
 3708TIP3    H211131   2.153   2.282   0.040
 3709TIP3   OH211132   1.702   4.586   1.883
 3709TIP3    H111133   1.684   4.502   1.842
 3709TIP3    H211134   1.727   4.643   1.810
 3710TIP3   OH211135   5.407   3.417   4.972
 3710TIP3    H111136   5.334   3.363   5.002
 3710TIP3    H211137   5.427   3.474   5.047
 3711TIP3   OH211138   1.523   0.095   2.442
 3711TIP3    H111139   1.603   0.053   2.475
 3711TIP3    H211140   1.515   0.063   2.352
 3712TIP3   OH211141   0.552   2.027   1.540
 3712TIP3    H111142   0.615   1.976   1.590
 3712TIP3    H211143   0.581   2.118   1.552
 3713TIP3   OH211144   3.676   5.177   3.752
 3713TIP3    H111145   3.735   5.102   3.738
 3713TIP3    H211146   3.592   5.147   3.719
 3714TIP3   OH211147   4.257   0.843   0.009
 3714TIP3    H111148   4.246   0.772  -0.054
 3714TIP3    H211149   4.333   0.817   0.062
 3715TIP3   OH211150   3.334   0.557   0.052
 3715TIP3    H111151   3.386   0.483   0.082
 3715TIP3    H211152   3.258   0.559   0.110
 3716TIP3   OH211153   3.375   1.177   1.978
 3716TIP3    H111154   3.381   1.081   1.977
 3716TIP3    H211155   3.287   1.195   2.009
 3717TIP3   OH211156   4.855   2.072   0.056
 3717TIP3    H111157   4.853   2.069   0.152
 3717TIP3    H211158   4.902   2.153   0.036
 3718TIP3   OH211159   2.730   0.174   0.884
 3718TIP3    H111160   2.634   0.177   0.889
 3718TIP3    H211161   2.748   0.128   0.802
 3719TIP3   OH211162   0.067  -0.009   0.737
 3719TIP3    H111163  -0.014   0.040   0.727
 3719TIP3    H211164   0.126   0.051   0.783
 3720TIP3   OH211165   5.569   0.740   3.716
 3720TIP3    H111166   5.582   0.835   3.719
 3720TIP3    H211167   5.494   0.724   3.773
 3721TIP3   OH211168   4.678   2.652   4.942
 3721TIP3    H111169   4.637   2.609   4.866
 3721TIP3    H211170   4.649   2.601   5.017
 3722TIP3   OH211171   0.354   3.053   1.191
 3722TIP3    H111172   0.308   3.112   1.131
 3722TIP3    H211173   0.422   3.107   1.230
 3723TIP3   OH211174   4.344   0.645   0.359
 3723TIP3    H111175   4.260   0.681   0.333
 3723TIP3    H211176   4.390   0.718   0.402
 3724TIP3   OH211177   3.113   0.722   1.582
 3724TIP3    H111178   3.167   0.705   1.504
 3724TIP3    H211179   3.153   0.799   1.622
 3725TIP3   OH211180   1.822   1.627   5.040
 3725TIP3    H111181   1.869   1.642   5.122
 3725TIP3    H211182   1.826   1.711   4.995
 3726TIP3   OH211183   5.643   0.514   0.730
 3726TIP3    H111184   5.685   0.432   0.757
 3726TIP3    H211185   5.568   0.522   0.788
 3727TIP3   OH211186   2.262   1.919   2.771
 3727TIP3    H111187   2.270   1.867   2.691
 3727TIP3    H211188   2.169   1.913   2.794
 3728TIP3   OH211189   1.097   5.527   2.195
 3728TIP3    H111190   1.111   5.609   2.243
 3728TIP3    H211191   1.002   5.522   2.183
 3729TIP3   OH211192   3.105   1.832   0.358
 3729TIP3    H111193   3.046   1.759   0.338
 3729TIP3    H211194   3.079   1.860   0.446
 3730TIP3   OH211195   0.726   4.715   2.323
 3730TIP3    H111196   0.756   4.794   2.368
 3730TIP3    H211197   0.804   4.661   2.314
 3731TIP3   OH211198   1.178   1.641   3.794
 3731TIP3    H111199   1.096   1.617   3.837
 3731TIP3    H211200   1.238   1.663   3.866
 3732TIP3   OH211201   0.139   4.680   4.230
 3732TIP3    H111202   0.074   4.612   4.249
 3732TIP3    H211203   0.222   4.640   4.256
 3733TIP3   OH211204   3.371   0.863   3.237
 3733TIP3    H111205   3.339   0.952   3.251
 3733TIP3    H211206   3.309   0.825   3.175
 3734TIP3   OH211207   5.702   1.663   0.388
 3734TIP3    H111208   5.690   1.570   0.365
 3734TIP3    H211209   5.792   1.668   0.419
 3735TIP3   OH211210   5.477   3.321   3.081
 3735TIP3    H111211   5.557   3.293   3.125
 3735TIP3    H211212   5.435   3.239   3.054
 3736TIP3   OH211213   3.591   3.418   2.801
 3736TIP3    H111214   3.574   3.405   2.708
 3736TIP3    H211215   3.635   3.338   2.829
 3737TIP3   OH211216   3.504   5.327   1.288
 3737TIP3    H111217   3.590   5.309   1.252
 3737TIP3    H211218   3.481   5.414   1.254
 3738TIP3   OH211219   1.350   1.660   4.000
 3738TIP3    H111220   1.394   1.717   4.063
 3738TIP3    H211221   1.384   1.573   4.017
 3739TIP3   OH211222   3.109   3.631   0.030
 3739TIP3    H111223   3.193   3.676   0.019
 3739TIP3    H211224   3.057   3.658  -0.046
 3740TIP3   OH211225   6.025   3.937   3.485
 3740TIP3    H111226   6.075   3.960   3.563
 3740TIP3    H211227   6.073   3.976   3.412
 3741TIP3   OH211228   5.469   4.187   4.089
 3741TIP3    H111229   5.488   4.094   4.075
 3741TIP3    H211230   5.458   4.223   4.001
 3742TIP3   OH211231   5.971   5.645   2.820
 3742TIP3    H111232   6.047   5.686   2.778
 3742TIP3    H211233   5.905   5.642   2.751
 3743TIP3   OH211234   4.688   0.625   0.790
 3743TIP3    H111235   4.662   0.607   0.881
 3743TIP3    H211236   4.643   0.706   0.768
 3744TIP3   OH211237   0.785   1.639   1.250
 3744TIP3    H111238   0.830   1.578   1.308
 3744TIP3    H211239   0.758   1.711   1.308
 3745TIP3   OH211240   1.577   5.463   4.970
 3745TIP3    H111241   1.513   5.399   4.940
 3745TIP3    H211242   1.528   5.518   5.032
 3746TIP3   OH211243   4.574   0.385   1.898
 3746TIP3    H111244   4.485   0.419   1.909
 3746TIP3    H211245   4.567   0.292   1.919
 3747TIP3   OH211246   1.223   2.614   2.204
 3747TIP3    H111247   1.293   2.625   2.268
 3747TIP3    H211248   1.237   2.527   2.167
 3748TIP3   OH211249   0.872   0.501   4.244
 3748TIP3    H111250   0.786   0.542   4.231
 3748TIP3    H211251   0.934   0.572   4.227
 3749TIP3   OH211252   4.902   4.207   5.018
 3749TIP3    H111253   4.876   4.293   5.051
 3749TIP3    H211254   4.874   4.208   4.926
 3750TIP3   OH211255   1.591   5.400   1.214
 3750TIP3    H111256   1.653   5.413   1.286
 3750TIP3    H211257   1.520   5.461   1.233
 3751TIP3   OH211258   1.400   5.038   2.868
 3751TIP3    H111259   1.464   5.096   2.911
 3751TIP3    H211260   1.402   4.958   2.921
 3752TIP3   OH211261   2.422   0.867   3.723
 3752TIP3    H111262   2.493   0.812   3.757
 3752TIP3    H211263   2.467   0.943   3.685
 3753TIP3   OH211264   0.155   1.891   1.848
 3753TIP3    H111265   0.082   1.834   1.822
 3753TIP3    H211266   0.185   1.856   1.931
 3754TIP3   OH211267   4.606   2.577   1.109
 3754TIP3    H111268   4.520   2.606   1.079
 3754TIP3    H211269   4.667   2.641   1.072
 3755TIP3   OH211270   4.954   3.196   0.936
 3755TIP3    H111271   4.860   3.180   0.940
 3755TIP3    H211272   4.969   3.269   0.996
 3756TIP3   OH211273   4.094   0.750   0.378
 3756TIP3    H111274   4.105   0.719   0.468
 3756TIP3    H211275   4.102   0.846   0.384
 3757TIP3   OH211276   2.161   4.255   3.977
 3757TIP3    H111277   2.155   4.161   3.955
 3757TIP3    H211278   2.165   4.257   4.073
 3758TIP3   OH211279   0.747   3.341   3.550
 3758TIP3    H111280   0.681   3.410   3.544
 3758TIP3    H211281   0.733   3.287   3.473
 3759TIP3   OH211282   6.202   3.726   3.308
 3759TIP3    H111283   6.226   3.645   3.353
 3759TIP3    H211284   6.118   3.751   3.348
 3760TIP3   OH211285   2.331   1.333   1.767
 3760TIP3    H111286   2.384   1.402   1.728
 3760TIP3    H211287   2.298   1.282   1.693
 3761TIP3   OH211288   5.252   2.536   3.216
 3761TIP3    H111289   5.269   2.620   3.259
 3761TIP3    H211290   5.158   2.522   3.226
 3762TIP3   OH211291   2.714   0.475   3.569
 3762TIP3    H111292   2.717   0.570   3.581
 3762TIP3    H211293   2.701   0.440   3.657
 3763TIP3   OH211294   1.366   4.567   2.816
 3763TIP3    H111295   1.290   4.567   2.874
 3763TIP3    H211296   1.394   4.475   2.813
 3764TIP3   OH211297   2.118   3.047   2.569
 3764TIP3    H111298   2.150   2.987   2.501
 3764TIP3    H211299   2.179   3.121   2.567
 3765TIP3   OH211300   1.694   1.571   3.961
 3765TIP3    H111301   1.672   1.664   3.957
 3765TIP3    H211302   1.694   1.543   3.870
 3766TIP3   OH211303   2.312   4.703   0.432
 3766TIP3    H111304   2.344   4.789   0.461
 3766TIP3    H211305   2.267   4.720   0.349
 3767TIP3   OH211306   2.721   1.845   0.681
 3767TIP3    H111307   2.629   1.826   0.661
 3767TIP3    H211308   2.721   1.865   0.775
 3768TIP3   OH211309   5.004   2.917   3.342
 3768TIP3    H111310   4.943   2.873   3.283
 3768TIP3    H211311   4.984   3.010   3.332
 3769TIP3   OH211312   2.298   1.105   0.574
 3769TIP3    H111313   2.292   1.067   0.661
 3769TIP3    H211314   2.373   1.061   0.534
 3770TIP3   OH211315   5.829   3.986   2.995
 3770TIP3    H111316   5.820   3.903   2.947
 3770TIP3    H211317   5.803   3.964   3.085
 3771TIP3   OH211318   5.661   4.886   0.516
 3771TIP3    H111319   5.599   4.814   0.530
 3771TIP3    H211320   5.733   4.846   0.469
 3772TIP3   OH211321   3.119   0.132   0.912
 3772TIP3    H111322   3.092   0.202   0.852
 3772TIP3    H211323   3.040   0.078   0.922
 3773TIP3   OH211324   1.122   2.558   1.672
 3773TIP3    H111325   1.084   2.600   1.595
 3773TIP3    H211326   1.047   2.536   1.727
 3774TIP3   OH211327   3.715   5.552   2.067
 3774TIP3    H111328   3.725   5.646   2.056
 3774TIP3    H211329   3.631   5.532   2.025
 3775TIP3   OH211330   0.895   4.579   0.758
 3775TIP3    H111331   0.939   4.512   0.810
 3775TIP3    H211332   0.816   4.600   0.808
 3776TIP3   OH211333   3.379   5.456   2.480
 3776TIP3    H111334   3.423   5.479   2.562
 3776TIP3    H211335   3.331   5.535   2.456
 3777TIP3   OH211336   5.577   4.315   0.589
 3777TIP3    H111337   5.484   4.310   0.609
 3777TIP3    H211338   5.590   4.403   0.553
 3778TIP3   OH211339   3.364   4.662   1.988
 3778TIP3    H111340   3.320   4.580   1.966
 3778TIP3    H211341   3.399   4.648   2.075
 3779TIP3   OH211342   1.583   1.451   3.263
 3779TIP3    H111343   1.571   1.546   3.260
 3779TIP3    H211344   1.552   1.420   3.178
 3780TIP3   OH211345   6.306   1.235   2.331
 3780TIP3    H111346   6.240   1.175   2.295
 3780TIP3    H211347   6.257   1.315   2.350
 3781TIP3   OH211348   5.519   4.769   2.721
 3781TIP3    H111349   5.613   4.773   2.704
 3781TIP3    H211350   5.510   4.705   2.792
 3782TIP3   OH211351   6.067   3.142   1.121
 3782TIP3    H111352   5.976   3.129   1.147
 3782TIP3    H211353   6.085   3.071   1.059
 3783TIP3   OH211354   0.989   1.501   1.455
 3783TIP3    H111355   1.001   1.540   1.542
 3783TIP3    H211356   1.077   1.472   1.430
 3784TIP3   OH211357   3.156   2.003   4.377
 3784TIP3    H111358   3.245   1.975   4.356
 3784TIP3    H211359   3.143   1.977   4.468
 3785TIP3   OH211360   5.080   1.644   1.601
 3785TIP3    H111361   5.076   1.559   1.558
 3785TIP3    H211362   5.005   1.645   1.660
 3786TIP3   OH211363   5.552   1.941   1.675
 3786TIP3    H111364   5.473   1.887   1.680
 3786TIP3    H211365   5.582   1.932   1.584
 3787TIP3   OH211366   4.595   4.613   2.481
 3787TIP3    H111367   4.685   4.593   2.453
 3787TIP3    H211368   4.587   4.708   2.470
 3788TIP3   OH211369   4.970   3.865   4.271
 3788TIP3    H111370   5.064   3.864   4.254
 3788TIP3    H211371   4.929   3.845   4.187
 3789TIP3   OH211372   0.552   0.325   0.352
 3789TIP3    H111373   0.472   0.374   0.370
 3789TIP3    H211374   0.531   0.235   0.377
 3790TIP3   OH211375   0.380   3.147   2.856
 3790TIP3    H111376   0.473   3.147   2.833
 3790TIP3    H211377   0.344   3.222   2.810
 3791TIP3   OH211378   3.031   4.750   5.121
 3791TIP3    H111379   2.993   4.794   5.046
 3791TIP3    H211380   3.010   4.807   5.195
 3792TIP3   OH211381   4.948   3.945   3.798
 3792TIP3    H111382   4.902   3.868   3.767
 3792TIP3    H211383   4.982   3.920   3.884
 3793TIP3   OH211384   4.590   1.356   1.110
 3793TIP3    H111385   4.544   1.330   1.031
 3793TIP3    H211386   4.527   1.343   1.181
 3794TIP3   OH211387   5.827   4.224   4.903
 3794TIP3    H111388   5.828   4.293   4.837
 3794TIP3    H211389   5.843   4.143   4.854
 3795TIP3   OH211390   0.270   3.963   3.540
 3795TIP3    H111391   0.345   3.904   3.536
 3795TIP3    H211392   0.278   4.006   3.625
 3796TIP3   OH211393   3.243   1.994   2.159
 3796TIP3    H111394   3.251   1.907   2.121
 3796TIP3    H211395   3.270   1.984   2.250
 3797TIP3   OH211396   1.003   5.622   4.982
 3797TIP3    H111397   0.992   5.717   4.976
 3797TIP3    H211398   1.009   5.604   5.075
 3798TIP3   OH211399   4.364   4.672   0.052
 3798TIP3    H111400   4.375   4.606  -0.017
 3798TIP3    H211401   4.351   4.754   0.003
 3799TIP3   OH211402   2.013   0.131   4.330
 3799TIP3    H111403   2.084   0.191   4.354
 3799TIP3    H211404   2.017   0.062   4.396
 3800TIP3   OH211405   0.622   3.623   3.180
 3800TIP3    H111406   0.649   3.656   3.265
 3800TIP3    H211407   0.606   3.702   3.128
 3801TIP3   OH211408   4.146   3.188   1.032
 3801TIP3    H111409   4.149   3.150   1.120
 3801TIP3    H211410   4.166   3.114   0.974
 3802TIP3   OH211411   3.198   2.289   0.414
 3802TIP3    H111412   3.276   2.344   0.408
 3802TIP3    H211413   3.198   2.258   0.505
 3803TIP3   OH211414   3.218   0.860   2.738
 3803TIP3    H111415   3.285   0.832   2.800
 3803TIP3    H211416   3.154   0.789   2.738
 3804TIP3   OH211417   3.880   5.131   1.509
 3804TIP3    H111418   3.915   5.052   1.468
 3804TIP3    H211419   3.880   5.110   1.603
 3805TIP3   OH211420   3.952   5.157   1.781
 3805TIP3    H111421   3.989   5.131   1.865
 3805TIP3    H211422   3.991   5.242   1.763
 3806TIP3   OH211423   4.688   5.174   4.086
 3806TIP3    H111424   4.675   5.155   3.993
 3806TIP3    H211425   4.738   5.256   4.087
 3807TIP3   OH211426   0.691   5.142   2.249
 3807TIP3    H111427   0.608   5.128   2.296
 3807TIP3    H211428   0.668   5.198   2.175
 3808TIP3   OH211429   6.088   5.686   4.073
 3808TIP3    H111430   6.020   5.620   4.086
 3808TIP3    H211431   6.094   5.731   4.158
 3809TIP3   OH211432   5.222   4.784   4.162
 3809TIP3    H111433   5.154   4.832   4.209
 3809TIP3    H211434   5.276   4.853   4.123
 3810TIP3   OH211435   5.251   2.866   3.173
 3810TIP3    H111436   5.157   2.858   3.162
 3810TIP3    H211437   5.267   2.840   3.264
 3811TIP3   OH211438   2.082   3.921   2.393
 3811TIP3    H111439   2.060   3.991   2.455
 3811TIP3    H211440   2.160   3.953   2.347
 3812TIP3   OH211441   5.941   5.909   2.894
 3812TIP3    H111442   5.884   5.929   2.969
 3812TIP3    H211443   5.945   5.814   2.892
 3813TIP3   OH211444   5.020   3.733   1.314
 3813TIP3    H111445   5.025   3.794   1.387
 3813TIP3    H211446   4.939   3.684   1.330
 3814TIP3   OH211447   0.044   1.699   4.654
 3814TIP3    H111448   0.059   1.713   4.748
 3814TIP3    H211449   0.106   1.757   4.611
 3815TIP3   OH211450   4.954   3.509   3.003
 3815TIP3    H111451   4.962   3.414   2.997
 3815TIP3    H211452   5.039   3.539   3.034
 3816TIP3   OH211453   4.983   1.977   0.984
 3816TIP3    H111454   4.981   1.888   1.019
 3816TIP3    H211455   4.984   2.033   1.062
 3817TIP3   OH211456   5.992   5.875   1.640
 3817TIP3    H111457   6.062   5.815   1.666
 3817TIP3    H211458   6.003   5.950   1.698
 3818TIP3   OH211459   4.663   2.544   2.384
 3818TIP3    H111460   4.583   2.597   2.380
 3818TIP3    H211461   4.675   2.511   2.295
 3819TIP3   OH211462   5.349   5.723   4.537
 3819TIP3    H111463   5.412   5.661   4.573
 3819TIP3    H211464   5.328   5.781   4.611
 3820TIP3   OH211465   3.804   2.566   1.155
 3820TIP3    H111466   3.844   2.483   1.180
 3820TIP3    H211467   3.811   2.568   1.059
 3821TIP3   OH211468   1.885   4.390   0.773
 3821TIP3    H111469   1.903   4.297   0.790
 3821TIP3    H211470   1.961   4.420   0.724
 3822TIP3   OH211471   0.868   2.162   2.239
 3822TIP3    H111472   0.811   2.161   2.315
 3822TIP3    H211473   0.955   2.145   2.274
 3823TIP3   OH211474   4.484   5.283   2.760
 3823TIP3    H111475   4.501   5.189   2.763
 3823TIP3    H211476   4.446   5.303   2.846
 3824TIP3   OH211477   4.572   5.540   1.617
 3824TIP3    H111478   4.508   5.543   1.546
 3824TIP3    H211479   4.520   5.542   1.697
 3825TIP3   OH211480   3.313   1.842   3.279
 3825TIP3    H111481   3.284   1.827   3.369
 3825TIP3    H211482   3.232   1.848   3.228
 3826TIP3   OH211483   3.025   3.990   2.790
 3826TIP3    H111484   2.996   3.900   2.777
 3826TIP3    H211485   2.956   4.043   2.749
 3827TIP3   OH211486   2.325   4.495   3.921
 3827TIP3    H111487   2.250   4.442   3.947
 3827TIP3    H211488   2.359   4.452   3.842
 3828TIP3   OH211489   3.716   2.381   0.400
 3828TIP3    H111490   3.681   2.296   0.426
 3828TIP3    H211491   3.776   2.405   0.471
 3829TIP3   OH211492   4.230   1.584   3.506
 3829TIP3    H111493   4.165   1.646   3.472
 3829TIP3    H211494   4.304   1.638   3.533
 3830TIP3   OH211495   0.713   1.125   3.277
 3830TIP3    H111496   0.701   1.171   3.193
 3830TIP3    H211497   0.733   1.035   3.252
 3831TIP3   OH211498   5.494   2.816   3.041
 3831TIP3    H111499   5.425   2.843   3.101
 3831TIP3    H211500   5.467   2.730   3.010
 3832TIP3   OH211501   4.830   5.446   2.729
 3832TIP3    H111502   4.915   5.474   2.694
 3832TIP3    H211503   4.816   5.360   2.690
 3833TIP3   OH211504   5.932   2.030   0.258
 3833TIP3    H111505   6.018   2.059   0.286
 3833TIP3    H211506   5.908   2.090   0.187
 3834TIP3   OH211507   0.982   4.152   1.835
 3834TIP3    H111508   1.016   4.105   1.759
 3834TIP3    H211509   0.934   4.086   1.886
 3835TIP3   OH211510   0.246   5.900   5.137
 3835TIP3    H111511   0.165   5.951   5.135
 3835TIP3    H211512   0.260   5.882   5.230
 3836TIP3   OH211513   5.748   2.650   2.303
 3836TIP3    H111514   5.727   2.558   2.321
 3836TIP3    H211515   5.835   2.663   2.341
 3837TIP3   OH211516   0.378   1.591   1.668
 3837TIP3    H111517   0.448   1.611   1.606
 3837TIP3    H211518   0.359   1.498   1.654
 3838TIP3   OH211519   5.056   4.555   2.042
 3838TIP3    H111520   5.146   4.568   2.073
 3838TIP3    H211521   5.003   4.559   2.122
 3839TIP3   OH211522   0.336   2.508   5.045
 3839TIP3    H111523   0.351   2.479   5.135
 3839TIP3    H211524   0.365   2.599   5.044
 3840TIP3   OH211525   6.112   4.209   1.437
 3840TIP3    H111526   6.103   4.295   1.479
 3840TIP3    H211527   6.132   4.149   1.509
 3841TIP3   OH211528   3.244   1.705   4.536
 3841TIP3    H111529   3.191   1.781   4.561
 3841TIP3    H211530   3.323   1.713   4.589
 3842TIP3   OH211531   4.519   4.948   4.604
 3842TIP3    H111532   4.580   4.999   4.551
 3842TIP3    H211533   4.498   5.004   4.679
 3843TIP3   OH211534   4.647   0.730   3.144
 3843TIP3    H111535   4.736   0.696   3.132
 3843TIP3    H211536   4.594   0.653   3.163
 3844TIP3   OH211537   1.370   0.907   1.380
 3844TIP3    H111538   1.423   0.876   1.453
 3844TIP3    H211539   1.431   0.915   1.307
 3845TIP3   OH211540   4.629   5.806   1.684
 3845TIP3    H111541   4.637   5.714   1.658
 3845TIP3    H211542   4.592   5.849   1.607
 3846TIP3   OH211543   3.369   4.969   4.349
 3846TIP3    H111544   3.312   4.983   4.424
 3846TIP3    H211545   3.443   5.028   4.363
 3847TIP3   OH211546   3.971   4.954   2.003
 3847TIP3    H111547   3.957   4.897   2.079
 3847TIP3    H211548   4.051   4.921   1.963
 3848TIP3   OH211549   2.810   4.596   4.839
 3848TIP3    H111550   2.832   4.681   4.877
 3848TIP3    H211551   2.715   4.590   4.847
 3849TIP3   OH211552   0.568   3.355   1.012
 3849TIP3    H111553   0.649   3.372   0.965
 3849TIP3    H211554   0.517   3.436   1.003
 3850TIP3   OH211555   2.737   1.656   3.141
 3850TIP3    H111556   2.730   1.674   3.047
 3850TIP3    H211557   2.749   1.561   3.146
 3851TIP3   OH211558   5.575   2.086   0.462
 3851TIP3    H111559   5.650   2.055   0.513
 3851TIP3    H211560   5.504   2.090   0.526
 3852TIP3   OH211561   4.739   0.936   4.121
 3852TIP3    H111562   4.818   0.925   4.174
 3852TIP3    H211563   4.672   0.963   4.183
 3853TIP3   OH211564   5.442   2.754   1.869
 3853TIP3    H111565   5.511   2.804   1.911
 3853TIP3    H211566   5.478   2.728   1.784
 3854TIP3   OH211567   0.276   2.627   4.161
 3854TIP3    H111568   0.252   2.662   4.246
 3854TIP3    H211569   0.197   2.634   4.108
 3855TIP3   OH211570   0.819   5.059   4.691
 3855TIP3    H111571   0.792   5.001   4.762
 3855TIP3    H211572   0.740   5.108   4.669
 3856TIP3   OH211573   3.594   1.642   3.654
 3856TIP3    H111574   3.653   1.708   3.617
 3856TIP3    H211575   3.650   1.589   3.710
 3857TIP3   OH211576   6.277   2.339   2.289
 3857TIP3    H111577   6.315   2.260   2.250
 3857TIP3    H211578   6.311   2.410   2.236
 3858TIP3   OH211579   5.038   1.658   4.728
 3858TIP3    H111580   4.976   1.728   4.749
 3858TIP3    H211581   5.122   1.703   4.715
 3859TIP3   OH211582   3.889   1.194   0.978
 3859TIP3    H111583   3.794   1.205   0.979
 3859TIP3    H211584   3.917   1.220   1.066
 3860TIP3   OH211585   1.544   2.509   0.172
 3860TIP3    H111586   1.556   2.556   0.089
 3860TIP3    H211587   1.613   2.442   0.172
 3861TIP3   OH211588   5.239   0.351   2.571
 3861TIP3    H111589   5.314   0.406   2.549
 3861TIP3    H211590   5.166   0.391   2.526
 3862TIP3   OH211591   0.151   2.146   3.545
 3862TIP3    H111592   0.198   2.063   3.546
 3862TIP3    H211593   0.070   2.128   3.593
 3863TIP3   OH211594   4.684   1.197   2.741
 3863TIP3    H111595   4.744   1.221   2.670
 3863TIP3    H211596   4.718   1.243   2.818
 3864TIP3   OH211597   1.425   0.806   3.312
 3864TIP3    H111598   1.433   0.853   3.229
 3864TIP3    H211599   1.335   0.774   3.313
 3865TIP3   OH211600   2.245   0.866   0.120
 3865TIP3    H111601   2.202   0.936   0.070
 3865TIP3    H211602   2.205   0.871   0.207
 3866TIP3   OH211603   2.221   1.699   3.380
 3866TIP3    H111604   2.272   1.775   3.409
 3866TIP3    H211605   2.209   1.648   3.460
 3867TIP3   OH211606   6.061   3.532   1.240
 3867TIP3    H111607   6.121   3.592   1.284
 3867TIP3    H211608   6.024   3.478   1.310
 3868TIP3   OH211609   2.683   3.164   2.750
 3868TIP3    H111610   2.646   3.251   2.763
 3868TIP3    H211611   2.610   3.111   2.718
 3869TIP3   OH211612   3.227   2.191   3.381
 3869TIP3    H111613   3.192   2.200   3.470
 3869TIP3    H211614   3.156   2.151   3.331
 3870TIP3   OH211615   4.210   1.927   3.152
 3870TIP3    H111616   4.181   1.972   3.232
 3870TIP3    H211617   4.253   1.848   3.184
 3871TIP3   OH211618   0.915   0.084   0.256
 3871TIP3    H111619   0.971   0.106   0.182
 3871TIP3    H211620   0.968   0.103   0.333
 3872TIP3   OH211621   3.544   1.467   1.582
 3872TIP3    H111622   3.561   1.404   1.652
 3872TIP3    H211623   3.455   1.449   1.554
 3873TIP3   OH211624   4.743   0.269   2.978
 3873TIP3    H111625   4.693   0.259   2.898
 3873TIP3    H211626   4.817   0.209   2.968
 3874TIP3   OH211627   2.835   4.194   0.469
 3874TIP3    H111628   2.840   4.191   0.565
 3874TIP3    H211629   2.903   4.256   0.443
 3875TIP3   OH211630   2.184   4.568   0.640
 3875TIP3    H111631   2.216   4.623   0.568
 3875TIP3    H211632   2.109   4.615   0.675
 3876TIP3   OH211633   0.432   5.052   4.147
 3876TIP3    H111634   0.458   5.011   4.230
 3876TIP3    H211635   0.349   5.009   4.125
 3877TIP3   OH211636   3.592   0.468   4.105
 3877TIP3    H111637   3.566   0.428   4.022
 3877TIP3    H211638   3.605   0.561   4.084
 3878TIP3   OH211639   0.974   5.843   2.843
 3878TIP3    H111640   0.903   5.880   2.790
 3878TIP3    H211641   0.973   5.750   2.823
 3879TIP3   OH211642   3.145   0.825   3.060
 3879TIP3    H111643   3.157   0.920   3.065
 3879TIP3    H211644   3.057   0.811   3.095
 3880TIP3   OH211645   2.919   1.717   1.963
 3880TIP3    H111646   2.851   1.779   1.934
 3880TIP3    H211647   2.917   1.722   2.059
 3881TIP3   OH211648   2.222   5.687   3.817
 3881TIP3    H111649   2.190   5.748   3.883
 3881TIP3    H211650   2.174   5.606   3.833
 3882TIP3   OH211651   4.800   3.559   1.331
 3882TIP3    H111652   4.786   3.465   1.330
 3882TIP3    H211653   4.712   3.597   1.335
 3883TIP3   OH211654   2.156   2.155   0.894
 3883TIP3    H111655   2.074   2.145   0.941
 3883TIP3    H211656   2.215   2.198   0.955
 3884TIP3   OH211657   5.734   3.571   4.011
 3884TIP3    H111658   5.777   3.576   4.097
 3884TIP3    H211659   5.651   3.525   4.029
 3885TIP3   OH211660   5.861   1.872   3.642
 3885TIP3    H111661   5.770   1.852   3.664
 3885TIP3    H211662   5.859   1.959   3.603
 3886TIP3   OH211663   1.223   3.506   3.127
 3886TIP3    H111664   1.151   3.466   3.078
 3886TIP3    H211665   1.210   3.476   3.217
 3887TIP3   OH211666   4.056   2.024   4.725
 3887TIP3    H111667   4.027   1.937   4.750
 3887TIP3    H211668   4.110   2.010   4.647
 3888TIP3   OH211669   2.232   0.664   2.240
 3888TIP3    H111670   2.256   0.674   2.332
 3888TIP3    H211671   2.174   0.587   2.238
 3889TIP3   OH211672   0.144   3.478   1.740
 3889TIP3    H111673   0.203   3.434   1.679
 3889TIP3    H211674   0.182   3.461   1.826
 3890TIP3   OH211675   0.760   0.474   1.483
 3890TIP3    H111676   0.785   0.392   1.439
 3890TIP3    H211677   0.667   0.484   1.465
 3891TIP3   OH211678   2.360   2.787   2.590
 3891TIP3    H111679   2.334   2.782   2.498
 3891TIP3    H211680   2.401   2.703   2.609
 3892TIP3   OH211681   3.409   3.873   2.575
 3892TIP3    H111682   3.323   3.847   2.541
 3892TIP3    H211683   3.456   3.790   2.587
 3893TIP3   OH211684   4.378   3.495   4.391
 3893TIP3    H111685   4.347   3.561   4.329
 3893TIP3    H211686   4.311   3.426   4.387
 3894TIP3   OH211687   1.520   3.506   3.668
 3894TIP3    H111688   1.501   3.555   3.588
 3894TIP3    H211689   1.443   3.518   3.723
 3895TIP3   OH211690   0.499   1.737   1.870
 3895TIP3    H111691   0.442   1.711   1.798
 3895TIP3    H211692   0.488   1.669   1.936
 3896TIP3   OH211693   5.153   0.168   1.648
 3896TIP3    H111694   5.168   0.249   1.598
 3896TIP3    H211695   5.238   0.123   1.644
 3897TIP3   OH211696   2.847   3.136   0.258
 3897TIP3    H111697   2.919   3.163   0.315
 3897TIP3    H211698   2.772   3.187   0.289
 3898TIP3   OH211699   3.738   2.879   0.743
 3898TIP3    H111700   3.745   2.907   0.651
 3898TIP3    H211701   3.660   2.925   0.775
 3899TIP3   OH211702   5.104   3.065   0.409
 3899TIP3    H111703   5.182   3.121   0.410
 3899TIP3    H211704   5.035   3.120   0.444
 3900TIP3   OH211705   4.971   0.951   1.513
 3900TIP3    H111706   4.881   0.984   1.518
 3900TIP3    H211707   5.016   1.012   1.454
 3901TIP3   OH211708   4.039   5.109   0.755
 3901TIP3    H111709   4.065   5.114   0.663
 3901TIP3    H211710   4.012   5.018   0.767
 3902TIP3   OH211711   0.105   5.927   3.016
 3902TIP3    H111712   0.136   6.001   2.964
 3902TIP3    H211713   0.133   5.850   2.967
 3903TIP3   OH211714   5.515   0.640   5.064
 3903TIP3    H111715   5.489   0.641   5.156
 3903TIP3    H211716   5.475   0.718   5.026
 3904TIP3   OH211717   2.277   3.703   3.737
 3904TIP3    H111718   2.258   3.794   3.713
 3904TIP3    H211719   2.347   3.677   3.677
 3905TIP3   OH211720   2.171   3.595   0.842
 3905TIP3    H111721   2.238   3.573   0.777
 3905TIP3    H211722   2.155   3.689   0.829
 3906TIP3   OH211723   3.898   2.987   2.305
 3906TIP3    H111724   3.825   2.937   2.342
 3906TIP3    H211725   3.926   2.935   2.230
 3907TIP3   OH211726   5.009   1.871   2.797
 3907TIP3    H111727   5.053   1.827   2.869
 3907TIP3    H211728   5.054   1.955   2.789
 3908TIP3   OH211729   0.828   3.410   4.867
 3908TIP3    H111730   0.910   3.459   4.876
 3908TIP3    H211731   0.799   3.430   4.778
 3909TIP3   OH211732   2.292   4.812   4.939
 3909TIP3    H111733   2.224   4.771   4.886
 3909TIP3    H211734   2.352   4.740   4.961
 3910TIP3   OH211735   4.740   1.332   2.270
 3910TIP3    H111736   4.768   1.387   2.196
 3910TIP3    H211737   4.646   1.321   2.258
 3911TIP3   OH211738   2.157   0.256   2.866
 3911TIP3    H111739   2.134   0.293   2.780
 3911TIP3    H211740   2.073   0.245   2.910
 3912TIP3   OH211741   0.736   4.613   4.767
 3912TIP3    H111742   0.686   4.682   4.724
 3912TIP3    H211743   0.721   4.627   4.861
 3913TIP3   OH211744   0.791   3.793   2.387
 3913TIP3    H111745   0.744   3.812   2.306
 3913TIP3    H211746   0.745   3.719   2.426
 3914TIP3   OH211747   3.098   4.102   0.639
 3914TIP3    H111748   3.043   4.151   0.578
 3914TIP3    H211749   3.074   4.135   0.725
 3915TIP3   OH211750   0.517   4.334   3.452
 3915TIP3    H111751   0.580   4.316   3.383
 3915TIP3    H211752   0.517   4.254   3.506
 3916TIP3   OH211753   1.020   0.230   4.887
 3916TIP3    H111754   0.977   0.282   4.818
 3916TIP3    H211755   0.989   0.269   4.968
 3917TIP3   OH211756   0.227   2.738   1.542
 3917TIP3    H111757   0.234   2.801   1.469
 3917TIP3    H211758   0.309   2.689   1.539
 3918TIP3   OH211759   5.299   2.636   3.945
 3918TIP3    H111760   5.270   2.549   3.919
 3918TIP3    H211761   5.370   2.620   4.008
 3919TIP3   OH211762   1.816   2.300   3.195
 3919TIP3    H111763   1.784   2.374   3.143
 3919TIP3    H211764   1.889   2.265   3.143
 3920TIP3   OH211765   0.496   0.232   3.989
 3920TIP3    H111766   0.453   0.315   3.965
 3920TIP3    H211767   0.465   0.169   3.924
 3921TIP3   OH211768   5.164   1.530   1.291
 3921TIP3    H111769   5.132   1.482   1.367
 3921TIP3    H211770   5.253   1.556   1.315
 3922TIP3   OH211771   0.749   5.350   1.623
 3922TIP3    H111772   0.785   5.263   1.608
 3922TIP3    H211773   0.733   5.385   1.536
 3923TIP3   OH211774   0.188   5.190   0.553
 3923TIP3    H111775   0.256   5.124   0.567
 3923TIP3    H211776   0.219   5.241   0.479
 3924TIP3   OH211777   0.414   4.683   0.693
 3924TIP3    H111778   0.451   4.595   0.685
 3924TIP3    H211779   0.332   4.670   0.739
 3925TIP3   OH211780   4.068   0.154   2.058
 3925TIP3    H111781   3.998   0.174   1.996
 3925TIP3    H211782   4.023   0.126   2.138
 3926TIP3   OH211783   2.811   5.343   4.509
 3926TIP3    H111784   2.902   5.367   4.493
 3926TIP3    H211785   2.767   5.427   4.524
 3927TIP3   OH211786   0.183   2.969   1.995
 3927TIP3    H111787   0.125   3.043   1.978
 3927TIP3    H211788   0.202   2.933   1.908
 3928TIP3   OH211789   2.215   4.869   4.660
 3928TIP3    H111790   2.191   4.956   4.693
 3928TIP3    H211791   2.280   4.887   4.591
 3929TIP3   OH211792   4.232   1.356   0.303
 3929TIP3    H111793   4.190   1.360   0.217
 3929TIP3    H211794   4.255   1.446   0.323
 3930TIP3   OH211795   3.232   4.200   1.350
 3930TIP3    H111796   3.139   4.215   1.338
 3930TIP3    H211797   3.261   4.274   1.404
 3931TIP3   OH211798   3.501   4.910   3.880
 3931TIP3    H111799   3.464   4.863   3.954
 3931TIP3    H211800   3.495   5.003   3.905
 3932TIP3   OH211801   3.323   1.102   1.609
 3932TIP3    H111802   3.283   1.186   1.587
 3932TIP3    H211803   3.288   1.081   1.695
 3933TIP3   OH211804   5.362   2.394   4.988
 3933TIP3    H111805   5.381   2.478   5.030
 3933TIP3    H211806   5.417   2.331   5.034
 3934TIP3   OH211807   1.099   3.532   1.651
 3934TIP3    H111808   1.082   3.581   1.571
 3934TIP3    H211809   1.194   3.536   1.662
 3935TIP3   OH211810   5.269   5.835   5.029
 3935TIP3    H111811   5.186   5.870   4.997
 3935TIP3    H211812   5.285   5.881   5.112
 3936TIP3   OH211813   6.082   1.765   0.577
 3936TIP3    H111814   6.048   1.677   0.560
 3936TIP3    H211815   6.145   1.754   0.648
 3937TIP3   OH211816   0.274   1.067   4.966
 3937TIP3    H111817   0.357   1.105   4.995
 3937TIP3    H211818   0.271   0.982   5.009
 3938TIP3   OH211819   4.247   4.209   2.170
 3938TIP3    H111820   4.304   4.146   2.127
 3938TIP3    H211821   4.297   4.238   2.246
 3939TIP3   OH211822   1.211   4.091   0.305
 3939TIP3    H111823   1.259   4.065   0.227
 3939TIP3    H211824   1.131   4.131   0.272
 3940TIP3   OH211825   1.402   3.505   1.389
 3940TIP3    H111826   1.432   3.591   1.360
 3940TIP3    H211827   1.371   3.461   1.309
 3941TIP3   OH211828   5.317   3.836   0.149
 3941TIP3    H111829   5.401   3.865   0.185
 3941TIP3    H211830   5.330   3.835   0.055
 3942TIP3   OH211831   2.476   3.656   1.509
 3942TIP3    H111832   2.555   3.710   1.516
 3942TIP3    H211833   2.431   3.668   1.593
 3943TIP3   OH211834   4.175   2.379   0.204
 3943TIP3    H111835   4.110   2.443   0.232
 3943TIP3    H211836   4.254   2.430   0.186
 3944TIP3   OH211837   3.524   0.066   4.042
 3944TIP3    H111838   3.467   0.133   4.080
 3944TIP3    H211839   3.597   0.115   4.004
 3945TIP3   OH211840   5.624   4.094   3.317
 3945TIP3    H111841   5.652   4.009   3.282
 3945TIP3    H211842   5.530   4.083   3.334
 3946TIP3   OH211843   2.705   5.572   4.891
 3946TIP3    H111844   2.798   5.592   4.883
 3946TIP3    H211845   2.662   5.657   4.893
 3947TIP3   OH211846   2.467   1.837   4.210
 3947TIP3    H111847   2.463   1.929   4.236
 3947TIP3    H211848   2.379   1.803   4.228
 3948TIP3   OH211849   0.803   1.576   1.713
 3948TIP3    H111850   0.896   1.555   1.720
 3948TIP3    H211851   0.786   1.639   1.783
 3949TIP3   OH211852   3.763   0.721   1.573
 3949TIP3    H111853   3.851   0.758   1.565
 3949TIP3    H211854   3.764   0.645   1.516
 3950TIP3   OH211855   5.107   3.441   2.385
 3950TIP3    H111856   5.140   3.437   2.474
 3950TIP3    H211857   5.025   3.391   2.386
 3951TIP3   OH211858   1.431   5.190   3.901
 3951TIP3    H111859   1.396   5.195   3.812
 3951TIP3    H211860   1.418   5.277   3.938
 3952TIP3   OH211861   4.537   1.354   0.295
 3952TIP3    H111862   4.599   1.396   0.354
 3952TIP3    H211863   4.451   1.377   0.329
 3953TIP3   OH211864   1.015   0.791   0.480
 3953TIP3    H111865   0.996   0.704   0.444
 3953TIP3    H211866   0.947   0.847   0.443
 3954TIP3   OH211867   0.233   0.987   3.665
 3954TIP3    H111868   0.203   0.950   3.748
 3954TIP3    H211869   0.262   1.076   3.689
 3955TIP3   OH211870   0.866   3.965   2.020
 3955TIP3    H111871   0.877   3.875   1.989
 3955TIP3    H211872   0.927   3.973   2.093
 3956TIP3   OH211873   5.210   3.563   1.259
 3956TIP3    H111874   5.137   3.625   1.262
 3956TIP3    H211875   5.287   3.618   1.245
 3957TIP3   OH211876   1.192   2.096   4.527
 3957TIP3    H111877   1.151   2.017   4.561
 3957TIP3    H211878   1.187   2.087   4.432
 3958TIP3   OH211879   4.370   4.581   4.950
 3958TIP3    H111880   4.331   4.635   4.881
 3958TIP3    H211881   4.463   4.576   4.926
 3959TIP3   OH211882   2.220   1.581   2.723
 3959TIP3    H111883   2.209   1.579   2.628
 3959TIP3    H211884   2.131   1.577   2.758
 3960TIP3   OH211885   5.538   5.030   0.857
 3960TIP3    H111886   5.577   4.971   0.921
 3960TIP3    H211887   5.608   5.045   0.793
 3961TIP3   OH211888   4.025   3.638   1.057
 3961TIP3    H111889   4.036   3.732   1.040
 3961TIP3    H211890   4.034   3.630   1.152
 3962TIP3   OH211891   4.122   1.769   0.040
 3962TIP3    H111892   4.188   1.817   0.090
 3962TIP3    H211893   4.133   1.799  -0.050
 3963TIP3   OH211894   4.915   2.480   3.709
 3963TIP3    H111895   4.828   2.460   3.744
 3963TIP3    H211896   4.901   2.495   3.616
 3964TIP3   OH211897   0.053   3.104   1.547
 3964TIP3    H111898   0.128   3.159   1.571
 3964TIP3    H211899   0.085   3.051   1.474
 3965TIP3   OH211900   5.943   1.785   4.706
 3965TIP3    H111901   5.948   1.752   4.796
 3965TIP3    H211902   5.935   1.706   4.652
 3966TIP3   OH211903   0.056   1.117   4.023
 3966TIP3    H111904   0.034   1.189   3.964
 3966TIP3    H211905   0.100   1.052   3.967
 3967TIP3   OH211906   3.913   2.339   2.382
 3967TIP3    H111907   3.848   2.276   2.414
 3967TIP3    H211908   3.967   2.359   2.459
 3968TIP3   OH211909   3.215   3.248   0.729
 3968TIP3    H111910   3.121   3.237   0.744
 3968TIP3    H211911   3.220   3.299   0.648
 3969TIP3   OH211912   1.456   0.950   2.874
 3969TIP3    H111913   1.543   0.933   2.839
 3969TIP3    H211914   1.400   0.956   2.797
 3970TIP3   OH211915   2.722   4.365   3.823
 3970TIP3    H111916   2.654   4.426   3.851
 3970TIP3    H211917   2.744   4.393   3.734
 3971TIP3   OH211918   2.441   4.397   1.369
 3971TIP3    H111919   2.403   4.429   1.287
 3971TIP3    H211920   2.416   4.304   1.371
 3972TIP3   OH211921   0.218   2.006   1.223
 3972TIP3    H111922   0.137   2.031   1.179
 3972TIP3    H211923   0.237   2.079   1.281
 3973TIP3   OH211924   3.067   2.511   3.648
 3973TIP3    H111925   3.119   2.576   3.600
 3973TIP3    H211926   3.096   2.427   3.613
 3974TIP3   OH211927   3.469   5.209   3.484
 3974TIP3    H111928   3.541   5.265   3.456
 3974TIP3    H211929   3.506   5.120   3.481
 3975TIP3   OH211930   1.377   1.310   1.099
 3975TIP3    H111931   1.410   1.225   1.068
 3975TIP3    H211932   1.421   1.374   1.043
 3976TIP3   OH211933   6.079   2.449   1.212
 3976TIP3    H111934   6.005   2.478   1.159
 3976TIP3    H211935   6.098   2.361   1.181
 3977TIP3   OH211936   6.178   1.788   0.138
 3977TIP3    H111937   6.120   1.850   0.094
 3977TIP3    H211938   6.174   1.709   0.085
 3978TIP3   OH211939   5.677   1.427   4.123
 3978TIP3    H111940   5.668   1.517   4.093
 3978TIP3    H211941   5.589   1.405   4.156
 3979TIP3   OH211942   4.006   3.480   2.486
 3979TIP3    H111943   4.031   3.555   2.539
 3979TIP3    H211944   4.088   3.435   2.466
 3980TIP3   OH211945   1.958   4.285   4.201
 3980TIP3    H111946   2.052   4.269   4.203
 3980TIP3    H211947   1.949   4.366   4.151
 3981TIP3   OH211948   0.680   0.568   0.611
 3981TIP3    H111949   0.686   0.664   0.612
 3981TIP3    H211950   0.770   0.539   0.594
 3982TIP3   OH211951   5.217   5.219   0.580
 3982TIP3    H111952   5.262   5.140   0.609
 3982TIP3    H211953   5.230   5.221   0.485
 3983TIP3   OH211954   6.007   0.364   2.745
 3983TIP3    H111955   5.921   0.352   2.786
 3983TIP3    H211956   6.050   0.431   2.798
 3984TIP3   OH211957   3.723   1.100   0.588
 3984TIP3    H111958   3.704   1.162   0.658
 3984TIP3    H211959   3.813   1.073   0.605
 3985TIP3   OH211960   5.479   5.263   4.592
 3985TIP3    H111961   5.451   5.194   4.653
 3985TIP3    H211962   5.523   5.327   4.647
 3986TIP3   OH211963   3.986   1.291   3.793
 3986TIP3    H111964   3.916   1.309   3.730
 3986TIP3    H211965   4.056   1.351   3.769
 3987TIP3   OH211966   2.748   4.892   4.360
 3987TIP3    H111967   2.750   4.983   4.389
 3987TIP3    H211968   2.834   4.857   4.382
 3988TIP3   OH211969   2.336   4.675   2.946
 3988TIP3    H111970   2.423   4.649   2.918
 3988TIP3    H211971   2.279   4.656   2.871
 3989TIP3   OH211972   2.867   0.020   3.918
 3989TIP3    H111973   2.927  -0.053   3.904
 3989TIP3    H211974   2.871   0.071   3.837
 3990TIP3   OH211975   6.133   3.143   1.887
 3990TIP3    H111976   6.063   3.103   1.939
 3990TIP3    H211977   6.089   3.179   1.810
 3991TIP3   OH211978   4.391   2.082   2.546
 3991TIP3    H111979   4.463   2.115   2.599
 3991TIP3    H211980   4.428   2.009   2.497
 3992TIP3   OH211981   2.262   1.150   5.024
 3992TIP3    H111982   2.353   1.120   5.013
 3992TIP3    H211983   2.222   1.136   4.938
 3993TIP3   OH211984   6.289   4.198   1.115
 3993TIP3    H111985   6.340   4.200   1.196
 3993TIP3    H211986   6.318   4.275   1.066
 3994TIP3   OH211987   0.024   0.028   3.649
 3994TIP3    H111988   0.022   0.120   3.621
 3994TIP3    H211989   0.028  -0.021   3.567
 3995TIP3   OH211990   5.355   0.153   3.322
 3995TIP3    H111991   5.352   0.236   3.273
 3995TIP3    H211992   5.364   0.179   3.413
 3996TIP3   OH211993   5.991   0.820   0.667
 3996TIP3    H111994   6.035   0.870   0.599
 3996TIP3    H211995   5.898   0.827   0.647
 3997TIP3   OH211996   1.350   5.411   2.353
 3997TIP3    H111997   1.388   5.486   2.399
 3997TIP3    H211998   1.265   5.397   2.396
 3998TIP3   OH211999   4.580   0.121   1.972
 3998TIP3    H112000   4.631   0.095   2.048
 3998TIP3    H212001   4.494   0.081   1.986
 3999TIP3   OH212002   2.044   4.928   4.011
 3999TIP3    H112003   2.109   4.861   3.990
 3999TIP3    H212004   2.094   4.998   4.053
 4000TIP3   OH212005   3.019   0.666   4.048
 4000TIP3    H112006   2.943   0.711   4.010
 4000TIP3    H212007   3.067   0.734   4.094
 4001TIP3   OH212008   4.426   3.023   0.383
 4001TIP3    H112009   4.488   3.085   0.420
 4001TIP3    H212010   4.367   3.001   0.455
 4002TIP3   OH212011   3.520   1.482   3.053
 4002TIP3    H112012   3.526   1.528   3.137
 4002TIP3    H212013   3.525   1.389   3.077
 4003TIP3   OH212014   5.272   0.563   3.488
 4003TIP3    H112015   5.180   0.539   3.478
 4003TIP3    H212016   5.272   0.659   3.487
 4004TIP3   OH212017   4.107   1.319   3.385
 4004TIP3    H112018   4.109   1.414   3.398
 4004TIP3    H212019   4.097   1.309   3.290
 4005TIP3   OH212020   3.166   4.418   1.528
 4005TIP3    H112021   3.187   4.354   1.595
 4005TIP3    H212022   3.091   4.466   1.562
 4006TIP3   OH212023   1.418   3.252   2.710
 4006TIP3    H112024   1.454   3.231   2.796
 4006TIP3    H212025   1.489   3.297   2.665
 4007TIP3   OH212026   0.198   3.224   0.132
 4007TIP3    H112027   0.200   3.287   0.060
 4007TIP3    H212028   0.156   3.271   0.204
 4008TIP3   OH212029   3.125   0.324   3.098
 4008TIP3    H112030   3.113   0.249   3.040
 4008TIP3    H212031   3.051   0.382   3.078
 4009TIP3   OH212032   2.063   4.448   3.357
 4009TIP3    H112033   2.062   4.500   3.277
 4009TIP3    H212034   1.970   4.430   3.375
 4010TIP3   OH212035   2.158   3.748   3.373
 4010TIP3    H112036   2.089   3.757   3.308
 4010TIP3    H212037   2.168   3.835   3.410
 4011TIP3   OH212038   4.472   1.165   0.101
 4011TIP3    H112039   4.494   1.214   0.181
 4011TIP3    H212040   4.525   1.086   0.107
 4012TIP3   OH212041   0.737   0.625   3.083
 4012TIP3    H112042   0.676   0.661   3.017
 4012TIP3    H212043   0.680   0.582   3.147
 4013TIP3   OH212044   5.336   1.354   2.099
 4013TIP3    H112045   5.426   1.320   2.101
 4013TIP3    H212046   5.294   1.306   2.028
 4014TIP3   OH212047   4.720   4.427   3.378
 4014TIP3    H112048   4.755   4.435   3.289
 4014TIP3    H212049   4.682   4.339   3.380
 4015TIP3   OH212050   1.356   0.060   1.902
 4015TIP3    H112051   1.340   0.088   1.812
 4015TIP3    H212052   1.278   0.088   1.951
 4016TIP3   OH212053   3.633   4.861   1.435
 4016TIP3    H112054   3.562   4.913   1.472
 4016TIP3    H212055   3.641   4.891   1.345
 4017TIP3   OH212056   5.241   4.832   4.494
 4017TIP3    H112057   5.167   4.872   4.448
 4017TIP3    H212058   5.314   4.891   4.477
 4018TIP3   OH212059   1.085   3.257   0.348
 4018TIP3    H112060   1.166   3.257   0.399
 4018TIP3    H212061   1.021   3.299   0.405
 4019TIP3   OH212062   4.662   4.818   0.645
 4019TIP3    H112063   4.684   4.876   0.718
 4019TIP3    H212064   4.745   4.801   0.602
 4020TIP3   OH212065   1.782   1.792   0.267
 4020TIP3    H112066   1.729   1.871   0.275
 4020TIP3    H212067   1.817   1.795   0.178
 4021TIP3   OH212068   3.484   0.694   1.640
 4021TIP3    H112069   3.565   0.732   1.605
 4021TIP3    H212070   3.494   0.702   1.735
 4022TIP3   OH212071   0.681   5.180   3.724
 4022TIP3    H112072   0.688   5.222   3.810
 4022TIP3    H212073   0.753   5.117   3.722
 4023TIP3   OH212074   3.215   2.496   0.044
 4023TIP3    H112075   3.226   2.402   0.029
 4023TIP3    H212076   3.120   2.509   0.043
 4024TIP3   OH212077   4.726   4.048   1.997
 4024TIP3    H112078   4.708   4.109   1.925
 4024TIP3    H212079   4.704   4.097   2.076
 4025TIP3   OH212080   0.089   5.743   2.579
 4025TIP3    H112081   0.116   5.831   2.551
 4025TIP3    H212082   0.114   5.686   2.507
 4026TIP3   OH212083   6.247   5.120   3.385
 4026TIP3    H112084   6.281   5.061   3.451
 4026TIP3    H212085   6.154   5.130   3.407
 4027TIP3   OH212086   0.393   2.626   3.758
 4027TIP3    H112087   0.319   2.586   3.804
 4027TIP3    H212088   0.381   2.720   3.771
 4028TIP3   OH212089   4.061   2.646   4.763
 4028TIP3    H112090   4.024   2.583   4.825
 4028TIP3    H212091   4.008   2.725   4.774
 4029TIP3   OH212092   5.772   2.524   1.565
 4029TIP3    H112093   5.809   2.452   1.515
 4029TIP3    H212094   5.696   2.487   1.609
 4030TIP3   OH212095   2.854   2.494   4.823
 4030TIP3    H112096   2.876   2.464   4.735
 4030TIP3    H212097   2.860   2.590   4.818
 4031TIP3   OH212098   5.558   0.271   3.085
 4031TIP3    H112099   5.508   0.190   3.072
 4031TIP3    H212100   5.496   0.341   3.066
 4032TIP3   OH212101   1.398   5.932   2.169
 4032TIP3    H112102   1.354   5.885   2.098
 4032TIP3    H212103   1.373   6.023   2.157
 4033TIP3   OH212104   6.192   4.241   1.857
 4033TIP3    H112105   6.105   4.248   1.818
 4033TIP3    H212106   6.250   4.286   1.796
 4034TIP3   OH212107   3.722   3.000   2.024
 4034TIP3    H112108   3.646   3.019   2.079
 4034TIP3    H212109   3.771   2.935   2.073
 4035TIP3   OH212110   5.093   4.254   4.748
 4035TIP3    H112111   5.062   4.170   4.783
 4035TIP3    H212112   5.013   4.300   4.723
 4036TIP3   OH212113   3.237   5.813   1.476
 4036TIP3    H112114   3.278   5.879   1.532
 4036TIP3    H212115   3.194   5.864   1.406
 4037TIP3   OH212116   5.489   2.234   0.048
 4037TIP3    H112117   5.395   2.249   0.046
 4037TIP3    H212118   5.499   2.141   0.028
 4038TIP3   OH212119   5.445   0.627   0.100
 4038TIP3    H112120   5.432   0.672   0.017
 4038TIP3    H212121   5.513   0.563   0.083
 4039TIP3   OH212122   0.178   2.599   0.628
 4039TIP3    H112123   0.250   2.661   0.638
 4039TIP3    H212124   0.142   2.617   0.541
 4040TIP3   OH212125   4.991   4.617   4.029
 4040TIP3    H112126   5.058   4.664   4.078
 4040TIP3    H212127   4.908   4.657   4.058
 4041TIP3   OH212128   3.293   5.758   3.882
 4041TIP3    H112129   3.223   5.790   3.940
 4041TIP3    H212130   3.263   5.778   3.794
 4042TIP3   OH212131   2.771   3.960   4.254
 4042TIP3    H112132   2.779   3.988   4.163
 4042TIP3    H212133   2.770   4.041   4.305
 4043TIP3   OH212134   0.906   0.750   1.420
 4043TIP3    H112135   0.847   0.779   1.351
 4043TIP3    H212136   0.991   0.741   1.377
 4044TIP3   OH212137   6.147   0.107   0.202
 4044TIP3    H112138   6.081   0.058   0.154
 4044TIP3    H212139   6.198   0.040   0.248
 4045TIP3   OH212140   4.542   0.678   4.255
 4045TIP3    H112141   4.497   0.719   4.329
 4045TIP3    H212142   4.511   0.725   4.178
 4046TIP3   OH212143   5.401   3.013   2.063
 4046TIP3    H112144   5.350   3.019   1.983
 4046TIP3    H212145   5.451   3.095   2.066
 4047TIP3   OH212146   3.932   4.444   4.943
 4047TIP3    H112147   3.984   4.399   4.876
 4047TIP3    H212148   3.844   4.407   4.934
 4048TIP3   OH212149   1.424   0.162   4.339
 4048TIP3    H112150   1.405   0.225   4.269
 4048TIP3    H212151   1.340   0.118   4.356
 4049TIP3   OH212152   4.487   0.541   1.393
 4049TIP3    H112153   4.420   0.590   1.441
 4049TIP3    H212154   4.507   0.466   1.449
 4050TIP3   OH212155   0.123   4.663   1.104
 4050TIP3    H112156   0.170   4.641   1.184
 4050TIP3    H212157   0.064   4.734   1.128
 4051TIP3   OH212158   2.204   4.113   2.223
 4051TIP3    H112159   2.259   4.107   2.301
 4051TIP3    H212160   2.183   4.206   2.214
 4052TIP3   OH212161   0.591   3.385   4.041
 4052TIP3    H112162   0.571   3.368   4.133
 4052TIP3    H212163   0.515   3.353   3.993
 4053TIP3   OH212164   1.001   2.578   2.381
 4053TIP3    H112165   1.038   2.613   2.461
 4053TIP3    H212166   1.050   2.620   2.311
 4054TIP3   OH212167   0.033   2.790   5.002
 4054TIP3    H112168   0.080   2.855   5.053
 4054TIP3    H212169   0.044   2.708   5.050
 4055TIP3   OH212170   5.294   1.216   0.916
 4055TIP3    H112171   5.357   1.284   0.891
 4055TIP3    H212172   5.332   1.176   0.994
 4056TIP3   OH212173   3.688   1.783   3.405
 4056TIP3    H112174   3.705   1.876   3.394
 4056TIP3    H212175   3.641   1.758   3.325
 4057TIP3   OH212176   0.441   3.812   3.954
 4057TIP3    H112177   0.472   3.818   4.044
 4057TIP3    H212178   0.504   3.755   3.910
 4058TIP3   OH212179   0.621   3.084   1.300
 4058TIP3    H112180   0.631   2.996   1.265
 4058TIP3    H212181   0.703   3.101   1.346
 4059TIP3   OH212182   6.091   4.540   1.818
 4059TIP3    H112183   6.025   4.562   1.884
 4059TIP3    H212184   6.172   4.528   1.868
 4060TIP3   OH212185   5.993   2.352   3.017
 4060TIP3    H112186   6.044   2.395   3.085
 4060TIP3    H212187   6.040   2.371   2.936
 4061TIP3   OH212188   1.429   4.399   3.411
 4061TIP3    H112189   1.363   4.452   3.456
 4061TIP3    H212190   1.474   4.352   3.481
 4062TIP3   OH212191   4.712   1.526   3.117
 4062TIP3    H112192   4.633   1.576   3.097
 4062TIP3    H212193   4.731   1.547   3.209
 4063TIP3   OH212194   5.952   0.954   2.656
 4063TIP3    H112195   5.950   0.883   2.721
 4063TIP3    H212196   5.875   1.007   2.675
 4064TIP3   OH212197   4.840   0.557   2.985
 4064TIP3    H112198   4.791   0.475   2.989
 4064TIP3    H212199   4.931   0.531   2.976
 4065TIP3   OH212200   4.400   4.842   3.065
 4065TIP3    H112201   4.424   4.765   3.013
 4065TIP3    H212202   4.317   4.818   3.106
 4066TIP3   OH212203   1.507   3.719   3.897
 4066TIP3    H112204   1.501   3.774   3.975
 4066TIP3    H212205   1.527   3.631   3.931
 4067TIP3   OH212206   3.835   5.754   3.412
 4067TIP3    H112207   3.740   5.749   3.427
 4067TIP3    H212208   3.845   5.741   3.318
 4068TIP3   OH212209   4.479   4.111   0.748
 4068TIP3    H112210   4.455   4.039   0.690
 4068TIP3    H212211   4.574   4.119   0.737
 4069TIP3   OH212212   2.179   0.852   1.662
 4069TIP3    H112213   2.247   0.790   1.689
 4069TIP3    H212214   2.155   0.826   1.573
 4070TIP3   OH212215   2.806   2.659   2.945
 4070TIP3    H112216   2.830   2.574   2.907
 4070TIP3    H212217   2.764   2.707   2.874
 4071TIP3   OH212218   0.850   4.684   4.438
 4071TIP3    H112219   0.883   4.734   4.364
 4071TIP3    H212220   0.854   4.745   4.512
 4072TIP3   OH212221   6.038   1.338   0.566
 4072TIP3    H112222   6.044   1.374   0.477
 4072TIP3    H212223   6.129   1.323   0.592
 4073TIP3   OH212224   5.071   5.777   0.411
 4073TIP3    H112225   5.049   5.687   0.435
 4073TIP3    H212226   5.069   5.778   0.316
 4074TIP3   OH212227   0.224   4.020   0.792
 4074TIP3    H112228   0.285   4.062   0.853
 4074TIP3    H212229   0.222   4.077   0.716
 4075TIP3   OH212230   4.477   3.992   4.785
 4075TIP3    H112231   4.565   3.972   4.751
 4075TIP3    H212232   4.454   3.915   4.837
 4076TIP3   OH212233   4.647   3.518   3.696
 4076TIP3    H112234   4.736   3.536   3.725
 4076TIP3    H212235   4.656   3.497   3.603
 4077TIP3   OH212236   0.154   5.002   1.925
 4077TIP3    H112237   0.114   5.044   2.001
 4077TIP3    H212238   0.234   5.052   1.909
 4078TIP3   OH212239   2.420   3.362   4.078
 4078TIP3    H112240   2.443   3.441   4.030
 4078TIP3    H212241   2.370   3.393   4.154
 4079TIP3   OH212242   2.889   1.544   5.095
 4079TIP3    H112243   2.802   1.582   5.109
 4079TIP3    H212244   2.891   1.522   5.001
 4080TIP3   OH212245   2.608  -0.009   2.524
 4080TIP3    H112246   2.679   0.052   2.505
 4080TIP3    H212247   2.615  -0.025   2.619
 4081TIP3   OH212248   0.563   3.582   4.315
 4081TIP3    H112249   0.475   3.571   4.281
 4081TIP3    H212250   0.603   3.496   4.307
 4082TIP3   OH212251   5.431   4.169   3.631
 4082TIP3    H112252   5.383   4.088   3.614
 4082TIP3    H212253   5.523   4.143   3.629
 4083TIP3   OH212254   4.751   3.289   1.293
 4083TIP3    H112255   4.749   3.224   1.223
 4083TIP3    H212256   4.659   3.300   1.318
 4084TIP3   OH212257   0.687   2.844   1.173
 4084TIP3    H112258   0.728   2.821   1.090
 4084TIP3    H212259   0.633   2.769   1.196
 4085TIP3   OH212260   5.111   1.364   4.988
 4085TIP3    H112261   5.036   1.361   5.046
 4085TIP3    H212262   5.157   1.445   5.012
 4086TIP3   OH212263   1.198   4.954   3.081
 4086TIP3    H112264   1.247   4.881   3.043
 4086TIP3    H212265   1.246   4.978   3.160
 4087TIP3   OH212266   6.178   1.142   4.831
 4087TIP3    H112267   6.257   1.090   4.846
 4087TIP3    H212268   6.155   1.126   4.739
 4088TIP3   OH212269   2.734   2.909   4.894
 4088TIP3    H112270   2.696   2.963   4.963
 4088TIP3    H212271   2.809   2.959   4.862
 4089TIP3   OH212272   4.936   5.897   2.339
 4089TIP3    H112273   4.880   5.852   2.276
 4089TIP3    H212274   4.949   5.984   2.301
 4090TIP3   OH212275   1.661   5.660   4.139
 4090TIP3    H112276   1.753   5.665   4.111
 4090TIP3    H212277   1.654   5.723   4.211
 4091TIP3   OH212278   6.242   3.966   0.342
 4091TIP3    H112279   6.298   4.034   0.306
 4091TIP3    H212280   6.255   3.971   0.437
 4092TIP3   OH212281   5.709   4.057   1.298
 4092TIP3    H112282   5.761   3.976   1.304
 4092TIP3    H212283   5.721   4.086   1.208
 4093TIP3   OH212284   3.847   3.698   0.556
 4093TIP3    H112285   3.887   3.612   0.549
 4093TIP3    H212286   3.921   3.758   0.567
 4094TIP3   OH212287   2.272   0.555   2.797
 4094TIP3    H112288   2.210   0.566   2.869
 4094TIP3    H212289   2.334   0.489   2.830
 4095TIP3   OH212290   5.230   0.562   1.802
 4095TIP3    H112291   5.291   0.489   1.808
 4095TIP3    H212292   5.167   0.536   1.735
 4096TIP3   OH212293   3.368   0.422   4.952
 4096TIP3    H112294   3.314   0.483   5.002
 4096TIP3    H212295   3.430   0.478   4.905
 4097TIP3   OH212296   0.549   1.534   1.120
 4097TIP3    H112297   0.469   1.563   1.164
 4097TIP3    H212298   0.616   1.533   1.188
 4098TIP3   OH212299   3.713   2.867   4.853
 4098TIP3    H112300   3.686   2.786   4.811
 4098TIP3    H212301   3.782   2.902   4.797
 4099TIP3   OH212302   1.045   1.629   4.323
 4099TIP3    H112303   0.954   1.656   4.312
 4099TIP3    H212304   1.068   1.657   4.412
 4100TIP3   OH212305   5.097   5.253   2.793
 4100TIP3    H112306   5.016   5.205   2.811
 4100TIP3    H212307   5.073   5.315   2.724
 4101TIP3   OH212308   4.483   4.918   1.655
 4101TIP3    H112309   4.507   4.861   1.728
 4101TIP3    H212310   4.559   4.916   1.597
 4102TIP3   OH212311   2.711   4.815   0.399
 4102TIP3    H112312   2.653   4.871   0.450
 4102TIP3    H212313   2.751   4.756   0.463
 4103TIP3   OH212314   0.529   1.850  -0.016
 4103TIP3    H112315   0.579   1.904   0.045
 4103TIP3    H212316   0.438   1.863   0.009
 4104TIP3   OH212317   3.808   5.174   0.954
 4104TIP3    H112318   3.879   5.238   0.953
 4104TIP3    H212319   3.817   5.127   0.871
 4105TIP3   OH212320   3.858   3.109   0.336
 4105TIP3    H112321   3.772   3.066   0.342
 4105TIP3    H212322   3.874   3.142   0.425
 4106TIP3   OH212323   3.145   1.009   2.025
 4106TIP3    H112324   3.145   0.914   2.025
 4106TIP3    H212325   3.171   1.033   2.114
 4107TIP3   OH212326   1.805   3.870   0.781
 4107TIP3    H112327   1.761   3.787   0.766
 4107TIP3    H212328   1.780   3.925   0.706
 4108TIP3   OH212329   0.829   1.291   1.503
 4108TIP3    H112330   0.861   1.380   1.495
 4108TIP3    H212331   0.739   1.301   1.535
 4109TIP3   OH212332   3.173   3.726   2.533
 4109TIP3    H112333   3.181   3.658   2.599
 4109TIP3    H212334   3.143   3.680   2.454
 4110TIP3   OH212335   0.422   4.581   3.522
 4110TIP3    H112336   0.495   4.643   3.525
 4110TIP3    H212337   0.463   4.496   3.505
 4111TIP3   OH212338   3.433   2.754   0.680
 4111TIP3    H112339   3.450   2.805   0.759
 4111TIP3    H212340   3.486   2.675   0.689
 4112TIP3   OH212341   4.685   2.422   0.023
 4112TIP3    H112342   4.767   2.430   0.072
 4112TIP3    H212343   4.678   2.504  -0.025
 4113TIP3   OH212344   3.926   3.114   4.395
 4113TIP3    H112345   3.883   3.062   4.327
 4113TIP3    H212346   3.889   3.202   4.385
 4114TIP3   OH212347   5.122   0.455   3.038
 4114TIP3    H112348   5.126   0.422   2.948
 4114TIP3    H212349   5.188   0.403   3.085
 4115TIP3   OH212350   2.920   5.711   0.639
 4115TIP3    H112351   3.011   5.696   0.613
 4115TIP3    H212352   2.921   5.796   0.682
 4116TIP3   OH212353   3.741   0.050   1.711
 4116TIP3    H112354   3.703  -0.036   1.732
 4116TIP3    H212355   3.746   0.051   1.616
 4117TIP3   OH212356   2.446   1.054   1.609
 4117TIP3    H112357   2.383   1.048   1.538
 4117TIP3    H212358   2.525   1.011   1.574
 4118TIP3   OH212359   0.209   4.796   2.513
 4118TIP3    H112360   0.291   4.771   2.556
 4118TIP3    H212361   0.225   4.885   2.483
 4119TIP3   OH212362   0.341   4.456   1.774
 4119TIP3    H112363   0.291   4.414   1.704
 4119TIP3    H212364   0.292   4.437   1.854
 4120TIP3   OH212365  -0.007   4.456   3.829
 4120TIP3    H112366   0.047   4.432   3.754
 4120TIP3    H212367   0.037   4.533   3.867
 4121TIP3   OH212368   5.086   4.629   4.740
 4121TIP3    H112369   5.173   4.596   4.763
 4121TIP3    H212370   5.083   4.717   4.778
 4122TIP3   OH212371   2.090   5.318   2.912
 4122TIP3    H112372   2.029   5.364   2.969
 4122TIP3    H212373   2.169   5.306   2.964
 4123TIP3   OH212374   4.638   2.326   4.476
 4123TIP3    H112375   4.659   2.350   4.566
 4123TIP3    H212376   4.723   2.310   4.435
 4124TIP3   OH212377   0.190   3.907   2.594
 4124TIP3    H112378   0.277   3.871   2.614
 4124TIP3    H212379   0.170   3.964   2.667
 4125TIP3   OH212380   5.818   3.470   4.589
 4125TIP3    H112381   5.867   3.483   4.670
 4125TIP3    H212382   5.779   3.556   4.570
 4126TIP3   OH212383   1.205   5.217   1.047
 4126TIP3    H112384   1.294   5.222   1.083
 4126TIP3    H212385   1.197   5.295   0.993
 4127TIP3   OH212386   4.135   0.348   4.387
 4127TIP3    H112387   4.069   0.311   4.445
 4127TIP3    H212388   4.130   0.295   4.308
 4128TIP3   OH212389   3.602   2.981   2.751
 4128TIP3    H112390   3.587   3.015   2.840
 4128TIP3    H212391   3.605   3.059   2.696
 4129TIP3   OH212392   3.706   4.711   1.069
 4129TIP3    H112393   3.794   4.729   1.037
 4129TIP3    H212394   3.665   4.797   1.078
 4130TIP3   OH212395   4.710   3.211   3.051
 4130TIP3    H112396   4.789   3.229   2.999
 4130TIP3    H212397   4.688   3.120   3.030
 4131TIP3   OH212398   6.251   5.711   1.394
 4131TIP3    H112399   6.307   5.633   1.396
 4131TIP3    H212400   6.163   5.679   1.412
 4132TIP3   OH212401   3.580   1.808   1.348
 4132TIP3    H112402   3.555   1.826   1.438
 4132TIP3    H212403   3.499   1.818   1.298
 4133TIP3   OH212404   3.908   3.616   2.261
 4133TIP3    H112405   3.834   3.669   2.288
 4133TIP3    H212406   3.945   3.581   2.342
 4134TIP3   OH212407   3.666   3.737   2.351
 4134TIP3    H112408   3.616   3.814   2.324
 4134TIP3    H212409   3.603   3.665   2.345
 4135TIP3   OH212410   0.241   0.352   4.555
 4135TIP3    H112411   0.200   0.320   4.475
 4135TIP3    H212412   0.267   0.442   4.535
 4136TIP3   OH212413   5.248   1.775   2.178
 4136TIP3    H112414   5.285   1.815   2.100
 4136TIP3    H212415   5.167   1.824   2.194
 4137TIP3   OH212416   3.581   1.136   4.689
 4137TIP3    H112417   3.657   1.080   4.676
 4137TIP3    H212418   3.538   1.139   4.604
 4138TIP3   OH212419   2.951   2.502   2.771
 4138TIP3    H112420   3.005   2.579   2.757
 4138TIP3    H212421   3.012   2.429   2.772
 4139TIP3   OH212422   4.750   2.163   3.338
 4139TIP3    H112423   4.796   2.091   3.294
 4139TIP3    H212424   4.722   2.126   3.421
 4140TIP3   OH212425   4.793   3.306   5.101
 4140TIP3    H112426   4.785   3.298   5.196
 4140TIP3    H212427   4.828   3.221   5.073
 4141TIP3   OH212428   0.432   0.398   2.727
 4141TIP3    H112429   0.385   0.343   2.665
 4141TIP3    H212430   0.375   0.474   2.739
 4142TIP3   OH212431   4.392   2.317   2.186
 4142TIP3    H112432   4.332   2.329   2.113
 4142TIP3    H212433   4.475   2.352   2.155
 4143TIP3   OH212434   5.139   2.077   2.702
 4143TIP3    H112435   5.159   2.084   2.608
 4143TIP3    H212436   5.221   2.099   2.745
 4144TIP3   OH212437   2.383   2.396   0.072
 4144TIP3    H112438   2.427   2.479   0.094
 4144TIP3    H212439   2.453   2.331   0.077
 4145TIP3   OH212440   2.249   5.263   3.623
 4145TIP3    H112441   2.286   5.307   3.700
 4145TIP3    H212442   2.164   5.230   3.652
 4146TIP3   OH212443   2.226   3.312   3.548
 4146TIP3    H112444   2.308   3.263   3.536
 4146TIP3    H212445   2.203   3.298   3.639
 4147TIP3   OH212446   1.111   3.413   4.952
 4147TIP3    H112447   1.133   3.390   5.042
 4147TIP3    H212448   1.112   3.330   4.905
 4148TIP3   OH212449   3.689   5.745   3.734
 4148TIP3    H112450   3.641   5.783   3.661
 4148TIP3    H212451   3.682   5.650   3.721
 4149TIP3   OH212452   0.107   0.881   3.887
 4149TIP3    H112453   0.053   0.803   3.872
 4149TIP3    H212454   0.136   0.873   3.977
 4150TIP3   OH212455   4.424   2.217   0.897
 4150TIP3    H112456   4.424   2.284   0.829
 4150TIP3    H212457   4.507   2.230   0.943
 4151TIP3   OH212458   2.009   5.539   0.553
 4151TIP3    H112459   1.944   5.533   0.483
 4151TIP3    H212460   2.016   5.450   0.587
 4152TIP3   OH212461   5.141   1.764   3.525
 4152TIP3    H112462   5.060   1.801   3.490
 4152TIP3    H212463   5.113   1.691   3.580
 4153TIP3   OH212464   6.030   5.273   1.053
 4153TIP3    H112465   6.096   5.338   1.081
 4153TIP3    H212466   5.955   5.326   1.027
 4154TIP3   OH212467   3.931   1.324   2.648
 4154TIP3    H112468   3.867   1.258   2.622
 4154TIP3    H212469   3.888   1.371   2.720
 4155TIP3   OH212470   0.542   5.322   4.875
 4155TIP3    H112471   0.599   5.364   4.939
 4155TIP3    H212472   0.458   5.312   4.921
 4156TIP3   OH212473   0.817   1.954   3.240
 4156TIP3    H112474   0.742   1.900   3.265
 4156TIP3    H212475   0.893   1.902   3.263
 4157TIP3   OH212476   2.453   1.964   3.960
 4157TIP3    H112477   2.457   1.915   4.042
 4157TIP3    H212478   2.543   1.966   3.929
 4158TIP3   OH212479   3.549   2.563   1.722
 4158TIP3    H112480   3.564   2.516   1.640
 4158TIP3    H212481   3.470   2.524   1.759
 4159TIP3   OH212482   3.447   5.087   1.905
 4159TIP3    H112483   3.532   5.111   1.868
 4159TIP3    H212484   3.389   5.082   1.829
 4160TIP3   OH212485   2.413   3.482   2.358
 4160TIP3    H112486   2.454   3.536   2.290
 4160TIP3    H212487   2.486   3.436   2.399
 4161TIP3   OH212488   1.389   4.018   3.869
 4161TIP3    H112489   1.345   4.037   3.786
 4161TIP3    H212490   1.337   3.947   3.907
 4162TIP3   OH212491   3.648   5.387   5.028
 4162TIP3    H112492   3.696   5.333   5.091
 4162TIP3    H212493   3.569   5.336   5.008
 4163TIP3   OH212494   0.837   3.259   0.500
 4163TIP3    H112495   0.863   3.245   0.591
 4163TIP3    H212496   0.807   3.174   0.470
 4164TIP3   OH212497   5.482   0.603   4.551
 4164TIP3    H112498   5.387   0.602   4.552
 4164TIP3    H212499   5.506   0.674   4.611
 4165TIP3   OH212500   2.604   1.855   5.048
 4165TIP3    H112501   2.522   1.899   5.068
 4165TIP3    H212502   2.647   1.844   5.133
 4166TIP3   OH212503   5.665   3.282   4.712
 4166TIP3    H112504   5.617   3.358   4.679
 4166TIP3    H212505   5.754   3.294   4.677
 4167TIP3   OH212506   2.548   1.575   3.349
 4167TIP3    H112507   2.500   1.548   3.271
 4167TIP3    H212508   2.620   1.628   3.315
 4168TIP3   OH212509   1.185   4.093   2.397
 4168TIP3    H112510   1.251   4.059   2.457
 4168TIP3    H212511   1.234   4.148   2.336
 4169TIP3   OH212512   2.941   3.710   1.752
 4169TIP3    H112513   2.919   3.621   1.723
 4169TIP3    H212514   3.037   3.713   1.749
 4170TIP3   OH212515   0.350   3.231   5.079
 4170TIP3    H112516   0.294   3.305   5.101
 4170TIP3    H212517   0.376   3.247   4.988
 4171TIP3   OH212518   3.029   0.506   2.371
 4171TIP3    H112519   3.034   0.456   2.290
 4171TIP3    H212520   3.067   0.591   2.348
 4172TIP3   OH212521   5.170   2.025   3.714
 4172TIP3    H112522   5.156   1.947   3.661
 4172TIP3    H212523   5.259   2.015   3.749
 4173TIP3   OH212524   4.782   2.711   2.131
 4173TIP3    H112525   4.754   2.620   2.114
 4173TIP3    H212526   4.788   2.750   2.044
 4174TIP3   OH212527   2.177   2.391   2.208
 4174TIP3    H112528   2.120   2.346   2.145
 4174TIP3    H212529   2.244   2.433   2.154
 4175TIP3   OH212530   3.934   5.445   0.167
 4175TIP3    H112531   3.944   5.398   0.249
 4175TIP3    H212532   3.853   5.411   0.129
 4176TIP3   OH212533   6.146   1.560   3.245
 4176TIP3    H112534   6.228   1.571   3.197
 4176TIP3    H212535   6.135   1.465   3.250
 4177TIP3   OH212536   3.914   3.208   1.276
 4177TIP3    H112537   3.883   3.253   1.197
 4177TIP3    H212538   3.866   3.250   1.347
 4178TIP3   OH212539   1.163   1.943   0.585
 4178TIP3    H112540   1.182   1.874   0.522
 4178TIP3    H212541   1.067   1.947   0.589
 4179TIP3   OH212542   3.508   5.415   1.861
 4179TIP3    H112543   3.422   5.404   1.822
 4179TIP3    H212544   3.559   5.340   1.830
 4180TIP3   OH212545   4.380   3.068   1.295
 4180TIP3    H112546   4.397   3.158   1.267
 4180TIP3    H212547   4.388   3.016   1.215
 4181TIP3   OH212548   1.404   2.210   4.810
 4181TIP3    H112549   1.422   2.288   4.863
 4181TIP3    H212550   1.384   2.244   4.723
 4182TIP3   OH212551   0.683   3.706   5.009
 4182TIP3    H112552   0.710   3.622   5.045
 4182TIP3    H212553   0.757   3.765   5.027
 4183TIP3   OH212554   4.110   1.968   1.940
 4183TIP3    H112555   4.196   1.955   1.982
 4183TIP3    H212556   4.090   2.060   1.955
 4184TIP3   OH212557   3.573   3.648   1.731
 4184TIP3    H112558   3.530   3.593   1.797
 4184TIP3    H212559   3.514   3.646   1.656
 4185TIP3   OH212560   1.270   4.391   1.270
 4185TIP3    H112561   1.211   4.367   1.198
 4185TIP3    H212562   1.273   4.487   1.267
 4186TIP3   OH212563   1.701   3.606   0.762
 4186TIP3    H112564   1.751   3.560   0.695
 4186TIP3    H212565   1.724   3.561   0.844
 4187TIP3   OH212566   1.712   2.864   2.321
 4187TIP3    H112567   1.795   2.835   2.358
 4187TIP3    H212568   1.716   2.836   2.229
 4188TIP3   OH212569   2.249   1.023   1.385
 4188TIP3    H112570   2.313   1.020   1.313
 4188TIP3    H212571   2.187   0.953   1.364
 4189TIP3   OH212572   2.693   0.621   4.164
 4189TIP3    H112573   2.652   0.651   4.082
 4189TIP3    H212574   2.633   0.651   4.232
 4190TIP3   OH212575   2.418   5.077   4.995
 4190TIP3    H112576   2.361   5.099   5.069
 4190TIP3    H212577   2.368   5.011   4.946
 4191TIP3   OH212578   0.639   4.712   1.687
 4191TIP3    H112579   0.563   4.763   1.717
 4191TIP3    H212580   0.616   4.684   1.599
 4192TIP3   OH212581   2.615   2.225   4.908
 4192TIP3    H112582   2.628   2.163   4.837
 4192TIP3    H212583   2.584   2.305   4.864
 4193TIP3   OH212584   5.006   2.288   2.373
 4193TIP3    H112585   5.001   2.382   2.357
 4193TIP3    H212586   4.933   2.251   2.322
 4194TIP3   OH212587   0.586   4.617   1.386
 4194TIP3    H112588   0.639   4.635   1.309
 4194TIP3    H212589   0.608   4.527   1.410
 4195TIP3   OH212590   4.037   5.194   1.175
 4195TIP3    H112591   4.097   5.142   1.228
 4195TIP3    H212592   4.084   5.210   1.094
 4196TIP3   OH212593   3.456   1.379   4.332
 4196TIP3    H112594   3.517   1.311   4.301
 4196TIP3    H212595   3.434   1.429   4.253
 4197TIP3   OH212596   1.483   3.636   1.134
 4197TIP3    H112597   1.549   3.691   1.091
 4197TIP3    H212598   1.533   3.568   1.178
 4198TIP3   OH212599   1.615   5.932   3.832
 4198TIP3    H112600   1.647   5.852   3.790
 4198TIP3    H212601   1.541   5.902   3.885
 4199TIP3   OH212602   3.444   5.537   3.257
 4199TIP3    H112603   3.521   5.481   3.269
 4199TIP3    H212604   3.396   5.529   3.340
 4200TIP3   OH212605   1.826   4.834   5.001
 4200TIP3    H112606   1.823   4.746   4.964
 4200TIP3    H212607   1.735   4.863   5.002
 4201TIP3   OH212608   3.992   5.484   2.601
 4201TIP3    H112609   3.976   5.572   2.567
 4201TIP3    H212610   3.908   5.456   2.637
 4202TIP3   OH212611   5.807   0.661   5.108
 4202TIP3    H112612   5.713   0.671   5.121
 4202TIP3    H212613   5.818   0.663   5.013
 4203TIP3   OH212614   5.987   1.564   3.798
 4203TIP3    H112615   6.050   1.587   3.729
 4203TIP3    H212616   6.025   1.487   3.840
 4204TIP3   OH212617   2.672   0.725   1.687
 4204TIP3    H112618   2.725   0.786   1.739
 4204TIP3    H212619   2.635   0.665   1.751
 4205TIP3   OH212620   3.960   1.026   4.091
 4205TIP3    H112621   3.945   0.973   4.169
 4205TIP3    H212622   3.946   1.117   4.120
 4206TIP3   OH212623   0.954   3.238   0.749
 4206TIP3    H112624   1.032   3.293   0.760
 4206TIP3    H212625   0.965   3.168   0.813
 4207TIP3   OH212626   6.178   0.504   1.095
 4207TIP3    H112627   6.159   0.596   1.114
 4207TIP3    H212628   6.112   0.480   1.029
 4208TIP3   OH212629   3.156   1.165   0.753
 4208TIP3    H112630   3.141   1.252   0.716
 4208TIP3    H212631   3.070   1.140   0.788
 4209TIP3   OH212632   5.633   4.183   2.886
 4209TIP3    H112633   5.705   4.140   2.932
 4209TIP3    H212634   5.556   4.128   2.903
 4210TIP3   OH212635   4.607   0.401   3.175
 4210TIP3    H112636   4.659   0.363   3.104
 4210TIP3    H212637   4.644   0.363   3.255
 4211TIP3   OH212638   0.609   5.217   4.043
 4211TIP3    H112639   0.550   5.287   4.018
 4211TIP3    H212640   0.552   5.147   4.075
 4212TIP3   OH212641   2.813   0.993   4.150
 4212TIP3    H112642   2.748   1.008   4.218
 4212TIP3    H212643   2.873   1.068   4.157
 4213TIP3   OH212644   5.032   4.842   4.921
 4213TIP3    H112645   4.948   4.886   4.926
 4213TIP3    H212646   5.087   4.886   4.986
 4214TIP3   OH212647   5.625   1.079   4.704
 4214TIP3    H112648   5.634   1.071   4.799
 4214TIP3    H212649   5.687   1.016   4.669
 4215TIP3   OH212650   6.291   4.056   3.987
 4215TIP3    H112651   6.221   4.120   4.001
 4215TIP3    H212652   6.272   3.986   4.049
 4216TIP3   OH212653   5.614   4.434   1.334
 4216TIP3    H112654   5.699   4.389   1.328
 4216TIP3    H212655   5.578   4.407   1.419
 4217TIP3   OH212656   3.836   0.199   1.936
 4217TIP3    H112657   3.856   0.291   1.917
 4217TIP3    H212658   3.779   0.172   1.864
 4218TIP3   OH212659   1.013   1.004   1.220
 4218TIP3    H112660   1.047   0.948   1.150
 4218TIP3    H212661   1.085   1.011   1.283
 4219TIP3   OH212662   1.125   2.492   4.798
 4219TIP3    H112663   1.092   2.533   4.718
 4219TIP3    H212664   1.194   2.550   4.829
 4220TIP3   OH212665   5.757   4.804   2.536
 4220TIP3    H112666   5.739   4.897   2.547
 4220TIP3    H212667   5.706   4.778   2.460
 4221TIP3   OH212668   2.274   0.360   1.979
 4221TIP3    H112669   2.348   0.367   2.040
 4221TIP3    H212670   2.295   0.421   1.908
 4222TIP3   OH212671   0.369   0.652   1.776
 4222TIP3    H112672   0.287   0.604   1.768
 4222TIP3    H212673   0.368   0.712   1.701
 4223TIP3   OH212674   0.600   3.086   0.988
 4223TIP3    H112675   0.579   3.060   1.078
 4223TIP3    H212676   0.584   3.180   0.986
 4224TIP3   OH212677   2.711   2.169   4.174
 4224TIP3    H112678   2.658   2.112   4.229
 4224TIP3    H212679   2.802   2.146   4.196
 4225TIP3   OH212680   0.731   4.560   1.902
 4225TIP3    H112681   0.704   4.609   1.825
 4225TIP3    H212682   0.730   4.623   1.973
 4226TIP3   OH212683   5.210   2.167   0.048
 4226TIP3    H112684   5.137   2.228   0.036
 4226TIP3    H212685   5.220   2.160   0.143
 4227TIP3   OH212686   1.985   1.167   4.357
 4227TIP3    H112687   2.069   1.136   4.391
 4227TIP3    H212688   1.920   1.138   4.422
 4228TIP3   OH212689   6.204   3.530   2.771
 4228TIP3    H112690   6.165   3.452   2.732
 4228TIP3    H212691   6.198   3.597   2.703
 4229TIP3   OH212692   6.042   1.126   3.331
 4229TIP3    H112693   6.065   1.176   3.253
 4229TIP3    H212694   6.037   1.190   3.401
 4230TIP3   OH212695   1.073   0.219   3.903
 4230TIP3    H112696   0.980   0.226   3.881
 4230TIP3    H212697   1.114   0.183   3.825
 4231TIP3   OH212698   3.289   1.242   0.998
 4231TIP3    H112699   3.369   1.231   0.948
 4231TIP3    H212700   3.219   1.211   0.940
 4232TIP3   OH212701   5.140   5.658   4.768
 4232TIP3    H112702   5.193   5.735   4.789
 4232TIP3    H212703   5.173   5.629   4.683
 4233TIP3   OH212704   1.814   5.966   4.290
 4233TIP3    H112705   1.847   5.889   4.244
 4233TIP3    H212706   1.867   5.972   4.369
 4234TIP3   OH212707   4.712   1.812   0.417
 4234TIP3    H112708   4.784   1.761   0.381
 4234TIP3    H212709   4.690   1.767   0.499
 4235TIP3   OH212710   1.019   1.248   3.358
 4235TIP3    H112711   1.067   1.188   3.415
 4235TIP3    H212712   1.010   1.200   3.275
 4236TIP3   OH212713   2.914   1.293   2.805
 4236TIP3    H112714   2.857   1.229   2.847
 4236TIP3    H212715   2.857   1.341   2.745
 4237TIP3   OH212716   4.691   2.383   2.599
 4237TIP3    H112717   4.774   2.335   2.606
 4237TIP3    H212718   4.684   2.405   2.506
 4238TIP3   OH212719   3.866   1.148   1.998
 4238TIP3    H112720   3.911   1.146   1.913
 4238TIP3    H212721   3.937   1.158   2.062
 4239TIP3   OH212722   1.875   5.710   3.942
 4239TIP3    H112723   1.968   5.719   3.962
 4239TIP3    H212724   1.849   5.797   3.911
 4240TIP3   OH212725   0.159   5.515   3.727
 4240TIP3    H112726   0.124   5.471   3.804
 4240TIP3    H212727   0.111   5.476   3.653
 4241TIP3   OH212728   1.395   2.625   2.416
 4241TIP3    H112729   1.490   2.637   2.421
 4241TIP3    H212730   1.379   2.543   2.463
 4242TIP3   OH212731   1.108   4.040   5.106
 4242TIP3    H112732   1.131   3.985   5.182
 4242TIP3    H212733   1.082   4.123   5.145
 4243TIP3   OH212734   5.299   1.853   2.438
 4243TIP3    H112735   5.358   1.785   2.472
 4243TIP3    H212736   5.296   1.838   2.344
 4244TIP3   OH212737   2.017   0.223   2.367
 4244TIP3    H112738   1.990   0.303   2.323
 4244TIP3    H212739   1.958   0.156   2.334
 4245TIP3   OH212740   1.964   1.504   2.771
 4245TIP3    H112741   1.956   1.473   2.861
 4245TIP3    H212742   1.883   1.552   2.754
 4246TIP3   OH212743   5.949   1.604   0.198
 4246TIP3    H112744   6.011   1.543   0.237
 4246TIP3    H212745   5.984   1.621   0.110
 4247TIP3   OH212746   4.092   0.528   4.012
 4247TIP3    H112747   4.144   0.517   3.932
 4247TIP3    H212748   4.086   0.622   4.023
 4248TIP3   OH212749   0.966   0.220   0.698
 4248TIP3    H112750   0.976   0.170   0.778
 4248TIP3    H212751   0.880   0.193   0.664
 4249TIP3   OH212752   1.232   0.989   2.242
 4249TIP3    H112753   1.254   0.913   2.296
 4249TIP3    H212754   1.313   1.041   2.240
 4250TIP3   OH212755   3.152   4.619   3.394
 4250TIP3    H112756   3.183   4.691   3.338
 4250TIP3    H212757   3.090   4.661   3.454
 4251TIP3   OH212758   1.745   1.777   1.015
 4251TIP3    H112759   1.757   1.813   0.927
 4251TIP3    H212760   1.757   1.683   1.005
 4252TIP3   OH212761   1.820   3.634   3.172
 4252TIP3    H112762   1.871   3.598   3.100
 4252TIP3    H212763   1.830   3.570   3.243
 4253TIP3   OH212764   3.690   2.666   2.224
 4253TIP3    H112765   3.775   2.629   2.246
 4253TIP3    H212766   3.695   2.685   2.131
 4254TIP3   OH212767   5.718   4.981   4.369
 4254TIP3    H112768   5.754   4.928   4.440
 4254TIP3    H212769   5.762   4.948   4.290
 4255TIP3   OH212770   2.008   4.324   0.527
 4255TIP3    H112771   2.100   4.321   0.499
 4255TIP3    H212772   1.973   4.403   0.486
 4256TIP3   OH212773   5.814   2.622   0.274
 4256TIP3    H112774   5.869   2.545   0.288
 4256TIP3    H212775   5.744   2.592   0.216
 4257TIP3   OH212776   3.688   0.956   2.007
 4257TIP3    H112777   3.719   0.929   1.921
 4257TIP3    H212778   3.726   1.043   2.021
 4258TIP3   OH212779   4.183   5.462   2.929
 4258TIP3    H112780   4.178   5.385   2.873
 4258TIP3    H212781   4.133   5.529   2.882
 4259TIP3   OH212782   4.072   1.622   2.489
 4259TIP3    H112783   4.166   1.640   2.487
 4259TIP3    H212784   4.031   1.708   2.499
 4260TIP3   OH212785   1.359   3.215   3.397
 4260TIP3    H112786   1.342   3.202   3.303
 4260TIP3    H212787   1.331   3.305   3.413
 4261TIP3   OH212788   5.177   4.299   4.023
 4261TIP3    H112789   5.255   4.310   3.969
 4261TIP3    H212790   5.199   4.228   4.083
 4262TIP3   OH212791   5.889   5.357   0.733
 4262TIP3    H112792   5.889   5.344   0.638
 4262TIP3    H212793   5.980   5.346   0.759
 4263TIP3   OH212794   5.747   2.848   2.987
 4263TIP3    H112795   5.780   2.932   3.020
 4263TIP3    H212796   5.653   2.850   3.006
 4264TIP3   OH212797   6.267   4.511   0.475
 4264TIP3    H112798   6.260   4.530   0.382
 4264TIP3    H212799   6.298   4.593   0.514
 4265TIP3   OH212800   6.239   3.977   3.158
 4265TIP3    H112801   6.293   4.037   3.106
 4265TIP3    H212802   6.163   4.029   3.184
 4266TIP3   OH212803   2.004   5.638   3.335
 4266TIP3    H112804   2.078   5.586   3.366
 4266TIP3    H212805   1.927   5.591   3.365
 4267TIP3   OH212806   4.176   4.262   3.669
 4267TIP3    H112807   4.156   4.254   3.576
 4267TIP3    H212808   4.192   4.172   3.698
 4268TIP3   OH212809   4.665   4.729   4.188
 4268TIP3    H112810   4.630   4.658   4.242
 4268TIP3    H212811   4.667   4.693   4.100
 4269TIP3   OH212812   1.338   3.942   2.815
 4269TIP3    H112813   1.271   3.911   2.875
 4269TIP3    H212814   1.399   3.869   2.805
 4270TIP3   OH212815   3.742   2.127   1.511
 4270TIP3    H112816   3.690   2.109   1.589
 4270TIP3    H212817   3.790   2.207   1.532
 4271TIP3   OH212818   2.124   3.529   2.286
 4271TIP3    H112819   2.178   3.525   2.208
 4271TIP3    H212820   2.185   3.520   2.359
 4272TIP3   OH212821   4.235   5.047   0.187
 4272TIP3    H112822   4.232   5.111   0.116
 4272TIP3    H212823   4.148   5.008   0.187
 4273TIP3   OH212824   5.815   5.101   3.916
 4273TIP3    H112825   5.751   5.162   3.878
 4273TIP3    H212826   5.898   5.150   3.915
 4274TIP3   OH212827   2.006   4.825   2.923
 4274TIP3    H112828   2.039   4.743   2.958
 4274TIP3    H212829   1.966   4.802   2.839
 4275TIP3   OH212830   0.778   5.037   1.745
 4275TIP3    H112831   0.842   5.099   1.782
 4275TIP3    H212832   0.830   4.962   1.719
 4276TIP3   OH212833   5.302   0.191   2.996
 4276TIP3    H112834   5.216   0.185   3.037
 4276TIP3    H212835   5.306   0.116   2.937
 4277TIP3   OH212836   4.278   0.521   4.847
 4277TIP3    H112837   4.268   0.609   4.882
 4277TIP3    H212838   4.200   0.474   4.877
 4278TIP3   OH212839   1.118   4.567   2.631
 4278TIP3    H112840   1.195   4.597   2.679
 4278TIP3    H212841   1.148   4.487   2.587
 4279TIP3   OH212842   5.409   3.991   4.348
 4279TIP3    H112843   5.363   4.038   4.417
 4279TIP3    H212844   5.502   3.997   4.372
 4280TIP3   OH212845   4.801   1.561   1.152
 4280TIP3    H112846   4.785   1.599   1.238
 4280TIP3    H212847   4.729   1.498   1.140
 4281TIP3   OH212848   1.709   0.797   3.397
 4281TIP3    H112849   1.712   0.828   3.487
 4281TIP3    H212850   1.618   0.806   3.371
 4282TIP3   OH212851   3.203   2.185   2.456
 4282TIP3    H112852   3.227   2.092   2.450
 4282TIP3    H212853   3.286   2.230   2.470
 4283TIP3   OH212854   6.096   1.364   3.953
 4283TIP3    H112855   6.037   1.356   4.027
 4283TIP3    H212856   6.181   1.384   3.993
 4284TIP3   OH212857   1.614   0.830   1.199
 4284TIP3    H112858   1.661   0.759   1.156
 4284TIP3    H212859   1.683   0.891   1.227
 4285TIP3   OH212860   1.863   3.755   2.316
 4285TIP3    H112861   1.874   3.671   2.361
 4285TIP3    H212862   1.935   3.809   2.347
 4286TIP3   OH212863   6.068   5.333   1.357
 4286TIP3    H112864   6.063   5.348   1.451
 4286TIP3    H212865   6.047   5.418   1.318
 4287TIP3   OH212866   4.922   0.964   0.814
 4287TIP3    H112867   4.894   1.040   0.866
 4287TIP3    H212868   4.865   0.966   0.737
 4288TIP3   OH212869   2.492   4.082   4.047
 4288TIP3    H112870   2.550   4.021   4.001
 4288TIP3    H212871   2.415   4.029   4.068
 4289TIP3   OH212872   6.314   0.754   1.584
 4289TIP3    H112873   6.229   0.789   1.609
 4289TIP3    H212874   6.330   0.683   1.645
 4290TIP3   OH212875   3.617   3.849   1.337
 4290TIP3    H112876   3.565   3.916   1.380
 4290TIP3    H212877   3.558   3.773   1.332
 4291TIP3   OH212878   2.505   1.392   3.578
 4291TIP3    H112879   2.460   1.446   3.642
 4291TIP3    H212880   2.490   1.436   3.494
 4292TIP3   OH212881   4.877   2.203   2.716
 4292TIP3    H112882   4.973   2.197   2.717
 4292TIP3    H212883   4.856   2.263   2.787
 4293TIP3   OH212884   4.524   3.432   3.993
 4293TIP3    H112885   4.495   3.344   4.016
 4293TIP3    H212886   4.570   3.422   3.910
 4294TIP3   OH212887   2.066   3.017   4.102
 4294TIP3    H112888   2.150   3.040   4.062
 4294TIP3    H212889   2.086   2.941   4.157
 4295TIP3   OH212890   0.118   1.550   1.828
 4295TIP3    H112891   0.183   1.569   1.760
 4295TIP3    H212892   0.151   1.595   1.905
 4296TIP3   OH212893   1.727   5.265   3.157
 4296TIP3    H112894   1.729   5.243   3.250
 4296TIP3    H212895   1.783   5.342   3.149
 4297TIP3   OH212896   4.831   3.553   0.600
 4297TIP3    H112897   4.911   3.542   0.548
 4297TIP3    H212898   4.863   3.575   0.687
 4298TIP3   OH212899   3.214   0.305   3.377
 4298TIP3    H112900   3.210   0.292   3.282
 4298TIP3    H212901   3.154   0.378   3.393
 4299TIP3   OH212902   5.932   2.401   0.393
 4299TIP3    H112903   5.983   2.329   0.429
 4299TIP3    H212904   5.849   2.361   0.366
 4300TIP3   OH212905   4.211   4.324   1.533
 4300TIP3    H112906   4.119   4.312   1.510
 4300TIP3    H212907   4.231   4.251   1.592
 4301TIP3   OH212908   4.341   4.541   1.437
 4301TIP3    H112909   4.290   4.545   1.356
 4301TIP3    H212910   4.314   4.459   1.478
 4302TIP3   OH212911   4.362   2.880   1.096
 4302TIP3    H112912   4.279   2.858   1.139
 4302TIP3    H212913   4.392   2.797   1.059
 4303TIP3   OH212914   2.021   5.079   0.803
 4303TIP3    H112915   1.986   5.140   0.738
 4303TIP3    H212916   1.987   4.994   0.777
 4304TIP3   OH212917   4.710   1.451   1.680
 4304TIP3    H112918   4.636   1.462   1.740
 4304TIP3    H212919   4.749   1.539   1.673
 4305TIP3   OH212920   3.422   4.060   0.538
 4305TIP3    H112921   3.475   4.015   0.472
 4305TIP3    H212922   3.405   3.993   0.604
 4306TIP3   OH212923   1.662   0.149   3.384
 4306TIP3    H112924   1.659   0.120   3.475
 4306TIP3    H212925   1.724   0.221   3.383
 4307TIP3   OH212926   1.772   0.668   1.396
 4307TIP3    H112927   1.691   0.637   1.356
 4307TIP3    H212928   1.748   0.751   1.439
 4308TIP3   OH212929   0.038   0.206   1.718
 4308TIP3    H112930  -0.036   0.175   1.770
 4308TIP3    H212931   0.068   0.129   1.670
 4309TIP3   OH212932   6.298   2.614   2.770
 4309TIP3    H112933   6.230   2.564   2.815
 4309TIP3    H212934   6.307   2.570   2.685
 4310TIP3   OH212935   0.018   5.469   1.407
 4310TIP3    H112936   0.034   5.407   1.478
 4310TIP3    H212937   0.096   5.463   1.352
 4311TIP3   OH212938   0.695   3.424   0.356
 4311TIP3    H112939   0.751   3.377   0.419
 4311TIP3    H212940   0.656   3.355   0.303
 4312TIP3   OH212941   1.907   2.867   2.972
 4312TIP3    H112942   1.860   2.945   3.003
 4312TIP3    H212943   1.982   2.902   2.924
 4313TIP3   OH212944   4.531   3.997   2.269
 4313TIP3    H112945   4.439   3.979   2.287
 4313TIP3    H212946   4.572   4.001   2.355
 4314TIP3   OH212947   3.698   2.854   1.479
 4314TIP3    H112948   3.785   2.881   1.450
 4314TIP3    H212949   3.705   2.843   1.573
 4315TIP3   OH212950   4.463   3.938   2.673
 4315TIP3    H112951   4.518   3.933   2.594
 4315TIP3    H212952   4.507   4.003   2.728
 4316TIP3   OH212953   1.309   5.449   3.933
 4316TIP3    H112954   1.325   5.461   4.026
 4316TIP3    H212955   1.213   5.446   3.925
 4317TIP3   OH212956   5.543   5.264   3.884
 4317TIP3    H112957   5.449   5.272   3.870
 4317TIP3    H212958   5.551   5.221   3.970
 4318TIP3   OH212959   1.439   3.052   4.966
 4318TIP3    H112960   1.531   3.076   4.979
 4318TIP3    H212961   1.411   3.017   5.050
 4319TIP3   OH212962   0.057   0.775   0.077
 4319TIP3    H112963   0.108   0.694   0.084
 4319TIP3    H212964   0.109   0.831   0.019
 4320TIP3   OH212965   2.711   2.915   4.604
 4320TIP3    H112966   2.753   2.861   4.537
 4320TIP3    H212967   2.751   2.887   4.686
 4321TIP3   OH212968   1.859   2.482   0.868
 4321TIP3    H112969   1.940   2.501   0.822
 4321TIP3    H212970   1.841   2.390   0.848
 4322TIP3   OH212971   2.563   4.846   1.694
 4322TIP3    H112972   2.491   4.785   1.681
 4322TIP3    H212973   2.635   4.792   1.726
 4323TIP3   OH212974   2.029   2.939   0.709
 4323TIP3    H112975   1.965   2.967   0.774
 4323TIP3    H212976   2.098   3.004   0.714
 4324TIP3   OH212977   5.813   2.980   3.586
 4324TIP3    H112978   5.862   2.900   3.571
 4324TIP3    H212979   5.857   3.046   3.533
 4325TIP3   OH212980   4.005   5.601   1.944
 4325TIP3    H112981   3.914   5.578   1.928
 4325TIP3    H212982   4.050   5.584   1.861
 4326TIP3   OH212983   0.105   4.960   1.463
 4326TIP3    H112984   0.030   5.016   1.447
 4326TIP3    H212985   0.070   4.884   1.508
 4327TIP3   OH212986   2.928   0.937   0.711
 4327TIP3    H112987   3.015   0.945   0.670
 4327TIP3    H212988   2.924   0.846   0.739
 4328TIP3   OH212989   5.403   5.869   0.977
 4328TIP3    H112990   5.492   5.869   1.012
 4328TIP3    H212991   5.386   5.778   0.956
 4329TIP3   OH212992   2.534   5.048   1.218
 4329TIP3    H112993   2.548   5.117   1.282
 4329TIP3    H212994   2.444   5.061   1.188
 4330TIP3   OH212995   2.230   5.189   1.823
 4330TIP3    H112996   2.294   5.226   1.884
 4330TIP3    H212997   2.149   5.236   1.841
 4331TIP3   OH212998   0.483   1.032   1.737
 4331TIP3    H112999   0.542   0.974   1.785
 4331TIP3    H213000   0.443   0.975   1.671
 4332TIP3   OH213001   0.379   0.208   1.882
 4332TIP3    H113002   0.361   0.139   1.818
 4332TIP3    H213003   0.460   0.249   1.851
 4333TIP3   OH213004   0.945   5.569   0.973
 4333TIP3    H113005   0.913   5.614   1.051
 4333TIP3    H213006   1.025   5.526   1.001
 4334TIP3   OH213007   3.696   2.079   2.211
 4334TIP3    H113008   3.620   2.089   2.153
 4334TIP3    H213009   3.689   1.990   2.244
 4335TIP3   OH213010   1.532   4.671   2.587
 4335TIP3    H113011   1.609   4.616   2.583
 4335TIP3    H213012   1.494   4.655   2.673
 4336TIP3   OH213013   0.639   2.066   0.465
 4336TIP3    H113014   0.641   2.116   0.546
 4336TIP3    H213015   0.724   2.022   0.461
 4337TIP3   OH213016   0.250   4.156   4.428
 4337TIP3    H113017   0.184   4.217   4.395
 4337TIP3    H213018   0.306   4.210   4.485
 4338TIP3   OH213019   5.746   5.027   1.593
 4338TIP3    H113020   5.704   5.112   1.606
 4338TIP3    H213021   5.684   4.964   1.630
 4339TIP3   OH213022   2.573   4.239   3.384
 4339TIP3    H113023   2.499   4.280   3.429
 4339TIP3    H213024   2.535   4.207   3.301
 4340TIP3   OH213025   5.316   5.667   1.715
 4340TIP3    H113026   5.350   5.646   1.628
 4340TIP3    H213027   5.346   5.595   1.770
 4341TIP3   OH213028   1.867   0.675   2.101
 4341TIP3    H113029   1.781   0.717   2.108
 4341TIP3    H213030   1.884   0.670   2.007
 4342TIP3   OH213031   3.606   4.734   0.602
 4342TIP3    H113032   3.563   4.694   0.527
 4342TIP3    H213033   3.547   4.804   0.630
 4343TIP3   OH213034   1.374   4.573   4.287
 4343TIP3    H113035   1.438   4.641   4.306
 4343TIP3    H213036   1.378   4.562   4.192
 4344TIP3   OH213037   4.930   0.819   3.408
 4344TIP3    H113038   4.949   0.773   3.490
 4344TIP3    H213039   5.000   0.790   3.349
 4345TIP3   OH213040   0.793   1.820   2.910
 4345TIP3    H113041   0.751   1.871   2.980
 4345TIP3    H213042   0.829   1.885   2.850
 4346TIP3   OH213043   2.919   1.260   1.004
 4346TIP3    H113044   2.966   1.182   1.034
 4346TIP3    H213045   2.960   1.332   1.053
 4347TIP3   OH213046   0.565   2.599   1.192
 4347TIP3    H113047   0.512   2.551   1.255
 4347TIP3    H213048   0.559   2.548   1.111
 4348TIP3   OH213049   1.173   0.732   1.287
 4348TIP3    H113050   1.177   0.760   1.196
 4348TIP3    H213051   1.225   0.796   1.335
 4349TIP3   OH213052   6.192   3.781   0.109
 4349TIP3    H113053   6.137   3.837   0.054
 4349TIP3    H213054   6.199   3.829   0.192
 4350TIP3   OH213055   5.460   2.593   0.940
 4350TIP3    H113056   5.474   2.498   0.941
 4350TIP3    H213057   5.544   2.630   0.968
 4351TIP3   OH213058   5.154   0.320   3.986
 4351TIP3    H113059   5.164   0.242   4.041
 4351TIP3    H213060   5.240   0.362   3.988
 4352TIP3   OH213061   6.198   2.534   3.396
 4352TIP3    H113062   6.252   2.586   3.456
 4352TIP3    H213063   6.213   2.574   3.310
 4353TIP3   OH213064   5.256   4.556   3.493
 4353TIP3    H113065   5.166   4.562   3.524
 4353TIP3    H213066   5.293   4.643   3.510
 4354TIP3   OH213067   3.572   4.387   2.014
 4354TIP3    H113068   3.579   4.459   2.076
 4354TIP3    H213069   3.656   4.341   2.022
 4355TIP3   OH213070   5.149   3.406   5.113
 4355TIP3    H113071   5.189   3.434   5.195
 4355TIP3    H213072   5.120   3.317   5.130
 4356TIP3   OH213073   5.336   4.284   1.222
 4356TIP3    H113074   5.405   4.348   1.243
 4356TIP3    H213075   5.360   4.206   1.272
 4357TIP3   OH213076   2.989   4.864   0.370
 4357TIP3    H113077   3.027   4.951   0.381
 4357TIP3    H213078   2.895   4.878   0.363
 4358TIP3   OH213079   1.494   0.519   3.122
 4358TIP3    H113080   1.422   0.581   3.123
 4358TIP3    H213081   1.489   0.475   3.207
 4359TIP3   OH213082   5.908   1.961   4.226
 4359TIP3    H113083   5.878   2.038   4.177
 4359TIP3    H213084   5.912   1.991   4.317
 4360TIP3   OH213085   0.740   5.506   3.807
 4360TIP3    H113086   0.696   5.498   3.892
 4360TIP3    H213087   0.797   5.583   3.817
 4361TIP3   OH213088   2.670   4.875   1.381
 4361TIP3    H113089   2.601   4.918   1.331
 4361TIP3    H213090   2.649   4.894   1.472
 4362TIP3   OH213091   5.954   1.349   4.195
 4362TIP3    H113092   5.940   1.266   4.240
 4362TIP3    H213093   5.868   1.392   4.196
 4363TIP3   OH213094   3.873   0.640   1.232
 4363TIP3    H113095   3.831   0.726   1.235
 4363TIP3    H213096   3.905   0.632   1.143
 4364TIP3   OH213097   0.075   4.195   1.367
 4364TIP3    H113098   0.024   4.150   1.433
 4364TIP3    H213099   0.070   4.288   1.391
 4365TIP3   OH213100   4.071   4.541   1.307
 4365TIP3    H113101   4.055   4.464   1.253
 4365TIP3    H213102   4.007   4.534   1.378
 4366TIP3   OH213103   0.081   1.344   0.915
 4366TIP3    H113104   0.008   1.290   0.885
 4366TIP3    H213105   0.142   1.283   0.955
 4367TIP3   OH213106   3.969   5.639   2.852
 4367TIP3    H113107   3.971   5.703   2.780
 4367TIP3    H213108   3.924   5.563   2.815
 4368TIP3   OH213109   4.506   0.099   0.224
 4368TIP3    H113110   4.509   0.188   0.188
 4368TIP3    H213111   4.547   0.107   0.310
 4369TIP3   OH213112   5.172   4.078   4.203
 4369TIP3    H113113   5.157   4.137   4.277
 4369TIP3    H213114   5.261   4.046   4.214
 4370TIP3   OH213115   5.703  -0.025   0.717
 4370TIP3    H113116   5.710   0.064   0.750
 4370TIP3    H213117   5.621  -0.027   0.667
 4371TIP3   OH213118   4.040   0.459   5.107
 4371TIP3    H113119   4.088   0.535   5.139
 4371TIP3    H213120   4.048   0.464   5.012
 4372TIP3   OH213121   2.817   3.315   0.492
 4372TIP3    H113122   2.854   3.403   0.484
 4372TIP3    H213123   2.745   3.314   0.430
 4373TIP3   OH213124   5.362   5.795   3.330
 4373TIP3    H113125   5.281   5.838   3.355
 4373TIP3    H213126   5.346   5.702   3.346
 4374TIP3   OH213127   2.707   2.051   3.932
 4374TIP3    H113128   2.698   2.106   4.010
 4374TIP3    H213129   2.705   2.112   3.859
 4375TIP3   OH213130   4.555   0.855   0.713
 4375TIP3    H113131   4.616   0.891   0.648
 4375TIP3    H213132   4.494   0.927   0.731
 4376TIP3   OH213133   5.138   1.644   4.170
 4376TIP3    H113134   5.225   1.606   4.157
 4376TIP3    H213135   5.143   1.731   4.130
 4377TIP3   OH213136   2.705   4.031   3.195
 4377TIP3    H113137   2.675   3.977   3.122
 4377TIP3    H213138   2.770   3.976   3.240
 4378TIP3   OH213139   0.537   4.940   0.729
 4378TIP3    H113140   0.491   4.856   0.734
 4378TIP3    H213141   0.610   4.932   0.790
 4379TIP3   OH213142   1.997   2.903   5.026
 4379TIP3    H113143   2.039   2.986   5.048
 4379TIP3    H213144   1.909   2.910   5.064
 4380TIP3   OH213145   3.077   1.903   5.059
 4380TIP3    H113146   3.035   1.851   4.991
 4380TIP3    H213147   3.133   1.841   5.105
 4381TIP3   OH213148   1.022   3.572   0.779
 4381TIP3    H113149   1.082   3.640   0.812
 4381TIP3    H213150   1.024   3.584   0.684
 4382TIP3   OH213151   5.382   4.676   2.478
 4382TIP3    H113152   5.440   4.688   2.553
 4382TIP3    H213153   5.295   4.701   2.511
 4383TIP3   OH213154   0.514   1.727   0.394
 4383TIP3    H113155   0.472   1.806   0.360
 4383TIP3    H213156   0.578   1.759   0.458
 4384TIP3   OH213157   6.220   3.756   1.347
 4384TIP3    H113158   6.294   3.697   1.363
 4384TIP3    H213159   6.240   3.796   1.262
 4385TIP3   OH213160   4.267   4.518   2.694
 4385TIP3    H113161   4.243   4.447   2.754
 4385TIP3    H213162   4.311   4.474   2.622
 4386TIP3   OH213163   4.604   4.750   1.264
 4386TIP3    H113164   4.516   4.716   1.282
 4386TIP3    H213165   4.594   4.845   1.273
 4387TIP3   OH213166   2.978   5.137   2.480
 4387TIP3    H113167   2.970   5.058   2.534
 4387TIP3    H213168   2.892   5.148   2.441
 4388TIP3   OH213169   6.301   3.639   1.892
 4388TIP3    H113170   6.344   3.571   1.840
 4388TIP3    H213171   6.283   3.709   1.830
 4389TIP3   OH213172   1.356   4.603   0.999
 4389TIP3    H113173   1.324   4.647   0.920
 4389TIP3    H213174   1.363   4.511   0.973
 4390TIP3   OH213175   5.226   4.094   4.520
 4390TIP3    H113176   5.160   4.146   4.474
 4390TIP3    H213177   5.218   4.122   4.612
 4391TIP3   OH213178   1.154   2.081   0.013
 4391TIP3    H113179   1.232   2.110   0.060
 4391TIP3    H213180   1.094   2.155   0.019
 4392TIP3   OH213181   6.340   5.490   3.288
 4392TIP3    H113182   6.366   5.582   3.281
 4392TIP3    H213183   6.257   5.486   3.240
 4393TIP3   OH213184   1.668   4.918   2.591
 4393TIP3    H113185   1.589   4.864   2.594
 4393TIP3    H213186   1.639   5.005   2.618
 4394TIP3   OH213187   3.852   3.658   4.553
 4394TIP3    H113188   3.821   3.748   4.554
 4394TIP3    H213189   3.772   3.606   4.543
 4395TIP3   OH213190   4.758   1.666   1.430
 4395TIP3    H113191   4.669   1.693   1.406
 4395TIP3    H213192   4.791   1.738   1.483
 4396TIP3   OH213193   1.940   4.241   1.671
 4396TIP3    H113194   2.029   4.274   1.655
 4396TIP3    H213195   1.883   4.305   1.628
 4397TIP3   OH213196   4.169   0.837   1.307
 4397TIP3    H113197   4.166   0.760   1.250
 4397TIP3    H213198   4.080   0.848   1.338
 4398TIP3   OH213199   3.579   3.561   3.369
 4398TIP3    H113200   3.577   3.484   3.426
 4398TIP3    H213201   3.544   3.530   3.285
 4399TIP3   OH213202   4.005   3.787   5.067
 4399TIP3    H113203   4.071   3.824   5.008
 4399TIP3    H213204   3.951   3.862   5.092
 4400TIP3   OH213205   0.164   2.995   5.126
 4400TIP3    H113206   0.140   3.041   5.207
 4400TIP3    H213207   0.214   3.059   5.076
 4401TIP3   OH213208   2.823   4.071   3.768
 4401TIP3    H113209   2.801   4.160   3.741
 4401TIP3    H213210   2.753   4.016   3.731
 4402TIP3   OH213211   2.965   0.748   0.216
 4402TIP3    H113212   2.899   0.723   0.151
 4402TIP3    H213213   3.010   0.822   0.176
 4403TIP3   OH213214   2.193   2.724   0.840
 4403TIP3    H113215   2.120   2.784   0.826
 4403TIP3    H213216   2.271   2.778   0.826
 4404TIP3   OH213217   2.800   2.876   0.190
 4404TIP3    H113218   2.743   2.868   0.114
 4404TIP3    H213219   2.826   2.968   0.191
 4405TIP3   OH213220   2.228   4.199   3.140
 4405TIP3    H113221   2.296   4.143   3.104
 4405TIP3    H213222   2.146   4.162   3.108
 4406TIP3   OH213223   3.001   2.574   0.891
 4406TIP3    H113224   3.045   2.566   0.806
 4406TIP3    H213225   2.964   2.488   0.907
 4407TIP3   OH213226   0.210   0.174   1.399
 4407TIP3    H113227   0.299   0.150   1.424
 4407TIP3    H213228   0.154   0.108   1.442
 4408TIP3   OH213229   0.766   1.097   1.291
 4408TIP3    H113230   0.795   1.154   1.363
 4408TIP3    H213231   0.840   1.040   1.274
 4409TIP3   OH213232   3.952   0.852   4.514
 4409TIP3    H113233   3.964   0.763   4.548
 4409TIP3    H213234   3.882   0.889   4.568
 4410TIP3   OH213235   2.406   4.390   3.560
 4410TIP3    H113236   2.332   4.450   3.569
 4410TIP3    H213237   2.428   4.366   3.650
 4411TIP3   OH213238   1.863   0.236   0.456
 4411TIP3    H113239   1.947   0.211   0.417
 4411TIP3    H213240   1.846   0.324   0.421
 4412TIP3   OH213241   3.960   3.416   3.094
 4412TIP3    H113242   3.933   3.377   3.177
 4412TIP3    H213243   3.902   3.491   3.082
 4413TIP3   OH213244   0.814   3.448   4.592
 4413TIP3    H113245   0.757   3.478   4.521
 4413TIP3    H213246   0.888   3.406   4.547
 4414TIP3   OH213247   5.901   0.482   1.458
 4414TIP3    H113248   5.954   0.435   1.522
 4414TIP3    H213249   5.949   0.564   1.443
 4415TIP3   OH213250   2.515   5.084   4.721
 4415TIP3    H113251   2.581   5.021   4.692
 4415TIP3    H213252   2.508   5.070   4.815
 4416TIP3   OH213253   4.664   5.084   0.246
 4416TIP3    H113254   4.740   5.052   0.198
 4416TIP3    H213255   4.592   5.081   0.182
 4417TIP3   OH213256   4.451   1.818   4.593
 4417TIP3    H113257   4.526   1.758   4.601
 4417TIP3    H213258   4.483   1.889   4.538
 4418TIP3   OH213259   0.392   1.427   3.699
 4418TIP3    H113260   0.359   1.409   3.787
 4418TIP3    H213261   0.476   1.381   3.695
 4419TIP3   OH213262   4.796   5.808   0.690
 4419TIP3    H113263   4.777   5.768   0.605
 4419TIP3    H213264   4.871   5.758   0.724
 4420TIP3   OH213265   1.890   3.176   2.955
 4420TIP3    H113266   1.815   3.159   3.012
 4420TIP3    H213267   1.917   3.265   2.976
 4421TIP3   OH213268   4.817   4.643   4.780
 4421TIP3    H113269   4.796   4.668   4.690
 4421TIP3    H213270   4.912   4.645   4.784
 4422TIP3   OH213271   3.520   5.168   0.881
 4422TIP3    H113272   3.606   5.190   0.917
 4422TIP3    H213273   3.461   5.234   0.915
 4423TIP3   OH213274   3.976   3.241   4.786
 4423TIP3    H113275   3.899   3.242   4.842
 4423TIP3    H213276   3.955   3.301   4.715
 4424TIP3   OH213277   6.312   2.207   2.826
 4424TIP3    H113278   6.407   2.197   2.816
 4424TIP3    H213279   6.277   2.121   2.801
 4425TIP3   OH213280   5.407   5.307   1.735
 4425TIP3    H113281   5.458   5.386   1.752
 4425TIP3    H213282   5.447   5.270   1.656
 4426TIP3   OH213283   0.826   3.950   4.571
 4426TIP3    H113284   0.837   3.881   4.636
 4426TIP3    H213285   0.915   3.971   4.543
 4427TIP3   OH213286   1.025   4.079   4.291
 4427TIP3    H113287   1.028   4.093   4.386
 4427TIP3    H213288   0.965   4.146   4.259
 4428TIP3   OH213289   3.286   1.940   1.262
 4428TIP3    H113290   3.246   1.955   1.176
 4428TIP3    H213291   3.340   2.018   1.277
 4429TIP3   OH213292   5.739   1.833   0.170
 4429TIP3    H113293   5.794   1.882   0.231
 4429TIP3    H213294   5.769   1.742   0.179
 4430TIP3   OH213295   6.123   4.378   4.527
 4430TIP3    H113296   6.127   4.458   4.580
 4430TIP3    H213297   6.201   4.328   4.553
 4431TIP3   OH213298   4.261   1.673   4.386
 4431TIP3    H113299   4.289   1.589   4.352
 4431TIP3    H213300   4.333   1.703   4.441
 4432TIP3   OH213301   3.762   0.426   3.497
 4432TIP3    H113302   3.729   0.503   3.544
 4432TIP3    H213303   3.749   0.354   3.558
 4433TIP3   OH213304   4.952   3.419   3.431
 4433TIP3    H113305   4.979   3.508   3.410
 4433TIP3    H213306   5.013   3.391   3.499
 4434TIP3   OH213307   1.320   5.022   0.416
 4434TIP3    H113308   1.297   5.099   0.468
 4434TIP3    H213309   1.415   5.023   0.413
 4435TIP3   OH213310   1.162   4.765   0.837
 4435TIP3    H113311   1.219   4.741   0.764
 4435TIP3    H213312   1.109   4.837   0.803
 4436TIP3   OH213313   4.858   3.763   4.030
 4436TIP3    H113314   4.873   3.698   3.961
 4436TIP3    H213315   4.764   3.763   4.044
 4437TIP3   OH213316   6.126   1.188   4.538
 4437TIP3    H113317   6.117   1.267   4.590
 4437TIP3    H213318   6.218   1.165   4.543
 4438TIP3   OH213319   0.137   2.724   0.932
 4438TIP3    H113320   0.189   2.643   0.929
 4438TIP3    H213321   0.071   2.713   0.863
 4439TIP3   OH213322   5.340   3.113   1.627
 4439TIP3    H113323   5.361   3.206   1.619
 4439TIP3    H213324   5.256   3.103   1.583
 4440TIP3   OH213325   4.498   5.281   4.294
 4440TIP3    H113326   4.440   5.213   4.328
 4440TIP3    H213327   4.527   5.248   4.209
 4441TIP3   OH213328   6.191   4.328   0.113
 4441TIP3    H113329   6.222   4.253   0.163
 4441TIP3    H213330   6.124   4.291   0.055
 4442TIP3   OH213331   0.699   5.147   3.058
 4442TIP3    H113332   0.773   5.109   3.011
 4442TIP3    H213333   0.738   5.217   3.110
 4443TIP3   OH213334   2.121   4.741   1.752
 4443TIP3    H113335   2.064   4.666   1.764
 4443TIP3    H213336   2.079   4.811   1.802
 4444TIP3   OH213337   3.936   1.621   1.950
 4444TIP3    H113338   3.851   1.643   1.988
 4444TIP3    H213339   3.914   1.584   1.864
 4445TIP3   OH213340   5.630   2.881   4.935
 4445TIP3    H113341   5.604   2.941   5.005
 4445TIP3    H213342   5.677   2.810   4.980
 4446TIP3   OH213343   3.261   4.232   1.711
 4446TIP3    H113344   3.187   4.172   1.724
 4446TIP3    H213345   3.333   4.191   1.759
 4447TIP3   OH213346   5.226   0.594   4.956
 4447TIP3    H113347   5.160   0.654   4.921
 4447TIP3    H213348   5.184   0.555   5.033
 4448TIP3   OH213349   4.531   4.347   0.001
 4448TIP3    H113350   4.448   4.341  -0.047
 4448TIP3    H213351   4.526   4.276   0.065
 4449TIP3   OH213352   2.150   0.940   3.443
 4449TIP3    H113353   2.058   0.967   3.444
 4449TIP3    H213354   2.199   1.021   3.428
 4450TIP3   OH213355   3.780   4.111   0.724
 4450TIP3    H113356   3.820   4.118   0.811
 4450TIP3    H213357   3.854   4.110   0.663
 4451TIP3   OH213358   3.957   1.157   1.543
 4451TIP3    H113359   4.014   1.154   1.620
 4451TIP3    H213360   3.887   1.217   1.567
 4452TIP3   OH213361   3.164   4.163   2.570
 4452TIP3    H113362   3.166   4.121   2.484
 4452TIP3    H213363   3.212   4.103   2.627
 4453TIP3   OH213364   0.633   3.193   0.701
 4453TIP3    H113365   0.615   3.132   0.629
 4453TIP3    H213366   0.654   3.136   0.775
 4454TIP3   OH213367   0.248   2.641   2.808
 4454TIP3    H113368   0.153   2.636   2.824
 4454TIP3    H213369   0.267   2.564   2.754
 4455TIP3   OH213370   5.360   5.134   2.861
 4455TIP3    H113371   5.289   5.163   2.803
 4455TIP3    H213372   5.315   5.091   2.934
 4456TIP3   OH213373   3.734   4.886   2.600
 4456TIP3    H113374   3.815   4.938   2.598
 4456TIP3    H213375   3.705   4.882   2.509
 4457TIP3   OH213376   4.478   2.002   1.461
 4457TIP3    H113377   4.472   2.058   1.539
 4457TIP3    H213378   4.421   1.928   1.480
 4458TIP3   OH213379   4.087   1.174   1.820
 4458TIP3    H113380   4.153   1.210   1.760
 4458TIP3    H213381   4.136   1.156   1.900
 4459TIP3   OH213382   2.850   0.018   3.004
 4459TIP3    H113383   2.792   0.030   2.928
 4459TIP3    H213384   2.938   0.010   2.966
 4460TIP3   OH213385   4.366   2.021  -0.004
 4460TIP3    H113386   4.429   2.082   0.033
 4460TIP3    H213387   4.281   2.052   0.027
 4461TIP3   OH213388   0.451   5.417   3.290
 4461TIP3    H113389   0.398   5.370   3.355
 4461TIP3    H213390   0.402   5.498   3.274
 4462TIP3   OH213391   2.458   4.288   3.822
 4462TIP3    H113392   2.538   4.240   3.799
 4462TIP3    H213393   2.414   4.232   3.886
 4463TIP3   OH213394   1.557   0.950   3.951
 4463TIP3    H113395   1.475   0.939   3.999
 4463TIP3    H213396   1.573   0.864   3.911
 4464TIP3   OH213397   1.826   5.471   3.795
 4464TIP3    H113398   1.745   5.422   3.788
 4464TIP3    H213399   1.802   5.551   3.843
 4465TIP3   OH213400   0.771   3.318   2.764
 4465TIP3    H113401   0.734   3.230   2.759
 4465TIP3    H213402   0.754   3.346   2.854
 4466TIP3   OH213403   3.188   2.151   0.932
 4466TIP3    H113404   3.144   2.071   0.962
 4466TIP3    H213405   3.261   2.162   0.992
 4467TIP3   OH213406   3.687   2.839   1.168
 4467TIP3    H113407   3.716   2.756   1.132
 4467TIP3    H213408   3.716   2.837   1.260
 4468TIP3   OH213409   4.824   4.144   1.378
 4468TIP3    H113410   4.839   4.108   1.465
 4468TIP3    H213411   4.794   4.069   1.326
 4469TIP3   OH213412   2.105   5.499   1.626
 4469TIP3    H113413   2.126   5.418   1.581
 4469TIP3    H213414   2.068   5.556   1.558
 4470TIP3   OH213415   2.213   4.382   5.031
 4470TIP3    H113416   2.236   4.461   5.079
 4470TIP3    H213417   2.229   4.404   4.939
 4471TIP3   OH213418   1.589   3.954   4.403
 4471TIP3    H113419   1.616   4.015   4.334
 4471TIP3    H213420   1.619   3.868   4.372
 4472TIP3   OH213421   2.173   4.789   3.356
 4472TIP3    H113422   2.178   4.709   3.304
 4472TIP3    H213423   2.178   4.860   3.291
 4473TIP3   OH213424   4.278   0.063   1.399
 4473TIP3    H113425   4.329   0.036   1.476
 4473TIP3    H213426   4.196   0.015   1.408
 4474TIP3   OH213427   4.591   3.253   0.483
 4474TIP3    H113428   4.643   3.316   0.434
 4474TIP3    H213429   4.532   3.307   0.536
 4475TIP3   OH213430   1.462   1.991   1.704
 4475TIP3    H113431   1.397   1.935   1.748
 4475TIP3    H213432   1.436   1.990   1.612
 4476TIP3   OH213433   2.074   1.966   4.776
 4476TIP3    H113434   2.048   2.024   4.704
 4476TIP3    H213435   2.167   1.950   4.761
 4477TIP3   OH213436   4.605   5.836   3.057
 4477TIP3    H113437   4.638   5.854   2.968
 4477TIP3    H213438   4.627   5.745   3.072
 4478TIP3   OH213439   2.723   0.751   3.542
 4478TIP3    H113440   2.649   0.758   3.482
 4478TIP3    H213441   2.779   0.825   3.520
 4479TIP3   OH213442   2.638   5.347   1.847
 4479TIP3    H113443   2.593   5.269   1.878
 4479TIP3    H213444   2.572   5.416   1.849
 4480TIP3   OH213445   3.349   0.943   2.441
 4480TIP3    H113446   3.440   0.961   2.467
 4480TIP3    H213447   3.332   0.855   2.473
 4481TIP3   OH213448   0.707   5.315   3.270
 4481TIP3    H113449   0.739   5.332   3.358
 4481TIP3    H213450   0.618   5.348   3.270
 4482TIP3   OH213451   2.252   1.601   3.989
 4482TIP3    H113452   2.162   1.572   4.004
 4482TIP3    H213453   2.243   1.691   3.957
 4483TIP3   OH213454   1.190   0.199   1.703
 4483TIP3    H113455   1.103   0.237   1.689
 4483TIP3    H213456   1.203   0.140   1.628
 4484TIP3   OH213457   5.619   4.632   4.803
 4484TIP3    H113458   5.585   4.602   4.887
 4484TIP3    H213459   5.631   4.552   4.752
 4485TIP3   OH213460   1.943   2.036   1.799
 4485TIP3    H113461   2.013   2.000   1.744
 4485TIP3    H213462   1.945   2.130   1.781
 4486TIP3   OH213463   4.741   2.531   1.439
 4486TIP3    H113464   4.814   2.592   1.428
 4486TIP3    H213465   4.679   2.556   1.370
 4487TIP3   OH213466   3.134   3.327   3.912
 4487TIP3    H113467   3.196   3.400   3.905
 4487TIP3    H213468   3.067   3.346   3.847
 4488TIP3   OH213469   4.730   5.279   4.499
 4488TIP3    H113470   4.649   5.330   4.508
 4488TIP3    H213471   4.728   5.248   4.408
 4489TIP3   OH213472   2.918   2.514   2.071
 4489TIP3    H113473   2.830   2.545   2.046
 4489TIP3    H213474   2.901   2.446   2.136
 4490TIP3   OH213475   2.112   5.731   2.852
 4490TIP3    H113476   2.040   5.785   2.820
 4490TIP3    H213477   2.093   5.719   2.945
 4491TIP3   OH213478   0.219   5.887   0.549
 4491TIP3    H113479   0.283   5.846   0.491
 4491TIP3    H213480   0.245   5.979   0.552
 4492TIP3   OH213481   5.686   3.105   1.673
 4492TIP3    H113482   5.775   3.071   1.683
 4492TIP3    H213483   5.642   3.083   1.755
 4493TIP3   OH213484   1.901   4.713   2.034
 4493TIP3    H113485   1.894   4.808   2.030
 4493TIP3    H213486   1.814   4.681   2.012
 4494TIP3   OH213487   2.380   4.119   2.421
 4494TIP3    H113488   2.373   4.078   2.508
 4494TIP3    H213489   2.377   4.213   2.439
 4495TIP3   OH213490   0.986   2.311   0.075
 4495TIP3    H113491   0.930   2.259   0.132
 4495TIP3    H213492   0.939   2.394   0.063
 4496TIP3   OH213493   0.022   4.040   2.335
 4496TIP3    H113494   0.059   4.001   2.414
 4496TIP3    H213495   0.000   4.130   2.361
 4497TIP3   OH213496   0.888   3.862   3.919
 4497TIP3    H113497   0.793   3.864   3.919
 4497TIP3    H213498   0.915   3.953   3.927
 4498TIP3   OH213499   1.716   4.918   2.903
 4498TIP3    H113500   1.741   4.837   2.859
 4498TIP3    H213501   1.741   4.905   2.994
 4499TIP3   OH213502   2.805   3.011   4.094
 4499TIP3    H113503   2.741   3.062   4.145
 4499TIP3    H213504   2.879   3.002   4.153
 4500TIP3   OH213505   5.269   4.133   0.583
 4500TIP3    H113506   5.200   4.134   0.516
 4500TIP3    H213507   5.279   4.225   0.608
 4501TIP3   OH213508   1.050   5.118   3.488
 4501TIP3    H113509   1.023   5.146   3.575
 4501TIP3    H213510   0.967   5.102   3.442
 4502TIP3   OH213511   1.616   5.466   2.569
 4502TIP3    H113512   1.538   5.521   2.565
 4502TIP3    H213513   1.679   5.511   2.513
 4503TIP3   OH213514   3.447   2.443   0.552
 4503TIP3    H113515   3.494   2.458   0.470
 4503TIP3    H213516   3.497   2.376   0.598
 4504TIP3   OH213517   0.744   4.944   4.935
 4504TIP3    H113518   0.692   4.956   5.014
 4504TIP3    H213519   0.820   4.893   4.963
 4505TIP3   OH213520   3.424   4.816   4.856
 4505TIP3    H113521   3.512   4.847   4.877
 4505TIP3    H213522   3.398   4.765   4.933
 4506TIP3   OH213523   3.365   0.760   3.498
 4506TIP3    H113524   3.271   0.752   3.516
 4506TIP3    H213525   3.371   0.775   3.404
 4507TIP3   OH213526   2.970   1.572   2.906
 4507TIP3    H113527   2.880   1.541   2.904
 4507TIP3    H213528   2.982   1.617   2.823
 4508TIP3   OH213529   5.903   2.193   2.541
 4508TIP3    H113530   5.879   2.225   2.628
 4508TIP3    H213531   5.820   2.195   2.492
 4509TIP3   OH213532   5.022   5.332   1.608
 4509TIP3    H113533   5.001   5.425   1.599
 4509TIP3    H213534   5.010   5.296   1.520
 4510TIP3   OH213535   1.873   2.632   1.084
 4510TIP3    H113536   1.869   2.715   1.038
 4510TIP3    H213537   1.879   2.566   1.015
 4511TIP3   OH213538   1.713   0.905   4.298
 4511TIP3    H113539   1.681   0.967   4.363
 4511TIP3    H213540   1.633   0.869   4.258
 4512TIP3   OH213541   3.928   0.722   3.659
 4512TIP3    H113542   3.880   0.660   3.714
 4512TIP3    H213543   3.989   0.765   3.719
 4513TIP3   OH213544   3.680   2.025   4.931
 4513TIP3    H113545   3.597   1.981   4.911
 4513TIP3    H213546   3.747   1.960   4.911
 4514TIP3   OH213547   4.897   2.489   4.335
 4514TIP3    H113548   4.885   2.582   4.316
 4514TIP3    H213549   4.930   2.488   4.425
 4515TIP3   OH213550   4.507   1.026   3.206
 4515TIP3    H113551   4.433   1.038   3.266
 4515TIP3    H213552   4.551   1.111   3.205
 4516TIP3   OH213553   5.542   4.585   5.076
 4516TIP3    H113554   5.513   4.636   5.152
 4516TIP3    H213555   5.635   4.569   5.092
 4517TIP3   OH213556   5.387   5.679   0.171
 4517TIP3    H113557   5.417   5.687   0.081
 4517TIP3    H213558   5.423   5.755   0.216
 4518TIP3   OH213559   1.874   3.416   3.365
 4518TIP3    H113560   1.931   3.349   3.328
 4518TIP3    H213561   1.932   3.469   3.420
 4519TIP3   OH213562   5.434   5.384   1.284
 4519TIP3    H113563   5.435   5.329   1.362
 4519TIP3    H213564   5.460   5.326   1.212
 4520TIP3   OH213565   1.931   5.271   0.581
 4520TIP3    H113566   2.006   5.260   0.523
 4520TIP3    H213567   1.855   5.251   0.526
 4521TIP3   OH213568   0.737   2.586   4.029
 4521TIP3    H113569   0.727   2.518   4.095
 4521TIP3    H213570   0.664   2.645   4.044
 4522TIP3   OH213571   5.634   3.260   3.986
 4522TIP3    H113572   5.614   3.317   3.912
 4522TIP3    H213573   5.653   3.175   3.947
 4523TIP3   OH213574   0.490   3.286   4.293
 4523TIP3    H113575   0.454   3.198   4.298
 4523TIP3    H213576   0.492   3.317   4.384
 4524TIP3   OH213577   1.636   3.365   2.592
 4524TIP3    H113578   1.662   3.456   2.601
 4524TIP3    H213579   1.714   3.316   2.620
 4525TIP3   OH213580   0.864   3.660   2.786
 4525TIP3    H113581   0.861   3.708   2.869
 4525TIP3    H213582   0.910   3.578   2.807
 4526TIP3   OH213583   0.443   5.848   1.310
 4526TIP3    H113584   0.510   5.901   1.352
 4526TIP3    H213585   0.443   5.878   1.219
 4527TIP3   OH213586   2.711   1.455   3.925
 4527TIP3    H113587   2.783   1.470   3.863
 4527TIP3    H213588   2.685   1.543   3.952
 4528TIP3   OH213589   5.293   5.383   4.434
 4528TIP3    H113590   5.284   5.336   4.352
 4528TIP3    H213591   5.357   5.333   4.484
 4529TIP3   OH213592   0.440   0.750   0.813
 4529TIP3    H113593   0.513   0.700   0.849
 4529TIP3    H213594   0.370   0.686   0.802
 4530TIP3   OH213595   1.389   4.379   4.048
 4530TIP3    H113596   1.396   4.339   3.961
 4530TIP3    H213597   1.335   4.457   4.035
 4531TIP3   OH213598   5.836   0.737   3.767
 4531TIP3    H113599   5.897   0.734   3.693
 4531TIP3    H213600   5.750   0.751   3.726
 4532TIP3   OH213601   1.792   2.137   4.232
 4532TIP3    H113602   1.819   2.046   4.243
 4532TIP3    H213603   1.873   2.188   4.242
 4533TIP3   OH213604   5.901   2.731   1.413
 4533TIP3    H113605   5.874   2.667   1.478
 4533TIP3    H213606   5.994   2.747   1.432
 4534TIP3   OH213607   3.511   4.644   1.299
 4534TIP3    H113608   3.542   4.718   1.349
 4534TIP3    H213609   3.417   4.639   1.318
 4535TIP3   OH213610   2.609   0.328   5.167
 4535TIP3    H113611   2.514   0.330   5.174
 4535TIP3    H213612   2.628   0.358   5.078
 4536TIP3   OH213613   5.986   4.566   0.221
 4536TIP3    H113614   6.055   4.517   0.177
 4536TIP3    H213615   6.001   4.657   0.195
 4537TIP3   OH213616   4.728   0.449   5.027
 4537TIP3    H113617   4.743   0.362   4.992
 4537TIP3    H213618   4.669   0.490   4.964
 4538TIP3   OH213619   5.197   0.842   2.843
 4538TIP3    H113620   5.203   0.777   2.773
 4538TIP3    H213621   5.265   0.906   2.822
 4539TIP3   OH213622   1.473   2.065   3.589
 4539TIP3    H113623   1.452   1.998   3.654
 4539TIP3    H213624   1.502   2.015   3.512
 4540TIP3   OH213625   4.202   5.975   3.098
 4540TIP3    H113626   4.220   6.011   3.011
 4540TIP3    H213627   4.113   5.941   3.092
 4541TIP3   OH213628   1.366   0.144   1.276
 4541TIP3    H113629   1.455   0.180   1.272
 4541TIP3    H213630   1.376   0.052   1.249
 4542TIP3   OH213631   3.669   5.693   3.163
 4542TIP3    H113632   3.616   5.683   3.084
 4542TIP3    H213633   3.608   5.670   3.234
 4543TIP3   OH213634   3.938   0.711   4.990
 4543TIP3    H113635   3.911   0.781   5.050
 4543TIP3    H213636   3.856   0.674   4.957
 4544TIP3   OH213637   6.257   0.616   2.601
 4544TIP3    H113638   6.331   0.676   2.592
 4544TIP3    H213639   6.193   0.646   2.537
 4545TIP3   OH213640   5.264   2.743   0.389
 4545TIP3    H113641   5.275   2.727   0.295
 4545TIP3    H213642   5.170   2.737   0.403
 4546TIP3   OH213643   5.690   2.275   0.312
 4546TIP3    H113644   5.657   2.195   0.352
 4546TIP3    H213645   5.631   2.292   0.239
 4547TIP3   OH213646   2.096   1.349   3.984
 4547TIP3    H113647   2.176   1.338   4.035
 4547TIP3    H213648   2.109   1.295   3.906
 4548TIP3   OH213649   2.050   3.021   3.675
 4548TIP3    H113650   2.037   3.022   3.580
 4548TIP3    H213651   2.135   2.978   3.687
 4549TIP3   OH213652   4.731   4.788   1.807
 4549TIP3    H113653   4.709   4.879   1.826
 4549TIP3    H213654   4.748   4.786   1.713
 4550TIP3   OH213655   1.674   2.156   1.287
 4550TIP3    H113656   1.678   2.072   1.241
 4550TIP3    H213657   1.586   2.157   1.325
 4551TIP3   OH213658   3.203   4.651   0.550
 4551TIP3    H113659   3.212   4.730   0.495
 4551TIP3    H213660   3.197   4.685   0.639
 4552TIP3   OH213661   6.183   2.432   4.953
 4552TIP3    H113662   6.237   2.356   4.930
 4552TIP3    H213663   6.226   2.469   5.031
 4553TIP3   OH213664   1.023   0.146   0.977
 4553TIP3    H113665   0.976   0.198   1.042
 4553TIP3    H213666   1.053   0.069   1.024
 4554TIP3   OH213667   5.729   4.298   1.659
 4554TIP3    H113668   5.636   4.309   1.640
 4554TIP3    H213669   5.774   4.344   1.588
 4555TIP3   OH213670   4.998   4.256   3.388
 4555TIP3    H113671   5.038   4.175   3.417
 4555TIP3    H213672   4.937   4.279   3.458
 4556TIP3   OH213673   4.167   1.213   2.861
 4556TIP3    H113674   4.243   1.164   2.828
 4556TIP3    H213675   4.168   1.295   2.812
 4557TIP3   OH213676   4.354   5.903   4.783
 4557TIP3    H113677   4.295   5.958   4.732
 4557TIP3    H213678   4.371   5.953   4.863
 4558TIP3   OH213679   1.674   4.393   0.180
 4558TIP3    H113680   1.717   4.311   0.206
 4558TIP3    H213681   1.728   4.427   0.109
 4559TIP3   OH213682   4.291   2.620   2.597
 4559TIP3    H113683   4.295   2.533   2.559
 4559TIP3    H213684   4.346   2.614   2.675
 4560TIP3   OH213685   4.960   1.795   5.043
 4560TIP3    H113686   4.992   1.885   5.056
 4560TIP3    H213687   4.897   1.803   4.970
 4561TIP3   OH213688   0.568   3.079   1.977
 4561TIP3    H113689   0.612   2.998   2.001
 4561TIP3    H213690   0.619   3.148   2.020
 4562TIP3   OH213691   4.339   0.107   4.023
 4562TIP3    H113692   4.263   0.162   4.042
 4562TIP3    H213693   4.375   0.142   3.941
 4563TIP3   OH213694   3.870   2.453   1.903
 4563TIP3    H113695   3.903   2.466   1.992
 4563TIP3    H213696   3.947   2.430   1.851
 4564TIP3   OH213697   3.634   3.493   3.119
 4564TIP3    H113698   3.588   3.501   3.036
 4564TIP3    H213699   3.696   3.567   3.119
 4565TIP3   OH213700   4.074   3.261   3.854
 4565TIP3    H113701   4.067   3.350   3.818
 4565TIP3    H213702   4.030   3.266   3.939
 4566TIP3   OH213703   6.121   4.887   1.308
 4566TIP3    H113704   6.088   4.892   1.398
 4566TIP3    H213705   6.174   4.966   1.297
 4567TIP3   OH213706   0.931   5.128   1.515
 4567TIP3    H113707   0.873   5.052   1.510
 4567TIP3    H213708   0.937   5.160   1.425
 4568TIP3   OH213709   5.778   1.213   3.871
 4568TIP3    H113710   5.756   1.292   3.921
 4568TIP3    H213711   5.864   1.231   3.834
 4569TIP3   OH213712   3.677   3.369   0.346
 4569TIP3    H113713   3.769   3.353   0.329
 4569TIP3    H213714   3.664   3.342   0.437
 4570TIP3   OH213715   1.267   3.390   4.323
 4570TIP3    H113716   1.207   3.391   4.397
 4570TIP3    H213717   1.216   3.424   4.250
 4571TIP3   OH213718   3.093   3.111   3.454
 4571TIP3    H113719   3.066   3.100   3.545
 4571TIP3    H213720   3.093   3.022   3.419
 4572TIP3   OH213721   3.071   4.017   3.574
 4572TIP3    H113722   2.976   4.028   3.581
 4572TIP3    H213723   3.096   3.971   3.654
 4573TIP3   OH213724   3.120   1.874   1.825
 4573TIP3    H113725   3.072   1.793   1.842
 4573TIP3    H213726   3.189   1.875   1.892
 4574TIP3   OH213727   3.781   3.240   4.975
 4574TIP3    H113728   3.696   3.206   5.003
 4574TIP3    H213729   3.796   3.316   5.030
 4575TIP3   OH213730   4.649   4.342   4.607
 4575TIP3    H113731   4.603   4.426   4.600
 4575TIP3    H213732   4.702   4.337   4.528
 4576TIP3   OH213733   6.249   4.664   2.895
 4576TIP3    H113734   6.206   4.626   2.971
 4576TIP3    H213735   6.319   4.719   2.931
 4577TIP3   OH213736   1.865   5.784   0.727
 4577TIP3    H113737   1.803   5.737   0.671
 4577TIP3    H213738   1.936   5.809   0.668
 4578TIP3   OH213739   5.724   0.129   3.612
 4578TIP3    H113740   5.780   0.205   3.594
 4578TIP3    H213741   5.781   0.068   3.659
 4579TIP3   OH213742   3.556   2.152   2.890
 4579TIP3    H113743   3.578   2.227   2.945
 4579TIP3    H213744   3.466   2.131   2.913
 4580TIP3   OH213745   5.610   2.682   3.271
 4580TIP3    H113746   5.630   2.600   3.315
 4580TIP3    H213747   5.598   2.658   3.179
 4581TIP3   OH213748   1.948   4.293   5.096
 4581TIP3    H113749   2.044   4.284   5.091
 4581TIP3    H213750   1.915   4.237   5.025
 4582TIP3   OH213751   3.226   4.468   1.880
 4582TIP3    H113752   3.207   4.537   1.816
 4582TIP3    H213753   3.249   4.391   1.827
 4583TIP3   OH213754   5.620   0.489   4.858
 4583TIP3    H113755   5.555   0.447   4.802
 4583TIP3    H213756   5.568   0.539   4.921
 4584TIP3   OH213757   0.469   2.011   1.972
 4584TIP3    H113758   0.565   2.013   1.964
 4584TIP3    H213759   0.443   1.934   1.922
 4585TIP3   OH213760   5.440   2.207   3.522
 4585TIP3    H113761   5.429   2.123   3.478
 4585TIP3    H213762   5.494   2.187   3.598
 4586TIP3   OH213763   3.714   5.461   3.468
 4586TIP3    H113764   3.779   5.527   3.443
 4586TIP3    H213765   3.702   5.474   3.562
 4587TIP3   OH213766   1.713   0.293   2.718
 4587TIP3    H113767   1.703   0.351   2.793
 4587TIP3    H213768   1.637   0.312   2.662
 4588TIP3   OH213769   4.231   3.158   4.676
 4588TIP3    H113770   4.217   3.205   4.594
 4588TIP3    H213771   4.147   3.164   4.722
 4589TIP3   OH213772   0.669   5.306   2.047
 4589TIP3    H113773   0.586   5.315   2.000
 4589TIP3    H213774   0.733   5.284   1.978
 4590TIP3   OH213775   4.218   5.749   3.989
 4590TIP3    H113776   4.145   5.733   3.930
 4590TIP3    H213777   4.294   5.760   3.932
 4591TIP3   OH213778   4.891   1.314   1.520
 4591TIP3    H113779   4.834   1.347   1.589
 4591TIP3    H213780   4.834   1.259   1.466
 4592TIP3   OH213781   2.850   5.357   1.000
 4592TIP3    H113782   2.871   5.264   1.004
 4592TIP3    H213783   2.877   5.384   0.912
 4593TIP3   OH213784   4.259   2.471   3.508
 4593TIP3    H113785   4.252   2.534   3.580
 4593TIP3    H213786   4.179   2.485   3.457
 4594TIP3   OH213787   0.367   0.620   4.115
 4594TIP3    H113788   0.413   0.624   4.031
 4594TIP3    H213789   0.320   0.703   4.121
 4595TIP3   OH213790   1.538   4.875   5.028
 4595TIP3    H113791   1.547   4.832   5.113
 4595TIP3    H213792   1.472   4.822   4.981
 4596TIP3   OH213793   4.384   1.893   1.985
 4596TIP3    H113794   4.419   1.814   2.026
 4596TIP3    H213795   4.457   1.955   1.985
 4597TIP3   OH213796   5.439   0.149   0.726
 4597TIP3    H113797   5.394   0.072   0.690
 4597TIP3    H213798   5.400   0.223   0.678
 4598TIP3   OH213799   2.410   5.571   2.225
 4598TIP3    H113800   2.366   5.492   2.257
 4598TIP3    H213801   2.347   5.611   2.166
 4599TIP3   OH213802   4.087   0.019   3.873
 4599TIP3    H113803   4.167  -0.017   3.911
 4599TIP3    H213804   4.108   0.034   3.781
 4600TIP3   OH213805   4.269   3.188   3.493
 4600TIP3    H113806   4.294   3.178   3.585
 4600TIP3    H213807   4.352   3.184   3.445
 4601TIP3   OH213808   2.020   1.832   1.141
 4601TIP3    H113809   1.962   1.810   1.213
 4601TIP3    H213810   1.963   1.835   1.064
 4602TIP3   OH213811   5.362   1.067   2.711
 4602TIP3    H113812   5.295   1.110   2.657
 4602TIP3    H213813   5.388   0.991   2.659
 4603TIP3   OH213814   1.985   0.055   1.514
 4603TIP3    H113815   1.955  -0.004   1.444
 4603TIP3    H213816   2.077   0.034   1.525
 4604TIP3   OH213817   2.489   0.432   0.853
 4604TIP3    H113818   2.447   0.349   0.874
 4604TIP3    H213819   2.498   0.477   0.937
 4605TIP3   OH213820   5.401   0.332   1.849
 4605TIP3    H113821   5.427   0.247   1.814
 4605TIP3    H213822   5.440   0.336   1.936
 4606TIP3   OH213823   1.633   2.346   4.364
 4606TIP3    H113824   1.631   2.299   4.448
 4606TIP3    H213825   1.655   2.279   4.300
 4607TIP3   OH213826   1.118   3.762   4.497
 4607TIP3    H113827   1.039   3.716   4.468
 4607TIP3    H213828   1.092   3.806   4.578
 4608TIP3   OH213829   0.693   1.491   4.166
 4608TIP3    H113830   0.702   1.525   4.255
 4608TIP3    H213831   0.716   1.565   4.110
 4609TIP3   OH213832   1.020   4.628   4.758
 4609TIP3    H113833   1.062   4.557   4.807
 4609TIP3    H213834   0.927   4.621   4.780
 4610TIP3   OH213835   6.212   4.220   4.839
 4610TIP3    H113836   6.283   4.208   4.776
 4610TIP3    H213837   6.137   4.177   4.798
 4611TIP3   OH213838   0.183   5.744   2.828
 4611TIP3    H113839   0.123   5.754   2.753
 4611TIP3    H213840   0.260   5.702   2.790
 4612TIP3   OH213841   0.454   0.083   1.531
 4612TIP3    H113842   0.516   0.020   1.569
 4612TIP3    H213843   0.509   0.140   1.477
 4613TIP3   OH213844   0.914   5.323   0.088
 4613TIP3    H113845   0.888   5.333  -0.003
 4613TIP3    H213846   0.833   5.298   0.134
 4614TIP3   OH213847   5.318   4.988   0.704
 4614TIP3    H113848   5.341   4.911   0.652
 4614TIP3    H213849   5.381   4.988   0.776
 4615TIP3   OH213850   1.233   3.108   4.635
 4615TIP3    H113851   1.328   3.115   4.633
 4615TIP3    H213852   1.215   3.021   4.599
 4616TIP3   OH213853   0.127   0.534   1.740
 4616TIP3    H113854   0.115   0.515   1.647
 4616TIP3    H213855   0.097   0.455   1.784
 4617TIP3   OH213856   4.227   1.669   4.697
 4617TIP3    H113857   4.288   1.731   4.657
 4617TIP3    H213858   4.141   1.710   4.687
 4618TIP3   OH213859   0.458   4.934   4.425
 4618TIP3    H113860   0.546   4.961   4.453
 4618TIP3    H213861   0.443   4.851   4.470
 4619TIP3   OH213862   0.275   0.115   0.184
 4619TIP3    H113863   0.237   0.029   0.165
 4619TIP3    H213864   0.287   0.156   0.099
 4620TIP3   OH213865   1.662   5.435   1.481
 4620TIP3    H113866   1.659   5.501   1.550
 4620TIP3    H213867   1.626   5.356   1.521
 4621TIP3   OH213868   1.777   4.210   4.874
 4621TIP3    H113869   1.711   4.180   4.811
 4621TIP3    H213870   1.834   4.268   4.824
 4622TIP3   OH213871   3.724   3.890   4.521
 4622TIP3    H113872   3.658   3.904   4.590
 4622TIP3    H213873   3.777   3.970   4.523
 4623TIP3   OH213874   1.402   3.978   4.985
 4623TIP3    H113875   1.459   3.969   5.061
 4623TIP3    H213876   1.461   3.973   4.910
 4624TIP3   OH213877   1.948   4.007   4.934
 4624TIP3    H113878   1.920   3.964   5.015
 4624TIP3    H213879   1.881   4.074   4.918
 4625TIP3   OH213880   5.856   3.832   1.276
 4625TIP3    H113881   5.832   3.822   1.184
 4625TIP3    H213882   5.948   3.803   1.280
 4626TIP3   OH213883   6.066   0.222   2.506
 4626TIP3    H113884   6.080   0.240   2.599
 4626TIP3    H213885   6.119   0.287   2.461
 4627TIP3   OH213886   6.281   5.677   4.357
 4627TIP3    H113887   6.202   5.623   4.351
 4627TIP3    H213888   6.258   5.745   4.420
 4628TIP3   OH213889   5.648   0.010   5.105
 4628TIP3    H113890   5.692   0.095   5.101
 4628TIP3    H213891   5.659  -0.018   5.196
 4629TIP3   OH213892   5.722   3.488   1.209
 4629TIP3    H113893   5.738   3.393   1.214
 4629TIP3    H213894   5.806   3.527   1.235
 4630TIP3   OH213895   4.267   5.345   1.935
 4630TIP3    H113896   4.307   5.263   1.907
 4630TIP3    H213897   4.184   5.319   1.974
 4631TIP3   OH213898   2.949   3.994   1.437
 4631TIP3    H113899   2.915   3.912   1.401
 4631TIP3    H213900   2.960   4.051   1.361
 4632TIP3   OH213901   4.641   3.975   0.968
 4632TIP3    H113902   4.626   4.069   0.979
 4632TIP3    H213903   4.737   3.966   0.965
 4633TIP3   OH213904   2.694   4.079   0.055
 4633TIP3    H113905   2.690   4.174   0.061
 4633TIP3    H213906   2.618   4.048   0.104
 4634TIP3   OH213907   6.236   3.136   3.855
 4634TIP3    H113908   6.208   3.139   3.763
 4634TIP3    H213909   6.155   3.147   3.905
 4635TIP3   OH213910   1.526   0.889   0.154
 4635TIP3    H113911   1.477   0.957   0.200
 4635TIP3    H213912   1.530   0.816   0.216
 4636TIP3   OH213913   1.368   3.928   2.483
 4636TIP3    H113914   1.339   3.900   2.395
 4636TIP3    H213915   1.392   3.846   2.526
 4637TIP3   OH213916   4.939   0.736   3.683
 4637TIP3    H113917   4.849   0.760   3.707
 4637TIP3    H213918   4.994   0.793   3.737
 4638TIP3   OH213919   4.573   3.496   0.663
 4638TIP3    H113920   4.542   3.586   0.664
 4638TIP3    H213921   4.660   3.502   0.622
 4639TIP3   OH213922   2.732   3.721   1.498
 4639TIP3    H113923   2.768   3.760   1.418
 4639TIP3    H213924   2.786   3.644   1.514
 4640TIP3   OH213925   4.765   2.911   2.311
 4640TIP3    H113926   4.769   2.834   2.255
 4640TIP3    H213927   4.854   2.947   2.309
 4641TIP3   OH213928   4.862   0.236   3.302
 4641TIP3    H113929   4.903   0.310   3.257
 4641TIP3    H213930   4.926   0.165   3.294
 4642TIP3   OH213931   6.246   5.195   4.465
 4642TIP3    H113932   6.324   5.144   4.443
 4642TIP3    H213933   6.265   5.283   4.434
 4643TIP3   OH213934   0.859   1.359   4.457
 4643TIP3    H113935   0.937   1.397   4.496
 4643TIP3    H213936   0.800   1.433   4.442
 4644TIP3   OH213937   1.867   1.490   1.233
 4644TIP3    H113938   1.798   1.449   1.181
 4644TIP3    H213939   1.886   1.426   1.302
 4645TIP3   OH213940   5.059   4.875   0.688
 4645TIP3    H113941   5.008   4.919   0.620
 4645TIP3    H213942   5.134   4.932   0.702
 4646TIP3   OH213943   1.412   3.469   5.060
 4646TIP3    H113944   1.361   3.507   4.988
 4646TIP3    H213945   1.476   3.412   5.018
 4647TIP3   OH213946   5.608   5.661   0.468
 4647TIP3    H113947   5.614   5.681   0.562
 4647TIP3    H213948   5.519   5.688   0.444
 4648TIP3   OH213949   2.346   3.706   4.225
 4648TIP3    H113950   2.412   3.771   4.248
 4648TIP3    H213951   2.350   3.641   4.296
 4649TIP3   OH213952   2.203   4.534   4.435
 4649TIP3    H113953   2.298   4.539   4.440
 4649TIP3    H213954   2.180   4.460   4.492
 4650TIP3   OH213955   4.791   2.637   2.885
 4650TIP3    H113956   4.804   2.543   2.894
 4650TIP3    H213957   4.716   2.646   2.827
 4651TIP3   OH213958   4.150   1.041   4.549
 4651TIP3    H113959   4.133   1.038   4.643
 4651TIP3    H213960   4.103   0.966   4.514
 4652TIP3   OH213961   5.336   1.465   4.488
 4652TIP3    H113962   5.389   1.400   4.534
 4652TIP3    H213963   5.272   1.494   4.552
 4653TIP3   OH213964   3.274   1.001   4.749
 4653TIP3    H113965   3.340   0.971   4.812
 4653TIP3    H213966   3.315   0.985   4.664
 4654TIP3   OH213967   6.287   5.146   0.306
 4654TIP3    H113968   6.267   5.119   0.216
 4654TIP3    H213969   6.210   5.121   0.357
 4655TIP3   OH213970   3.970   4.577   3.681
 4655TIP3    H113971   3.904   4.601   3.616
 4655TIP3    H213972   3.954   4.484   3.697
 4656TIP3   OH213973   5.722   4.658   0.781
 4656TIP3    H113974   5.630   4.661   0.808
 4656TIP3    H213975   5.719   4.639   0.687
 4657TIP3   OH213976   4.809   1.935   1.580
 4657TIP3    H113977   4.868   1.971   1.646
 4657TIP3    H213978   4.848   1.960   1.497
 4658TIP3   OH213979   1.352   5.881   1.766
 4658TIP3    H113980   1.411   5.837   1.704
 4658TIP3    H213981   1.357   5.828   1.845
 4659TIP3   OH213982   3.293   2.965   0.536
 4659TIP3    H113983   3.320   2.874   0.549
 4659TIP3    H213984   3.212   2.974   0.587
 4660TIP3   OH213985   1.329   5.876   0.537
 4660TIP3    H113986   1.278   5.942   0.491
 4660TIP3    H213987   1.265   5.832   0.594
 4661TIP3   OH213988   3.129   3.181   2.084
 4661TIP3    H113989   3.039   3.164   2.113
 4661TIP3    H213990   3.183   3.125   2.140
 4662TIP3   OH213991   6.322   1.598   0.993
 4662TIP3    H113992   6.318   1.629   1.084
 4662TIP3    H213993   6.336   1.504   1.001
 4663TIP3   OH213994   0.906   5.556   0.690
 4663TIP3    H113995   0.850   5.509   0.628
 4663TIP3    H213996   0.891   5.514   0.774
 4664TIP3   OH213997   0.521   3.763   0.568
 4664TIP3    H113998   0.610   3.795   0.554
 4664TIP3    H213999   0.532   3.675   0.603
 4665TIP3   OH214000   5.588   5.696   2.391
 4665TIP3    H114001   5.607   5.737   2.476
 4665TIP3    H214002   5.552   5.767   2.338
 4666TIP3   OH214003   1.868   0.151   4.983
 4666TIP3    H114004   1.783   0.193   4.968
 4666TIP3    H214005   1.931   0.213   4.946
 4667TIP3   OH214006   5.171   5.296   0.838
 4667TIP3    H114007   5.195   5.303   0.746
 4667TIP3    H214008   5.110   5.223   0.842
 4668TIP3   OH214009   1.202   1.745   4.547
 4668TIP3    H114010   1.146   1.750   4.624
 4668TIP3    H214011   1.278   1.694   4.576
 4669TIP3   OH214012   3.854   1.486   4.379
 4669TIP3    H114013   3.936   1.505   4.332
 4669TIP3    H214014   3.881   1.429   4.451
 4670TIP3   OH214015   6.303   4.670   4.016
 4670TIP3    H114016   6.387   4.645   4.057
 4670TIP3    H214017   6.237   4.644   4.080
 4671TIP3   OH214018   4.405   1.973   5.014
 4671TIP3    H114019   4.447   1.896   5.052
 4671TIP3    H214020   4.313   1.948   5.006
 4672TIP3   OH214021   1.210   3.188   1.899
 4672TIP3    H114022   1.132   3.238   1.873
 4672TIP3    H214023   1.176   3.102   1.925
 4673TIP3   OH214024   1.250   2.115   4.209
 4673TIP3    H114025   1.344   2.113   4.194
 4673TIP3    H214026   1.223   2.023   4.203
 4674TIP3   OH214027   1.648   5.437   2.254
 4674TIP3    H114028   1.570   5.449   2.199
 4674TIP3    H214029   1.693   5.362   2.214
 4675TIP3   OH214030   4.470   2.476   3.865
 4675TIP3    H114031   4.548   2.530   3.850
 4675TIP3    H214032   4.498   2.387   3.845
 4676TIP3   OH214033   3.136   4.219   4.226
 4676TIP3    H114034   3.137   4.124   4.231
 4676TIP3    H214035   3.222   4.243   4.191
 4677TIP3   OH214036   1.514   1.449   4.107
 4677TIP3    H114037   1.545   1.360   4.089
 4677TIP3    H214038   1.578   1.506   4.064
 4678TIP3   OH214039   0.469   4.460   4.765
 4678TIP3    H114040   0.557   4.444   4.729
 4678TIP3    H214041   0.479   4.440   4.859
 4679TIP3   OH214042   2.942   4.342   3.964
 4679TIP3    H114043   3.022   4.351   3.912
 4679TIP3    H214044   2.871   4.348   3.901
 4680TIP3   OH214045   4.354   2.849   4.460
 4680TIP3    H114046   4.381   2.787   4.392
 4680TIP3    H214047   4.261   2.832   4.474
 4681TIP3   OH214048   2.522   2.625   0.688
 4681TIP3    H114049   2.609   2.663   0.699
 4681TIP3    H214050   2.468   2.670   0.752
 4682TIP3   OH214051   2.306   3.969   3.558
 4682TIP3    H114052   2.307   4.060   3.529
 4682TIP3    H214053   2.350   3.921   3.488
 4683TIP3   OH214054   2.853   0.144   0.259
 4683TIP3    H114055   2.915   0.153   0.187
 4683TIP3    H214056   2.832   0.050   0.261
 4684TIP3   OH214057   5.492   5.845   2.107
 4684TIP3    H114058   5.407   5.883   2.129
 4684TIP3    H214059   5.517   5.886   2.025
 4685TIP3   OH214060   5.265   2.733   3.417
 4685TIP3    H114061   5.330   2.671   3.452
 4685TIP3    H214062   5.191   2.728   3.477
 4686TIP3   OH214063   3.106   1.901   1.015
 4686TIP3    H114064   3.050   1.832   1.049
 4686TIP3    H214065   3.179   1.855   0.974
 4687TIP3   OH214066   4.714   1.979   1.269
 4687TIP3    H114067   4.654   2.039   1.313
 4687TIP3    H214068   4.670   1.894   1.274
 4688TIP3   OH214069   1.176   3.657   2.337
 4688TIP3    H114070   1.191   3.592   2.268
 4688TIP3    H214071   1.202   3.740   2.298
 4689TIP3   OH214072   0.190   0.583   2.752
 4689TIP3    H114073   0.154   0.629   2.828
 4689TIP3    H214074   0.196   0.650   2.684
 4690TIP3   OH214075   1.897   3.101   0.939
 4690TIP3    H114076   1.911   3.064   1.026
 4690TIP3    H214077   1.913   3.194   0.949
 4691TIP3   OH214078   5.916   1.534   4.627
 4691TIP3    H114079   6.006   1.512   4.602
 4691TIP3    H214080   5.899   1.481   4.705
 4692TIP3   OH214081   1.563   4.751   4.331
 4692TIP3    H114082   1.647   4.710   4.314
 4692TIP3    H214083   1.581   4.819   4.395
 4693TIP3   OH214084   1.807   0.752   5.073
 4693TIP3    H114085   1.737   0.784   5.017
 4693TIP3    H214086   1.762   0.700   5.140
 4694TIP3   OH214087   5.031   4.519   4.485
 4694TIP3    H114088   5.067   4.576   4.553
 4694TIP3    H214089   4.942   4.553   4.470
 4695TIP3   OH214090   5.819   3.033   1.028
 4695TIP3    H114091   5.774   2.949   1.032
 4695TIP3    H214092   5.844   3.042   0.936
 4696TIP3   OH214093   2.218   0.085   1.085
 4696TIP3    H114094   2.270   0.133   1.150
 4696TIP3    H214095   2.233  -0.007   1.107
 4697TIP3   OH214096   1.512   4.105   2.049
 4697TIP3    H114097   1.442   4.083   1.989
 4697TIP3    H214098   1.581   4.041   2.031
 4698TIP3   OH214099   0.752   3.151   2.452
 4698TIP3    H114100   0.690   3.077   2.455
 4698TIP3    H214101   0.838   3.110   2.453
 4699TIP3   OH214102   0.696   4.316   4.384
 4699TIP3    H114103   0.644   4.395   4.368
 4699TIP3    H214104   0.778   4.348   4.420
 4700TIP3   OH214105   1.397   2.304   0.308
 4700TIP3    H114106   1.418   2.377   0.249
 4700TIP3    H214107   1.424   2.335   0.394
 4701TIP3   OH214108   4.793   1.342   2.543
 4701TIP3    H114109   4.866   1.404   2.545
 4701TIP3    H214110   4.767   1.338   2.451
 4702TIP3   OH214111   3.030   2.838   0.958
 4702TIP3    H114112   3.011   2.747   0.938
 4702TIP3    H214113   3.044   2.880   0.873
 4703TIP3   OH214114   0.880   5.666   1.500
 4703TIP3    H114115   0.942   5.601   1.534
 4703TIP3    H214116   0.868   5.727   1.572
 4704TIP3   OH214117   5.078   1.467   3.211
 4704TIP3    H114118   4.991   1.486   3.246
 4704TIP3    H214119   5.095   1.539   3.150
 4705TIP3   OH214120   3.811   3.508   3.877
 4705TIP3    H114121   3.726   3.496   3.834
 4705TIP3    H214122   3.790   3.552   3.959
 4706TIP3   OH214123   6.299   4.317   2.653
 4706TIP3    H114124   6.348   4.395   2.678
 4706TIP3    H214125   6.293   4.322   2.558
 4707TIP3   OH214126   2.951   2.943   5.138
 4707TIP3    H114127   2.932   2.860   5.095
 4707TIP3    H214128   2.900   2.941   5.219
 4708TIP3   OH214129   4.865   3.302   2.144
 4708TIP3    H114130   4.896   3.357   2.072
 4708TIP3    H214131   4.805   3.239   2.103
 4709TIP3   OH214132   5.646   5.455   0.828
 4709TIP3    H114133   5.724   5.414   0.792
 4709TIP3    H214134   5.585   5.460   0.754
 4710TIP3   OH214135   1.331   4.090   0.549
 4710TIP3    H114136   1.338   3.996   0.562
 4710TIP3    H214137   1.299   4.100   0.459
 4711TIP3   OH214138   6.167   2.753   4.725
 4711TIP3    H114139   6.081   2.789   4.748
 4711TIP3    H214140   6.220   2.764   4.804
 4712TIP3   OH214141   0.156   0.833   4.139
 4712TIP3    H114142   0.099   0.765   4.174
 4712TIP3    H214143   0.140   0.910   4.193
 4713TIP3   OH214144   3.343   5.878   3.331
 4713TIP3    H114145   3.315   5.969   3.319
 4713TIP3    H214146   3.372   5.850   3.244
 4714TIP3   OH214147   0.777   0.735   2.110
 4714TIP3    H114148   0.864   0.710   2.079
 4714TIP3    H214149   0.722   0.734   2.032
 4715TIP3   OH214150   4.373   3.450   0.310
 4715TIP3    H114151   4.380   3.402   0.228
 4715TIP3    H214152   4.463   3.472   0.333
 4716TIP3   OH214153   0.054   4.851   3.290
 4716TIP3    H114154   0.055   4.888   3.202
 4716TIP3    H214155   0.119   4.902   3.339
 4717TIP3   OH214156   6.129   0.798   2.073
 4717TIP3    H114157   6.078   0.878   2.068
 4717TIP3    H214158   6.168   0.788   1.986
 4718TIP3   OH214159   3.094   0.398   4.541
 4718TIP3    H114160   3.033   0.326   4.552
 4718TIP3    H214161   3.057   0.452   4.471
 4719TIP3   OH214162   2.454   0.186   3.841
 4719TIP3    H114163   2.437   0.093   3.832
 4719TIP3    H214164   2.423   0.224   3.759
 4720TIP3   OH214165   4.290   4.566   4.080
 4720TIP3    H114166   4.299   4.495   4.144
 4720TIP3    H214167   4.345   4.539   4.007
 4721TIP3   OH214168   0.669   4.713   3.444
 4721TIP3    H114169   0.663   4.668   3.359
 4721TIP3    H214170   0.757   4.693   3.476
 4722TIP3   OH214171   0.260   1.595   3.528
 4722TIP3    H114172   0.170   1.566   3.539
 4722TIP3    H214173   0.307   1.558   3.602
 4723TIP3   OH214174   5.625   1.800   4.888
 4723TIP3    H114175   5.677   1.732   4.932
 4723TIP3    H214176   5.546   1.753   4.859
 4724TIP3   OH214177   6.210   5.430   4.635
 4724TIP3    H114178   6.117   5.445   4.618
 4724TIP3    H214179   6.224   5.338   4.613
 4725TIP3   OH214180   0.071   1.163   0.582
 4725TIP3    H114181   0.155   1.206   0.597
 4725TIP3    H214182   0.078   1.124   0.495
 4726TIP3   OH214183   0.561   1.014   2.025
 4726TIP3    H114184   0.618   0.962   1.969
 4726TIP3    H214185   0.476   0.969   2.022
 4727TIP3   OH214186   5.823   0.014   2.628
 4727TIP3    H114187   5.897   0.056   2.584
 4727TIP3    H214188   5.746   0.049   2.583
 4728TIP3   OH214189   3.133   0.249   2.793
 4728TIP3    H114190   3.175   0.322   2.746
 4728TIP3    H214191   3.204   0.208   2.843
 4729TIP3   OH214192   6.043   4.956   3.705
 4729TIP3    H114193   6.028   4.862   3.697
 4729TIP3    H214194   5.974   4.997   3.653
 4730TIP3   OH214195   3.423   0.711   2.875
 4730TIP3    H114196   3.363   0.648   2.915
 4730TIP3    H214197   3.506   0.698   2.919
 4731TIP3   OH214198   3.439   2.132   1.365
 4731TIP3    H114199   3.450   2.220   1.402
 4731TIP3    H214200   3.503   2.078   1.413
 4732TIP3   OH214201   0.069   5.430   2.062
 4732TIP3    H114202   0.035   5.357   2.115
 4732TIP3    H214203   0.150   5.397   2.024
 4733TIP3   OH214204   4.928   2.971   2.725
 4733TIP3    H114205   4.972   2.984   2.641
 4733TIP3    H214206   4.872   2.895   2.712
 4734TIP3   OH214207   1.554   2.911   0.331
 4734TIP3    H114208   1.621   2.893   0.264
 4734TIP3    H214209   1.503   2.983   0.295
 4735TIP3   OH214210   1.003   0.356   5.125
 4735TIP3    H114211   1.054   0.329   5.201
 4735TIP3    H214212   0.982   0.448   5.141
 4736TIP3   OH214213   0.083   0.797   1.098
 4736TIP3    H114214   0.177   0.817   1.093
 4736TIP3    H214215   0.074   0.743   1.176
 4737TIP3   OH214216   1.687   3.058   3.114
 4737TIP3    H114217   1.680   3.124   3.183
 4737TIP3    H214218   1.686   2.974   3.162
 4738TIP3   OH214219   4.841   3.104   1.584
 4738TIP3    H114220   4.784   3.087   1.660
 4738TIP3    H214221   4.792   3.068   1.510
 4739TIP3   OH214222   5.572   4.403   2.732
 4739TIP3    H114223   5.620   4.333   2.776
 4739TIP3    H214224   5.617   4.483   2.759
 4740TIP3   OH214225   1.863   3.466   2.324
 4740TIP3    H114226   1.868   3.371   2.315
 4740TIP3    H214227   1.951   3.497   2.304
 4741TIP3   OH214228   0.335   5.960   4.877
 4741TIP3    H114229   0.293   5.915   4.951
 4741TIP3    H214230   0.363   5.889   4.819
 4742TIP3   OH214231   1.162   4.871   4.844
 4742TIP3    H114232   1.194   4.960   4.862
 4742TIP3    H214233   1.112   4.848   4.922
 4743TIP3   OH214234   4.571   2.095   4.818
 4743TIP3    H114235   4.541   2.044   4.893
 4743TIP3    H214236   4.491   2.118   4.771
 4744TIP3   OH214237   3.184   4.377   3.816
 4744TIP3    H114238   3.156   4.429   3.891
 4744TIP3    H214239   3.196   4.441   3.746
 4745TIP3   OH214240   5.529   0.541   2.736
 4745TIP3    H114241   5.598   0.607   2.735
 4745TIP3    H214242   5.504   0.534   2.828
 4746TIP3   OH214243   3.547   0.429   2.825
 4746TIP3    H114244   3.594   0.500   2.869
 4746TIP3    H214245   3.615   0.364   2.805
 4747TIP3   OH214246   6.292   1.474   3.526
 4747TIP3    H114247   6.266   1.532   3.455
 4747TIP3    H214248   6.320   1.534   3.596
 4748TIP3   OH214249   6.134   4.293   2.144
 4748TIP3    H114250   6.124   4.257   2.056
 4748TIP3    H214251   6.142   4.387   2.131
 4749TIP3   OH214252   1.973   2.806   2.378
 4749TIP3    H114253   2.062   2.839   2.386
 4749TIP3    H214254   1.977   2.717   2.414
 4750TIP3   OH214255   2.737   3.314   3.566
 4750TIP3    H114256   2.665   3.308   3.629
 4750TIP3    H214257   2.713   3.387   3.510
 4751TIP3   OH214258   0.660   1.572   2.844
 4751TIP3    H114259   0.574   1.609   2.827
 4751TIP3    H214260   0.704   1.636   2.900
 4752TIP3   OH214261   3.097   3.177   0.339
 4752TIP3    H114262   3.106   3.114   0.268
 4752TIP3    H214263   3.155   3.249   0.315
 4753TIP3   OH214264   1.075   5.438   1.532
 4753TIP3    H114265   1.129   5.372   1.574
 4753TIP3    H214266   0.995   5.393   1.508
 4754TIP3   OH214267   0.305   2.241   5.019
 4754TIP3    H114268   0.310   2.336   5.009
 4754TIP3    H214269   0.366   2.207   4.954
 4755TIP3   OH214270   0.596   3.597   3.849
 4755TIP3    H114271   0.544   3.533   3.800
 4755TIP3    H214272   0.614   3.554   3.933
 4756TIP3   OH214273   4.795   3.793   2.072
 4756TIP3    H114274   4.889   3.802   2.059
 4756TIP3    H214275   4.760   3.881   2.059
 4757TIP3   OH214276   4.916   0.592   0.177
 4757TIP3    H114277   4.959   0.675   0.200
 4757TIP3    H214278   4.962   0.561   0.099
 4758TIP3   OH214279   5.869   0.277   4.874
 4758TIP3    H114280   5.839   0.368   4.871
 4758TIP3    H214281   5.790   0.225   4.865
 4759TIP3   OH214282   3.756   5.607   1.455
 4759TIP3    H114283   3.721   5.578   1.371
 4759TIP3    H214284   3.740   5.702   1.457
 4760TIP3   OH214285   0.488   1.801   4.419
 4760TIP3    H114286   0.563   1.743   4.409
 4760TIP3    H214287   0.489   1.825   4.512
 4761TIP3   OH214288   3.799   0.126   2.464
 4761TIP3    H114289   3.841   0.075   2.394
 4761TIP3    H214290   3.771   0.206   2.421
 4762TIP3   OH214291   6.225   5.830   0.686
 4762TIP3    H114292   6.165   5.778   0.740
 4762TIP3    H214293   6.288   5.866   0.748
 4763TIP3   OH214294   3.082   0.620   2.672
 4763TIP3    H114295   2.999   0.612   2.719
 4763TIP3    H214296   3.063   0.588   2.584
 4764TIP3   OH214297   0.262   3.757   1.877
 4764TIP3    H114298   0.237   3.725   1.790
 4764TIP3    H214299   0.344   3.712   1.896
 4765TIP3   OH214300   3.225   2.782   3.776
 4765TIP3    H114301   3.194   2.711   3.832
 4765TIP3    H214302   3.319   2.764   3.766
 4766TIP3   OH214303   5.898   5.893   4.489
 4766TIP3    H114304   5.867   5.895   4.399
 4766TIP3    H214305   5.860   5.813   4.526
 4767TIP3   OH214306   6.041   0.382   0.832
 4767TIP3    H114307   5.978   0.351   0.768
 4767TIP3    H214308   6.034   0.321   0.905
 4768TIP3   OH214309   1.111   1.019   0.278
 4768TIP3    H114310   1.046   1.009   0.348
 4768TIP3    H214311   1.193   1.039   0.325
 4769TIP3   OH214312   0.791   3.740   0.833
 4769TIP3    H114313   0.878   3.736   0.873
 4769TIP3    H214314   0.748   3.659   0.861
 4770TIP3   OH214315   2.888   4.064   4.018
 4770TIP3    H114316   2.868   4.040   3.928
 4770TIP3    H214317   2.914   4.156   4.013
 4771TIP3   OH214318   1.152   2.895   2.283
 4771TIP3    H114319   1.156   2.906   2.188
 4771TIP3    H214320   1.242   2.875   2.308
 4772TIP3   OH214321   6.290   0.128   4.700
 4772TIP3    H114322   6.306   0.148   4.793
 4772TIP3    H214323   6.263   0.212   4.662
 4773TIP3   OH214324   2.003   1.740   4.564
 4773TIP3    H114325   1.956   1.810   4.519
 4773TIP3    H214326   2.047   1.691   4.494
 4774TIP3   OH214327   1.295   0.960   3.090
 4774TIP3    H114328   1.352   0.950   3.014
 4774TIP3    H214329   1.283   1.054   3.098
 4775TIP3   OH214330   6.247   3.324   4.336
 4775TIP3    H114331   6.338   3.295   4.328
 4775TIP3    H214332   6.196   3.244   4.344
 4776TIP3   OH214333   2.618   1.144   4.279
 4776TIP3    H114334   2.573   1.176   4.358
 4776TIP3    H214335   2.672   1.217   4.251
 4777TIP3   OH214336   1.481   0.388   3.359
 4777TIP3    H114337   1.387   0.396   3.378
 4777TIP3    H214338   1.509   0.314   3.413
 4778TIP3   OH214339   3.920   4.031   3.221
 4778TIP3    H114340   3.905   3.961   3.284
 4778TIP3    H214341   3.852   4.020   3.155
 4779TIP3   OH214342   5.443   0.844   2.562
 4779TIP3    H114343   5.506   0.775   2.581
 4779TIP3    H214344   5.405   0.819   2.478
 4780TIP3   OH214345   4.437   2.074   1.713
 4780TIP3    H114346   4.490   2.152   1.729
 4780TIP3    H214347   4.403   2.050   1.799
 4781TIP3   OH214348   3.535   2.164   0.446
 4781TIP3    H114349   3.476   2.225   0.401
 4781TIP3    H214350   3.478   2.116   0.506
 4782TIP3   OH214351   0.912   1.495   0.761
 4782TIP3    H114352   0.924   1.588   0.780
 4782TIP3    H214353   0.997   1.465   0.730
 4783TIP3   OH214354   5.116   1.286   1.131
 4783TIP3    H114355   5.179   1.288   1.060
 4783TIP3    H214356   5.109   1.377   1.160
 4784TIP3   OH214357   0.487   5.330   2.997
 4784TIP3    H114358   0.459   5.351   3.086
 4784TIP3    H214359   0.566   5.278   3.008
 4785TIP3   OH214360   0.670   0.879   2.909
 4785TIP3    H114361   0.632   0.960   2.873
 4785TIP3    H214362   0.600   0.841   2.962
 4786TIP3   OH214363   1.549   2.829   1.810
 4786TIP3    H114364   1.478   2.887   1.782
 4786TIP3    H214365   1.506   2.764   1.866
 4787TIP3   OH214366   2.117   0.203   0.346
 4787TIP3    H114367   2.068   0.206   0.263
 4787TIP3    H214368   2.155   0.115   0.347
 4788TIP3   OH214369   3.569   3.289   2.225
 4788TIP3    H114370   3.517   3.330   2.156
 4788TIP3    H214371   3.574   3.196   2.200
 4789TIP3   OH214372   2.688   0.264   2.277
 4789TIP3    H114373   2.719   0.301   2.194
 4789TIP3    H214374   2.630   0.191   2.251
 4790TIP3   OH214375   0.561   1.214   4.950
 4790TIP3    H114376   0.543   1.271   4.876
 4790TIP3    H214377   0.631   1.259   4.998
 4791TIP3   OH214378   1.128   4.009   2.078
 4791TIP3    H114379   1.146   4.099   2.050
 4791TIP3    H214380   1.078   4.019   2.159
 4792TIP3   OH214381   4.191   2.788   3.435
 4792TIP3    H114382   4.186   2.847   3.360
 4792TIP3    H214383   4.191   2.700   3.397
 4793TIP3   OH214384   0.245   0.849   5.102
 4793TIP3    H114385   0.166   0.796   5.091
 4793TIP3    H214386   0.307   0.790   5.145
 4794TIP3   OH214387   4.640   1.339   0.771
 4794TIP3    H114388   4.588   1.366   0.696
 4794TIP3    H214389   4.698   1.271   0.737
 4795TIP3   OH214390   4.384   4.349   3.271
 4795TIP3    H114391   4.415   4.284   3.334
 4795TIP3    H214392   4.308   4.308   3.230
 4796TIP3   OH214393   3.645   3.163   3.277
 4796TIP3    H114394   3.713   3.141   3.214
 4796TIP3    H214395   3.590   3.085   3.282
 4797TIP3   OH214396   3.376   0.022   3.812
 4797TIP3    H114397   3.419   0.041   3.896
 4797TIP3    H214398   3.392   0.100   3.759
 4798TIP3   OH214399   4.068   3.505   4.204
 4798TIP3    H114400   4.113   3.590   4.205
 4798TIP3    H214401   3.988   3.520   4.253
 4799TIP3   OH214402   0.250   3.084   3.329
 4799TIP3    H114403   0.248   3.049   3.240
 4799TIP3    H214404   0.330   3.047   3.368
 4800TIP3   OH214405   0.243   5.025   3.420
 4800TIP3    H114406   0.240   5.121   3.415
 4800TIP3    H214407   0.329   5.006   3.458
 4801TIP3   OH214408   5.327   5.146   2.013
 4801TIP3    H114409   5.367   5.205   2.076
 4801TIP3    H214410   5.302   5.069   2.063
 4802TIP3   OH214411   0.804   2.973   3.123
 4802TIP3    H114412   0.849   2.925   3.193
 4802TIP3    H214413   0.761   3.046   3.168
 4803TIP3   OH214414   0.404   5.660   5.111
 4803TIP3    H114415   0.339   5.617   5.056
 4803TIP3    H214416   0.369   5.748   5.124
 4804TIP3   OH214417   2.026   4.851   1.404
 4804TIP3    H114418   1.935   4.823   1.414
 4804TIP3    H214419   2.074   4.771   1.382
 4805TIP3   OH214420   2.823   2.627   0.580
 4805TIP3    H114421   2.797   2.671   0.499
 4805TIP3    H214422   2.914   2.600   0.564
 4806TIP3   OH214423   4.688   4.437   3.709
 4806TIP3    H114424   4.616   4.374   3.704
 4806TIP3    H214425   4.767   4.384   3.700
 4807TIP3   OH214426   3.033   2.467   3.217
 4807TIP3    H114427   3.001   2.535   3.157
 4807TIP3    H214428   3.115   2.503   3.251
 4808TIP3   OH214429   3.665   5.189   1.750
 4808TIP3    H114430   3.761   5.191   1.756
 4808TIP3    H214431   3.646   5.226   1.663
 4809TIP3   OH214432   0.081   3.522   0.439
 4809TIP3    H114433   0.129   3.604   0.452
 4809TIP3    H214434   0.121   3.460   0.500
 4810TIP3   OH214435   5.263   5.002   2.304
 4810TIP3    H114436   5.178   4.966   2.328
 4810TIP3    H214437   5.279   5.071   2.368
 4811TIP3   OH214438   3.403   4.298   2.455
 4811TIP3    H114439   3.324   4.258   2.490
 4811TIP3    H214440   3.410   4.263   2.366
 4812TIP3   OH214441   2.725   2.087   2.154
 4812TIP3    H114442   2.790   2.020   2.172
 4812TIP3    H214443   2.766   2.169   2.181
 4813TIP3   OH214444   5.324   3.749   0.964
 4813TIP3    H114445   5.356   3.829   0.922
 4813TIP3    H214446   5.358   3.753   1.054
 4814TIP3   OH214447   5.509   3.527   1.517
 4814TIP3    H114448   5.581   3.562   1.465
 4814TIP3    H214449   5.447   3.599   1.524
 4815TIP3   OH214450   3.618   0.419   2.076
 4815TIP3    H114451   3.669   0.499   2.061
 4815TIP3    H214452   3.584   0.396   1.990
 4816TIP3   OH214453   5.826   0.361   0.165
 4816TIP3    H114454   5.909   0.388   0.126
 4816TIP3    H214455   5.793   0.439   0.208
 4817TIP3   OH214456   0.435   5.608   3.616
 4817TIP3    H114457   0.439   5.644   3.705
 4817TIP3    H214458   0.364   5.544   3.619
 4818TIP3   OH214459   0.666   1.499   0.647
 4818TIP3    H114460   0.758   1.508   0.673
 4818TIP3    H214461   0.623   1.463   0.725
 4819TIP3   OH214462   3.492   1.934   0.911
 4819TIP3    H114463   3.440   1.855   0.920
 4819TIP3    H214464   3.465   1.990   0.984
 4820TIP3   OH214465   0.932   4.998   3.010
 4820TIP3    H114466   0.960   5.034   2.926
 4820TIP3    H214467   1.013   4.967   3.051
 4821TIP3   OH214468   2.939   3.528   0.771
 4821TIP3    H114469   3.008   3.505   0.709
 4821TIP3    H214470   2.986   3.549   0.852
 4822TIP3   OH214471   0.280   3.286   1.588
 4822TIP3    H114472   0.323   3.235   1.656
 4822TIP3    H214473   0.352   3.314   1.531
 4823TIP3   OH214474   4.607   4.536   1.468
 4823TIP3    H114475   4.512   4.543   1.455
 4823TIP3    H214476   4.640   4.505   1.384
 4824TIP3   OH214477   2.584   3.426   4.377
 4824TIP3    H114478   2.563   3.486   4.449
 4824TIP3    H214479   2.512   3.437   4.315
 4825TIP3   OH214480   0.299   4.892   1.289
 4825TIP3    H114481   0.217   4.922   1.329
 4825TIP3    H214482   0.368   4.929   1.345
 4826TIP3   OH214483   3.906   4.917   1.101
 4826TIP3    H114484   3.943   4.899   1.187
 4826TIP3    H214485   3.895   5.012   1.098
 4827TIP3   OH214486   1.133   5.533   3.566
 4827TIP3    H114487   1.066   5.598   3.546
 4827TIP3    H214488   1.202   5.583   3.610
 4828TIP3   OH214489   2.027   2.948   4.766
 4828TIP3    H114490   2.050   2.861   4.733
 4828TIP3    H214491   2.008   2.935   4.858
 4829TIP3   OH214492   4.438   5.033   5.138
 4829TIP3    H114493   4.524   5.022   5.179
 4829TIP3    H214494   4.410   4.943   5.117
 4830TIP3   OH214495   4.106   5.527   3.768
 4830TIP3    H114496   4.097   5.564   3.680
 4830TIP3    H214497   4.055   5.446   3.765
 4831TIP3   OH214498   2.207   3.832   3.051
 4831TIP3    H114499   2.220   3.738   3.039
 4831TIP3    H214500   2.171   3.840   3.140
 4832TIP3   OH214501   5.017   4.507   1.374
 4832TIP3    H114502   5.042   4.447   1.304
 4832TIP3    H214503   4.975   4.451   1.439
 4833TIP3   OH214504   0.172   1.072   2.406
 4833TIP3    H114505   0.256   1.029   2.414
 4833TIP3    H214506   0.121   1.016   2.348
 4834TIP3   OH214507   2.679   1.761   3.738
 4834TIP3    H114508   2.624   1.745   3.815
 4834TIP3    H214509   2.758   1.709   3.754
 4835TIP3   OH214510   4.270   1.155   1.629
 4835TIP3    H114511   4.358   1.185   1.650
 4835TIP3    H214512   4.284   1.080   1.572
 4836TIP3   OH214513   2.145   1.327   2.292
 4836TIP3    H114514   2.178   1.400   2.343
 4836TIP3    H214515   2.091   1.367   2.224
 4837TIP3   OH214516   5.217   3.315   0.431
 4837TIP3    H114517   5.297   3.338   0.478
 4837TIP3    H214518   5.161   3.392   0.439
 4838TIP3   OH214519   5.172   3.234   4.062
 4838TIP3    H114520   5.233   3.163   4.086
 4838TIP3    H214521   5.091   3.189   4.040
 4839TIP3   OH214522   0.005   3.422   1.227
 4839TIP3    H114523   0.098   3.412   1.209
 4839TIP3    H214524  -0.030   3.333   1.224
 4840TIP3   OH214525   4.405   1.341   4.027
 4840TIP3    H114526   4.453   1.301   4.099
 4840TIP3    H214527   4.394   1.271   3.963
 4841TIP3   OH214528   3.576   1.387   4.793
 4841TIP3    H114529   3.606   1.446   4.724
 4841TIP3    H214530   3.583   1.299   4.755
 4842TIP3   OH214531   5.054   5.176   3.646
 4842TIP3    H114532   4.959   5.162   3.648
 4842TIP3    H214533   5.087   5.107   3.589
 4843TIP3   OH214534   0.650   0.936   0.257
 4843TIP3    H114535   0.640   0.857   0.203
 4843TIP3    H214536   0.563   0.977   0.256
 4844TIP3   OH214537   1.642   4.409   0.487
 4844TIP3    H114538   1.643   4.440   0.397
 4844TIP3    H214539   1.707   4.463   0.532
 4845TIP3   OH214540   5.687   4.031   5.120
 4845TIP3    H114541   5.697   4.120   5.154
 4845TIP3    H214542   5.617   4.038   5.055
 4846TIP3   OH214543   0.108   0.568   4.248
 4846TIP3    H114544   0.137   0.585   4.337
 4846TIP3    H214545   0.189   0.561   4.197
 4847TIP3   OH214546   2.696   5.313   0.175
 4847TIP3    H114547   2.609   5.328   0.139
 4847TIP3    H214548   2.752   5.303   0.098
 4848TIP3   OH214549   3.972   4.709   4.156
 4848TIP3    H114550   3.996   4.628   4.202
 4848TIP3    H214551   4.006   4.697   4.068
 4849TIP3   OH214552   0.102   4.554   3.193
 4849TIP3    H114553   0.069   4.629   3.243
 4849TIP3    H214554   0.195   4.573   3.179
 4850TIP3   OH214555   4.055   0.658   3.418
 4850TIP3    H114556   4.000   0.674   3.495
 4850TIP3    H214557   4.014   0.582   3.375
 4851TIP3   OH214558   2.713   3.882   2.959
 4851TIP3    H114559   2.730   3.788   2.953
 4851TIP3    H214560   2.683   3.906   2.871
 4852TIP3   OH214561   4.299   2.508   1.253
 4852TIP3    H114562   4.216   2.513   1.301
 4852TIP3    H214563   4.353   2.448   1.305
 4853TIP3   OH214564   3.741   3.393   4.349
 4853TIP3    H114565   3.707   3.466   4.297
 4853TIP3    H214566   3.691   3.396   4.430
 4854TIP3   OH214567   2.713   4.884   3.428
 4854TIP3    H114568   2.794   4.861   3.473
 4854TIP3    H214569   2.707   4.823   3.354
 4855TIP3   OH214570   2.560   3.661   2.216
 4855TIP3    H114571   2.582   3.700   2.132
 4855TIP3    H214572   2.632   3.683   2.274
 4856TIP3   OH214573   5.868   0.166   4.349
 4856TIP3    H114574   5.801   0.200   4.408
 4856TIP3    H214575   5.821   0.110   4.289
 4857TIP3   OH214576   5.946   1.639   2.329
 4857TIP3    H114577   5.936   1.679   2.415
 4857TIP3    H214578   5.856   1.619   2.302
 4858TIP3   OH214579   2.617   2.320   3.262
 4858TIP3    H114580   2.524   2.343   3.272
 4858TIP3    H214581   2.622   2.229   3.290
 4859TIP3   OH214582   5.207   1.632   5.048
 4859TIP3    H114583   5.252   1.699   5.099
 4859TIP3    H214584   5.127   1.674   5.017
 4860TIP3   OH214585   4.393   4.179   2.489
 4860TIP3    H114586   4.441   4.208   2.566
 4860TIP3    H214587   4.385   4.257   2.434
 4861TIP3   OH214588   4.796   0.889   0.577
 4861TIP3    H114589   4.853   0.814   0.560
 4861TIP3    H214590   4.818   0.951   0.508
 4862TIP3   OH214591   5.479   3.263   2.025
 4862TIP3    H114592   5.546   3.256   1.957
 4862TIP3    H214593   5.410   3.316   1.986
 4863TIP3   OH214594   5.652   1.079   2.002
 4863TIP3    H114595   5.557   1.069   1.989
 4863TIP3    H214596   5.661   1.162   2.049
 4864TIP3   OH214597   3.237   0.195   4.827
 4864TIP3    H114598   3.244   0.273   4.882
 4864TIP3    H214599   3.296   0.212   4.754
 4865TIP3   OH214600   0.789   2.352   0.405
 4865TIP3    H114601   0.701   2.328   0.375
 4865TIP3    H214602   0.777   2.438   0.446
 4866TIP3   OH214603   5.606   3.486   2.881
 4866TIP3    H114604   5.560   3.432   2.945
 4866TIP3    H214605   5.657   3.423   2.830
 4867TIP3   OH214606   0.579   4.147   0.318
 4867TIP3    H114607   0.581   4.145   0.222
 4867TIP3    H214608   0.492   4.114   0.341
 4868TIP3   OH214609   2.340   5.931   1.612
 4868TIP3    H114610   2.294   5.870   1.669
 4868TIP3    H214611   2.387   5.989   1.671
 4869TIP3   OH214612   0.424   0.305   3.606
 4869TIP3    H114613   0.420   0.360   3.684
 4869TIP3    H214614   0.431   0.216   3.640
 4870TIP3   OH214615   5.874   2.661   0.696
 4870TIP3    H114616   5.948   2.622   0.649
 4870TIP3    H214617   5.798   2.608   0.670
 4871TIP3   OH214618   1.677   4.217   1.428
 4871TIP3    H114619   1.760   4.253   1.396
 4871TIP3    H214620   1.694   4.193   1.519
 4872TIP3   OH214621   2.305   1.519   3.122
 4872TIP3    H114622   2.317   1.608   3.088
 4872TIP3    H214623   2.214   1.497   3.099
 4873TIP3   OH214624   0.916   3.350   2.526
 4873TIP3    H114625   0.852   3.288   2.492
 4873TIP3    H214626   0.934   3.320   2.615
 4874TIP3   OH214627   0.349   5.351   2.768
 4874TIP3    H114628   0.325   5.259   2.759
 4874TIP3    H214629   0.377   5.360   2.859
 4875TIP3   OH214630   1.349   0.031   3.268
 4875TIP3    H114631   1.307   0.101   3.317
 4875TIP3    H214632   1.294  -0.046   3.283
 4876TIP3   OH214633   1.765   1.911   3.402
 4876TIP3    H114634   1.766   1.854   3.479
 4876TIP3    H214635   1.842   1.967   3.413
 4877TIP3   OH214636   1.709   4.098   4.213
 4877TIP3    H114637   1.718   4.035   4.142
 4877TIP3    H214638   1.779   4.162   4.198
 4878TIP3   OH214639   6.200   4.404   3.235
 4878TIP3    H114640   6.296   4.407   3.231
 4878TIP3    H214641   6.172   4.484   3.191
 4879TIP3   OH214642   2.402   5.628   0.625
 4879TIP3    H114643   2.367   5.691   0.562
 4879TIP3    H214644   2.325   5.589   0.664
 4880TIP3   OH214645   4.761   4.223   1.780
 4880TIP3    H114646   4.681   4.243   1.732
 4880TIP3    H214647   4.821   4.188   1.714
 4881TIP3   OH214648   1.249   0.165   2.489
 4881TIP3    H114649   1.340   0.140   2.469
 4881TIP3    H214650   1.198   0.130   2.416
 4882TIP3   OH214651   0.599   3.875   2.237
 4882TIP3    H114652   0.593   3.939   2.308
 4882TIP3    H214653   0.567   3.921   2.160
 4883TIP3   OH214654   0.681   0.359   0.107
 4883TIP3    H114655   0.647   0.355   0.196
 4883TIP3    H214656   0.625   0.423   0.063
 4884TIP3   OH214657   2.356   1.065   1.899
 4884TIP3    H114658   2.381   1.002   1.831
 4884TIP3    H214659   2.313   1.136   1.851
 4885TIP3   OH214660   5.987   1.224   2.331
 4885TIP3    H114661   5.912   1.170   2.356
 4885TIP3    H214662   6.021   1.259   2.413
 4886TIP3   OH214663   0.231   1.164   3.269
 4886TIP3    H114664   0.170   1.193   3.336
 4886TIP3    H214665   0.240   1.069   3.284
 4887TIP3   OH214666   0.709   5.765   2.764
 4887TIP3    H114667   0.654   5.817   2.822
 4887TIP3    H214668   0.702   5.675   2.797
 4888TIP3   OH214669   3.458   3.053   2.993
 4888TIP3    H114670   3.392   3.119   3.013
 4888TIP3    H214671   3.487   3.022   3.079
 4889TIP3   OH214672   6.257   0.894   0.899
 4889TIP3    H114673   6.316   0.894   0.975
 4889TIP3    H214674   6.221   0.806   0.897
 4890TIP3   OH214675   5.944   3.547   3.492
 4890TIP3    H114676   6.034   3.516   3.496
 4890TIP3    H214677   5.920   3.564   3.583
 4891TIP3   OH214678   1.906   3.208   4.994
 4891TIP3    H114679   1.976   3.198   5.058
 4891TIP3    H214680   1.895   3.303   4.985
 4892TIP3   OH214681   2.716   4.537   2.083
 4892TIP3    H114682   2.657   4.516   2.010
 4892TIP3    H214683   2.803   4.542   2.043
 4893TIP3   OH214684   6.015   1.082   1.117
 4893TIP3    H114685   6.099   1.056   1.154
 4893TIP3    H214686   6.009   1.033   1.035
 4894TIP3   OH214687   4.208   1.433   3.739
 4894TIP3    H114688   4.288   1.383   3.755
 4894TIP3    H214689   4.229   1.487   3.663
 4895TIP3   OH214690   3.201   3.857   0.701
 4895TIP3    H114691   3.174   3.940   0.662
 4895TIP3    H214692   3.252   3.881   0.778
 4896TIP3   OH214693   1.788   2.651   1.337
 4896TIP3    H114694   1.810   2.639   1.244
 4896TIP3    H214695   1.869   2.680   1.377
 4897TIP3   OH214696   5.455   3.585   3.952
 4897TIP3    H114697   5.368   3.579   3.991
 4897TIP3    H214698   5.489   3.669   3.982
 4898TIP3   OH214699   1.343   3.572   2.517
 4898TIP3    H114700   1.311   3.483   2.501
 4898TIP3    H214701   1.277   3.628   2.477
 4899TIP3   OH214702   4.486   2.853   3.353
 4899TIP3    H114703   4.422   2.856   3.425
 4899TIP3    H214704   4.435   2.877   3.276
 4900TIP3   OH214705   2.805   5.944   4.053
 4900TIP3    H114706   2.746   5.869   4.048
 4900TIP3    H214707   2.807   5.978   3.963
 4901TIP3   OH214708   3.835   2.032   4.027
 4901TIP3    H114709   3.915   1.980   4.021
 4901TIP3    H214710   3.795   2.006   4.110
 4902TIP3   OH214711   4.043   3.511   0.504
 4902TIP3    H114712   4.130   3.524   0.543
 4902TIP3    H214713   4.060   3.461   0.425
 4903TIP3   OH214714   1.544   0.361   3.751
 4903TIP3    H114715   1.531   0.350   3.846
 4903TIP3    H214716   1.571   0.274   3.721
 4904TIP3   OH214717   6.262   4.131   4.326
 4904TIP3    H114718   6.191   4.173   4.277
 4904TIP3    H214719   6.341   4.177   4.299
 4905TIP3   OH214720   0.898   2.200   4.442
 4905TIP3    H114721   0.925   2.110   4.461
 4905TIP3    H214722   0.961   2.231   4.377
 4906TIP3   OH214723   2.236   2.487   4.546
 4906TIP3    H114724   2.291   2.561   4.572
 4906TIP3    H214725   2.161   2.528   4.502
 4907TIP3   OH214726   2.855   1.812   3.320
 4907TIP3    H114727   2.781   1.829   3.379
 4907TIP3    H214728   2.820   1.751   3.255
 4908TIP3   OH214729   4.287   2.180   4.817
 4908TIP3    H114730   4.320   2.183   4.727
 4908TIP3    H214731   4.193   2.169   4.808
 4909TIP3   OH214732   3.699   1.699   4.692
 4909TIP3    H114733   3.653   1.634   4.638
 4909TIP3    H214734   3.636   1.770   4.702
 4910TIP3   OH214735   2.776   1.252   0.606
 4910TIP3    H114736   2.773   1.329   0.663
 4910TIP3    H214737   2.756   1.179   0.664
 4911TIP3   OH214738   0.878   1.022   4.788
 4911TIP3    H114739   0.856   0.994   4.876
 4911TIP3    H214740   0.864   1.117   4.789
 4912TIP3   OH214741   2.403   5.934   4.137
 4912TIP3    H114742   2.345   6.002   4.102
 4912TIP3    H214743   2.447   5.976   4.211
 4913TIP3   OH214744   0.520   3.402   0.131
 4913TIP3    H114745   0.481   3.467   0.189
 4913TIP3    H214746   0.501   3.433   0.043
 4914TIP3   OH214747   2.416   0.924   3.079
 4914TIP3    H114748   2.386   0.835   3.100
 4914TIP3    H214749   2.435   0.964   3.164
 4915TIP3   OH214750   6.249   3.554   1.016
 4915TIP3    H114751   6.273   3.533   1.107
 4915TIP3    H214752   6.154   3.539   1.013
 4916TIP3   OH214753   0.928   0.276   3.207
 4916TIP3    H114754   0.997   0.342   3.212
 4916TIP3    H214755   0.925   0.251   3.115
 4917TIP3   OH214756   4.120   3.892   3.669
 4917TIP3    H114757   4.164   3.856   3.592
 4917TIP3    H214758   4.033   3.851   3.667
 4918TIP3   OH214759   2.969  -0.010   1.266
 4918TIP3    H114760   3.051   0.033   1.290
 4918TIP3    H214761   2.917   0.058   1.223
 4919TIP3   OH214762   3.539   1.739   1.802
 4919TIP3    H114763   3.469   1.752   1.738
 4919TIP3    H214764   3.610   1.699   1.751
 4920TIP3   OH214765   5.206   1.396   3.455
 4920TIP3    H114766   5.173   1.432   3.537
 4920TIP3    H214767   5.149   1.435   3.388
 4921TIP3   OH214768   1.597   2.389   0.958
 4921TIP3    H114769   1.644   2.470   0.939
 4921TIP3    H214770   1.637   2.324   0.901
 4922TIP3   OH214771   5.100   4.841   1.774
 4922TIP3    H114772   5.030   4.804   1.721
 4922TIP3    H214773   5.067   4.838   1.864
 4923TIP3   OH214774   2.931   4.589   4.441
 4923TIP3    H114775   2.867   4.540   4.493
 4923TIP3    H214776   2.927   4.549   4.355
 4924TIP3   OH214777   3.341   1.283   2.364
 4924TIP3    H114778   3.270   1.243   2.313
 4924TIP3    H214779   3.402   1.211   2.381
 4925TIP3   OH214780   4.343   2.959   2.594
 4925TIP3    H114781   4.339   2.915   2.679
 4925TIP3    H214782   4.258   3.004   2.586
 4926TIP3   OH214783   1.268   5.067   1.942
 4926TIP3    H114784   1.296   5.006   2.011
 4926TIP3    H214785   1.260   5.151   1.986
 4927TIP3   OH214786   2.168   4.146   0.965
 4927TIP3    H114787   2.217   4.215   0.922
 4927TIP3    H214788   2.234   4.095   1.011
 4928TIP3   OH214789   5.104   3.660   4.975
 4928TIP3    H114790   5.048   3.689   5.047
 4928TIP3    H214791   5.110   3.565   4.987
 4929TIP3   OH214792   5.395   1.662   1.382
 4929TIP3    H114793   5.366   1.747   1.417
 4929TIP3    H214794   5.466   1.636   1.441
 4930TIP3   OH214795   1.178   1.508   0.639
 4930TIP3    H114796   1.191   1.571   0.710
 4930TIP3    H214797   1.201   1.556   0.560
 4931TIP3   OH214798   1.169   1.718   0.412
 4931TIP3    H114799   1.079   1.697   0.385
 4931TIP3    H214800   1.223   1.652   0.369
 4932TIP3   OH214801   4.102   2.730   2.421
 4932TIP3    H114802   4.185   2.741   2.468
 4932TIP3    H214803   4.035   2.737   2.488
 4933TIP3   OH214804   6.309   3.945   4.705
 4933TIP3    H114805   6.391   3.900   4.686
 4933TIP3    H214806   6.311   4.022   4.648
 4934TIP3   OH214807   5.722   2.104   3.275
 4934TIP3    H114808   5.788   2.121   3.342
 4934TIP3    H214809   5.771   2.095   3.194
 4935TIP3   OH214810   5.990   5.657   1.085
 4935TIP3    H114811   6.066   5.601   1.100
 4935TIP3    H214812   6.023   5.746   1.096
 4936TIP3   OH214813   5.585   0.193   3.899
 4936TIP3    H114814   5.609   0.101   3.901
 4936TIP3    H214815   5.668   0.240   3.905
 4937TIP3   OH214816   0.893   2.999   3.601
 4937TIP3    H114817   0.918   2.963   3.687
 4937TIP3    H214818   0.973   2.993   3.549
 4938TIP3   OH214819   0.968   1.812   0.846
 4938TIP3    H114820   0.906   1.884   0.850
 4938TIP3    H214821   0.969   1.777   0.935
 4939TIP3   OH214822   5.415   2.870   1.472
 4939TIP3    H114823   5.500   2.890   1.431
 4939TIP3    H214824   5.404   2.938   1.538
 4940TIP3   OH214825   5.041   0.770   0.426
 4940TIP3    H114826   5.022   0.694   0.482
 4940TIP3    H214827   5.085   0.732   0.350
 4941TIP3   OH214828   5.084   1.176   3.738
 4941TIP3    H114829   5.027   1.226   3.797
 4941TIP3    H214830   5.043   1.187   3.652
 4942TIP3   OH214831   5.896   3.019   4.552
 4942TIP3    H114832   5.934   3.090   4.500
 4942TIP3    H214833   5.816   2.996   4.506
 4943TIP3   OH214834   5.438   3.718   1.233
 4943TIP3    H114835   5.504   3.736   1.166
 4943TIP3    H214836   5.481   3.739   1.316
 4944TIP3   OH214837   1.223   2.775   1.819
 4944TIP3    H114838   1.186   2.707   1.762
 4944TIP3    H214839   1.289   2.729   1.871
 4945TIP3   OH214840   3.751   3.604   0.090
 4945TIP3    H114841   3.706   3.575   0.011
 4945TIP3    H214842   3.797   3.527   0.122
 4946TIP3   OH214843   2.943   3.172   0.721
 4946TIP3    H114844   2.930   3.086   0.681
 4946TIP3    H214845   2.908   3.234   0.657
 4947TIP3   OH214846   1.461   2.087   4.456
 4947TIP3    H114847   1.372   2.057   4.477
 4947TIP3    H214848   1.456   2.182   4.461
 4948TIP3   OH214849   5.262   5.587   3.557
 4948TIP3    H114850   5.178   5.569   3.599
 4948TIP3    H214851   5.241   5.595   3.464
 4949TIP3   OH214852   5.876   5.221   2.245
 4949TIP3    H114853   5.923   5.145   2.280
 4949TIP3    H214854   5.941   5.290   2.240
 4950TIP3   OH214855   1.616   1.189   4.056
 4950TIP3    H114856   1.609   1.095   4.039
 4950TIP3    H214857   1.704   1.201   4.091
 4951TIP3   OH214858   2.383   5.279   0.626
 4951TIP3    H114859   2.337   5.336   0.687
 4951TIP3    H214860   2.406   5.202   0.678
 4952TIP3   OH214861   4.646   1.741   1.716
 4952TIP3    H114862   4.686   1.814   1.668
 4952TIP3    H214863   4.552   1.755   1.706
 4953TIP3   OH214864   3.089   2.441   4.081
 4953TIP3    H114865   3.135   2.440   4.166
 4953TIP3    H214866   3.116   2.359   4.039
 4954TIP3   OH214867   4.514   5.224   1.340
 4954TIP3    H114868   4.456   5.256   1.271
 4954TIP3    H214869   4.464   5.235   1.421
 4955TIP3   OH214870   1.191   5.042   4.105
 4955TIP3    H114871   1.255   5.073   4.169
 4955TIP3    H214872   1.160   5.121   4.061
 4956TIP3   OH214873   2.247   3.714   4.547
 4956TIP3    H114874   2.210   3.800   4.526
 4956TIP3    H214875   2.175   3.653   4.534
 4957TIP3   OH214876   0.381   1.171   3.842
 4957TIP3    H114877   0.439   1.174   3.918
 4957TIP3    H214878   0.436   1.199   3.769
 4958TIP3   OH214879   3.947   5.613   4.069
 4958TIP3    H114880   3.948   5.687   4.008
 4958TIP3    H214881   4.028   5.621   4.119
 4959TIP3   OH214882   3.589   4.955   3.554
 4959TIP3    H114883   3.495   4.942   3.548
 4959TIP3    H214884   3.623   4.871   3.586
 4960TIP3   OH214885   2.613   3.205   4.190
 4960TIP3    H114886   2.557   3.272   4.151
 4960TIP3    H214887   2.684   3.255   4.232
 4961TIP3   OH214888   1.421   2.653   1.989
 4961TIP3    H114889   1.478   2.576   1.994
 4961TIP3    H214890   1.339   2.625   2.031
 4962TIP3   OH214891   1.570   3.844   3.639
 4962TIP3    H114892   1.563   3.837   3.735
 4962TIP3    H214893   1.541   3.758   3.608
 4963TIP3   OH214894   2.677   2.612   2.022
 4963TIP3    H114895   2.693   2.616   1.927
 4963TIP3    H214896   2.651   2.702   2.045
 4964TIP3   OH214897   6.283   4.038   0.594
 4964TIP3    H114898   6.284   4.110   0.657
 4964TIP3    H214899   6.209   3.984   0.620
 4965TIP3   OH214900   3.025   3.183   4.465
 4965TIP3    H114901   2.952   3.239   4.491
 4965TIP3    H214902   3.103   3.232   4.491
 4966TIP3   OH214903   1.925   5.900   3.442
 4966TIP3    H114904   1.863   5.858   3.501
 4966TIP3    H214905   1.973   5.828   3.401
 4967TIP3   OH214906   5.792   0.117   0.349
 4967TIP3    H114907   5.831   0.034   0.376
 4967TIP3    H214908   5.825   0.131   0.260
 4968TIP3   OH214909   0.826   2.810   2.367
 4968TIP3    H114910   0.885   2.884   2.371
 4968TIP3    H214911   0.871   2.740   2.414
 4969TIP3   OH214912   2.258   1.863   2.275
 4969TIP3    H114913   2.315   1.919   2.222
 4969TIP3    H214914   2.182   1.847   2.219
 4970TIP3   OH214915   2.247   3.308   2.507
 4970TIP3    H114916   2.169   3.350   2.544
 4970TIP3    H214917   2.282   3.373   2.446
 4971TIP3   OH214918   1.705   5.484   0.752
 4971TIP3    H114919   1.775   5.454   0.810
 4971TIP3    H214920   1.635   5.419   0.763
 4972TIP3   OH214921   0.132   4.817   2.943
 4972TIP3    H114922   0.166   4.899   2.981
 4972TIP3    H214923   0.207   4.758   2.944
 4973TIP3   OH214924   0.339   1.446   3.996
 4973TIP3    H114925   0.402   1.384   4.031
 4973TIP3    H214926   0.263   1.439   4.054
 4974TIP3   OH214927   6.163   2.106   0.114
 4974TIP3    H114928   6.091   2.166   0.095
 4974TIP3    H214929   6.242   2.154   0.090
 4975TIP3   OH214930   1.988   2.545   2.376
 4975TIP3    H114931   2.060   2.508   2.326
 4975TIP3    H214932   1.941   2.470   2.411
 4976TIP3   OH214933   6.075   4.648   2.362
 4976TIP3    H114934   6.127   4.661   2.442
 4976TIP3    H214935   6.050   4.556   2.366
 4977TIP3   OH214936   0.577   1.988   5.118
 4977TIP3    H114937   0.671   1.977   5.134
 4977TIP3    H214938   0.560   1.932   5.042
 4978TIP3   OH214939   3.710   1.381   2.179
 4978TIP3    H114940   3.738   1.412   2.265
 4978TIP3    H214941   3.791   1.359   2.133
 4979TIP3   OH214942   2.964   5.472   0.800
 4979TIP3    H114943   2.933   5.555   0.764
 4979TIP3    H214944   3.050   5.493   0.837
 4980TIP3   OH214945   4.640   3.387   4.468
 4980TIP3    H114946   4.545   3.392   4.480
 4980TIP3    H214947   4.675   3.378   4.557
 4981TIP3   OH214948   2.913   1.459   4.824
 4981TIP3    H114949   2.886   1.497   4.741
 4981TIP3    H214950   3.008   1.446   4.815
 4982TIP3   OH214951   3.342   0.370   4.617
 4982TIP3    H114952   3.255   0.365   4.578
 4982TIP3    H214953   3.333   0.435   4.687
 4983TIP3   OH214954   1.480   3.750   2.679
 4983TIP3    H114955   1.575   3.738   2.670
 4983TIP3    H214956   1.442   3.677   2.631
 4984TIP3   OH214957   6.237   2.019   3.071
 4984TIP3    H114958   6.183   2.067   3.007
 4984TIP3    H214959   6.198   2.041   3.156
 4985TIP3   OH214960   2.130   0.722   1.125
 4985TIP3    H114961   2.138   0.707   1.031
 4985TIP3    H214962   2.081   0.646   1.157
 4986TIP3   OH214963   0.688   0.211   1.797
 4986TIP3    H114964   0.754   0.171   1.740
 4986TIP3    H214965   0.633   0.262   1.737
 4987TIP3   OH214966   2.219   1.793   0.439
 4987TIP3    H114967   2.251   1.771   0.526
 4987TIP3    H214968   2.261   1.876   0.417
 4988TIP3   OH214969   2.928   2.170   4.349
 4988TIP3    H114970   3.003   2.230   4.352
 4988TIP3    H214971   2.961   2.088   4.386
 4989TIP3   OH214972   4.749   5.761   4.364
 4989TIP3    H114973   4.834   5.745   4.322
 4989TIP3    H214974   4.696   5.684   4.342
 4990TIP3   OH214975   5.199   1.538   0.906
 4990TIP3    H114976   5.170   1.588   0.983
 4990TIP3    H214977   5.288   1.570   0.890
 4991TIP3   OH214978   6.013   1.716   3.037
 4991TIP3    H114979   6.090   1.772   3.033
 4991TIP3    H214980   5.990   1.714   3.130
 4992TIP3   OH214981   1.978   3.735   0.266
 4992TIP3    H114982   1.887   3.715   0.246
 4992TIP3    H214983   1.974   3.796   0.340
 4993TIP3   OH214984   5.562   0.569   0.485
 4993TIP3    H114985   5.597   0.564   0.574
 4993TIP3    H214986   5.594   0.652   0.451
 4994TIP3   OH214987   6.288   5.530   0.455
 4994TIP3    H114988   6.280   5.514   0.361
 4994TIP3    H214989   6.198   5.528   0.488
 4995TIP3   OH214990   2.294   3.515   1.201
 4995TIP3    H114991   2.351   3.469   1.139
 4995TIP3    H214992   2.222   3.549   1.147
 4996TIP3   OH214993   6.306   5.016   3.623
 4996TIP3    H114994   6.381   4.962   3.651
 4996TIP3    H214995   6.231   4.975   3.667
 4997TIP3   OH214996   5.146   1.389   1.521
 4997TIP3    H114997   5.177   1.302   1.496
 4997TIP3    H214998   5.055   1.377   1.547
 4998TIP3   OH214999   0.154   5.612   0.070
 4998TIP3    H115000   0.235   5.581   0.031
 4998TIP3    H215001   0.159   5.707   0.064
 4999TIP3   OH215002   2.848   5.610   1.116
 4999TIP3    H115003   2.865   5.518   1.093
 4999TIP3    H215004   2.856   5.612   1.212
 5000TIP3   OH215005   0.794   0.238   4.472
 5000TIP3    H115006   0.726   0.259   4.408
 5000TIP3    H215007   0.784   0.144   4.488
 5001TIP3   OH215008   0.738   1.650   4.888
 5001TIP3    H115009   0.769   1.739   4.872
 5001TIP3    H215010   0.797   1.595   4.836
 5002TIP3   OH215011   3.165   4.388   0.081
 5002TIP3    H115012   3.225   4.463   0.074
 5002TIP3    H215013   3.168   4.365   0.174
 5003TIP3   OH215014   3.571   1.301   3.973
 5003TIP3    H115015   3.551   1.394   3.985
 5003TIP3    H215016   3.506   1.255   4.026
 5004TIP3   OH215017   1.240   4.020   4.142
 5004TIP3    H115018   1.295   4.084   4.187
 5004TIP3    H215019   1.161   4.013   4.197
 5005TIP3   OH215020   0.497   5.435   1.774
 5005TIP3    H115021   0.519   5.524   1.747
 5005TIP3    H215022   0.562   5.380   1.732
 5006TIP3   OH215023   0.675   0.857   0.577
 5006TIP3    H115024   0.664   0.903   0.661
 5006TIP3    H215025   0.599   0.881   0.526
 5007TIP3   OH215026   5.857   3.117   0.770
 5007TIP3    H115027   5.863   3.210   0.746
 5007TIP3    H215028   5.832   3.074   0.688
 5008TIP3   OH215029   1.501   1.802   4.159
 5008TIP3    H115030   1.553   1.789   4.238
 5008TIP3    H215031   1.557   1.854   4.101
 5009TIP3   OH215032   4.168   4.770   0.468
 5009TIP3    H115033   4.075   4.752   0.485
 5009TIP3    H215034   4.173   4.865   0.464
 5010TIP3   OH215035   3.461   1.942   0.242
 5010TIP3    H115036   3.430   1.857   0.211
 5010TIP3    H215037   3.383   1.997   0.247
 5011TIP3   OH215038   1.031   5.622   3.099
 5011TIP3    H115039   1.019   5.567   3.176
 5011TIP3    H215040   1.018   5.711   3.131
 5012TIP3   OH215041   0.128   1.593   0.055
 5012TIP3    H115042   0.208   1.589   0.107
 5012TIP3    H215043   0.119   1.686   0.032
 5013TIP3   OH215044   3.215   3.822   0.338
 5013TIP3    H115045   3.180   3.909   0.357
 5013TIP3    H215046   3.235   3.824   0.244
 5014TIP3   OH215047   4.144   3.562   5.180
 5014TIP3    H115048   4.088   3.635   5.154
 5014TIP3    H215049   4.131   3.496   5.112
 5015TIP3   OH215050   4.585   0.098   4.365
 5015TIP3    H115051   4.664   0.134   4.405
 5015TIP3    H215052   4.514   0.126   4.423
 5016TIP3   OH215053   0.319   0.205   2.270
 5016TIP3    H115054   0.322   0.129   2.327
 5016TIP3    H215055   0.361   0.275   2.320
 5017TIP3   OH215056   4.836   2.358   2.938
 5017TIP3    H115057   4.768   2.336   3.002
 5017TIP3    H215058   4.917   2.361   2.988
 5018TIP3   OH215059   6.251   5.039   0.849
 5018TIP3    H115060   6.247   5.106   0.780
 5018TIP3    H215061   6.159   5.024   0.873
 5019TIP3   OH215062   3.164   3.825   1.883
 5019TIP3    H115063   3.251   3.843   1.848
 5019TIP3    H215064   3.179   3.762   1.954
 5020TIP3   OH215065   3.057   5.553   2.833
 5020TIP3    H115066   3.017   5.477   2.791
 5020TIP3    H215067   2.983   5.607   2.859
 5021TIP3   OH215068   0.907   1.694   2.606
 5021TIP3    H115069   0.854   1.749   2.548
 5021TIP3    H215070   0.860   1.694   2.689
 5022TIP3   OH215071   1.642   3.185   5.127
 5022TIP3    H115072   1.636   3.250   5.057
 5022TIP3    H215073   1.605   3.229   5.204
 5023TIP3   OH215074   4.436   3.630   2.127
 5023TIP3    H115075   4.480   3.625   2.212
 5023TIP3    H215076   4.343   3.619   2.147
 5024TIP3   OH215077   5.452   2.065   0.697
 5024TIP3    H115078   5.453   1.969   0.700
 5024TIP3    H215079   5.387   2.090   0.763
 5025TIP3   OH215080   4.525   4.526   2.035
 5025TIP3    H115081   4.478   4.586   2.093
 5025TIP3    H215082   4.457   4.471   1.997
 5026TIP3   OH215083   0.576   1.987   1.236
 5026TIP3    H115084   0.560   1.996   1.330
 5026TIP3    H215085   0.664   1.950   1.230
 5027TIP3   OH215086   4.704   1.205   4.046
 5027TIP3    H115087   4.706   1.109   4.049
 5027TIP3    H215088   4.744   1.232   4.129
 5028TIP3   OH215089   0.731   2.506   3.123
 5028TIP3    H115090   0.665   2.449   3.163
 5028TIP3    H215091   0.754   2.463   3.041
 5029TIP3   OH215092   0.034   1.646   3.757
 5029TIP3    H115093   0.083   1.725   3.781
 5029TIP3    H215094  -0.019   1.626   3.834
 5030TIP3   OH215095   5.420   1.813   0.369
 5030TIP3    H115096   5.420   1.897   0.324
 5030TIP3    H215097   5.513   1.792   0.379
 5031TIP3   OH215098   4.004   5.013   4.268
 5031TIP3    H115099   4.071   5.012   4.200
 5031TIP3    H215100   3.971   4.923   4.270
 5032TIP3   OH215101   5.990   4.668   0.836
 5032TIP3    H115102   5.896   4.682   0.830
 5032TIP3    H215103   6.024   4.750   0.873
 5033TIP3   OH215104   0.699   1.103   2.245
 5033TIP3    H115105   0.668   1.068   2.162
 5033TIP3    H215106   0.741   1.028   2.288
 5034TIP3   OH215107   5.714   0.723   2.662
 5034TIP3    H115108   5.784   0.668   2.628
 5034TIP3    H215109   5.753   0.810   2.668
 5035TIP3   OH215110   1.848   4.508   2.790
 5035TIP3    H115111   1.925   4.458   2.814
 5035TIP3    H215112   1.879   4.598   2.778
 5036TIP3   OH215113   5.117   4.609   1.052
 5036TIP3    H115114   5.183   4.657   1.103
 5036TIP3    H215115   5.040   4.608   1.108
 5037TIP3   OH215116   6.201   4.308   4.032
 5037TIP3    H115117   6.161   4.368   4.094
 5037TIP3    H215118   6.243   4.364   3.967
 5038TIP3   OH215119   5.685   0.674   1.913
 5038TIP3    H115120   5.638   0.665   1.830
 5038TIP3    H215121   5.617   0.684   1.979
 5039TIP3   OH215122   3.686   1.660   2.027
 5039TIP3    H115123   3.632   1.694   1.956
 5039TIP3    H215124   3.643   1.578   2.053
 5040TIP3   OH215125   5.673   2.614   3.970
 5040TIP3    H115126   5.590   2.609   4.018
 5040TIP3    H215127   5.708   2.700   3.992
 5041TIP3   OH215128   2.244   3.082   0.848
 5041TIP3    H115129   2.222   3.169   0.882
 5041TIP3    H215130   2.279   3.035   0.924
 5042TIP3   OH215131   2.406   4.717   2.003
 5042TIP3    H115132   2.478   4.668   1.962
 5042TIP3    H215133   2.447   4.761   2.078
 5043TIP3   OH215134   4.344   4.609   3.347
 5043TIP3    H115135   4.387   4.526   3.328
 5043TIP3    H215136   4.313   4.640   3.262
 5044TIP3   OH215137   2.501   2.011   0.411
 5044TIP3    H115138   2.413   2.030   0.379
 5044TIP3    H215139   2.517   2.078   0.478
 5045TIP3   OH215140   2.648   0.575   1.919
 5045TIP3    H115141   2.565   0.621   1.930
 5045TIP3    H215142   2.703   0.609   1.989
 5046TIP3   OH215143   1.271   0.518   2.851
 5046TIP3    H115144   1.322   0.557   2.780
 5046TIP3    H215145   1.214   0.454   2.809
 5047TIP3   OH215146   5.842   3.477   2.664
 5047TIP3    H115147   5.876   3.561   2.633
 5047TIP3    H215148   5.912   3.415   2.647
 5048TIP3   OH215149   1.797   5.361   4.831
 5048TIP3    H115150   1.774   5.277   4.791
 5048TIP3    H215151   1.715   5.394   4.867
 5049TIP3   OH215152   3.697   5.932   1.006
 5049TIP3    H115153   3.767   5.951   1.069
 5049TIP3    H215154   3.676   6.017   0.968
 5050TIP3   OH215155   2.584   1.409   2.100
 5050TIP3    H115156   2.503   1.438   2.059
 5050TIP3    H215157   2.558   1.334   2.154
 5051TIP3   OH215158   4.826   5.132   1.721
 5051TIP3    H115159   4.869   5.217   1.732
 5051TIP3    H215160   4.872   5.091   1.647
 5052TIP3   OH215161   4.337   4.133   1.848
 5052TIP3    H115162   4.315   4.078   1.772
 5052TIP3    H215163   4.377   4.072   1.910
 5053TIP3   OH215164   1.446   1.489   4.370
 5053TIP3    H115165   1.420   1.500   4.279
 5053TIP3    H215166   1.541   1.475   4.367
 5054TIP3   OH215167   6.024   2.605   1.661
 5054TIP3    H115168   5.937   2.583   1.629
 5054TIP3    H215169   6.008   2.669   1.731
 5055TIP3   OH215170   1.247   0.803   1.981
 5055TIP3    H115171   1.227   0.788   1.888
 5055TIP3    H215172   1.218   0.892   1.997
 5056TIP3   OH215173   6.334   5.201   1.072
 5056TIP3    H115174   6.313   5.136   1.004
 5056TIP3    H215175   6.352   5.281   1.023
 5057TIP3   OH215176   2.561   2.359   4.047
 5057TIP3    H115177   2.620   2.292   4.082
 5057TIP3    H215178   2.600   2.442   4.074
 5058TIP3   OH215179   5.341   0.783   2.304
 5058TIP3    H115180   5.277   0.713   2.288
 5058TIP3    H215181   5.410   0.768   2.240
 5059TIP3   OH215182   4.779   2.456   0.755
 5059TIP3    H115183   4.858   2.448   0.808
 5059TIP3    H215184   4.748   2.546   0.772
 5060TIP3   OH215185   1.351   0.889   4.970
 5060TIP3    H115186   1.292   0.948   4.925
 5060TIP3    H215187   1.294   0.822   5.009
 5061TIP3   OH215188   6.319   3.408   0.198
 5061TIP3    H115189   6.345   3.445   0.282
 5061TIP3    H215190   6.332   3.479   0.135
 5062TIP3   OH215191   5.832   0.897   4.562
 5062TIP3    H115192   5.771   0.856   4.624
 5062TIP3    H215193   5.811   0.857   4.478
 5063TIP3   OH215194   2.930   3.759   4.346
 5063TIP3    H115195   2.876   3.835   4.324
 5063TIP3    H215196   2.899   3.732   4.433
 5064TIP3   OH215197   0.069   2.520   2.136
 5064TIP3    H115198   0.149   2.469   2.123
 5064TIP3    H215199   0.101   2.609   2.154
 5065TIP3   OH215200   3.252   3.465   2.663
 5065TIP3    H115201   3.288   3.376   2.657
 5065TIP3    H215202   3.252   3.484   2.757
 5066TIP3   OH215203   2.823   5.958   3.445
 5066TIP3    H115204   2.762   6.008   3.498
 5066TIP3    H215205   2.903   5.954   3.497
 5067TIP3   OH215206   2.633   5.862   3.295
 5067TIP3    H115207   2.669   5.817   3.219
 5067TIP3    H215208   2.709   5.897   3.341
 5068TIP3   OH215209   0.208   1.660   2.072
 5068TIP3    H115210   0.297   1.623   2.070
 5068TIP3    H215211   0.172   1.631   2.156
 5069TIP3   OH215212   4.133   2.161   2.838
 5069TIP3    H115213   4.186   2.082   2.845
 5069TIP3    H215214   4.131   2.197   2.926
 5070TIP3   OH215215   2.496   4.962   2.614
 5070TIP3    H115216   2.531   5.029   2.673
 5070TIP3    H215217   2.402   4.981   2.610
 5071TIP3   OH215218   3.119   2.874   3.317
 5071TIP3    H115219   3.185   2.805   3.325
 5071TIP3    H215220   3.045   2.832   3.274
 5072TIP3   OH215221   5.199   4.262   1.472
 5072TIP3    H115222   5.162   4.184   1.431
 5072TIP3    H215223   5.221   4.319   1.398
 5073TIP3   OH215224   5.086   3.973   4.819
 5073TIP3    H115225   5.075   3.968   4.724
 5073TIP3    H215226   5.037   3.898   4.852
 5074TIP3   OH215227   4.287   2.280   3.047
 5074TIP3    H115228   4.253   2.264   3.135
 5074TIP3    H215229   4.349   2.209   3.032
 5075TIP3   OH215230   6.094   0.932   3.860
 5075TIP3    H115231   6.141   0.849   3.858
 5075TIP3    H215232   6.162   0.998   3.842
 5076TIP3   OH215233   3.224   1.654   2.299
 5076TIP3    H115234   3.129   1.662   2.302
 5076TIP3    H215235   3.243   1.569   2.341
 5077TIP3   OH215236   1.041   3.948   3.305
 5077TIP3    H115237   0.956   3.992   3.299
 5077TIP3    H215238   1.085   3.992   3.378
 5078TIP3   OH215239   6.294   0.924   2.755
 5078TIP3    H115240   6.314   1.014   2.728
 5078TIP3    H215241   6.205   0.928   2.790
 5079TIP3   OH215242   0.409   4.050   1.484
 5079TIP3    H115243   0.385   4.119   1.546
 5079TIP3    H215244   0.407   3.970   1.537
 5080TIP3   OH215245   0.653   0.587   0.867
 5080TIP3    H115246   0.682   0.573   0.777
 5080TIP3    H215247   0.604   0.507   0.889
 5081TIP3   OH215248   3.574   4.468   3.009
 5081TIP3    H115249   3.556   4.403   2.941
 5081TIP3    H215250   3.489   4.486   3.048
 5082TIP3   OH215251   2.387   1.380   0.019
 5082TIP3    H115252   2.370   1.399   0.111
 5082TIP3    H215253   2.316   1.322  -0.008
 5083TIP3   OH215254   1.366   3.817   0.548
 5083TIP3    H115255   1.395   3.777   0.466
 5083TIP3    H215256   1.395   3.756   0.616
 5084TIP3   OH215257   0.880   5.408   4.606
 5084TIP3    H115258   0.798   5.456   4.600
 5084TIP3    H215259   0.878   5.348   4.531
 5085TIP3   OH215260   3.966   1.698   3.682
 5085TIP3    H115261   3.922   1.684   3.766
 5085TIP3    H215262   3.930   1.631   3.624
 5086TIP3   OH215263   0.502   5.705   1.644
 5086TIP3    H115264   0.572   5.735   1.585
 5086TIP3    H215265   0.452   5.785   1.663
 5087TIP3   OH215266   4.203   1.920   2.664
 5087TIP3    H115267   4.268   1.975   2.622
 5087TIP3    H215268   4.132   1.913   2.600
 5088TIP3   OH215269   4.110   1.026   2.385
 5088TIP3    H115270   4.187   1.054   2.436
 5088TIP3    H215271   4.147   0.991   2.304
 5089TIP3   OH215272   5.761   4.757   4.545
 5089TIP3    H115273   5.756   4.741   4.639
 5089TIP3    H215274   5.706   4.689   4.506
 5090TIP3   OH215275   2.603   3.186   1.319
 5090TIP3    H115276   2.649   3.264   1.288
 5090TIP3    H215277   2.625   3.119   1.255
 5091TIP3   OH215278   4.521   1.488   3.819
 5091TIP3    H115279   4.593   1.510   3.879
 5091TIP3    H215280   4.453   1.452   3.875
 5092TIP3   OH215281   5.487   5.752   4.904
 5092TIP3    H115282   5.405   5.723   4.945
 5092TIP3    H215283   5.488   5.847   4.920
 5093TIP3   OH215284   3.077   5.319   3.341
 5093TIP3    H115285   3.106   5.268   3.416
 5093TIP3    H215286   2.998   5.275   3.311
 5094TIP3   OH215287   1.352   3.996   1.258
 5094TIP3    H115288   1.267   3.960   1.285
 5094TIP3    H215289   1.376   4.056   1.328
 5095TIP3   OH215290   1.162   2.598   3.383
 5095TIP3    H115291   1.067   2.592   3.396
 5095TIP3    H215292   1.180   2.538   3.310
 5096TIP3   OH215293   5.158   0.361   2.131
 5096TIP3    H115294   5.164   0.450   2.166
 5096TIP3    H215295   5.091   0.367   2.063
 5097TIP3   OH215296   2.816   1.680   2.546
 5097TIP3    H115297   2.900   1.713   2.579
 5097TIP3    H215298   2.832   1.587   2.530
 5098TIP3   OH215299   6.115   0.683   1.322
 5098TIP3    H115300   6.137   0.776   1.327
 5098TIP3    H215301   6.200   0.638   1.319
 5099TIP3   OH215302   3.719   5.516   1.195
 5099TIP3    H115303   3.754   5.439   1.240
 5099TIP3    H215304   3.768   5.520   1.112
 5100TIP3   OH215305   1.492   4.802   1.383
 5100TIP3    H115306   1.419   4.850   1.345
 5100TIP3    H215307   1.506   4.728   1.325
 5101TIP3   OH215308   5.647   5.718   0.738
 5101TIP3    H115309   5.662   5.652   0.805
 5101TIP3    H215310   5.693   5.796   0.770
 5102TIP3   OH215311   3.732   1.952   2.986
 5102TIP3    H115312   3.687   2.031   2.957
 5102TIP3    H215313   3.677   1.880   2.955
 5103TIP3   OH215314   4.860   5.552   3.760
 5103TIP3    H115315   4.831   5.642   3.773
 5103TIP3    H215316   4.779   5.501   3.755
 5104TIP3   OH215317   5.311   4.523   4.226
 5104TIP3    H115318   5.231   4.479   4.196
 5104TIP3    H215319   5.299   4.614   4.200
 5105TIP3   OH215320   0.531   3.478   0.612
 5105TIP3    H115321   0.475   3.481   0.689
 5105TIP3    H215322   0.592   3.406   0.630
 5106TIP3   OH215323   3.048   1.413   0.721
 5106TIP3    H115324   3.019   1.498   0.689
 5106TIP3    H215325   2.978   1.386   0.781
 5107TIP3   OH215326   3.364   4.661   4.510
 5107TIP3    H115327   3.412   4.742   4.491
 5107TIP3    H215328   3.315   4.643   4.430
 5108TIP3   OH215329   4.448   5.374   3.036
 5108TIP3    H115330   4.358   5.399   3.017
 5108TIP3    H215331   4.440   5.292   3.085
 5109TIP3   OH215332   1.777   3.807   1.053
 5109TIP3    H115333   1.777   3.808   0.957
 5109TIP3    H215334   1.840   3.873   1.078
 5110TIP3   OH215335   0.261   3.622   2.260
 5110TIP3    H115336   0.188   3.567   2.289
 5110TIP3    H215337   0.326   3.561   2.227
 5111TIP3   OH215338   2.167   5.802   0.303
 5111TIP3    H115339   2.074   5.783   0.304
 5111TIP3    H215340   2.182   5.847   0.219
 5112TIP3   OH215341   1.359   5.658   3.038
 5112TIP3    H115342   1.273   5.663   3.079
 5112TIP3    H215343   1.341   5.631   2.948
 5113TIP3   OH215344   5.826   3.169   2.464
 5113TIP3    H115345   5.748   3.172   2.409
 5113TIP3    H215346   5.877   3.246   2.438
 5114TIP3   OH215347   2.512   3.412   1.019
 5114TIP3    H115348   2.595   3.419   1.066
 5114TIP3    H215349   2.537   3.385   0.930
 5115TIP3   OH215350   1.033   0.984   4.087
 5115TIP3    H115351   1.050   1.074   4.060
 5115TIP3    H215352   0.959   0.957   4.034
 5116TIP3   OH215353   4.431   1.206   3.791
 5116TIP3    H115354   4.509   1.216   3.736
 5116TIP3    H215355   4.449   1.128   3.843
 5117TIP3   OH215356   5.316   4.397   0.685
 5117TIP3    H115357   5.244   4.450   0.652
 5117TIP3    H215358   5.313   4.409   0.780
 5118TIP3   OH215359   3.995   5.711   1.354
 5118TIP3    H115360   4.068   5.758   1.313
 5118TIP3    H215361   3.938   5.688   1.282
 5119TIP3   OH215362   5.716   1.062   3.080
 5119TIP3    H115363   5.716   1.013   3.162
 5119TIP3    H215364   5.624   1.082   3.064
 5120TIP3   OH215365   3.171   5.218   4.822
 5120TIP3    H115366   3.111   5.191   4.752
 5120TIP3    H215367   3.184   5.311   4.807
 5121TIP3   OH215368   5.711   3.764   2.163
 5121TIP3    H115369   5.661   3.735   2.239
 5121TIP3    H215370   5.647   3.772   2.093
 5122TIP3   OH215371   0.141   3.707   4.840
 5122TIP3    H115372   0.112   3.670   4.924
 5122TIP3    H215373   0.187   3.635   4.797
 5123TIP3   OH215374   3.146   5.035   2.870
 5123TIP3    H115375   3.220   4.980   2.897
 5123TIP3    H215376   3.185   5.120   2.851
 5124TIP3   OH215377   4.415   3.899   2.016
 5124TIP3    H115378   4.449   3.939   2.096
 5124TIP3    H215379   4.437   3.807   2.023
 5125TIP3   OH215380   1.502   5.420   0.380
 5125TIP3    H115381   1.416   5.391   0.412
 5125TIP3    H215382   1.559   5.345   0.393
 5126TIP3   OH215383   1.601   3.525   2.225
 5126TIP3    H115384   1.618   3.580   2.302
 5126TIP3    H215385   1.674   3.463   2.224
 5127TIP3   OH215386   1.758   5.163   3.883
 5127TIP3    H115387   1.692   5.144   3.817
 5127TIP3    H215388   1.734   5.108   3.958
 5128TIP3   OH215389   4.511   1.797   0.245
 5128TIP3    H115390   4.586   1.798   0.304
 5128TIP3    H215391   4.548   1.815   0.159
 5129TIP3   OH215392   1.783   1.231   0.830
 5129TIP3    H115393   1.867   1.195   0.858
 5129TIP3    H215394   1.795   1.252   0.737
 5130TIP3   OH215395   5.241   3.150   4.498
 5130TIP3    H115396   5.195   3.213   4.443
 5130TIP3    H215397   5.314   3.120   4.445
 5131TIP3   OH215398   2.995   2.291   1.564
 5131TIP3    H115399   3.059   2.336   1.510
 5131TIP3    H215400   3.041   2.213   1.596
 5132TIP3   OH215401   1.198   1.102   4.909
 5132TIP3    H115402   1.109   1.110   4.944
 5132TIP3    H215403   1.192   1.138   4.821
 5133TIP3   OH215404   2.472   1.495   2.396
 5133TIP3    H115405   2.499   1.405   2.412
 5133TIP3    H215406   2.437   1.525   2.480
 5134TIP3   OH215407   4.896   4.959   1.259
 5134TIP3    H115408   4.952   4.883   1.249
 5134TIP3    H215409   4.920   5.016   1.186
 5135TIP3   OH215410   6.134   0.457   1.907
 5135TIP3    H115411   6.058   0.479   1.962
 5135TIP3    H215412   6.180   0.389   1.955
 5136TIP3   OH215413   5.581   4.341   4.724
 5136TIP3    H115414   5.563   4.285   4.800
 5136TIP3    H215415   5.494   4.372   4.696
 5137TIP3   OH215416   5.571   3.766   5.097
 5137TIP3    H115417   5.496   3.811   5.057
 5137TIP3    H215418   5.539   3.678   5.115
 5138TIP3   OH215419   0.430   0.451   0.624
 5138TIP3    H115420   0.501   0.515   0.611
 5138TIP3    H215421   0.474   0.366   0.623
 5139TIP3   OH215422   2.040   0.837   2.715
 5139TIP3    H115423   2.033   0.817   2.808
 5139TIP3    H215424   2.125   0.880   2.705
 5140TIP3   OH215425   4.317   4.759   5.137
 5140TIP3    H115426   4.334   4.732   5.227
 5140TIP3    H215427   4.337   4.682   5.084
 5141TIP3   OH215428   3.834   2.673   0.530
 5141TIP3    H115429   3.767   2.663   0.598
 5141TIP3    H215430   3.914   2.640   0.571
 5142TIP3   OH215431   2.462   2.354   2.940
 5142TIP3    H115432   2.440   2.266   2.972
 5142TIP3    H215433   2.406   2.413   2.990
 5143TIP3   OH215434   1.951   5.426   0.076
 5143TIP3    H115435   1.893   5.502   0.076
 5143TIP3    H215436   1.899   5.356   0.036
 5144TIP3   OH215437   3.513   1.238   0.817
 5144TIP3    H115438   3.592   1.289   0.800
 5144TIP3    H215439   3.481   1.214   0.730
 5145TIP3   OH215440   3.998   2.776   1.596
 5145TIP3    H115441   4.075   2.785   1.541
 5145TIP3    H215442   3.982   2.864   1.630
 5146TIP3   OH215443   4.859   1.165   4.748
 5146TIP3    H115444   4.829   1.225   4.679
 5146TIP3    H215445   4.948   1.142   4.722
 5147TIP3   OH215446   1.066   4.580   1.691
 5147TIP3    H115447   1.075   4.585   1.786
 5147TIP3    H215448   1.156   4.572   1.659
 5148TIP3   OH215449   0.772   2.741   3.653
 5148TIP3    H115450   0.690   2.698   3.629
 5148TIP3    H215451   0.762   2.830   3.620
 5149TIP3   OH215452   1.407   4.942   0.787
 5149TIP3    H115453   1.315   4.954   0.809
 5149TIP3    H215454   1.416   4.981   0.700
 5150TIP3   OH215455   0.073   2.343   0.603
 5150TIP3    H115456   0.002   2.302   0.554
 5150TIP3    H215457   0.049   2.436   0.605
 5151TIP3   OH215458   4.398   4.561   1.112
 5151TIP3    H115459   4.329   4.605   1.062
 5151TIP3    H215460   4.351   4.498   1.166
 5152TIP3   OH215461   3.615   2.980   5.100
 5152TIP3    H115462   3.582   3.066   5.073
 5152TIP3    H215463   3.683   2.959   5.036
 5153TIP3   OH215464   3.900   1.959   2.739
 5153TIP3    H115465   3.882   1.963   2.833
 5153TIP3    H215466   3.856   2.037   2.704
 5154TIP3   OH215467   0.964   1.266   1.161
 5154TIP3    H115468   0.946   1.292   1.251
 5154TIP3    H215469   1.009   1.182   1.169
 5155TIP3   OH215470   4.282   4.290   4.388
 5155TIP3    H115471   4.289   4.197   4.407
 5155TIP3    H215472   4.336   4.303   4.310
 5156TIP3   OH215473   2.191   1.886   1.370
 5156TIP3    H115474   2.222   1.920   1.286
 5156TIP3    H215475   2.105   1.849   1.349
 5157TIP3   OH215476   4.075   0.281   2.452
 5157TIP3    H115477   3.992   0.321   2.428
 5157TIP3    H215478   4.133   0.355   2.473
 5158TIP3   OH215479   1.663   0.639   1.033
 5158TIP3    H115480   1.605   0.639   0.957
 5158TIP3    H215481   1.741   0.592   1.004
 5159TIP3   OH215482   0.175   5.344   3.081
 5159TIP3    H115483   0.143   5.398   3.009
 5159TIP3    H215484   0.215   5.407   3.141
 5160TIP3   OH215485   5.930   4.350   2.903
 5160TIP3    H115486   6.023   4.345   2.926
 5160TIP3    H215487   5.924   4.306   2.818
 5161TIP3   OH215488   6.171   1.049   1.703
 5161TIP3    H115489   6.214   1.134   1.691
 5161TIP3    H215490   6.078   1.070   1.708
 5162TIP3   OH215491   1.461   0.236   2.982
 5162TIP3    H115492   1.510   0.318   2.985
 5162TIP3    H215493   1.493   0.186   3.057
 5163TIP3   OH215494   0.238   3.569   3.283
 5163TIP3    H115495   0.230   3.538   3.373
 5163TIP3    H215496   0.263   3.492   3.232
 5164TIP3   OH215497   3.594   3.304   3.489
 5164TIP3    H115498   3.623   3.249   3.416
 5164TIP3    H215499   3.628   3.260   3.567
 5165TIP3   OH215500   3.965   0.700   0.089
 5165TIP3    H115501   4.013   0.730   0.165
 5165TIP3    H215502   3.886   0.753   0.087
 5166TIP3   OH215503   5.060   2.398   1.656
 5166TIP3    H115504   5.097   2.483   1.632
 5166TIP3    H215505   5.007   2.416   1.734
 5167TIP3   OH215506   2.849   5.749   2.469
 5167TIP3    H115507   2.920   5.769   2.408
 5167TIP3    H215508   2.790   5.693   2.418
 5168TIP3   OH215509   3.305   0.110   1.881
 5168TIP3    H115510   3.349   0.148   1.958
 5168TIP3    H215511   3.354   0.030   1.864
 5169TIP3   OH215512   3.412   5.178   2.451
 5169TIP3    H115513   3.433   5.270   2.434
 5169TIP3    H215514   3.402   5.139   2.365
 5170TIP3   OH215515   3.897   4.866   2.280
 5170TIP3    H115516   3.807   4.895   2.266
 5170TIP3    H215517   3.890   4.772   2.299
 5171TIP3   OH215518   4.035   0.574   2.135
 5171TIP3    H115519   3.949   0.535   2.155
 5171TIP3    H215520   4.015   0.664   2.111
 5172TIP3   OH215521   6.246   5.623   2.280
 5172TIP3    H115522   6.224   5.710   2.313
 5172TIP3    H215523   6.340   5.615   2.295
 5173TIP3   OH215524   5.967   3.703   0.403
 5173TIP3    H115525   6.042   3.656   0.439
 5173TIP3    H215526   5.968   3.681   0.310
 5174TIP3   OH215527   1.111   4.058   1.005
 5174TIP3    H115528   1.066   4.066   0.921
 5174TIP3    H215529   1.204   4.068   0.984
 5175TIP3   OH215530   2.227   5.009   1.354
 5175TIP3    H115531   2.283   4.979   1.426
 5175TIP3    H215532   2.145   4.963   1.366
 5176TIP3   OH215533   3.329   4.415   0.661
 5176TIP3    H115534   3.308   4.498   0.617
 5176TIP3    H215535   3.401   4.379   0.610
 5177TIP3   OH215536   0.357   0.981   0.167
 5177TIP3    H115537   0.392   0.999   0.080
 5177TIP3    H215538   0.313   1.062   0.193
 5178TIP3   OH215539   1.007   3.368   1.834
 5178TIP3    H115540   1.004   3.431   1.906
 5178TIP3    H215541   1.024   3.420   1.756
 5179TIP3   OH215542   3.221   5.605   0.662
 5179TIP3    H115543   3.237   5.512   0.648
 5179TIP3    H215544   3.279   5.649   0.600
 5180TIP3   OH215545   3.919   4.444   3.387
 5180TIP3    H115546   3.906   4.404   3.473
 5180TIP3    H215547   3.992   4.396   3.348
 5181TIP3   OH215548   5.321   2.344   0.347
 5181TIP3    H115549   5.300   2.250   0.347
 5181TIP3    H215550   5.361   2.359   0.433
 5182TIP3   OH215551   4.327   5.469   5.016
 5182TIP3    H115552   4.387   5.461   5.090
 5182TIP3    H215553   4.283   5.552   5.030
 5183TIP3   OH215554   2.418   5.662   0.325
 5183TIP3    H115555   2.462   5.722   0.264
 5183TIP3    H215556   2.329   5.696   0.331
 5184TIP3   OH215557   6.138   3.923   4.910
 5184TIP3    H115558   6.141   3.986   4.982
 5184TIP3    H215559   6.207   3.951   4.850
 5185TIP3   OH215560   1.127   4.300   0.534
 5185TIP3    H115561   1.153   4.240   0.605
 5185TIP3    H215562   1.150   4.253   0.454
 5186TIP3   OH215563   5.776   4.179   4.612
 5186TIP3    H115564   5.743   4.117   4.547
 5186TIP3    H215565   5.698   4.219   4.649
 5187TIP3   OH215566   4.989   4.011   0.704
 5187TIP3    H115567   5.011   4.079   0.768
 5187TIP3    H215568   5.029   4.043   0.622
 5188TIP3   OH215569   2.796   0.827   3.932
 5188TIP3    H115570   2.770   0.896   3.994
 5188TIP3    H215571   2.714   0.789   3.903
 5189TIP3   OH215572   5.821   4.917   2.050
 5189TIP3    H115573   5.744   4.861   2.045
 5189TIP3    H215574   5.842   4.921   2.144
 5190TIP3   OH215575   2.156   1.982   1.618
 5190TIP3    H115576   2.163   1.956   1.526
 5190TIP3    H215577   2.174   1.902   1.667
 5191TIP3   OH215578   1.407   2.203   0.796
 5191TIP3    H115579   1.466   2.168   0.863
 5191TIP3    H215580   1.430   2.155   0.716
 5192TIP3   OH215581   2.910   0.780   3.171
 5192TIP3    H115582   2.824   0.820   3.157
 5192TIP3    H215583   2.932   0.803   3.261
 5193TIP3   OH215584   6.209   1.165   3.754
 5193TIP3    H115585   6.182   1.216   3.830
 5193TIP3    H215586   6.171   1.212   3.679
 5194TIP3   OH215587   4.650   0.293   4.075
 5194TIP3    H115588   4.571   0.327   4.118
 5194TIP3    H215589   4.636   0.199   4.071
 5195TIP3   OH215590   4.166   1.072   3.742
 5195TIP3    H115591   4.224   1.144   3.719
 5195TIP3    H215592   4.106   1.109   3.807
 5196TIP3   OH215593   4.640   2.284   3.116
 5196TIP3    H115594   4.595   2.207   3.080
 5196TIP3    H215595   4.660   2.260   3.206
 5197TIP3   OH215596   2.073   0.747   0.803
 5197TIP3    H115597   2.068   0.697   0.721
 5197TIP3    H215598   1.990   0.794   0.807
 5198TIP3   OH215599   6.328   4.797   1.840
 5198TIP3    H115600   6.293   4.805   1.928
 5198TIP3    H215601   6.393   4.867   1.834
 5199TIP3   OH215602   1.860   3.959   3.526
 5199TIP3    H115603   1.855   3.967   3.431
 5199TIP3    H215604   1.769   3.951   3.554
 5200TIP3   OH215605   4.683   3.976   2.498
 5200TIP3    H115606   4.725   3.899   2.537
 5200TIP3    H215607   4.755   4.036   2.480
 5201TIP3   OH215608   2.484   5.683   2.487
 5201TIP3    H115609   2.403   5.643   2.519
 5201TIP3    H215610   2.486   5.661   2.394
 5202TIP3   OH215611   2.435   1.239   1.207
 5202TIP3    H115612   2.463   1.316   1.158
 5202TIP3    H215613   2.492   1.237   1.283
 5203TIP3   OH215614   3.090   5.712   4.141
 5203TIP3    H115615   3.043   5.749   4.216
 5203TIP3    H215616   3.028   5.650   4.103
 5204TIP3   OH215617   0.146   1.701   4.914
 5204TIP3    H115618   0.176   1.788   4.940
 5204TIP3    H215619   0.224   1.646   4.922
 5205TIP3   OH215620   4.150   3.381   1.265
 5205TIP3    H115621   4.134   3.471   1.293
 5205TIP3    H215622   4.062   3.344   1.252
 5206TIP3   OH215623   2.276   0.342   2.500
 5206TIP3    H115624   2.371   0.350   2.497
 5206TIP3    H215625   2.258   0.251   2.477
 5207TIP3   OH215626   1.641   0.333   1.829
 5207TIP3    H115627   1.555   0.340   1.870
 5207TIP3    H215628   1.669   0.243   1.846
 5208TIP3   OH215629   1.143   0.168   2.060
 5208TIP3    H115630   1.067   0.116   2.035
 5208TIP3    H215631   1.109   0.234   2.120
 5209TIP3   OH215632   5.174   0.905   1.137
 5209TIP3    H115633   5.095   0.884   1.187
 5209TIP3    H215634   5.161   0.859   1.053
 5210TIP3   OH215635   3.163   5.158   3.549
 5210TIP3    H115636   3.218   5.080   3.551
 5210TIP3    H215637   3.194   5.211   3.623
 5211TIP3   OH215638   3.240   3.238   1.179
 5211TIP3    H115639   3.238   3.252   1.274
 5211TIP3    H215640   3.216   3.146   1.168
 5212TIP3   OH215641   2.436   4.590   4.955
 5212TIP3    H115642   2.385   4.515   4.927
 5212TIP3    H215643   2.458   4.636   4.874
 5213TIP3   OH215644   1.470   1.222   0.134
 5213TIP3    H115645   1.499   1.206   0.224
 5213TIP3    H215646   1.547   1.258   0.090
 5214TIP3   OH215647   6.226   2.025   4.032
 5214TIP3    H115648   6.222   1.941   4.078
 5214TIP3    H215649   6.156   2.020   3.967
 5215TIP3   OH215650   5.766   5.092   4.766
 5215TIP3    H115651   5.680   5.115   4.801
 5215TIP3    H215652   5.746   5.037   4.690
 5216TIP3   OH215653   1.191   0.225   2.961
 5216TIP3    H115654   1.285   0.227   2.978
 5216TIP3    H215655   1.183   0.238   2.866
 5217TIP3   OH215656   0.068   3.203   1.871
 5217TIP3    H115657   0.077   3.245   1.785
 5217TIP3    H215658  -0.019   3.165   1.870
 5218TIP3   OH215659   3.696   2.832   2.445
 5218TIP3    H115660   3.613   2.878   2.462
 5218TIP3    H215661   3.674   2.767   2.378
 5219TIP3   OH215662   2.690   0.691   2.326
 5219TIP3    H115663   2.765   0.730   2.282
 5219TIP3    H215664   2.618   0.752   2.311
 5220TIP3   OH215665   6.336   4.033   1.595
 5220TIP3    H115666   6.247   3.997   1.596
 5220TIP3    H215667   6.392   3.958   1.614
 5221TIP3   OH215668   2.823   0.457   0.943
 5221TIP3    H115669   2.764   0.395   0.901
 5221TIP3    H215670   2.801   0.451   1.036
 5222TIP3   OH215671   0.396   5.115   2.052
 5222TIP3    H115672   0.385   5.053   2.125
 5222TIP3    H215673   0.466   5.077   2.000
 5223TIP3   OH215674   4.759   2.456   3.443
 5223TIP3    H115675   4.752   2.361   3.439
 5223TIP3    H215676   4.670   2.486   3.460
 5224TIP3   OH215677   6.005   5.294   3.933
 5224TIP3    H115678   6.036   5.378   3.898
 5224TIP3    H215679   6.060   5.279   4.010
 5225TIP3   OH215680   5.258   2.626   1.124
 5225TIP3    H115681   5.246   2.532   1.138
 5225TIP3    H215682   5.341   2.632   1.076
 5226TIP3   OH215683   2.737   0.382   3.019
 5226TIP3    H115684   2.726   0.331   2.938
 5226TIP3    H215685   2.673   0.452   3.013
 5227TIP3   OH215686   5.092   2.505   0.825
 5227TIP3    H115687   5.094   2.505   0.921
 5227TIP3    H215688   5.139   2.584   0.799
 5228TIP3   OH215689   1.648   3.269   3.300
 5228TIP3    H115690   1.705   3.311   3.363
 5228TIP3    H215691   1.561   3.273   3.339
 5229TIP3   OH215692   0.247   5.412   1.268
 5229TIP3    H115693   0.313   5.475   1.297
 5229TIP3    H215694   0.263   5.402   1.174
 5230TIP3   OH215695   4.098   1.340   0.725
 5230TIP3    H115696   4.060   1.375   0.644
 5230TIP3    H215697   4.135   1.417   0.769
 5231TIP3   OH215698   5.416   3.130   1.270
 5231TIP3    H115699   5.340   3.114   1.325
 5231TIP3    H215700   5.470   3.191   1.320
 5232TIP3   OH215701   2.780   2.853   2.374
 5232TIP3    H115702   2.840   2.831   2.303
 5232TIP3    H215703   2.739   2.769   2.397
 5233TIP3   OH215704   5.433   5.310   2.214
 5233TIP3    H115705   5.458   5.349   2.298
 5233TIP3    H215706   5.376   5.374   2.172
 5234TIP3   OH215707   4.798   4.686   4.467
 5234TIP3    H115708   4.704   4.664   4.472
 5234TIP3    H215709   4.800   4.774   4.430
 5235TIP3   OH215710   1.182   1.640   5.191
 5235TIP3    H115711   1.239   1.672   5.121
 5235TIP3    H215712   1.096   1.674   5.170
 5236TIP3   OH215713   4.255   2.914   2.859
 5236TIP3    H115714   4.237   2.820   2.864
 5236TIP3    H215715   4.168   2.954   2.864
 5237TIP3   OH215716   0.515   5.460   0.253
 5237TIP3    H115717   0.464   5.475   0.332
 5237TIP3    H215718   0.473   5.515   0.186
 5238TIP3   OH215719   1.623   4.160   0.992
 5238TIP3    H115720   1.700   4.118   0.954
 5238TIP3    H215721   1.606   4.236   0.936
 5239TIP3   OH215722   4.486   0.564   3.507
 5239TIP3    H115723   4.550   0.493   3.499
 5239TIP3    H215724   4.539   0.644   3.514
 5240TIP3   OH215725   3.155   3.812   1.249
 5240TIP3    H115726   3.229   3.802   1.308
 5240TIP3    H215727   3.149   3.728   1.203
 5241TIP3   OH215728   4.998   2.814   3.005
 5241TIP3    H115729   4.976   2.901   2.972
 5241TIP3    H215730   4.915   2.766   3.003
 5242TIP3   OH215731   4.585   1.071   5.103
 5242TIP3    H115732   4.522   1.042   5.170
 5242TIP3    H215733   4.585   1.000   5.038
 5243TIP3   OH215734   0.389   2.016   0.390
 5243TIP3    H115735   0.321   2.043   0.452
 5243TIP3    H215736   0.471   2.050   0.428
 5244TIP3   OH215737   0.076   3.040   4.533
 5244TIP3    H115738   0.111   3.065   4.619
 5244TIP3    H215739   0.006   2.978   4.553
 5245TIP3   OH215740   3.687   3.608   4.156
 5245TIP3    H115741   3.619   3.644   4.099
 5245TIP3    H215742   3.749   3.680   4.167
 5246TIP3   OH215743   0.388   3.078   4.124
 5246TIP3    H115744   0.302   3.077   4.081
 5246TIP3    H215745   0.451   3.073   4.051
 5247TIP3   OH215746   0.415   3.570   0.336
 5247TIP3    H115747   0.356   3.621   0.391
 5247TIP3    H215748   0.495   3.563   0.386
 5248TIP3   OH215749   0.674   1.675   5.160
 5248TIP3    H115750   0.754   1.716   5.193
 5248TIP3    H215751   0.674   1.697   5.066
 5249TIP3   OH215752   1.340   4.616   1.630
 5249TIP3    H115753   1.340   4.698   1.581
 5249TIP3    H215754   1.398   4.558   1.581
 5250TIP3   OH215755   4.252   3.915   2.266
 5250TIP3    H115756   4.189   3.898   2.336
 5250TIP3    H215757   4.201   3.907   2.185
 5251TIP3   OH215758   3.818   0.974   4.730
 5251TIP3    H115759   3.882   0.982   4.801
 5251TIP3    H215760   3.798   0.881   4.726
 5252TIP3   OH215761   4.754   5.058   2.354
 5252TIP3    H115762   4.686   5.117   2.385
 5252TIP3    H215763   4.783   5.094   2.271
 5253TIP3   OH215764   6.280   4.814   2.506
 5253TIP3    H115765   6.240   4.781   2.587
 5253TIP3    H215766   6.373   4.794   2.516
 5254TIP3   OH215767   1.721   3.513   3.875
 5254TIP3    H115768   1.795   3.547   3.825
 5254TIP3    H215769   1.653   3.497   3.809
 5255TIP3   OH215770   3.184   4.057   1.129
 5255TIP3    H115771   3.156   3.976   1.172
 5255TIP3    H215772   3.242   4.099   1.193
 5256TIP3   OH215773   1.643   3.162   2.418
 5256TIP3    H115774   1.611   3.249   2.443
 5256TIP3    H215775   1.640   3.112   2.500
 5257TIP3   OH215776   2.659   3.675   1.914
 5257TIP3    H115777   2.678   3.638   1.827
 5257TIP3    H215778   2.569   3.708   1.906
 5258TIP3   OH215779   1.634   5.775   2.172
 5258TIP3    H115780   1.553   5.824   2.186
 5258TIP3    H215781   1.608   5.683   2.178
 5259TIP3   OH215782   2.072   3.733   2.593
 5259TIP3    H115783   2.060   3.801   2.659
 5259TIP3    H215784   2.081   3.780   2.510
 5260TIP3   OH215785   6.237   5.201   0.620
 5260TIP3    H115786   6.323   5.209   0.578
 5260TIP3    H215787   6.179   5.175   0.548
 5261TIP3   OH215788   2.270   3.876   2.111
 5261TIP3    H115789   2.363   3.883   2.129
 5261TIP3    H215790   2.237   3.966   2.118
 5262TIP3   OH215791   0.991   3.040   0.184
 5262TIP3    H115792   1.022   3.108   0.244
 5262TIP3    H215793   0.928   2.989   0.235
 5263TIP3   OH215794   2.289   4.417   4.783
 5263TIP3    H115795   2.244   4.355   4.726
 5263TIP3    H215796   2.246   4.501   4.766
 5264TIP3   OH215797   1.061   1.496   1.715
 5264TIP3    H115798   1.020   1.410   1.708
 5264TIP3    H215799   1.121   1.489   1.789
 5265TIP3   OH215800   5.923   1.107   4.385
 5265TIP3    H115801   5.999   1.147   4.428
 5265TIP3    H215802   5.907   1.026   4.434
 5266TIP3   OH215803   0.359   3.527   0.837
 5266TIP3    H115804   0.266   3.522   0.855
 5266TIP3    H215805   0.395   3.579   0.909
 5267TIP3   OH215806   1.431   3.599   0.701
 5267TIP3    H115807   1.517   3.599   0.744
 5267TIP3    H215808   1.373   3.557   0.763
 5268TIP3   OH215809   3.716   4.130   1.275
 5268TIP3    H115810   3.642   4.071   1.263
 5268TIP3    H215811   3.678   4.218   1.267
 5269TIP3   OH215812   5.010   5.939   4.580
 5269TIP3    H115813   5.017   5.847   4.557
 5269TIP3    H215814   4.954   5.941   4.658
 5270TIP3   OH215815   1.344   1.685   1.056
 5270TIP3    H115816   1.322   1.675   1.149
 5270TIP3    H215817   1.427   1.640   1.046
 5271TIP3   OH215818   1.800   0.086   2.232
 5271TIP3    H115819   1.708   0.060   2.229
 5271TIP3    H215820   1.817   0.125   2.146
 5272TIP3   OH215821   3.863   0.088   4.801
 5272TIP3    H115822   3.829   0.038   4.727
 5272TIP3    H215823   3.795   0.154   4.818
 5273TIP3   OH215824   5.967   3.105   4.994
 5273TIP3    H115825   6.026   3.070   5.061
 5273TIP3    H215826   5.984   3.050   4.917
 5274TIP3   OH215827   2.102   4.285   0.194
 5274TIP3    H115828   2.168   4.337   0.240
 5274TIP3    H215829   2.153   4.217   0.149
 5275TIP3   OH215830   4.375   2.913   5.195
 5275TIP3    H115831   4.465   2.941   5.177
 5275TIP3    H215832   4.322   2.963   5.133
 5276TIP3   OH215833   0.586   1.013   1.089
 5276TIP3    H115834   0.642   0.952   1.041
 5276TIP3    H215835   0.647   1.070   1.136
 5277TIP3   OH215836   6.263   2.912   3.354
 5277TIP3    H115837   6.313   2.835   3.327
 5277TIP3    H215838   6.214   2.938   3.275
 5278TIP3   OH215839   2.432   4.923   4.476
 5278TIP3    H115840   2.489   4.999   4.467
 5278TIP3    H215841   2.473   4.856   4.422
 5279TIP3   OH215842   5.766   1.127   0.596
 5279TIP3    H115843   5.825   1.142   0.669
 5279TIP3    H215844   5.706   1.202   0.598
 5280TIP3   OH215845   2.496   1.617   4.588
 5280TIP3    H115846   2.579   1.650   4.622
 5280TIP3    H215847   2.450   1.583   4.664
 5281TIP3   OH215848   1.173   5.851   0.260
 5281TIP3    H115849   1.241   5.800   0.304
 5281TIP3    H215850   1.139   5.793   0.192
 5282TIP3   OH215851   1.666   3.994   0.229
 5282TIP3    H115852   1.736   4.049   0.264
 5282TIP3    H215853   1.586   4.029   0.268
 5283TIP3   OH215854   5.424   5.473   3.741
 5283TIP3    H115855   5.366   5.478   3.665
 5283TIP3    H215856   5.498   5.419   3.712
 5284TIP3   OH215857   6.267   5.801   0.411
 5284TIP3    H115858   6.226   5.817   0.496
 5284TIP3    H215859   6.305   5.714   0.418
 5285TIP3   OH215860   2.959   0.101   3.665
 5285TIP3    H115861   3.011   0.102   3.585
 5285TIP3    H215862   2.870   0.083   3.635
 5286TIP3   OH215863   2.084   0.787   4.730
 5286TIP3    H115864   2.104   0.877   4.755
 5286TIP3    H215865   1.989   0.783   4.730
 5287TIP3   OH215866   2.078   2.556   1.796
 5287TIP3    H115867   2.091   2.650   1.781
 5287TIP3    H215868   2.109   2.514   1.716
 5288TIP3   OH215869   2.130   3.130   5.134
 5288TIP3    H115870   2.219   3.162   5.149
 5288TIP3    H215871   2.108   3.082   5.214
 5289TIP3   OH215872   0.255   2.157   3.957
 5289TIP3    H115873   0.267   2.244   3.996
 5289TIP3    H215874   0.344   2.128   3.936
 5290TIP3   OH215875   0.854   3.037   2.864
 5290TIP3    H115876   0.948   3.054   2.857
 5290TIP3    H215877   0.838   3.026   2.958
 5291TIP3   OH215878   1.641   5.758   2.843
 5291TIP3    H115879   1.618   5.813   2.918
 5291TIP3    H215880   1.679   5.679   2.882
 5292TIP3   OH215881   0.244   1.874   0.223
 5292TIP3    H115882   0.294   1.940   0.271
 5292TIP3    H215883   0.232   1.803   0.286
 5293TIP3   OH215884   5.975   4.858   3.025
 5293TIP3    H115885   5.916   4.887   2.955
 5293TIP3    H215886   6.063   4.883   2.994
 5294TIP3   OH215887   4.433   5.352   0.186
 5294TIP3    H115888   4.413   5.348   0.093
 5294TIP3    H215889   4.519   5.392   0.190
 5295TIP3   OH215890   0.230   2.986   0.758
 5295TIP3    H115891   0.287   2.911   0.773
 5295TIP3    H215892   0.285   3.062   0.776
 5296TIP3   OH215893   3.684   4.305   2.300
 5296TIP3    H115894   3.634   4.306   2.382
 5296TIP3    H215895   3.649   4.229   2.253
 5297TIP3   OH215896   0.137   5.347   0.323
 5297TIP3    H115897   0.091   5.428   0.299
 5297TIP3    H215898   0.071   5.279   0.316
 5298TIP3   OH215899   2.168   5.226   0.459
 5298TIP3    H115900   2.184   5.137   0.426
 5298TIP3    H215901   2.241   5.243   0.517
 5299TIP3   OH215902   4.746   5.815   5.134
 5299TIP3    H115903   4.676   5.876   5.158
 5299TIP3    H215904   4.722   5.783   5.047
 5300TIP3   OH215905   1.365   3.484   4.012
 5300TIP3    H115906   1.367   3.394   3.980
 5300TIP3    H215907   1.272   3.502   4.028
 5301TIP3   OH215908   1.831   3.528   0.546
 5301TIP3    H115909   1.857   3.582   0.471
 5301TIP3    H215910   1.858   3.439   0.521
 5302TIP3   OH215911   2.692   2.467   0.347
 5302TIP3    H115912   2.752   2.400   0.379
 5302TIP3    H215913   2.656   2.430   0.267
 5303TIP3   OH215914   2.846   0.977   4.694
 5303TIP3    H115915   2.884   1.059   4.661
 5303TIP3    H215916   2.812   0.933   4.617
 5304TIP3   OH215917   0.103   4.462   1.452
 5304TIP3    H115918   0.177   4.517   1.426
 5304TIP3    H215919   0.033   4.524   1.473
 5305TIP3   OH215920   4.201   4.244   2.777
 5305TIP3    H115921   4.172   4.207   2.860
 5305TIP3    H215922   4.189   4.173   2.713
 5306TIP3   OH215923   6.223   3.515   3.478
 5306TIP3    H115924   6.219   3.501   3.572
 5306TIP3    H215925   6.287   3.452   3.446
 5307TIP3   OH215926   4.423   0.069   2.604
 5307TIP3    H115927   4.376   0.072   2.687
 5307TIP3    H215928   4.511   0.098   2.624
 5308TIP3   OH215929   2.214   1.863   3.838
 5308TIP3    H115930   2.145   1.927   3.825
 5308TIP3    H215931   2.278   1.908   3.894
 5309TIP3   OH215932   0.264   4.092   1.899
 5309TIP3    H115933   0.285   3.999   1.903
 5309TIP3    H215934   0.327   4.129   1.837
 5310TIP3   OH215935   3.949   5.409   0.791
 5310TIP3    H115936   3.903   5.493   0.793
 5310TIP3    H215937   3.954   5.386   0.699
 5311TIP3   OH215938   2.566   4.513   1.854
 5311TIP3    H115939   2.470   4.505   1.852
 5311TIP3    H215940   2.597   4.428   1.823
 5312TIP3   OH215941   5.103   4.769   1.448
 5312TIP3    H115942   5.157   4.810   1.381
 5312TIP3    H215943   5.082   4.682   1.413
 5313TIP3   OH215944   2.700   5.616   4.454
 5313TIP3    H115945   2.749   5.686   4.496
 5313TIP3    H215946   2.636   5.589   4.519
 5314TIP3   OH215947   5.397   4.033   2.677
 5314TIP3    H115948   5.339   4.109   2.670
 5314TIP3    H215949   5.401   4.016   2.771
 5315TIP3   OH215950   4.968   5.467   4.576
 5315TIP3    H115951   5.003   5.414   4.648
 5315TIP3    H215952   4.901   5.412   4.536
 5316TIP3   OH215953   2.218   4.277   4.551
 5316TIP3    H115954   2.142   4.222   4.532
 5316TIP3    H215955   2.293   4.223   4.527
 5317TIP3   OH215956   2.681   4.368   0.173
 5317TIP3    H115957   2.630   4.392   0.250
 5317TIP3    H215958   2.765   4.413   0.185
 5318TIP3   OH215959   4.410   1.221   1.304
 5318TIP3    H115960   4.325   1.264   1.303
 5318TIP3    H215961   4.402   1.151   1.239
 5319TIP3   OH215962   0.046   2.256   4.947
 5319TIP3    H115963   0.121   2.268   5.005
 5319TIP3    H215964   0.083   2.258   4.859
 5320TIP3   OH215965   1.567   4.737   3.521
 5320TIP3    H115966   1.525   4.823   3.521
 5320TIP3    H215967   1.655   4.753   3.485
 5321TIP3   OH215968   2.476   1.319   3.151
 5321TIP3    H115969   2.406   1.384   3.144
 5321TIP3    H215970   2.451   1.249   3.090
 5322TIP3   OH215971   3.736   2.061   3.503
 5322TIP3    H115972   3.664   2.090   3.559
 5322TIP3    H215973   3.808   2.046   3.564
 5323TIP3   OH215974   3.951   5.093   0.217
 5323TIP3    H115975   3.938   5.001   0.241
 5323TIP3    H215976   3.862   5.125   0.201
 5324TIP3   OH215977   1.963   5.142   1.059
 5324TIP3    H115978   1.982   5.132   0.966
 5324TIP3    H215979   1.917   5.061   1.083
 5325TIP3   OH215980   2.553   0.679   3.925
 5325TIP3    H115981   2.555   0.587   3.901
 5325TIP3    H215982   2.463   0.707   3.907
 5326TIP3   OH215983   2.403   2.817   1.817
 5326TIP3    H115984   2.316   2.833   1.782
 5326TIP3    H215985   2.430   2.734   1.777
 5327TIP3   OH215986   5.796   2.999   2.711
 5327TIP3    H115987   5.820   2.919   2.665
 5327TIP3    H215988   5.794   3.066   2.643
 5328TIP3   OH215989   2.623   1.709   4.022
 5328TIP3    H115990   2.668   1.678   4.100
 5328TIP3    H215991   2.544   1.752   4.055
 5329TIP3   OH215992   4.669   0.603   3.926
 5329TIP3    H115993   4.698   0.685   3.886
 5329TIP3    H215994   4.598   0.573   3.869
 5330TIP3   OH215995   0.446   4.801   1.067
 5330TIP3    H115996   0.386   4.805   1.142
 5330TIP3    H215997   0.418   4.873   1.010
 5331TIP3   OH215998   3.319   4.970   4.645
 5331TIP3    H115999   3.402   4.934   4.678
 5331TIP3    H216000   3.253   4.908   4.676
 5332TIP3   OH216001   1.694   1.284   1.134
 5332TIP3    H116002   1.678   1.217   1.201
 5332TIP3    H216003   1.725   1.234   1.058
 5333TIP3   OH216004   4.181   5.542   4.166
 5333TIP3    H116005   4.221   5.592   4.095
 5333TIP3    H216006   4.198   5.450   4.143
 5334TIP3   OH216007   2.444   2.075   4.648
 5334TIP3    H116008   2.375   2.137   4.674
 5334TIP3    H216009   2.398   1.992   4.636
 5335TIP3   OH216010   3.045   3.757   2.940
 5335TIP3    H116011   3.006   3.739   3.026
 5335TIP3    H216012   3.046   3.853   2.935
 5336TIP3   OH216013   0.498   1.971   2.891
 5336TIP3    H116014   0.528   1.970   2.982
 5336TIP3    H216015   0.443   1.893   2.884
 5337TIP3   OH216016   4.570   4.537   0.442
 5337TIP3    H116017   4.475   4.525   0.434
 5337TIP3    H216018   4.594   4.592   0.367
 5338TIP3   OH216019   2.320   0.281   1.537
 5338TIP3    H116020   2.412   0.262   1.556
 5338TIP3    H216021   2.308   0.253   1.446
 5339TIP3   OH216022   1.005   1.232   2.998
 5339TIP3    H116023   0.985   1.144   2.967
 5339TIP3    H216024   0.923   1.262   3.039
 5340TIP3   OH216025   3.779   0.953   1.713
 5340TIP3    H116026   3.865   0.982   1.683
 5340TIP3    H216027   3.763   0.872   1.663
 5341TIP3   OH216028   3.005   3.572   3.204
 5341TIP3    H116029   3.099   3.566   3.221
 5341TIP3    H216030   2.967   3.506   3.261
 5342TIP3   OH216031   4.062   0.653   0.992
 5342TIP3    H116032   4.095   0.728   0.942
 5342TIP3    H216033   3.994   0.615   0.938
 5343TIP3   OH216034   3.726   4.670   1.941
 5343TIP3    H116035   3.714   4.607   1.870
 5343TIP3    H216036   3.660   4.737   1.925
 5344TIP3   OH216037   3.976   2.183   4.432
 5344TIP3    H116038   4.043   2.249   4.452
 5344TIP3    H216039   4.023   2.100   4.436
 5345TIP3   OH216040   3.263   2.279   3.138
 5345TIP3    H116041   3.174   2.307   3.158
 5345TIP3    H216042   3.289   2.224   3.211
 5346TIP3   OH216043   1.047   5.875   2.070
 5346TIP3    H116044   1.098   5.859   2.150
 5346TIP3    H216045   1.072   5.805   2.011
 5347TIP3   OH216046   2.084   1.072   4.783
 5347TIP3    H116047   2.032   1.077   4.864
 5347TIP3    H216048   2.029   1.114   4.717
 5348TIP3   OH216049   1.252   3.076   2.557
 5348TIP3    H116050   1.309   3.100   2.631
 5348TIP3    H216051   1.305   3.017   2.504
 5349TIP3   OH216052   0.406   1.544   3.160
 5349TIP3    H116053   0.442   1.478   3.219
 5349TIP3    H216054   0.316   1.557   3.191
 5350TIP3   OH216055   4.626   1.054   0.942
 5350TIP3    H116056   4.696   1.100   0.989
 5350TIP3    H216057   4.665   1.031   0.858
 5351TIP3   OH216058   2.331   5.713   4.695
 5351TIP3    H116059   2.282   5.726   4.776
 5351TIP3    H216060   2.303   5.785   4.638
 5352TIP3   OH216061   1.634   4.733   0.231
 5352TIP3    H116062   1.727   4.720   0.249
 5352TIP3    H216063   1.633   4.791   0.155
 5353TIP3   OH216064   4.229   0.095   0.197
 5353TIP3    H116065   4.218   0.186   0.225
 5353TIP3    H216066   4.302   0.062   0.250
 5354TIP3   OH216067   4.368   0.005   2.135
 5354TIP3    H116068   4.432   0.004   2.206
 5354TIP3    H216069   4.284  -0.006   2.178
 5355TIP3   OH216070   6.121   3.252   0.505
 5355TIP3    H116071   6.210   3.247   0.540
 5355TIP3    H216072   6.075   3.309   0.566
 5356TIP3   OH216073   2.428   1.309   0.724
 5356TIP3    H116074   2.403   1.260   0.645
 5356TIP3    H216075   2.503   1.261   0.759
 5357TIP3   OH216076   3.195   0.815   3.767
 5357TIP3    H116077   3.126   0.802   3.832
 5357TIP3    H216078   3.271   0.770   3.804
 5358TIP3   OH216079   4.000   1.592   5.063
 5358TIP3    H116080   3.952   1.556   5.138
 5358TIP3    H216081   4.022   1.515   5.010
 5359TIP3   OH216082   4.500   1.663   2.085
 5359TIP3    H116083   4.417   1.616   2.098
 5359TIP3    H216084   4.553   1.602   2.033
 5360TIP3   OH216085   3.999   0.848   1.556
 5360TIP3    H116086   4.033   0.759   1.550
 5360TIP3    H216087   4.056   0.892   1.619
 5361TIP3   OH216088   2.805   3.342   3.948
 5361TIP3    H116089   2.808   3.408   3.879
 5361TIP3    H216090   2.877   3.364   4.006
 5362TIP3   OH216091   3.247   0.916   5.065
 5362TIP3    H116092   3.171   0.935   5.011
 5362TIP3    H216093   3.308   0.987   5.047
 5363TIP3   OH216094   1.067   0.070   0.028
 5363TIP3    H116095   1.052   0.157  -0.009
 5363TIP3    H216096   1.000   0.015  -0.013
 5364TIP3   OH216097   2.915   3.528   1.095
 5364TIP3    H116098   3.000   3.568   1.114
 5364TIP3    H216099   2.937   3.445   1.051
 5365TIP3   OH216100   5.698   2.814   0.879
 5365TIP3    H116101   5.759   2.812   0.804
 5365TIP3    H216102   5.629   2.874   0.852
 5366TIP3   OH216103   0.331   2.591   1.826
 5366TIP3    H116104   0.371   2.554   1.904
 5366TIP3    H216105   0.388   2.664   1.801
 5367TIP3   OH216106   5.107   3.730   2.317
 5367TIP3    H116107   5.181   3.768   2.365
 5367TIP3    H216108   5.118   3.636   2.328
 5368TIP3   OH216109   4.603   3.691   4.040
 5368TIP3    H116110   4.540   3.724   3.976
 5368TIP3    H216111   4.608   3.597   4.023
 5369TIP3   OH216112   0.170   3.324   4.270
 5369TIP3    H116113   0.241   3.377   4.306
 5369TIP3    H216114   0.155   3.362   4.183
 5370TIP3   OH216115   2.160   4.591   2.001
 5370TIP3    H116116   2.086   4.648   2.023
 5370TIP3    H216117   2.233   4.651   1.988
 5371TIP3   OH216118   2.453   3.418   1.866
 5371TIP3    H116119   2.460   3.329   1.902
 5371TIP3    H216120   2.383   3.459   1.917
 5372TIP3   OH216121   1.890   2.926   3.888
 5372TIP3    H116122   1.919   2.972   3.809
 5372TIP3    H216123   1.933   2.972   3.960
 5373TIP3   OH216124   1.968   1.307   1.403
 5373TIP3    H116125   1.964   1.215   1.432
 5373TIP3    H216126   1.979   1.357   1.484
 5374TIP3   OH216127   6.277   4.859   4.965
 5374TIP3    H116128   6.334   4.926   5.003
 5374TIP3    H216129   6.219   4.907   4.906
 5375TIP3   OH216130   4.781   1.283   4.467
 5375TIP3    H116131   4.812   1.369   4.494
 5375TIP3    H216132   4.820   1.270   4.380
 5376TIP3   OH216133   2.597   5.342   0.910
 5376TIP3    H116134   2.656   5.382   0.974
 5376TIP3    H216135   2.611   5.392   0.830
 5377TIP3   OH216136   4.716   3.972   3.175
 5377TIP3    H116137   4.715   3.880   3.146
 5377TIP3    H216138   4.712   3.967   3.271
 5378TIP3   OH216139   4.754   2.919   3.955
 5378TIP3    H116140   4.803   2.844   3.988
 5378TIP3    H216141   4.685   2.881   3.900
 5379TIP3   OH216142   5.173   5.465   1.260
 5379TIP3    H116143   5.214   5.545   1.293
 5379TIP3    H216144   5.243   5.399   1.262
 5380TIP3   OH216145   4.285   4.004   0.346
 5380TIP3    H116146   4.345   3.955   0.403
 5380TIP3    H216147   4.236   3.936   0.299
 5381TIP3   OH216148   3.808   3.576   2.744
 5381TIP3    H116149   3.882   3.515   2.739
 5381TIP3    H216150   3.732   3.520   2.757
 5382TIP3   OH216151   1.253   1.327   4.470
 5382TIP3    H116152   1.320   1.396   4.468
 5382TIP3    H216153   1.295   1.253   4.426
 5383TIP3   OH216154   0.934   5.694   1.232
 5383TIP3    H116155   0.905   5.783   1.253
 5383TIP3    H216156   0.946   5.652   1.317
 5384TIP3   OH216157   4.942   2.721   4.003
 5384TIP3    H116158   4.885   2.652   4.035
 5384TIP3    H216159   5.031   2.687   4.016
 5385TIP3   OH216160   3.130   4.875   1.306
 5385TIP3    H116161   3.162   4.865   1.216
 5385TIP3    H216162   3.148   4.966   1.328
 5386TIP3   OH216163   4.336   5.866   0.231
 5386TIP3    H116164   4.259   5.907   0.271
 5386TIP3    H216165   4.345   5.783   0.278
 5387TIP3   OH216166   2.311   0.563   3.753
 5387TIP3    H116167   2.304   0.569   3.657
 5387TIP3    H216168   2.239   0.617   3.785
 5388TIP3   OH216169   3.119   0.030   3.430
 5388TIP3    H116170   3.089   0.001   3.343
 5388TIP3    H216171   3.191   0.090   3.411
 5389TIP3   OH216172   0.170   2.351   3.731
 5389TIP3    H116173   0.091   2.312   3.694
 5389TIP3    H216174   0.213   2.280   3.776
 5390TIP3   OH216175   3.562   4.592   2.205
 5390TIP3    H116176   3.528   4.609   2.293
 5390TIP3    H216177   3.656   4.586   2.217
 5391TIP3   OH216178   2.957   2.304   4.617
 5391TIP3    H116179   2.906   2.226   4.638
 5391TIP3    H216180   2.918   2.336   4.535
 5392TIP3   OH216181   3.264   3.144   3.737
 5392TIP3    H116182   3.202   3.179   3.801
 5392TIP3    H216183   3.213   3.086   3.682
 5393TIP3   OH216184   1.010   3.468   3.554
 5393TIP3    H116185   0.939   3.409   3.530
 5393TIP3    H216186   0.975   3.520   3.627
 5394TIP3   OH216187   2.436   1.410   3.874
 5394TIP3    H116188   2.391   1.478   3.925
 5394TIP3    H216189   2.527   1.415   3.902
 5395TIP3   OH216190   0.082   3.503   0.819
 5395TIP3    H116191   0.082   3.597   0.802
 5395TIP3    H216192   0.010   3.490   0.879
 5396TIP3   OH216193   3.983   0.291   1.484
 5396TIP3    H116194   3.974   0.295   1.388
 5396TIP3    H216195   4.056   0.232   1.499
 5397TIP3   OH216196   0.565   4.522   2.415
 5397TIP3    H116197   0.591   4.595   2.359
 5397TIP3    H216198   0.614   4.535   2.496
 5398TIP3   OH216199   4.415   0.382   2.449
 5398TIP3    H116200   4.368   0.310   2.491
 5398TIP3    H216201   4.368   0.397   2.367
 5399TIP3   OH216202   1.926   1.067   1.013
 5399TIP3    H116203   1.969   1.152   1.021
 5399TIP3    H216204   1.941   1.024   1.097
 5400TIP3   OH216205   4.305   2.579   1.746
 5400TIP3    H116206   4.376   2.607   1.688
 5400TIP3    H216207   4.274   2.661   1.786
 5401TIP3   OH216208   0.646   5.541   4.699
 5401TIP3    H116209   0.657   5.468   4.760
 5401TIP3    H216210   0.673   5.618   4.749
 5402TIP3   OH216211   1.277   2.650   2.752
 5402TIP3    H116212   1.310   2.728   2.797
 5402TIP3    H216213   1.331   2.644   2.673
 5403TIP3   OH216214   2.106   2.162   2.022
 5403TIP3    H116215   2.031   2.186   1.967
 5403TIP3    H216216   2.101   2.067   2.029
 5404TIP3   OH216217   1.826   0.826   0.569
 5404TIP3    H116218   1.804   0.851   0.659
 5404TIP3    H216219   1.849   0.733   0.575
 5405TIP3   OH216220   5.794   5.485   0.398
 5405TIP3    H116221   5.739   5.559   0.423
 5405TIP3    H216222   5.808   5.497   0.304
 5406TIP3   OH216223   5.754   0.452   1.029
 5406TIP3    H116224   5.702   0.525   0.996
 5406TIP3    H216225   5.821   0.493   1.083
 5407TIP3   OH216226   6.174   4.688   1.108
 5407TIP3    H116227   6.097   4.633   1.126
 5407TIP3    H216228   6.160   4.766   1.162
 5408TIP3   OH216229   4.070   3.933   1.032
 5408TIP3    H116230   4.037   3.983   0.957
 5408TIP3    H216231   4.138   3.988   1.069
 5409TIP3   OH216232   3.002   1.247   3.480
 5409TIP3    H116233   2.984   1.340   3.463
 5409TIP3    H216234   3.028   1.244   3.571
 5410TIP3   OH216235   4.918   5.395   1.338
 5410TIP3    H116236   4.885   5.482   1.358
 5410TIP3    H216237   5.000   5.410   1.291
 5411TIP3   OH216238   3.014   0.320   0.383
 5411TIP3    H116239   3.081   0.251   0.395
 5411TIP3    H216240   2.946   0.278   0.331
 5412TIP3   OH216241   3.350   2.876   2.812
 5412TIP3    H116242   3.381   2.920   2.891
 5412TIP3    H216243   3.421   2.817   2.787
 5413TIP3   OH216244   3.018   5.304   2.685
 5413TIP3    H116245   3.108   5.286   2.712
 5413TIP3    H216246   3.001   5.239   2.616
 5414TIP3   OH216247   0.998   3.517   1.154
 5414TIP3    H116248   0.976   3.609   1.139
 5414TIP3    H216249   1.021   3.484   1.067
 5415TIP3   OH216250   3.091   0.513   0.194
 5415TIP3    H116251   3.044   0.595   0.211
 5415TIP3    H216252   3.053   0.451   0.255
 5416TIP3   OH216253   2.253   5.130   1.086
 5416TIP3    H116254   2.301   5.053   1.056
 5416TIP3    H216255   2.198   5.098   1.157
 5417TIP3   OH216256   3.811   2.529   4.312
 5417TIP3    H116257   3.814   2.438   4.284
 5417TIP3    H216258   3.894   2.544   4.356
 5418TIP3   OH216259   3.277   3.013   4.923
 5418TIP3    H116260   3.289   3.079   4.992
 5418TIP3    H216261   3.296   3.061   4.842
 5419TIP3   OH216262   5.915   5.586   2.524
 5419TIP3    H116263   5.997   5.635   2.521
 5419TIP3    H216264   5.847   5.654   2.529
 5420TIP3   OH216265   2.676   1.045   2.678
 5420TIP3    H116266   2.596   1.007   2.641
 5420TIP3    H216267   2.673   1.137   2.652
 5421TIP3   OH216268   2.163   2.611   0.492
 5421TIP3    H116269   2.246   2.563   0.485
 5421TIP3    H216270   2.185   2.699   0.461
 5422TIP3   OH216271   4.920   1.750   3.840
 5422TIP3    H116272   4.931   1.845   3.839
 5422TIP3    H216273   4.863   1.733   3.765
 5423TIP3   OH216274   1.832   4.724   3.918
 5423TIP3    H116275   1.886   4.697   3.844
 5423TIP3    H216276   1.868   4.808   3.945
 5424TIP3   OH216277   0.383   0.526   3.173
 5424TIP3    H116278   0.429   0.448   3.204
 5424TIP3    H216279   0.294   0.517   3.208
 5425TIP3   OH216280   2.732   0.586   0.494
 5425TIP3    H116281   2.725   0.640   0.415
 5425TIP3    H216282   2.826   0.577   0.508
 5426TIP3   OH216283   5.497   5.714   3.639
 5426TIP3    H116284   5.416   5.684   3.599
 5426TIP3    H216285   5.516   5.647   3.706
 5427TIP3   OH216286   0.330   2.739   3.160
 5427TIP3    H116287   0.303   2.805   3.095
 5427TIP3    H216288   0.424   2.728   3.144
 5428TIP3   OH216289   2.159   2.977   1.484
 5428TIP3    H116290   2.151   2.919   1.408
 5428TIP3    H216291   2.081   3.032   1.480
 5429TIP3   OH216292   1.216   2.519   3.880
 5429TIP3    H116293   1.129   2.553   3.901
 5429TIP3    H216294   1.218   2.517   3.784
 5430TIP3   OH216295   0.841   5.759   3.772
 5430TIP3    H116296   0.759   5.805   3.756
 5430TIP3    H216297   0.871   5.730   3.686
 5431TIP3   OH216298   3.444   4.055   1.410
 5431TIP3    H116299   3.387   4.099   1.347
 5431TIP3    H216300   3.384   4.009   1.469
 5432TIP3   OH216301   4.762  -0.001   1.776
 5432TIP3    H116302   4.707   0.059   1.826
 5432TIP3    H216303   4.801   0.053   1.707
 5433TIP3   OH216304   3.928   1.202   5.103
 5433TIP3    H116305   3.993   1.207   5.032
 5433TIP3    H216306   3.878   1.283   5.096
 5434TIP3   OH216307   5.402   0.541   2.964
 5434TIP3    H116308   5.324   0.514   2.915
 5434TIP3    H216309   5.377   0.625   3.003
 5435TIP3   OH216310   4.297   0.863   4.277
 5435TIP3    H116311   4.336   0.805   4.343
 5435TIP3    H216312   4.217   0.818   4.249
 5436TIP3   OH216313   3.244   4.056   0.158
 5436TIP3    H116314   3.156   4.054   0.121
 5436TIP3    H216315   3.241   4.127   0.222
 5437TIP3   OH216316   0.877   2.763   2.864
 5437TIP3    H116317   0.793   2.717   2.861
 5437TIP3    H216318   0.855   2.854   2.848
 5438TIP3   OH216319   5.890   3.463   4.259
 5438TIP3    H116320   5.885   3.368   4.274
 5438TIP3    H216321   5.812   3.498   4.300
 5439TIP3   OH216322   4.748   3.506   2.782
 5439TIP3    H116323   4.692   3.482   2.856
 5439TIP3    H216324   4.836   3.509   2.819
 5440TIP3   OH216325   1.594   0.854   3.105
 5440TIP3    H116326   1.545   0.879   3.026
 5440TIP3    H216327   1.597   0.758   3.101
 5441TIP3   OH216328   0.941   3.066   0.966
 5441TIP3    H116329   0.971   2.989   1.013
 5441TIP3    H216330   0.880   3.110   1.026
 5442TIP3   OH216331   1.517   5.653   5.155
 5442TIP3    H116332   1.478   5.594   5.220
 5442TIP3    H216333   1.447   5.713   5.132
 5443TIP3   OH216334   2.901   5.007   0.116
 5443TIP3    H116335   2.876   5.098   0.101
 5443TIP3    H216336   2.970   5.012   0.183
 5444TIP3   OH216337   0.820   3.659   1.961
 5444TIP3    H116338   0.772   3.633   2.040
 5444TIP3    H216339   0.904   3.615   1.968
 5445TIP3   OH216340   3.974   3.195   3.562
 5445TIP3    H116341   4.039   3.178   3.630
 5445TIP3    H216342   3.892   3.161   3.598
 5446TIP3   OH216343   4.868   2.701   4.591
 5446TIP3    H116344   4.819   2.713   4.672
 5446TIP3    H216345   4.936   2.637   4.613
 5447TIP3   OH216346   1.751   3.203   3.914
 5447TIP3    H116347   1.684   3.178   3.850
 5447TIP3    H216348   1.757   3.298   3.905
 5448TIP3   OH216349   5.071   3.390   1.078
 5448TIP3    H116350   5.093   3.444   1.003
 5448TIP3    H216351   5.122   3.427   1.150
 5449TIP3   OH216352   5.482   3.426   4.545
 5449TIP3    H116353   5.451   3.448   4.457
 5449TIP3    H216354   5.434   3.485   4.603
 5450TIP3   OH216355   3.560   2.270   1.961
 5450TIP3    H116356   3.563   2.250   1.868
 5450TIP3    H216357   3.637   2.324   1.977
 5451TIP3   OH216358   1.630   0.197   1.297
 5451TIP3    H116359   1.674   0.124   1.341
 5451TIP3    H216360   1.636   0.270   1.360
 5452TIP3   OH216361   4.077   4.467   4.310
 5452TIP3    H116362   4.143   4.413   4.354
 5452TIP3    H216363   4.085   4.443   4.217
 5453TIP3   OH216364   1.898   5.898   2.885
 5453TIP3    H116365   1.887   5.949   2.965
 5453TIP3    H216366   1.820   5.843   2.880
 5454TIP3   OH216367   2.081   2.853   2.098
 5454TIP3    H116368   2.110   2.917   2.033
 5454TIP3    H216369   2.112   2.888   2.181
 5455TIP3   OH216370   0.586   1.817   4.676
 5455TIP3    H116371   0.638   1.897   4.678
 5455TIP3    H216372   0.637   1.757   4.622
 5456TIP3   OH216373   5.039   0.505   1.623
 5456TIP3    H116374   5.110   0.464   1.573
 5456TIP3    H216375   4.960   0.490   1.571
 5457TIP3   OH216376   1.336   2.960   1.440
 5457TIP3    H116377   1.254   3.005   1.420
 5457TIP3    H216378   1.347   2.972   1.534
 5458TIP3   OH216379   5.547   1.557   3.882
 5458TIP3    H116380   5.603   1.630   3.906
 5458TIP3    H216381   5.592   1.515   3.809
 5459TIP3   OH216382   4.135   5.485   1.098
 5459TIP3    H116383   4.210   5.483   1.158
 5459TIP3    H216384   4.158   5.423   1.029
 5460TIP3   OH216385   1.281   2.714   1.298
 5460TIP3    H116386   1.306   2.800   1.331
 5460TIP3    H216387   1.363   2.664   1.296
 5461TIP3   OH216388   4.671   3.093   2.100
 5461TIP3    H116389   4.686   3.037   2.176
 5461TIP3    H216390   4.610   3.160   2.131
 5462TIP3   OH216391   1.901   3.089   1.503
 5462TIP3    H116392   1.902   3.141   1.584
 5462TIP3    H216393   1.817   3.045   1.504
 5463TIP3   OH216394   5.337   0.728   1.349
 5463TIP3    H116395   5.360   0.750   1.259
 5463TIP3    H216396   5.245   0.702   1.344
 5464TIP3   OH216397   4.400   5.566   3.261
 5464TIP3    H116398   4.313   5.525   3.261
 5464TIP3    H216399   4.429   5.561   3.170
 5465TIP3   OH216400   5.634   5.514   4.292
 5465TIP3    H116401   5.709   5.509   4.233
 5465TIP3    H216402   5.643   5.437   4.348
 5466TIP3   OH216403   4.653   3.777   0.190
 5466TIP3    H116404   4.708   3.767   0.112
 5466TIP3    H216405   4.579   3.829   0.161
 5467TIP3   OH216406   5.297   0.984   0.229
 5467TIP3    H116407   5.267   0.968   0.318
 5467TIP3    H216408   5.342   1.068   0.233
 5468TIP3   OH216409   4.333   1.602   2.566
 5468TIP3    H116410   4.373   1.649   2.639
 5468TIP3    H216411   4.405   1.549   2.530
 5469TIP3   OH216412   1.303   3.519   0.962
 5469TIP3    H116413   1.347   3.541   1.044
 5469TIP3    H216414   1.256   3.599   0.938
 5470TIP3   OH216415   0.736   4.248   4.987
 5470TIP3    H116416   0.646   4.266   5.013
 5470TIP3    H216417   0.728   4.209   4.900
 5471TIP3   OH216418   0.248   3.347   3.132
 5471TIP3    H116419   0.169   3.375   3.086
 5471TIP3    H216420   0.236   3.254   3.147
 5472TIP3   OH216421   0.268   4.108   3.276
 5472TIP3    H116422   0.259   4.038   3.342
 5472TIP3    H216423   0.272   4.189   3.327
 5473TIP3   OH216424   3.638   4.408   1.365
 5473TIP3    H116425   3.586   4.479   1.327
 5473TIP3    H216426   3.711   4.396   1.304
 5474TIP3   OH216427   5.686   1.750   4.267
 5474TIP3    H116428   5.697   1.682   4.334
 5474TIP3    H216429   5.763   1.806   4.278
 5475TIP3   OH216430   2.461   3.036   0.040
 5475TIP3    H116431   2.530   3.100   0.024
 5475TIP3    H216432   2.490   2.989   0.118
 5476TIP3   OH216433   4.123   5.932   4.480
 5476TIP3    H116434   4.130   5.977   4.564
 5476TIP3    H216435   4.205   5.885   4.471
 5477TIP3   OH216436   0.904   0.383   4.684
 5477TIP3    H116437   0.859   0.326   4.623
 5477TIP3    H216438   0.940   0.453   4.630
 5478TIP3   OH216439   6.287   2.419   3.048
 5478TIP3    H116440   6.379   2.434   3.067
 5478TIP3    H216441   6.286   2.346   2.987
 5479TIP3   OH216442   3.575   1.434   2.555
 5479TIP3    H116443   3.565   1.369   2.624
 5479TIP3    H216444   3.502   1.416   2.495
 5480TIP3   OH216445   3.982   4.644   2.849
 5480TIP3    H116446   3.940   4.565   2.813
 5480TIP3    H216447   4.075   4.632   2.830
 5481TIP3   OH216448   6.109   5.412   3.524
 5481TIP3    H116449   6.197   5.414   3.485
 5481TIP3    H216450   6.064   5.341   3.478
 5482TIP3   OH216451   1.843   0.946   3.188
 5482TIP3    H116452   1.760   0.899   3.193
 5482TIP3    H216453   1.870   0.959   3.279
 5483TIP3   OH216454   2.974   0.525   2.989
 5483TIP3    H116455   2.959   0.601   2.933
 5483TIP3    H216456   2.895   0.472   2.978
 5484TIP3   OH216457   5.451   3.662   0.406
 5484TIP3    H116458   5.435   3.678   0.313
 5484TIP3    H216459   5.519   3.725   0.429
 5485TIP3   OH216460   2.209   3.531   1.730
 5485TIP3    H116461   2.261   3.455   1.704
 5485TIP3    H216462   2.167   3.560   1.649
 5486TIP3   OH216463   3.832   3.234   2.912
 5486TIP3    H116464   3.903   3.296   2.924
 5486TIP3    H216465   3.814   3.201   3.001
 5487TIP3   OH216466   1.309   3.028   0.927
 5487TIP3    H116467   1.400   3.039   0.900
 5487TIP3    H216468   1.314   2.983   1.011
 5488TIP3   OH216469   0.017   2.618   1.817
 5488TIP3    H116470   0.113   2.614   1.819
 5488TIP3    H216471  -0.008   2.565   1.742
 5489TIP3   OH216472   2.596   0.366   0.606
 5489TIP3    H116473   2.625   0.451   0.571
 5489TIP3    H216474   2.565   0.385   0.694
 5490TIP3   OH216475   4.460   1.360   2.891
 5490TIP3    H116476   4.518   1.372   2.815
 5490TIP3    H216477   4.377   1.399   2.864
 5491TIP3   OH216478   1.095   2.330   2.494
 5491TIP3    H116479   1.029   2.282   2.545
 5491TIP3    H216480   1.053   2.412   2.471
 5492TIP3   OH216481   1.065   2.642   4.559
 5492TIP3    H116482   0.982   2.690   4.557
 5492TIP3    H216483   1.131   2.709   4.573
 5493TIP3   OH216484   2.169   4.754   0.910
 5493TIP3    H116485   2.089   4.740   0.961
 5493TIP3    H216486   2.137   4.782   0.824
 5494TIP3   OH216487   3.022   2.944   1.743
 5494TIP3    H116488   2.938   2.955   1.788
 5494TIP3    H216489   3.022   3.013   1.676
 5495TIP3   OH216490   2.126   5.176   2.269
 5495TIP3    H116491   2.172   5.131   2.198
 5495TIP3    H216492   2.060   5.114   2.299
 5496TIP3   OH216493   5.617   2.783   0.507
 5496TIP3    H116494   5.686   2.849   0.508
 5496TIP3    H216495   5.655   2.707   0.549
 5497TIP3   OH216496   2.606   3.612   0.381
 5497TIP3    H116497   2.561   3.696   0.391
 5497TIP3    H216498   2.698   3.631   0.399
 5498TIP3   OH216499   1.250   1.913   1.470
 5498TIP3    H116500   1.287   1.827   1.487
 5498TIP3    H216501   1.215   1.908   1.382
 5499TIP3   OH216502   4.491   2.515   4.784
 5499TIP3    H116503   4.426   2.447   4.805
 5499TIP3    H216504   4.440   2.595   4.773
 5500TIP3   OH216505   5.399   1.066   1.115
 5500TIP3    H116506   5.322   1.015   1.137
 5500TIP3    H216507   5.473   1.010   1.140
 5501TIP3   OH216508   3.225   4.127   1.990
 5501TIP3    H116509   3.134   4.153   1.976
 5501TIP3    H216510   3.221   4.031   1.994
 5502TIP3   OH216511   2.041   4.165   2.506
 5502TIP3    H116512   2.115   4.162   2.568
 5502TIP3    H216513   2.030   4.258   2.488
 5503TIP3   OH216514   4.120   2.322   0.480
 5503TIP3    H116515   4.112   2.340   0.387
 5503TIP3    H216516   4.203   2.275   0.488
 5504TIP3   OH216517   4.450   1.117   4.707
 5504TIP3    H116518   4.381   1.180   4.688
 5504TIP3    H216519   4.510   1.164   4.764
 5505TIP3   OH216520   1.287   3.312   3.700
 5505TIP3    H116521   1.343   3.297   3.624
 5505TIP3    H216522   1.243   3.395   3.681
 5506TIP3   OH216523   5.967   2.050   4.496
 5506TIP3    H116524   6.032   2.015   4.557
 5506TIP3    H216525   5.883   2.019   4.530
 5507TIP3   OH216526   3.534   2.669   2.705
 5507TIP3    H116527   3.459   2.609   2.713
 5507TIP3    H216528   3.553   2.672   2.612
 5508TIP3   OH216529   6.320   2.874   1.107
 5508TIP3    H116530   6.361   2.836   1.030
 5508TIP3    H216531   6.234   2.834   1.111
 5509TIP3   OH216532   1.709   0.127   4.652
 5509TIP3    H116533   1.679   0.088   4.734
 5509TIP3    H216534   1.699   0.058   4.587
 5510TIP3   OH216535   1.352   3.732   3.021
 5510TIP3    H116536   1.274   3.735   2.966
 5510TIP3    H216537   1.353   3.643   3.057
 5511TIP3   OH216538   0.697   1.069   0.770
 5511TIP3    H116539   0.737   1.141   0.818
 5511TIP3    H216540   0.711   0.993   0.827
 5512TIP3   OH216541   1.808   4.602   4.285
 5512TIP3    H116542   1.785   4.549   4.208
 5512TIP3    H216543   1.892   4.642   4.262
 5513TIP3   OH216544   2.993   2.971   3.046
 5513TIP3    H116545   2.996   2.965   2.950
 5513TIP3    H216546   2.974   3.063   3.063
 5514TIP3   OH216547   2.565   2.652   4.169
 5514TIP3    H116548   2.496   2.602   4.213
 5514TIP3    H216549   2.647   2.611   4.197
 5515TIP3   OH216550   5.538   0.822   1.070
 5515TIP3    H116551   5.574   0.753   1.125
 5515TIP3    H216552   5.481   0.776   1.008
 5516TIP3   OH216553   5.571   5.970   0.545
 5516TIP3    H116554   5.654   5.999   0.581
 5516TIP3    H216555   5.588   5.881   0.514
 5517TIP3   OH216556   2.820   1.825   1.370
 5517TIP3    H116557   2.735   1.850   1.335
 5517TIP3    H216558   2.839   1.890   1.437
 5518TIP3   OH216559   3.885   0.220   3.876
 5518TIP3    H116560   3.816   0.214   3.810
 5518TIP3    H216561   3.934   0.138   3.866
 5519TIP3   OH216562   1.596   5.941   0.158
 5519TIP3    H116563   1.682   5.970   0.129
 5519TIP3    H216564   1.570   6.005   0.224
 5520TIP3   OH216565   6.179   3.121   3.569
 5520TIP3    H116566   6.113   3.134   3.501
 5520TIP3    H216567   6.232   3.048   3.536
 5521TIP3   OH216568   6.329   5.198   2.545
 5521TIP3    H116569   6.256   5.160   2.595
 5521TIP3    H216570   6.333   5.289   2.573
 5522TIP3   OH216571   0.853   4.271   2.120
 5522TIP3    H116572   0.870   4.188   2.163
 5522TIP3    H216573   0.913   4.272   2.045
 5523TIP3   OH216574   0.391   5.601   2.714
 5523TIP3    H116575   0.435   5.582   2.632
 5523TIP3    H216576   0.377   5.516   2.755
 5524TIP3   OH216577   3.159   4.838   2.023
 5524TIP3    H116578   3.236   4.795   1.986
 5524TIP3    H216579   3.145   4.793   2.107
 5525TIP3   OH216580   5.262   5.223   4.193
 5525TIP3    H116581   5.285   5.295   4.134
 5525TIP3    H216582   5.311   5.148   4.159
 5526TIP3   OH216583   6.156   2.456   0.892
 5526TIP3    H116584   6.191   2.389   0.952
 5526TIP3    H216585   6.162   2.537   0.943
 5527TIP3   OH216586   3.886   3.341   0.133
 5527TIP3    H116587   3.848   3.254   0.147
 5527TIP3    H216588   3.973   3.336   0.173
 5528TIP3   OH216589   0.181   0.393   3.492
 5528TIP3    H116590   0.275   0.392   3.513
 5528TIP3    H216591   0.140   0.359   3.572
 5529TIP3   OH216592   3.900   2.487   2.780
 5529TIP3    H116593   3.848   2.408   2.767
 5529TIP3    H216594   3.978   2.473   2.727
 5530TIP3   OH216595   1.083   4.741   2.314
 5530TIP3    H116596   1.003   4.693   2.291
 5530TIP3    H216597   1.138   4.677   2.358
 5531TIP3   OH216598   2.543   3.551   4.872
 5531TIP3    H116599   2.574   3.603   4.946
 5531TIP3    H216600   2.589   3.467   4.881
 5532TIP3   OH216601   3.808   5.656   4.298
 5532TIP3    H116602   3.874   5.633   4.233
 5532TIP3    H216603   3.798   5.750   4.290
 5533TIP3   OH216604   3.654   5.397   0.127
 5533TIP3    H116605   3.597   5.337   0.080
 5533TIP3    H216606   3.650   5.367   0.218
 5534TIP3   OH216607   4.098   3.693   2.637
 5534TIP3    H116608   4.067   3.779   2.611
 5534TIP3    H216609   4.184   3.709   2.676
 5535TIP3   OH216610   4.059   5.053   0.464
 5535TIP3    H116611   3.972   5.042   0.425
 5535TIP3    H216612   4.098   5.126   0.416
 5536TIP3   OH216613   3.955   3.233   2.224
 5536TIP3    H116614   4.003   3.240   2.141
 5536TIP3    H216615   3.944   3.139   2.237
 5537TIP3   OH216616   1.401   5.675   0.355
 5537TIP3    H116617   1.450   5.594   0.373
 5537TIP3    H216618   1.431   5.737   0.422
 5538TIP3   OH216619   3.776   2.730   2.840
 5538TIP3    H116620   3.700   2.736   2.782
 5538TIP3    H216621   3.818   2.647   2.816
 5539TIP3   OH216622   4.619   3.574   0.398
 5539TIP3    H116623   4.705   3.548   0.431
 5539TIP3    H216624   4.638   3.647   0.338
 5540TIP3   OH216625   1.653   0.316   4.925
 5540TIP3    H116626   1.722   0.354   4.870
 5540TIP3    H216627   1.589   0.385   4.935
 5541TIP3   OH216628   0.346   0.810   1.545
 5541TIP3    H116629   0.392   0.851   1.471
 5541TIP3    H216630   0.254   0.810   1.518
 5542TIP3   OH216631   4.203   2.806   1.867
 5542TIP3    H116632   4.141   2.875   1.842
 5542TIP3    H216633   4.259   2.847   1.932
 5543TIP3   OH216634   5.650   2.915   1.937
 5543TIP3    H116635   5.709   2.841   1.954
 5543TIP3    H216636   5.635   2.954   2.023
 5544TIP3   OH216637   3.718   0.246   2.701
 5544TIP3    H116638   3.773   0.206   2.633
 5544TIP3    H216639   3.644   0.284   2.653
 5545TIP3   OH216640   0.955   4.256   5.154
 5545TIP3    H116641   1.007   4.320   5.105
 5545TIP3    H216642   0.869   4.256   5.110
 5546TIP3   OH216643   2.068   3.810   0.005
 5546TIP3    H116644   2.083   3.808   0.099
 5546TIP3    H216645   1.990   3.755  -0.008
 5547TIP3   OH216646   0.093   2.294   4.369
 5547TIP3    H116647   0.164   2.234   4.344
 5547TIP3    H216648   0.017   2.263   4.320
 5548TIP3   OH216649   1.735   2.263   0.023
 5548TIP3    H116650   1.754   2.179   0.063
 5548TIP3    H216651   1.787   2.264  -0.058
 5549TIP3   OH216652   2.948   2.663   0.268
 5549TIP3    H116653   2.900   2.744   0.251
 5549TIP3    H216654   2.891   2.594   0.233
 5550TIP3   OH216655   1.499   2.693   0.718
 5550TIP3    H116656   1.517   2.782   0.687
 5550TIP3    H216657   1.520   2.695   0.811
 5551TIP3   OH216658   1.236   4.349   3.615
 5551TIP3    H116659   1.215   4.432   3.658
 5551TIP3    H216660   1.240   4.285   3.685
 5552TIP3   OH216661   1.024   4.562   0.425
 5552TIP3    H116662   0.980   4.606   0.498
 5552TIP3    H216663   1.069   4.488   0.466
 5553TIP3   OH216664   4.620   3.140   4.670
 5553TIP3    H116665   4.564   3.154   4.593
 5553TIP3    H216666   4.572   3.077   4.724
 5554TIP3   OH216667   5.305   5.939   4.724
 5554TIP3    H116668   5.363   5.972   4.793
 5554TIP3    H216669   5.217   5.949   4.759
 5555TIP3   OH216670   3.069   5.871   0.359
 5555TIP3    H116671   2.979   5.853   0.386
 5555TIP3    H216672   3.061   5.946   0.300
 5556TIP3   OH216673   5.370   3.856   3.136
 5556TIP3    H116674   5.439   3.807   3.180
 5556TIP3    H216675   5.356   3.808   3.054
 5557TIP3   OH216676   3.659   0.093   3.388
 5557TIP3    H116677   3.573   0.070   3.352
 5557TIP3    H216678   3.703   0.139   3.317
 5558TIP3   OH216679   3.706   5.066   2.051
 5558TIP3    H116680   3.788   5.021   2.033
 5558TIP3    H216681   3.661   5.068   1.967
 5559TIP3   OH216682   4.428   2.535   0.201
 5559TIP3    H116683   4.470   2.493   0.276
 5559TIP3    H216684   4.464   2.489   0.125
 5560TIP3   OH216685   3.869   5.941   0.023
 5560TIP3    H116686   3.836   6.024  -0.010
 5560TIP3    H216687   3.810   5.918   0.095
 5561TIP3   OH216688   0.139   2.598   3.883
 5561TIP3    H116689   0.053   2.636   3.870
 5561TIP3    H216690   0.129   2.506   3.859
 5562TIP3   OH216691   5.153   4.848   3.791
 5562TIP3    H116692   5.136   4.889   3.706
 5562TIP3    H216693   5.218   4.780   3.772
 5563TIP3   OH216694   3.250   2.368   5.107
 5563TIP3    H116695   3.215   2.303   5.045
 5563TIP3    H216696   3.182   2.376   5.174
 5564TIP3   OH216697   4.060   5.197   2.056
 5564TIP3    H116698   4.037   5.104   2.057
 5564TIP3    H216699   3.977   5.242   2.073
 5565TIP3   OH216700   1.065   0.340   2.298
 5565TIP3    H116701   1.151   0.375   2.321
 5565TIP3    H216702   1.003   0.400   2.338
 5566TIP3   OH216703   3.567   5.829   4.377
 5566TIP3    H116704   3.511   5.760   4.412
 5566TIP3    H216705   3.537   5.908   4.422
 5567TIP3   OH216706   2.651   0.861   2.907
 5567TIP3    H116707   2.595   0.913   2.965
 5567TIP3    H216708   2.646   0.906   2.823
 5568TIP3   OH216709   3.682   2.258   0.151
 5568TIP3    H116710   3.715   2.306   0.227
 5568TIP3    H216711   3.730   2.296   0.077
 5569TIP3   OH216712   6.246   2.833   1.967
 5569TIP3    H116713   6.242   2.913   1.914
 5569TIP3    H216714   6.291   2.770   1.911
 5570TIP3   OH216715   5.067   3.803   1.048
 5570TIP3    H116716   5.033   3.761   1.128
 5570TIP3    H216717   5.145   3.751   1.026
 5571TIP3   OH216718   2.194   0.999   4.085
 5571TIP3    H116719   2.172   1.045   4.003
 5571TIP3    H216720   2.121   1.018   4.143
 5572TIP3   OH216721   5.352   1.794   0.986
 5572TIP3    H116722   5.432   1.746   1.006
 5572TIP3    H216723   5.308   1.805   1.071
 5573TIP3   OH216724   5.373   1.689   1.781
 5573TIP3    H116725   5.448   1.659   1.832
 5573TIP3    H216726   5.324   1.610   1.760
 5574TIP3   OH216727   1.485   4.063   3.043
 5574TIP3    H116728   1.515   4.081   2.953
 5574TIP3    H216729   1.390   4.061   3.037
 5575TIP3   OH216730   3.790   4.150   0.994
 5575TIP3    H116731   3.764   4.058   0.989
 5575TIP3    H216732   3.781   4.172   1.087
 5576TIP3   OH216733   0.530   2.310   3.008
 5576TIP3    H116734   0.560   2.219   3.015
 5576TIP3    H216735   0.436   2.306   3.027
 5577TIP3   OH216736   0.138   0.657   3.428
 5577TIP3    H116737   0.148   0.570   3.466
 5577TIP3    H216738   0.123   0.640   3.335
 5578TIP3   OH216739   2.363   3.365   0.102
 5578TIP3    H116740   2.334   3.410   0.023
 5578TIP3    H216741   2.452   3.337   0.082
 5579TIP3   OH216742   6.161   4.782   0.244
 5579TIP3    H116743   6.229   4.718   0.223
 5579TIP3    H216744   6.205   4.845   0.300
 5580TIP3   OH216745   0.310   3.562   4.183
 5580TIP3    H116746   0.333   3.553   4.091
 5580TIP3    H216747   0.215   3.551   4.185
 5581TIP3   OH216748   5.135   2.658   3.631
 5581TIP3    H116749   5.056   2.609   3.654
 5581TIP3    H216750   5.204   2.618   3.683
 5582TIP3   OH216751   1.927   0.822   2.971
 5582TIP3    H116752   1.851   0.824   2.914
 5582TIP3    H216753   1.904   0.878   3.045
 5583TIP3   OH216754   5.715   3.275   4.984
 5583TIP3    H116755   5.808   3.252   4.978
 5583TIP3    H216756   5.686   3.280   4.893
 5584TIP3   OH216757   5.807   5.689   2.143
 5584TIP3    H116758   5.761   5.620   2.094
 5584TIP3    H216759   5.766   5.687   2.230
 5585TIP3   OH216760   3.745   1.357   3.696
 5585TIP3    H116761   3.752   1.399   3.610
 5585TIP3    H216762   3.683   1.285   3.683
 5586TIP3   OH216763   1.796   3.133   4.501
 5586TIP3    H116764   1.742   3.062   4.468
 5586TIP3    H216765   1.764   3.211   4.455
 5587TIP3   OH216766   4.950   2.866   0.828
 5587TIP3    H116767   4.964   2.937   0.765
 5587TIP3    H216768   5.018   2.803   0.808
 5588TIP3   OH216769   1.000   0.820   1.736
 5588TIP3    H116770   1.004   0.877   1.812
 5588TIP3    H216771   1.092   0.800   1.716
 5589TIP3   OH216772   2.738   3.576   2.919
 5589TIP3    H116773   2.681   3.541   2.988
 5589TIP3    H216774   2.815   3.519   2.921
 5590TIP3   OH216775   4.257   1.937   0.332
 5590TIP3    H116776   4.225   1.998   0.266
 5590TIP3    H216777   4.349   1.922   0.310
 5591TIP3   OH216778   3.584   2.571   0.171
 5591TIP3    H116779   3.619   2.498   0.222
 5591TIP3    H216780   3.636   2.646   0.196
 5592TIP3   OH216781   1.712   3.914   3.101
 5592TIP3    H116782   1.684   3.829   3.066
 5592TIP3    H216783   1.644   3.975   3.071
 5593TIP3   OH216784   4.194   1.085   2.058
 5593TIP3    H116785   4.264   1.065   2.119
 5593TIP3    H216786   4.154   1.165   2.092
 5594TIP3   OH216787   1.889   3.454   4.650
 5594TIP3    H116788   1.928   3.501   4.577
 5594TIP3    H216789   1.942   3.374   4.658
 5595TIP3   OH216790   4.749   4.965   2.818
 5595TIP3    H116791   4.735   4.878   2.781
 5595TIP3    H216792   4.832   4.958   2.866
 5596TIP3   OH216793   4.796   2.108   4.379
 5596TIP3    H116794   4.824   2.025   4.339
 5596TIP3    H216795   4.743   2.151   4.312
 5597TIP3   OH216796   0.158   4.605   4.640
 5597TIP3    H116797   0.167   4.664   4.714
 5597TIP3    H216798   0.162   4.517   4.678
 5598TIP3   OH216799   3.654   4.920   4.467
 5598TIP3    H116800   3.647   4.837   4.513
 5598TIP3    H216801   3.709   4.974   4.524
 5599TIP3   OH216802   3.189   5.683   3.038
 5599TIP3    H116803   3.149   5.653   3.119
 5599TIP3    H216804   3.158   5.622   2.971
 5600TIP3   OH216805   2.023   3.148   0.104
 5600TIP3    H116806   2.007   3.128   0.012
 5600TIP3    H216807   1.975   3.080   0.152
 5601TIP3   OH216808   5.330   4.261   0.199
 5601TIP3    H116809   5.312   4.305   0.116
 5601TIP3    H216810   5.269   4.188   0.202
 5602TIP3   OH216811   3.892   4.036   3.833
 5602TIP3    H116812   3.970   3.985   3.810
 5602TIP3    H216813   3.840   3.978   3.887
 5603TIP3   OH216814   2.188   3.947   4.238
 5603TIP3    H116815   2.093   3.944   4.224
 5603TIP3    H216816   2.219   3.860   4.214
 5604TIP3   OH216817   3.088   5.605   1.323
 5604TIP3    H116818   3.168   5.649   1.349
 5604TIP3    H216819   3.039   5.593   1.405
 5605TIP3   OH216820   3.844   3.908   1.952
 5605TIP3    H116821   3.838   3.817   1.926
 5605TIP3    H216822   3.790   3.956   1.889
 5606TIP3   OH216823   3.736   5.887   1.495
 5606TIP3    H116824   3.712   5.923   1.581
 5606TIP3    H216825   3.829   5.863   1.505
 5607TIP3   OH216826   4.889   1.021   0.369
 5607TIP3    H116827   4.977   0.996   0.342
 5607TIP3    H216828   4.857   1.076   0.297
 5608TIP3   OH216829   4.089   4.161   3.406
 5608TIP3    H116830   4.171   4.114   3.390
 5608TIP3    H216831   4.026   4.120   3.347
 5609TIP3   OH216832   0.990   5.148   2.790
 5609TIP3    H116833   1.073   5.178   2.828
 5609TIP3    H216834   1.014   5.114   2.704
 5610TIP3   OH216835   5.496   4.380   3.136
 5610TIP3    H116836   5.480   4.374   3.230
 5610TIP3    H216837   5.585   4.415   3.129
 5611TIP3   OH216838   3.575   2.277   0.715
 5611TIP3    H116839   3.613   2.234   0.791
 5611TIP3    H216840   3.578   2.212   0.646
 5612TIP3   OH216841   0.656   5.559   1.115
 5612TIP3    H116842   0.669   5.648   1.080
 5612TIP3    H216843   0.682   5.566   1.207
 5613TIP3   OH216844   0.514   3.519   1.855
 5613TIP3    H116845   0.434   3.470   1.876
 5613TIP3    H216846   0.532   3.570   1.935
 5614TIP3   OH216847   2.815   3.364   4.479
 5614TIP3    H116848   2.724   3.359   4.448
 5614TIP3    H216849   2.827   3.456   4.504
 5615TIP3   OH216850   5.919   0.298   0.606
 5615TIP3    H116851   5.871   0.224   0.569
 5615TIP3    H216852   5.989   0.315   0.542
 5616TIP3   OH216853   5.008   2.846   0.291
 5616TIP3    H116854   5.013   2.845   0.195
 5616TIP3    H216855   5.058   2.923   0.317
 5617TIP3   OH216856   4.855   0.252   0.705
 5617TIP3    H116857   4.883   0.277   0.793
 5617TIP3    H216858   4.787   0.187   0.719
 5618TIP3   OH216859   5.559   1.089   1.377
 5618TIP3    H116860   5.599   1.002   1.381
 5618TIP3    H216861   5.509   1.096   1.459
 5619TIP3   OH216862   0.127   2.841   0.218
 5619TIP3    H116863   0.078   2.918   0.189
 5619TIP3    H216864   0.177   2.813   0.141
 5620TIP3   OH216865   5.140   5.375   1.862
 5620TIP3    H116866   5.111   5.465   1.875
 5620TIP3    H216867   5.104   5.352   1.776
 5621TIP3   OH216868   0.177   2.768   2.160
 5621TIP3    H116869   0.247   2.806   2.213
 5621TIP3    H216870   0.147   2.840   2.104
 5622TIP3   OH216871   2.502   5.399   0.407
 5622TIP3    H116872   2.451   5.364   0.480
 5622TIP3    H216873   2.475   5.491   0.401
 5623TIP3   OH216874   5.104   5.293   4.756
 5623TIP3    H116875   5.027   5.286   4.813
 5623TIP3    H216876   5.145   5.207   4.760
 5624TIP3   OH216877   3.865   1.214   4.503
 5624TIP3    H116878   3.841   1.238   4.592
 5624TIP3    H216879   3.954   1.180   4.510
 5625TIP3   OH216880   6.258   4.846   4.572
 5625TIP3    H116881   6.221   4.859   4.659
 5625TIP3    H216882   6.337   4.900   4.571
 5626TIP3   OH216883   3.428   5.735  -0.027
 5626TIP3    H116884   3.519   5.716  -0.004
 5626TIP3    H216885   3.388   5.762   0.056
 5627TIP3   OH216886   4.250   5.384   1.390
 5627TIP3    H116887   4.163   5.417   1.413
 5627TIP3    H216888   4.256   5.300   1.437
 5628TIP3   OH216889   3.675   1.277   1.457
 5628TIP3    H116890   3.666   1.372   1.448
 5628TIP3    H216891   3.637   1.256   1.542
 5629TIP3   OH216892   5.754   3.165   1.298
 5629TIP3    H116893   5.714   3.099   1.242
 5629TIP3    H216894   5.681   3.207   1.343
 5630TIP3   OH216895   5.067   3.085   2.508
 5630TIP3    H116896   5.006   3.152   2.478
 5630TIP3    H216897   5.102   3.119   2.590
 5631TIP3   OH216898   3.296   3.269   4.547
 5631TIP3    H116899   3.366   3.204   4.538
 5631TIP3    H216900   3.310   3.330   4.474
 5632TIP3   OH216901   5.639   1.940   3.918
 5632TIP3    H116902   5.691   1.862   3.933
 5632TIP3    H216903   5.677   2.006   3.977
 5633TIP3   OH216904   5.915   2.349   1.408
 5633TIP3    H116905   5.976   2.377   1.340
 5633TIP3    H216906   5.945   2.262   1.433
 5634TIP3   OH216907   2.186   4.425   1.585
 5634TIP3    H116908   2.215   4.344   1.545
 5634TIP3    H216909   2.180   4.487   1.512
 5635TIP3   OH216910   0.934   0.097   2.486
 5635TIP3    H116911   0.996   0.163   2.455
 5635TIP3    H216912   0.854   0.115   2.437
 5636TIP3   OH216913   5.383   0.880   4.974
 5636TIP3    H116914   5.319   0.816   4.942
 5636TIP3    H216915   5.332   0.961   4.983
 5637TIP3   OH216916   3.911   0.514   0.372
 5637TIP3    H116917   3.984   0.575   0.367
 5637TIP3    H216918   3.893   0.504   0.465
 5638TIP3   OH216919   2.472   1.427   0.979
 5638TIP3    H116920   2.449   1.357   0.918
 5638TIP3    H216921   2.432   1.506   0.941
 5639TIP3   OH216922   4.447   6.002   2.052
 5639TIP3    H116923   4.475   5.911   2.040
 5639TIP3    H216924   4.358   5.995   2.088
 5640TIP3   OH216925   0.183   4.481   0.616
 5640TIP3    H116926   0.103   4.472   0.565
 5640TIP3    H216927   0.159   4.537   0.690
 5641TIP3   OH216928   3.343   5.657   4.253
 5641TIP3    H116929   3.317   5.663   4.345
 5641TIP3    H216930   3.267   5.687   4.204
 5642TIP3   OH216931   5.586   1.090   4.034
 5642TIP3    H116932   5.646   1.135   3.975
 5642TIP3    H216933   5.611   1.121   4.121
 5643TIP3   OH216934   3.196   1.097   3.840
 5643TIP3    H116935   3.144   1.019   3.861
 5643TIP3    H216936   3.277   1.086   3.889
 5644TIP3   OH216937   5.299   3.922   3.637
 5644TIP3    H116938   5.228   3.858   3.627
 5644TIP3    H216939   5.377   3.869   3.651
 5645TIP3   OH216940   0.524   2.625   2.490
 5645TIP3    H116941   0.476   2.565   2.547
 5645TIP3    H216942   0.460   2.652   2.424
 5646TIP3   OH216943   2.559   5.782   2.738
 5646TIP3    H116944   2.564   5.734   2.656
 5646TIP3    H216945   2.472   5.822   2.738
 5647TIP3   OH216946   5.522   0.131   0.379
 5647TIP3    H116947   5.618   0.129   0.379
 5647TIP3    H216948   5.497   0.093   0.295
 5648TIP3   OH216949   5.588   1.275   2.193
 5648TIP3    H116950   5.654   1.339   2.218
 5648TIP3    H216951   5.571   1.224   2.272
 5649TIP3   OH216952   5.596   5.548   1.434
 5649TIP3    H116953   5.524   5.487   1.419
 5649TIP3    H216954   5.672   5.492   1.448
 5650TIP3   OH216955   0.944   1.180   3.804
 5650TIP3    H116956   1.019   1.234   3.780
 5650TIP3    H216957   0.914   1.217   3.887
 5651TIP3   OH216958   2.780   4.207   4.349
 5651TIP3    H116959   2.785   4.291   4.303
 5651TIP3    H216960   2.726   4.224   4.426
 5652TIP3   OH216961   2.790   1.795   4.647
 5652TIP3    H116962   2.783   1.729   4.578
 5652TIP3    H216963   2.730   1.764   4.715
 5653TIP3   OH216964   5.513   5.679   2.773
 5653TIP3    H116965   5.464   5.637   2.844
 5653TIP3    H216966   5.525   5.769   2.803
 5654TIP3   OH216967   3.006   1.536   1.753
 5654TIP3    H116968   2.942   1.567   1.818
 5654TIP3    H216969   3.082   1.510   1.804
 5655TIP3   OH216970   2.458   4.606   3.330
 5655TIP3    H116971   2.415   4.552   3.264
 5655TIP3    H216972   2.438   4.562   3.413
 5656TIP3   OH216973   2.066   5.498   0.994
 5656TIP3    H116974   1.980   5.464   1.016
 5656TIP3    H216975   2.125   5.460   1.059
 5657TIP3   OH216976   3.864   1.813   4.905
 5657TIP3    H116977   3.881   1.754   4.978
 5657TIP3    H216978   3.832   1.757   4.835
 5658TIP3   OH216979   0.998   2.138   0.356
 5658TIP3    H116980   0.941   2.214   0.357
 5658TIP3    H216981   0.954   2.073   0.411
 5659TIP3   OH216982   2.808   1.480   3.485
 5659TIP3    H116983   2.716   1.468   3.507
 5659TIP3    H216984   2.818   1.438   3.399
 5660TIP3   OH216985   0.042   2.559   1.266
 5660TIP3    H116986  -0.045   2.551   1.226
 5660TIP3    H216987   0.103   2.561   1.192
 5661TIP3   OH216988   1.721   1.269   0.008
 5661TIP3    H116989   1.731   1.341  -0.054
 5661TIP3    H216990   1.805   1.264   0.053
 5662TIP3   OH216991   1.806   4.483   3.474
 5662TIP3    H116992   1.798   4.431   3.553
 5662TIP3    H216993   1.760   4.432   3.407
 5663TIP3   OH216994   1.384   4.353   4.997
 5663TIP3    H116995   1.454   4.309   5.046
 5663TIP3    H216996   1.387   4.314   4.910
 5664TIP3   OH216997   5.877   0.204   2.026
 5664TIP3    H116998   5.856   0.296   2.014
 5664TIP3    H216999   5.854   0.163   1.943
 5665TIP3   OH217000   4.963   1.902   4.448
 5665TIP3    H117001   4.972   1.943   4.534
 5665TIP3    H217002   5.019   1.954   4.390
 5666TIP3   OH217003   3.247   1.158   3.400
 5666TIP3    H117004   3.278   1.119   3.482
 5666TIP3    H217005   3.160   1.192   3.420
 5667TIP3   OH217006   5.569   5.245   3.305
 5667TIP3    H117007   5.536   5.335   3.310
 5667TIP3    H217008   5.641   5.249   3.243
 5668TIP3   OH217009   0.565   2.765   1.804
 5668TIP3    H117010   0.543   2.789   1.894
 5668TIP3    H217011   0.642   2.817   1.783
 5669TIP3   OH217012   4.647   2.940   3.001
 5669TIP3    H117013   4.566   2.907   2.962
 5669TIP3    H217014   4.691   2.862   3.033
 5670TIP3   OH217015   0.342   5.727   1.861
 5670TIP3    H117016   0.261   5.708   1.909
 5670TIP3    H217017   0.353   5.822   1.870
 5671TIP3   OH217018   4.863   0.986   2.567
 5671TIP3    H117019   4.813   1.046   2.512
 5671TIP3    H217020   4.923   0.942   2.506
 5672TIP3   OH217021   6.208   1.270   1.431
 5672TIP3    H117022   6.290   1.308   1.402
 5672TIP3    H217023   6.204   1.290   1.525
 5673TIP3   OH217024   0.841   0.936   3.905
 5673TIP3    H117025   0.820   0.871   3.838
 5673TIP3    H217026   0.861   1.015   3.855
 5674TIP3   OH217027   1.021   3.486   2.068
 5674TIP3    H117028   1.106   3.479   2.112
 5674TIP3    H217029   0.958   3.498   2.139
 5675TIP3   OH217030   4.972   3.034   1.234
 5675TIP3    H117031   4.967   3.091   1.157
 5675TIP3    H217032   5.014   2.954   1.202
 5676TIP3   OH217033   1.613   5.710   0.900
 5676TIP3    H117034   1.646   5.765   0.830
 5676TIP3    H217035   1.650   5.623   0.883
 5677TIP3   OH217036   6.119   2.774   5.176
 5677TIP3    H117037   6.031   2.744   5.153
 5677TIP3    H217038   6.177   2.721   5.122
 5678TIP3   OH217039   2.752   1.364   4.175
 5678TIP3    H117040   2.716   1.378   4.087
 5678TIP3    H217041   2.746   1.449   4.218
 5679TIP3   OH217042   5.679   3.292   2.241
 5679TIP3    H117043   5.651   3.353   2.308
 5679TIP3    H217044   5.614   3.303   2.171
 5680TIP3   OH217045   5.900   3.900   0.997
 5680TIP3    H117046   5.980   3.952   0.988
 5680TIP3    H217047   5.829   3.961   0.974
 5681TIP3   OH217048   2.891   3.565   3.786
 5681TIP3    H117049   2.956   3.553   3.717
 5681TIP3    H217050   2.913   3.650   3.825
 5682TIP3   OH217051   2.972   3.262   3.701
 5682TIP3    H117052   2.894   3.288   3.652
 5682TIP3    H217053   2.943   3.191   3.758
 5683TIP3   OH217054   4.261   0.591   1.172
 5683TIP3    H117055   4.223   0.564   1.088
 5683TIP3    H217056   4.270   0.510   1.221
 5684TIP3   OH217057   0.085   4.153   0.247
 5684TIP3    H117058   0.098   4.185   0.158
 5684TIP3    H217059   0.150   4.199   0.299
 5685TIP3   OH217060   5.402   1.613   4.833
 5685TIP3    H117061   5.362   1.613   4.746
 5685TIP3    H217062   5.330   1.631   4.893
 5686TIP3   OH217063   4.774   5.845   2.110
 5686TIP3    H117064   4.700   5.826   2.053
 5686TIP3    H217065   4.851   5.822   2.058
 5687TIP3   OH217066   1.231   5.418   1.892
 5687TIP3    H117067   1.209   5.363   1.816
 5687TIP3    H217068   1.194   5.503   1.872
 5688TIP3   OH217069   5.677   4.015   4.416
 5688TIP3    H117070   5.742   4.036   4.350
 5688TIP3    H217071   5.701   3.927   4.447
 5689TIP3   OH217072   3.970   2.184   0.888
 5689TIP3    H117073   4.011   2.106   0.851
 5689TIP3    H217074   4.033   2.217   0.952
 5690TIP3   OH217075   4.121   3.409   4.956
 5690TIP3    H117076   4.152   3.451   4.876
 5690TIP3    H217077   4.074   3.331   4.925
 5691TIP3   OH217078   3.006   5.371   4.259
 5691TIP3    H117079   2.964   5.418   4.186
 5691TIP3    H217080   3.092   5.346   4.225
 5692TIP3   OH217081   4.702   3.882   4.705
 5692TIP3    H117082   4.793   3.871   4.733
 5692TIP3    H217083   4.706   3.876   4.609
 5693TIP3   OH217084   3.368   2.524   3.056
 5693TIP3    H117085   3.458   2.510   3.028
 5693TIP3    H217086   3.336   2.437   3.078
 5694TIP3   OH217087   2.777   2.309   2.707
 5694TIP3    H117088   2.839   2.381   2.698
 5694TIP3    H217089   2.773   2.293   2.801
 5695TIP3   OH217090   1.759   2.875   4.714
 5695TIP3    H117091   1.758   2.955   4.768
 5695TIP3    H217092   1.852   2.861   4.696
 5696TIP3   OH217093   2.091   1.374   4.733
 5696TIP3    H117094   2.021   1.385   4.798
 5696TIP3    H217095   2.049   1.394   4.649
 5697TIP3   OH217096   4.094   1.595   3.989
 5697TIP3    H117097   4.119   1.533   4.057
 5697TIP3    H217098   4.115   1.551   3.907
 5698TIP3   OH217099   5.730   5.104   3.113
 5698TIP3    H117100   5.825   5.102   3.108
 5698TIP3    H217101   5.701   5.110   3.022
 5699TIP3   OH217102   2.011   0.022   3.572
 5699TIP3    H117103   1.975   0.065   3.650
 5699TIP3    H217104   2.058   0.091   3.526
 5700TIP3   OH217105   6.234   0.971   3.479
 5700TIP3    H117106   6.302   1.028   3.515
 5700TIP3    H217107   6.222   1.001   3.389
 5701TIP3   OH217108   3.788   5.086   4.680
 5701TIP3    H117109   3.826   4.999   4.693
 5701TIP3    H217110   3.855   5.134   4.630
 5702TIP3   OH217111   1.667   4.936   4.567
 5702TIP3    H117112   1.670   4.982   4.651
 5702TIP3    H217113   1.746   4.963   4.521
 5703TIP3   OH217114   2.677   3.200   4.641
 5703TIP3    H117115   2.735   3.246   4.581
 5703TIP3    H217116   2.688   3.108   4.619
 5704TIP3   OH217117   0.884   4.522   2.229
 5704TIP3    H117118   0.945   4.482   2.290
 5704TIP3    H217119   0.859   4.452   2.169
 5705TIP3   OH217120   4.314   1.581   1.286
 5705TIP3    H117121   4.282   1.524   1.215
 5705TIP3    H217122   4.294   1.533   1.366
 5706TIP3   OH217123   3.593   0.847   5.145
 5706TIP3    H117124   3.642   0.808   5.073
 5706TIP3    H217125   3.504   0.855   5.113
 5707TIP3   OH217126   5.537   3.713   2.369
 5707TIP3    H117127   5.476   3.643   2.349
 5707TIP3    H217128   5.482   3.784   2.404
 5708TIP3   OH217129   4.488   4.918   0.091
 5708TIP3    H117130   4.420   4.924   0.158
 5708TIP3    H217131   4.449   4.958   0.014
 5709TIP3   OH217132   0.596   4.660   4.139
 5709TIP3    H117133   0.591   4.569   4.108
 5709TIP3    H217134   0.537   4.708   4.082
 5710TIP3   OH217135   2.381   5.858   3.445
 5710TIP3    H117136   2.462   5.843   3.397
 5710TIP3    H217137   2.359   5.949   3.429
 5711TIP3   OH217138   2.700   0.727   5.115
 5711TIP3    H117139   2.693   0.786   5.040
 5711TIP3    H217140   2.683   0.640   5.078
 5712TIP3   OH217141   1.812   3.837   2.732
 5712TIP3    H117142   1.899   3.850   2.768
 5712TIP3    H217143   1.796   3.914   2.677
 5713TIP3   OH217144   2.827   3.995   0.843
 5713TIP3    H117145   2.735   3.978   0.861
 5713TIP3    H217146   2.845   4.079   0.886
 5714TIP3   OH217147   2.800   3.023   1.944
 5714TIP3    H117148   2.836   3.096   1.994
 5714TIP3    H217149   2.724   3.060   1.898
 5715TIP3   OH217150   6.212   3.785   3.830
 5715TIP3    H117151   6.281   3.804   3.894
 5715TIP3    H217152   6.173   3.870   3.811
 5716TIP3   OH217153   2.734   2.896   3.192
 5716TIP3    H117154   2.693   2.817   3.156
 5716TIP3    H217155   2.784   2.932   3.119
 5717TIP3   OH217156   6.211   0.400   3.991
 5717TIP3    H117157   6.171   0.329   4.040
 5717TIP3    H217158   6.142   0.467   3.985
 5718TIP3   OH217159   0.330   2.541   1.017
 5718TIP3    H117160   0.335   2.505   1.106
 5718TIP3    H217161   0.372   2.627   1.024
 5719TIP3   OH217162   2.663   2.792   3.676
 5719TIP3    H117163   2.706   2.826   3.598
 5719TIP3    H217164   2.715   2.827   3.749
 5720TIP3   OH217165   1.206   0.969   1.007
 5720TIP3    H117166   1.282   1.028   1.012
 5720TIP3    H217167   1.238   0.893   0.957
 5721TIP3   OH217168   1.308   5.232   1.414
 5721TIP3    H117169   1.384   5.222   1.471
 5721TIP3    H217170   1.318   5.319   1.375
 5722TIP3   OH217171   2.885   2.679   5.072
 5722TIP3    H117172   2.968   2.632   5.073
 5722TIP3    H217173   2.818   2.611   5.066
 5723TIP3   OH217174   1.579   0.009   0.290
 5723TIP3    H117175   1.621   0.094   0.304
 5723TIP3    H217176   1.640  -0.040   0.235
 5724TIP3   OH217177   5.969   5.600   1.762
 5724TIP3    H117178   6.003   5.592   1.851
 5724TIP3    H217179   5.924   5.684   1.761
 5725TIP3   OH217180   3.756   4.026   2.191
 5725TIP3    H117181   3.669   3.992   2.213
 5725TIP3    H217182   3.764   4.012   2.097
 5726TIP3   OH217183   4.383   0.443  -0.019
 5726TIP3    H117184   4.289   0.427  -0.011
 5726TIP3    H217185   4.404   0.504   0.052
 5727TIP3   OH217186   2.788   2.052   1.877
 5727TIP3    H117187   2.733   2.090   1.946
 5727TIP3    H217188   2.877   2.076   1.902
 5728TIP3   OH217189   3.182   2.500   1.451
 5728TIP3    H117190   3.147   2.572   1.503
 5728TIP3    H217191   3.182   2.532   1.361
 5729TIP3   OH217192   5.945   3.147   3.402
 5729TIP3    H117193   5.851   3.145   3.382
 5729TIP3    H217194   5.986   3.105   3.327
 5730TIP3   OH217195   3.326   4.292   0.919
 5730TIP3    H117196   3.370   4.285   0.834
 5730TIP3    H217197   3.240   4.253   0.904
 5731TIP3   OH217198   5.899   1.572   0.566
 5731TIP3    H117199   5.843   1.581   0.643
 5731TIP3    H217200   5.934   1.484   0.572
 5732TIP3   OH217201   6.112   3.211   0.221
 5732TIP3    H117202   6.109   3.233   0.314
 5732TIP3    H217203   6.145   3.291   0.179
 5733TIP3   OH217204   4.829   2.458   4.044
 5733TIP3    H117205   4.792   2.387   3.992
 5733TIP3    H217206   4.886   2.413   4.107
 5734TIP3   OH217207   2.128   2.783   3.801
 5734TIP3    H117208   2.224   2.779   3.803
 5734TIP3    H217209   2.101   2.746   3.885
 5735TIP3   OH217210   0.153   0.408   3.959
 5735TIP3    H117211   0.116   0.327   3.994
 5735TIP3    H217212   0.082   0.473   3.968
 5736TIP3   OH217213   5.713   1.551   4.452
 5736TIP3    H117214   5.795   1.547   4.502
 5736TIP3    H217215   5.677   1.462   4.458
 5737TIP3   OH217216   4.297   1.168   0.467
 5737TIP3    H117217   4.335   1.238   0.521
 5737TIP3    H217218   4.252   1.215   0.397
 5738TIP3   OH217219   3.331   3.803   3.708
 5738TIP3    H117220   3.417   3.766   3.690
 5738TIP3    H217221   3.289   3.810   3.622
 5739TIP3   OH217222   6.155   4.509   4.226
 5739TIP3    H117223   6.217   4.518   4.299
 5739TIP3    H217224   6.071   4.534   4.264
 5740TIP3   OH217225   5.955   5.334   2.846
 5740TIP3    H117226   5.992   5.421   2.829
 5740TIP3    H217227   5.879   5.351   2.901
 5741TIP3   OH217228   4.930   4.298   3.636
 5741TIP3    H117229   4.978   4.347   3.703
 5741TIP3    H217230   4.973   4.212   3.635
 5742TIP3   OH217231   0.418   3.571   1.366
 5742TIP3    H117232   0.458   3.490   1.397
 5742TIP3    H217233   0.381   3.611   1.445
 5743TIP3   OH217234   4.754   2.747   3.208
 5743TIP3    H117235   4.674   2.794   3.234
 5743TIP3    H217236   4.723   2.661   3.181
 5744TIP3   OH217237   5.497   5.104  -0.012
 5744TIP3    H117238   5.454   5.116   0.072
 5744TIP3    H217239   5.550   5.183  -0.023
 5745TIP3   OH217240   1.650   0.613   2.610
 5745TIP3    H117241   1.736   0.626   2.570
 5745TIP3    H217242   1.620   0.528   2.578
 5746TIP3   OH217243   5.511   4.431   2.435
 5746TIP3    H117244   5.534   4.431   2.528
 5746TIP3    H217245   5.443   4.497   2.427
 5747TIP3   OH217246   3.265   0.924   1.403
 5747TIP3    H117247   3.295   0.999   1.454
 5747TIP3    H217248   3.274   0.951   1.311
 5748TIP3   OH217249   5.320   0.131   3.827
 5748TIP3    H117250   5.297   0.069   3.897
 5748TIP3    H217251   5.406   0.164   3.852
 5749TIP3   OH217252   0.312   1.592   2.333
 5749TIP3    H117253   0.399   1.632   2.324
 5749TIP3    H217254   0.328   1.499   2.323
 5750TIP3   OH217255   5.117   4.111   2.676
 5750TIP3    H117256   5.142   4.192   2.721
 5750TIP3    H217257   5.154   4.120   2.588
 5751TIP3   OH217258   1.161   2.636   0.536
 5751TIP3    H117259   1.099   2.648   0.464
 5751TIP3    H217260   1.246   2.659   0.498
 5752TIP3   OH217261   6.227   5.023   4.185
 5752TIP3    H117262   6.214   4.961   4.114
 5752TIP3    H217263   6.209   4.973   4.264
 5753TIP3   OH217264   0.250   0.123   1.081
 5753TIP3    H117265   0.288   0.182   1.146
 5753TIP3    H217266   0.231   0.180   1.006
 5754TIP3   OH217267   4.762   5.862   2.534
 5754TIP3    H117268   4.837   5.885   2.479
 5754TIP3    H217269   4.685   5.886   2.482
 5755TIP3   OH217270   0.302   4.628   1.390
 5755TIP3    H117271   0.302   4.724   1.381
 5755TIP3    H217272   0.394   4.604   1.377
 5756TIP3   OH217273   1.838   1.716   4.296
 5756TIP3    H117274   1.781   1.788   4.321
 5756TIP3    H217275   1.782   1.638   4.301
 5757TIP3   OH217276   2.748   4.955   4.083
 5757TIP3    H117277   2.808   4.936   4.155
 5757TIP3    H217278   2.747   5.050   4.076
 5758TIP3   OH217279   3.589   5.702   2.639
 5758TIP3    H117280   3.627   5.789   2.634
 5758TIP3    H217281   3.607   5.663   2.554
 5759TIP3   OH217282   5.000   4.947   2.915
 5759TIP3    H117283   5.058   4.906   2.851
 5759TIP3    H217284   5.045   4.935   2.999
 5760TIP3   OH217285   2.512   0.046   1.837
 5760TIP3    H117286   2.446   0.114   1.849
 5760TIP3    H217287   2.549   0.062   1.751
 5761TIP3   OH217288   6.068   4.017   1.671
 5761TIP3    H117289   5.991   3.959   1.673
 5761TIP3    H217290   6.080   4.043   1.762
 5762TIP3   OH217291   0.967   4.662   3.240
 5762TIP3    H117292   0.927   4.579   3.216
 5762TIP3    H217293   0.896   4.726   3.231
 5763TIP3   OH217294   1.735   3.941   1.902
 5763TIP3    H117295   1.812   3.933   1.846
 5763TIP3    H217296   1.713   3.851   1.925
 5764TIP3   OH217297   0.533   0.956   1.358
 5764TIP3    H117298   0.542   0.943   1.263
 5764TIP3    H217299   0.612   1.004   1.383
 5765TIP3   OH217300   4.616   2.489   4.261
 5765TIP3    H117301   4.710   2.496   4.242
 5765TIP3    H217302   4.612   2.454   4.350
 5766TIP3   OH217303   5.130   4.030   3.158
 5766TIP3    H117304   5.043   4.034   3.120
 5766TIP3    H217305   5.173   4.111   3.131
 5767TIP3   OH217306   5.813   4.312   3.634
 5767TIP3    H117307   5.807   4.344   3.724
 5767TIP3    H217308   5.777   4.383   3.580
 5768TIP3   OH217309   0.097   5.696   1.997
 5768TIP3    H117310   0.017   5.742   1.971
 5768TIP3    H217311   0.070   5.606   2.014
 5769TIP3   OH217312   5.876   1.268   2.588
 5769TIP3    H117313   5.853   1.316   2.668
 5769TIP3    H217314   5.794   1.262   2.540
 5770TIP3   OH217315   5.747   1.729   2.885
 5770TIP3    H117316   5.675   1.669   2.904
 5770TIP3    H217317   5.811   1.712   2.954
 5771TIP3   OH217318   4.193   5.885   3.403
 5771TIP3    H117319   4.255   5.948   3.366
 5771TIP3    H217320   4.131   5.868   3.333
 5772TIP3   OH217321   0.428   0.838   3.077
 5772TIP3    H117322   0.346   0.799   3.047
 5772TIP3    H217323   0.453   0.786   3.153
 5773TIP3   OH217324   1.944   5.859   4.522
 5773TIP3    H117325   2.033   5.876   4.553
 5773TIP3    H217326   1.926   5.769   4.549
 5774TIP3   OH217327   0.532   2.764   0.393
 5774TIP3    H117328   0.470   2.723   0.333
 5774TIP3    H217329   0.618   2.733   0.364
 5775TIP3   OH217330   5.541   2.910   3.385
 5775TIP3    H117331   5.547   2.817   3.362
 5775TIP3    H217332   5.551   2.912   3.480
 5776TIP3   OH217333   3.101   3.954   4.187
 5776TIP3    H117334   3.144   3.905   4.117
 5776TIP3    H217335   3.027   3.998   4.146
 5777TIP3   OH217336   1.789   4.987   2.051
 5777TIP3    H117337   1.712   4.941   2.085
 5777TIP3    H217338   1.768   5.002   1.959
 5778TIP3   OH217339   4.826   0.573   1.441
 5778TIP3    H117340   4.734   0.592   1.462
 5778TIP3    H217341   4.827   0.562   1.346
 5779TIP3   OH217342   5.386   0.111   1.010
 5779TIP3    H117343   5.394   0.157   0.926
 5779TIP3    H217344   5.292   0.111   1.029
 5780TIP3   OH217345   6.181   5.436   3.052
 5780TIP3    H117346   6.086   5.431   3.041
 5780TIP3    H217347   6.207   5.346   3.071
 5781TIP3   OH217348   3.515   3.079   4.485
 5781TIP3    H117349   3.485   3.006   4.430
 5781TIP3    H217350   3.608   3.064   4.497
 5782TIP3   OH217351   0.950   1.913   4.478
 5782TIP3    H117352   0.916   1.848   4.417
 5782TIP3    H217353   0.915   1.888   4.563
 5783TIP3   OH217354   0.492   5.499   0.884
 5783TIP3    H117355   0.546   5.525   0.959
 5783TIP3    H217356   0.520   5.557   0.813
 5784TIP3   OH217357   6.167   0.565   2.847
 5784TIP3    H117358   6.217   0.489   2.876
 5784TIP3    H217359   6.210   0.591   2.765
 5785TIP3   OH217360   3.386   3.817   3.190
 5785TIP3    H117361   3.436   3.835   3.269
 5785TIP3    H217362   3.370   3.903   3.152
 5786TIP3   OH217363   6.022   1.366   0.296
 5786TIP3    H117364   6.115   1.355   0.275
 5786TIP3    H217365   5.976   1.306   0.237
 5787TIP3   OH217366   0.371   2.773   4.676
 5787TIP3    H117367   0.352   2.680   4.667
 5787TIP3    H217368   0.456   2.776   4.720
 5788TIP3   OH217369   6.157   2.042   0.774
 5788TIP3    H117370   6.185   2.118   0.824
 5788TIP3    H217371   6.214   1.971   0.804
 5789TIP3   OH217372   5.566   1.535   2.925
 5789TIP3    H117373   5.486   1.510   2.880
 5789TIP3    H217374   5.573   1.474   2.998
 5790TIP3   OH217375   6.200   5.078   0.060
 5790TIP3    H117376   6.233   4.995   0.026
 5790TIP3    H217377   6.105   5.072   0.050
 5791TIP3   OH217378   1.882   4.552   5.146
 5791TIP3    H117379   1.840   4.551   5.060
 5791TIP3    H217380   1.922   4.466   5.153
 5792TIP3   OH217381   3.961   2.080   3.067
 5792TIP3    H117382   4.020   2.007   3.050
 5792TIP3    H217383   3.873   2.045   3.051
 5793TIP3   OH217384   3.890   5.112   2.425
 5793TIP3    H117385   3.981   5.139   2.435
 5793TIP3    H217386   3.896   5.023   2.388
 5794TIP3   OH217387   0.302   5.208   0.133
 5794TIP3    H117388   0.265   5.269   0.197
 5794TIP3    H217389   0.244   5.215   0.057
 5795TIP3   OH217390   3.126   2.353   2.249
 5795TIP3    H117391   3.200   2.304   2.212
 5795TIP3    H217392   3.119   2.321   2.339
 5796TIP3   OH217393   4.054   5.208   3.099
 5796TIP3    H117394   4.020   5.233   3.013
 5796TIP3    H217395   4.072   5.114   3.091
 5797TIP3   OH217396   3.742   0.909   3.070
 5797TIP3    H117397   3.649   0.913   3.047
 5797TIP3    H217398   3.752   0.972   3.141
 5798TIP3   OH217399   4.629   4.667   3.578
 5798TIP3    H117400   4.646   4.582   3.619
 5798TIP3    H217401   4.624   4.647   3.484
 5799TIP3   OH217402   5.296   5.993   4.423
 5799TIP3    H117403   5.329   5.907   4.446
 5799TIP3    H217404   5.240   6.018   4.497
 5800TIP3   OH217405   3.328   3.804   0.038
 5800TIP3    H117406   3.410   3.786   0.085
 5800TIP3    H217407   3.328   3.899   0.027
 5801TIP3   OH217408   4.520   3.812   3.524
 5801TIP3    H117409   4.425   3.799   3.517
 5801TIP3    H217410   4.554   3.726   3.547
 5802TIP3   OH217411   4.807   4.470   0.161
 5802TIP3    H117412   4.743   4.540   0.171
 5802TIP3    H217413   4.783   4.426   0.079
 5803TIP3   OH217414   3.463   3.060   1.877
 5803TIP3    H117415   3.546   3.013   1.870
 5803TIP3    H217416   3.396   2.992   1.875
 5804TIP3   OH217417   4.587   3.721   1.391
 5804TIP3    H117418   4.576   3.688   1.480
 5804TIP3    H217419   4.501   3.711   1.350
 5805TIP3   OH217420   0.785   5.349   3.524
 5805TIP3    H117421   0.736   5.431   3.536
 5805TIP3    H217422   0.737   5.285   3.577
 5806TIP3   OH217423   3.746   4.417   2.596
 5806TIP3    H117424   3.793   4.333   2.592
 5806TIP3    H217425   3.816   4.483   2.591
 5807TIP3   OH217426   4.598   5.713   4.924
 5807TIP3    H117427   4.503   5.711   4.919
 5807TIP3    H217428   4.626   5.635   4.876
 5808TIP3   OH217429   2.618   5.717   2.141
 5808TIP3    H117430   2.592   5.707   2.050
 5808TIP3    H217431   2.575   5.645   2.187
 5809TIP3   OH217432   0.162   2.084   0.616
 5809TIP3    H117433   0.068   2.068   0.605
 5809TIP3    H217434   0.169   2.179   0.630
 5810TIP3   OH217435   3.822   5.746   0.842
 5810TIP3    H117436   3.753   5.805   0.873
 5810TIP3    H217437   3.892   5.755   0.906
 5811TIP3   OH217438   0.862   2.498   1.798
 5811TIP3    H117439   0.897   2.494   1.888
 5811TIP3    H217440   0.769   2.517   1.809
 5812TIP3   OH217441   0.436   5.071   5.020
 5812TIP3    H117442   0.349   5.107   5.037
 5812TIP3    H217443   0.488   5.097   5.095
 5813TIP3   OH217444   2.589   2.173   1.204
 5813TIP3    H117445   2.656   2.177   1.136
 5813TIP3    H217446   2.566   2.080   1.210
 5814TIP3   OH217447   1.282   0.899   3.761
 5814TIP3    H117448   1.338   0.922   3.686
 5814TIP3    H217449   1.324   0.942   3.835
 5815TIP3   OH217450   2.051   3.922   2.825
 5815TIP3    H117451   2.083   3.883   2.907
 5815TIP3    H217452   2.122   3.979   2.796
 5816TIP3   OH217453   1.118   3.544   4.713
 5816TIP3    H117454   1.205   3.580   4.730
 5816TIP3    H217455   1.098   3.492   4.790
 5817TIP3   OH217456   4.972   3.521   4.561
 5817TIP3    H117457   4.991   3.613   4.581
 5817TIP3    H217458   4.885   3.506   4.598
 5818TIP3   OH217459   3.606   4.969   1.125
 5818TIP3    H117460   3.529   5.027   1.125
 5818TIP3    H217461   3.681   5.028   1.120
 5819TIP3   OH217462   2.791   5.804   0.344
 5819TIP3    H117463   2.754   5.835   0.428
 5819TIP3    H217464   2.773   5.710   0.343
 5820TIP3   OH217465   2.748   1.492   4.571
 5820TIP3    H117466   2.691   1.427   4.611
 5820TIP3    H217467   2.826   1.443   4.546
 5821TIP3   OH217468   0.407   3.721   3.574
 5821TIP3    H117469   0.324   3.719   3.621
 5821TIP3    H217470   0.452   3.641   3.602
 5822TIP3   OH217471   0.702   3.567   2.585
 5822TIP3    H117472   0.739   3.625   2.652
 5822TIP3    H217473   0.740   3.481   2.604
 5823TIP3   OH217474   5.101   2.384   4.182
 5823TIP3    H117475   5.021   2.414   4.225
 5823TIP3    H217476   5.165   2.454   4.200
 5824TIP3   OH217477   1.339   3.010   1.719
 5824TIP3    H117478   1.280   2.938   1.741
 5824TIP3    H217479   1.308   3.084   1.771
 5825TIP3   OH217480   3.196   0.393   1.264
 5825TIP3    H117481   3.245   0.453   1.320
 5825TIP3    H217482   3.173   0.445   1.188
 5826TIP3   OH217483   5.328   1.232   4.017
 5826TIP3    H117484   5.423   1.220   4.023
 5826TIP3    H217485   5.305   1.281   4.096
 5827TIP3   OH217486   4.886   1.657   1.811
 5827TIP3    H117487   4.939   1.713   1.867
 5827TIP3    H217488   4.809   1.709   1.790
 5828TIP3   OH217489   3.199   0.107   0.418
 5828TIP3    H117490   3.261   0.171   0.383
 5828TIP3    H217491   3.212   0.029   0.364
 5829TIP3   OH217492   3.341   5.038   0.489
 5829TIP3    H117493   3.331   4.950   0.453
 5829TIP3    H217494   3.350   5.024   0.583
 5830TIP3   OH217495   5.298   5.906   2.318
 5830TIP3    H117496   5.355   5.863   2.383
 5830TIP3    H217497   5.227   5.943   2.369
 5831TIP3   OH217498   0.729   1.406   5.063
 5831TIP3    H117499   0.752   1.412   5.155
 5831TIP3    H217500   0.723   1.497   5.033
 5832TIP3   OH217501   4.475   2.069   3.083
 5832TIP3    H117502   4.543   2.021   3.036
 5832TIP3    H217503   4.456   2.016   3.160
 5833TIP3   OH217504   3.149   2.705   0.451
 5833TIP3    H117505   3.230   2.686   0.404
 5833TIP3    H217506   3.080   2.681   0.389
 5834TIP3   OH217507   1.462   0.995   3.497
 5834TIP3    H117508   1.419   0.926   3.446
 5834TIP3    H217509   1.425   1.077   3.464
 5835TIP3   OH217510   1.898   4.359   4.693
 5835TIP3    H117511   1.886   4.297   4.621
 5835TIP3    H217512   1.926   4.440   4.652
 5836TIP3   OH217513   1.865   5.129   2.438
 5836TIP3    H117514   1.774   5.120   2.466
 5836TIP3    H217515   1.904   5.187   2.503
 5837TIP3   OH217516   2.148   2.824   1.736
 5837TIP3    H117517   2.132   2.859   1.648
 5837TIP3    H217518   2.102   2.885   1.794
 5838TIP3   OH217519   5.788   1.964   2.724
 5838TIP3    H117520   5.760   1.887   2.773
 5838TIP3    H217521   5.806   1.932   2.636
 5839TIP3   OH217522   3.351   4.084   4.831
 5839TIP3    H117523   3.382   4.098   4.920
 5839TIP3    H217524   3.416   4.027   4.791
 5840TIP3   OH217525   5.338   3.092   3.002
 5840TIP3    H117526   5.374   3.081   2.914
 5840TIP3    H217527   5.328   3.002   3.035
 5841TIP3   OH217528   2.927   1.656   0.677
 5841TIP3    H117529   2.895   1.745   0.683
 5841TIP3    H217530   2.850   1.601   0.695
 5842TIP3   OH217531   4.283   5.648   4.709
 5842TIP3    H117532   4.302   5.741   4.719
 5842TIP3    H217533   4.299   5.611   4.796
 5843TIP3   OH217534   2.611   1.362   0.376
 5843TIP3    H117535   2.665   1.327   0.447
 5843TIP3    H217536   2.668   1.364   0.300
 5844TIP3   OH217537   1.127   3.961   4.823
 5844TIP3    H117538   1.212   3.990   4.854
 5844TIP3    H217539   1.066   3.988   4.891
 5845TIP3   OH217540   2.356   5.992   1.201
 5845TIP3    H117541   2.359   5.899   1.223
 5845TIP3    H217542   2.281   6.025   1.250
 5846TIP3   OH217543   2.051   0.994   1.910
 5846TIP3    H117544   2.086   0.905   1.917
 5846TIP3    H217545   2.090   1.041   1.984
 5847TIP3   OH217546   5.579   5.600   2.031
 5847TIP3    H117547   5.525   5.540   2.082
 5847TIP3    H217548   5.565   5.685   2.072
 5848TIP3   OH217549   4.159   2.526   1.993
 5848TIP3    H117550   4.172   2.612   2.033
 5848TIP3    H217551   4.162   2.543   1.899
 5849TIP3   OH217552   2.663   3.493   3.389
 5849TIP3    H117553   2.722   3.566   3.369
 5849TIP3    H217554   2.680   3.429   3.319
 5850TIP3   OH217555   1.165   3.091   4.900
 5850TIP3    H117556   1.180   3.103   4.806
 5850TIP3    H217557   1.249   3.112   4.940
 5851TIP3   OH217558   3.515   0.208   0.640
 5851TIP3    H117559   3.545   0.166   0.721
 5851TIP3    H217560   3.592   0.209   0.584
 5852TIP3   OH217561   1.348   1.304   2.122
 5852TIP3    H117562   1.438   1.335   2.134
 5852TIP3    H217563   1.354   1.240   2.051
 5853TIP3   OH217564   5.621   4.542   4.447
 5853TIP3    H117565   5.622   4.467   4.388
 5853TIP3    H217566   5.529   4.551   4.473
 5854TIP3   OH217567   5.081   1.216   1.925
 5854TIP3    H117568   5.033   1.228   2.007
 5854TIP3    H217569   5.091   1.121   1.917
 5855TIP3   OH217570   4.221   2.601   3.780
 5855TIP3    H117571   4.220   2.697   3.786
 5855TIP3    H217572   4.313   2.577   3.794
 5856TIP3   OH217573   2.645   1.287   1.857
 5856TIP3    H117574   2.568   1.301   1.801
 5856TIP3    H217575   2.622   1.330   1.939
 5857TIP3   OH217576   3.826   3.834   4.280
 5857TIP3    H117577   3.798   3.809   4.369
 5857TIP3    H217578   3.765   3.903   4.254
 5858TIP3   OH217579   1.692   5.649   0.544
 5858TIP3    H117580   1.737   5.611   0.469
 5858TIP3    H217581   1.695   5.582   0.611
 5859TIP3   OH217582   4.086   2.862   4.490
 5859TIP3    H117583   4.050   2.927   4.429
 5859TIP3    H217584   4.031   2.870   4.568
 5860TIP3   OH217585   3.928   3.131   2.649
 5860TIP3    H117586   3.892   3.165   2.731
 5860TIP3    H217587   3.906   3.198   2.584
 5861TIP3   OH217588   0.795   4.525   0.293
 5861TIP3    H117589   0.878   4.544   0.336
 5861TIP3    H217590   0.761   4.611   0.267
 5862TIP3   OH217591   4.878   0.563   1.139
 5862TIP3    H117592   4.787   0.533   1.149
 5862TIP3    H217593   4.871   0.646   1.092
 5863TIP3   OH217594   4.904   2.256   0.939
 5863TIP3    H117595   4.909   2.167   0.905
 5863TIP3    H217596   4.813   2.266   0.966
 5864TIP3   OH217597   1.603   3.389   0.046
 5864TIP3    H117598   1.588   3.479   0.017
 5864TIP3    H217599   1.668   3.355  -0.016
 5865TIP3   OH217600   5.849   4.330   0.288
 5865TIP3    H117601   5.902   4.409   0.295
 5865TIP3    H217602   5.884   4.271   0.355
 5866TIP3   OH217603   5.330   3.812   4.827
 5866TIP3    H117604   5.340   3.731   4.777
 5866TIP3    H217605   5.246   3.802   4.871
 5867TIP3   OH217606   5.364   4.715   0.013
 5867TIP3    H117607   5.343   4.734   0.104
 5867TIP3    H217608   5.454   4.748   0.001
 5868TIP3   OH217609   4.561   4.831   2.203
 5868TIP3    H117610   4.577   4.923   2.182
 5868TIP3    H217611   4.645   4.788   2.189
 5869TIP3   OH217612   2.248   0.531   1.611
 5869TIP3    H117613   2.308   0.587   1.561
 5869TIP3    H217614   2.274   0.442   1.588
 5870TIP3   OH217615   2.437   3.098   3.715
 5870TIP3    H117616   2.433   3.022   3.773
 5870TIP3    H217617   2.522   3.138   3.734
 5871TIP3   OH217618   0.690   0.058   3.674
 5871TIP3    H117619   0.699   0.087   3.583
 5871TIP3    H217620   0.776   0.024   3.697
 5872TIP3   OH217621   4.213   3.040   0.818
 5872TIP3    H117622   4.179   3.121   0.780
 5872TIP3    H217623   4.143   2.976   0.802
 5873TIP3   OH217624   3.173   5.461   4.730
 5873TIP3    H117625   3.125   5.488   4.651
 5873TIP3    H217626   3.131   5.509   4.801
 5874TIP3   OH217627   4.617   3.186   3.569
 5874TIP3    H117628   4.687   3.157   3.628
 5874TIP3    H217629   4.588   3.269   3.607
 5875TIP3   OH217630   2.685   1.110   0.839
 5875TIP3    H117631   2.721   1.022   0.845
 5875TIP3    H217632   2.728   1.159   0.909
 5876TIP3   OH217633   3.390   0.735   0.698
 5876TIP3    H117634   3.481   0.764   0.694
 5876TIP3    H217635   3.393   0.644   0.667
 5877TIP3   OH217636   4.946   4.010   2.432
 5877TIP3    H117637   4.943   4.103   2.410
 5877TIP3    H217638   5.000   3.971   2.363
 5878TIP3   OH217639   0.472   4.199   1.779
 5878TIP3    H117640   0.430   4.282   1.800
 5878TIP3    H217641   0.533   4.220   1.708
 5879TIP3   OH217642   5.919   4.481   0.625
 5879TIP3    H117643   5.958   4.533   0.696
 5879TIP3    H217644   5.994   4.457   0.570
 5880TIP3   OH217645   2.711   3.525   0.055
 5880TIP3    H117646   2.735   3.606   0.010
 5880TIP3    H217647   2.711   3.549   0.148
 5881TIP3   OH217648   0.137   3.668   1.363
 5881TIP3    H117649   0.149   3.582   1.323
 5881TIP3    H217650   0.162   3.730   1.294
 5882TIP3   OH217651   5.865   4.747   0.395
 5882TIP3    H117652   5.886   4.675   0.335
 5882TIP3    H217653   5.949   4.777   0.428
 5883TIP3   OH217654   1.339   2.885   3.722
 5883TIP3    H117655   1.263   2.828   3.706
 5883TIP3    H217656   1.339   2.900   3.816
 5884TIP3   OH217657   5.402   3.921   0.686
 5884TIP3    H117658   5.492   3.952   0.671
 5884TIP3    H217659   5.350   4.001   0.690
 5885TIP3   OH217660   3.315   4.635   5.074
 5885TIP3    H117661   3.221   4.653   5.069
 5885TIP3    H217662   3.321   4.541   5.094
 5886TIP3   OH217663   4.317   3.391   3.680
 5886TIP3    H117664   4.262   3.468   3.693
 5886TIP3    H217665   4.320   3.379   3.585
 5887TIP3   OH217666   6.276   4.249   5.113
 5887TIP3    H117667   6.302   4.339   5.135
 5887TIP3    H217668   6.267   4.250   5.017
 5888TIP3   OH217669   2.630   5.524   4.199
 5888TIP3    H117670   2.575   5.592   4.160
 5888TIP3    H217671   2.662   5.563   4.280
 5889TIP3   OH217672   2.484   4.857   3.601
 5889TIP3    H117673   2.511   4.894   3.685
 5889TIP3    H217674   2.564   4.817   3.565
 5890TIP3   OH217675   6.323   0.274   2.648
 5890TIP3    H117676   6.332   0.325   2.728
 5890TIP3    H217677   6.349   0.333   2.578
 5891TIP3   OH217678   3.789   5.416   2.778
 5891TIP3    H117679   3.727   5.356   2.737
 5891TIP3    H217680   3.752   5.433   2.865
 5892TIP3   OH217681   5.561   2.028   2.148
 5892TIP3    H117682   5.628   2.008   2.082
 5892TIP3    H217683   5.480   1.995   2.109
 5893TIP3   OH217684   5.131   1.104   4.675
 5893TIP3    H117685   5.203   1.124   4.615
 5893TIP3    H217686   5.174   1.082   4.757
 5894TIP3   OH217687   4.688   3.137   1.036
 5894TIP3    H117688   4.677   3.059   1.090
 5894TIP3    H217689   4.599   3.161   1.009
 5895TIP3   OH217690   3.979   5.428   1.432
 5895TIP3    H117691   3.912   5.497   1.431
 5895TIP3    H217692   3.934   5.352   1.395
 5896TIP3   OH217693   1.520   5.508   3.698
 5896TIP3    H117694   1.567   5.590   3.684
 5896TIP3    H217695   1.446   5.531   3.754
 5897TIP3   OH217696   3.169   1.845   0.713
 5897TIP3    H117697   3.089   1.897   0.702
 5897TIP3    H217698   3.139   1.754   0.714
 5898TIP3   OH217699   5.167   3.948   1.780
 5898TIP3    H117700   5.242   4.001   1.754
 5898TIP3    H217701   5.136   3.989   1.861
 5899TIP3   OH217702   6.201   3.735   2.956
 5899TIP3    H117703   6.138   3.802   2.932
 5899TIP3    H217704   6.197   3.671   2.885
 5900TIP3   OH217705   6.165   2.461   1.995
 5900TIP3    H117706   6.255   2.478   2.022
 5900TIP3    H217707   6.171   2.443   1.901
 5901TIP3   OH217708   1.261   2.380   0.023
 5901TIP3    H117709   1.168   2.395   0.040
 5901TIP3    H217710   1.303   2.396   0.107
 5902TIP3   OH217711   1.016   0.731   4.196
 5902TIP3    H117712   1.102   0.710   4.234
 5902TIP3    H217713   1.020   0.825   4.179
 5903TIP3   OH217714   5.749   0.724   4.769
 5903TIP3    H117715   5.732   0.776   4.847
 5903TIP3    H217716   5.735   0.633   4.798
 5904TIP3   OH217717   1.163   1.456   0.193
 5904TIP3    H117718   1.232   1.472   0.258
 5904TIP3    H217719   1.186   1.372   0.155
 5905TIP3   OH217720   5.093   0.131   3.189
 5905TIP3    H117721   5.082   0.036   3.185
 5905TIP3    H217722   5.158   0.144   3.258
 5906TIP3   OH217723   5.464   4.783   3.734
 5906TIP3    H117724   5.533   4.776   3.668
 5906TIP3    H217725   5.510   4.806   3.815
 5907TIP3   OH217726   2.040   5.342   1.977
 5907TIP3    H117727   2.019   5.299   2.060
 5907TIP3    H217728   2.032   5.435   1.995
 5908TIP3   OH217729   3.410   1.416   3.644
 5908TIP3    H117730   3.401   1.447   3.554
 5908TIP3    H217731   3.468   1.480   3.685
 5909TIP3   OH217732   3.803   4.889   0.394
 5909TIP3    H117733   3.822   4.827   0.465
 5909TIP3    H217734   3.709   4.881   0.380
 5910TIP3   OH217735   2.606   5.130   4.426
 5910TIP3    H117736   2.638   5.183   4.498
 5910TIP3    H217737   2.646   5.169   4.348
 5911TIP3   OH217738   5.376   1.067   4.547
 5911TIP3    H117739   5.461   1.080   4.588
 5911TIP3    H217740   5.394   1.013   4.470
 5912TIP3   OH217741   5.607   2.661   1.217
 5912TIP3    H117742   5.570   2.742   1.182
 5912TIP3    H217743   5.693   2.687   1.251
 5913TIP3   OH217744   3.720   5.809   4.652
 5913TIP3    H117745   3.738   5.772   4.566
 5913TIP3    H217746   3.743   5.902   4.643
 5914TIP3   OH217747   2.224   3.312   1.006
 5914TIP3    H117748   2.317   3.336   1.010
 5914TIP3    H217749   2.190   3.361   0.931
 5915TIP3   OH217750   3.350   3.666   0.507
 5915TIP3    H117751   3.297   3.720   0.449
 5915TIP3    H217752   3.430   3.649   0.458
 5916TIP3   OH217753   5.893   0.978   1.530
 5916TIP3    H117754   5.811   0.946   1.493
 5916TIP3    H217755   5.871   1.063   1.568
 5917TIP3   OH217756   0.953   4.345   3.752
 5917TIP3    H117757   1.029   4.395   3.783
 5917TIP3    H217758   0.932   4.384   3.667
 5918TIP3   OH217759   1.861   1.028   3.445
 5918TIP3    H117760   1.809   1.006   3.522
 5918TIP3    H217761   1.858   1.123   3.439
 5919TIP3   OH217762   5.349   0.792   1.955
 5919TIP3    H117763   5.324   0.816   1.865
 5919TIP3    H217764   5.337   0.697   1.959
 5920TIP3   OH217765   2.088   0.300   4.918
 5920TIP3    H117766   2.105   0.394   4.911
 5920TIP3    H217767   2.098   0.267   4.829
 5921TIP3   OH217768   0.214   0.707   4.754
 5921TIP3    H117769   0.253   0.696   4.840
 5921TIP3    H217770   0.200   0.801   4.745
 5922TIP3   OH217771   5.850   2.603   1.035
 5922TIP3    H117772   5.791   2.658   0.982
 5922TIP3    H217773   5.819   2.514   1.020
 5923TIP3   OH217774   0.388   2.418   4.353
 5923TIP3    H117775   0.426   2.337   4.386
 5923TIP3    H217776   0.342   2.392   4.273
 5924TIP3   OH217777   3.111   3.958   4.872
 5924TIP3    H117778   3.153   3.906   4.940
 5924TIP3    H217779   3.178   4.021   4.845
 5925TIP3   OH217780   2.027   3.758   2.050
 5925TIP3    H117781   1.965   3.780   2.120
 5925TIP3    H217782   2.113   3.776   2.087
 5926TIP3   OH217783   5.744   1.568   2.543
 5926TIP3    H117784   5.823   1.609   2.578
 5926TIP3    H217785   5.737   1.485   2.590
 5927TIP3   OH217786   2.048   3.328   0.767
 5927TIP3    H117787   2.125   3.306   0.716
 5927TIP3    H217788   2.040   3.423   0.760
 5928TIP3   OH217789   3.196   1.152   4.365
 5928TIP3    H117790   3.137   1.192   4.301
 5928TIP3    H217791   3.142   1.085   4.408
 5929TIP3   OH217792   5.914   4.215   1.853
 5929TIP3    H117793   5.840   4.211   1.793
 5929TIP3    H217794   5.880   4.181   1.936
 5930TIP3   OH217795   4.986   5.032   1.511
 5930TIP3    H117796   4.957   5.047   1.420
 5930TIP3    H217797   5.019   4.942   1.511
 5931TIP3   OH217798   3.260   4.644   1.389
 5931TIP3    H117799   3.202   4.579   1.427
 5931TIP3    H217800   3.205   4.722   1.377
 5932TIP3   OH217801   4.206   3.266   4.398
 5932TIP3    H117802   4.121   3.312   4.393
 5932TIP3    H217803   4.200   3.197   4.332
 5933TIP3   OH217804   0.146   5.386   0.983
 5933TIP3    H117805   0.213   5.368   0.917
 5933TIP3    H217806   0.119   5.476   0.966
 5934TIP3   OH217807   4.504   2.212   1.293
 5934TIP3    H117808   4.498   2.292   1.344
 5934TIP3    H217809   4.490   2.142   1.356
 5935TIP3   OH217810   2.336   2.990   0.617
 5935TIP3    H117811   2.308   3.072   0.575
 5935TIP3    H217812   2.291   2.990   0.701
 5936TIP3   OH217813   0.951   1.844   5.116
 5936TIP3    H117814   0.958   1.828   5.022
 5936TIP3    H217815   0.897   1.924   5.122
 5937TIP3   OH217816   2.212   5.481   0.746
 5937TIP3    H117817   2.136   5.516   0.700
 5937TIP3    H217818   2.183   5.474   0.837
 5938TIP3   OH217819   5.423   2.132   2.824
 5938TIP3    H117820   5.483   2.199   2.857
 5938TIP3    H217821   5.392   2.087   2.903
 5939TIP3   OH217822   0.280   0.684   2.036
 5939TIP3    H117823   0.276   0.658   1.944
 5939TIP3    H217824   0.288   0.779   2.034
 5940TIP3   OH217825   6.236   3.810   4.144
 5940TIP3    H117826   6.202   3.748   4.208
 5940TIP3    H217827   6.298   3.864   4.193
 5941TIP3   OH217828   5.769   3.271   3.081
 5941TIP3    H117829   5.778   3.233   3.169
 5941TIP3    H217830   5.836   3.339   3.078
 5942TIP3   OH217831   2.412   3.090   5.101
 5942TIP3    H117832   2.425   2.996   5.113
 5942TIP3    H217833   2.497   3.122   5.069
 5943TIP3   OH217834   4.139   3.222   0.659
 5943TIP3    H117835   4.204   3.293   0.661
 5943TIP3    H217836   4.055   3.266   0.663
 5944TIP3   OH217837   1.358   4.258   2.227
 5944TIP3    H117838   1.410   4.208   2.163
 5944TIP3    H217839   1.417   4.325   2.259
 5945TIP3   OH217840   1.037   2.606   1.406
 5945TIP3    H117841   0.966   2.580   1.347
 5945TIP3    H217842   1.109   2.630   1.348
 5946TIP3   OH217843   1.709   0.994  -0.024
 5946TIP3    H117844   1.638   0.968   0.035
 5946TIP3    H217845   1.725   1.086  -0.004
 5947TIP3   OH217846   4.237   5.091   1.323
 5947TIP3    H117847   4.226   5.020   1.387
 5947TIP3    H217848   4.320   5.072   1.280
 5948TIP3   OH217849   2.787   1.610   1.554
 5948TIP3    H117850   2.817   1.670   1.485
 5948TIP3    H217851   2.865   1.563   1.581
 5949TIP3   OH217852   3.847   1.633   1.393
 5949TIP3    H117853   3.896   1.660   1.316
 5949TIP3    H217854   3.763   1.678   1.385
 5950TIP3   OH217855   4.403   4.430   2.419
 5950TIP3    H117856   4.476   4.475   2.462
 5950TIP3    H217857   4.366   4.494   2.359
 5951TIP3   OH217858   4.055   0.217   2.717
 5951TIP3    H117859   4.022   0.130   2.695
 5951TIP3    H217860   4.096   0.248   2.636
 5952TIP3   OH217861   2.193   5.949   4.629
 5952TIP3    H117862   2.191   5.964   4.724
 5952TIP3    H217863   2.265   6.004   4.598
 5953TIP3   OH217864   5.259   2.213   2.472
 5953TIP3    H117865   5.308   2.295   2.471
 5953TIP3    H217866   5.168   2.239   2.455
 5954TIP3   OH217867   2.287   2.040   0.257
 5954TIP3    H117868   2.289   2.068   0.165
 5954TIP3    H217869   2.226   2.102   0.299
 5955TIP3   OH217870   1.257   1.316   2.392
 5955TIP3    H117871   1.283   1.297   2.302
 5955TIP3    H217872   1.184   1.377   2.383
 5956TIP3   OH217873   4.386   4.674   0.650
 5956TIP3    H117874   4.350   4.672   0.561
 5956TIP3    H217875   4.309   4.670   0.706
 5957TIP3   OH217876   3.285   3.985   4.541
 5957TIP3    H117877   3.317   3.908   4.589
 5957TIP3    H217878   3.290   4.056   4.604
 5958TIP3   OH217879   1.573   0.360   4.492
 5958TIP3    H117880   1.651   0.327   4.537
 5958TIP3    H217881   1.546   0.288   4.435
 5959TIP3   OH217882   0.116   5.610   1.698
 5959TIP3    H117883   0.197   5.609   1.749
 5959TIP3    H217884   0.117   5.695   1.654
 5960TIP3   OH217885   0.167   0.739   2.983
 5960TIP3    H117886   0.094   0.801   2.980
 5960TIP3    H217887   0.147   0.682   3.057
 5961TIP3   OH217888   3.256   2.589   2.467
 5961TIP3    H117889   3.243   2.593   2.372
 5961TIP3    H217890   3.194   2.523   2.497
 5962TIP3   OH217891   5.807   1.873   2.410
 5962TIP3    H117892   5.882   1.869   2.350
 5962TIP3    H217893   5.754   1.946   2.377
 5963TIP3   OH217894   5.305   3.855   1.494
 5963TIP3    H117895   5.214   3.837   1.515
 5963TIP3    H217896   5.348   3.865   1.579
 5964TIP3   OH217897   0.039   3.616   0.032
 5964TIP3    H117898   0.121   3.667   0.029
 5964TIP3    H217899  -0.028   3.681   0.056
 5965TIP3   OH217900   4.937   3.179   3.214
 5965TIP3    H117901   4.943   3.261   3.263
 5965TIP3    H217902   4.845   3.171   3.190
 5966TIP3   OH217903   4.055   1.272   2.189
 5966TIP3    H117904   4.033   1.364   2.201
 5966TIP3    H217905   4.041   1.233   2.275
 5967TIP3   OH217906   0.636   5.244   4.329
 5967TIP3    H117907   0.625   5.246   4.234
 5967TIP3    H217908   0.651   5.151   4.349
 5968TIP3   OH217909   0.084   1.863   3.908
 5968TIP3    H117910   0.050   1.807   3.978
 5968TIP3    H217911   0.079   1.952   3.945
 5969TIP3   OH217912   5.512   3.168   4.416
 5969TIP3    H117913   5.484   3.222   4.343
 5969TIP3    H217914   5.498   3.223   4.493
 5970TIP3   OH217915   4.705   5.142   3.074
 5970TIP3    H117916   4.616   5.155   3.106
 5970TIP3    H217917   4.696   5.083   2.999
 5971TIP3   OH217918   1.890   4.197   4.460
 5971TIP3    H117919   1.904   4.201   4.366
 5971TIP3    H217920   1.883   4.104   4.480
 5972TIP3   OH217921   5.729   5.458   3.842
 5972TIP3    H117922   5.765   5.391   3.783
 5972TIP3    H217923   5.641   5.427   3.863
 5973TIP3   OH217924   4.942   5.186   4.963
 5973TIP3    H117925   4.886   5.248   5.009
 5973TIP3    H217926   4.881   5.122   4.926
 5974TIP3   OH217927   3.577   2.445   3.665
 5974TIP3    H117928   3.525   2.393   3.604
 5974TIP3    H217929   3.661   2.455   3.621
 5975TIP3   OH217930   1.647   2.194   3.878
 5975TIP3    H117931   1.689   2.210   3.794
 5975TIP3    H217932   1.645   2.099   3.886
 5976TIP3   OH217933   5.975   5.509   0.174
 5976TIP3    H117934   6.064   5.479   0.194
 5976TIP3    H217935   5.979   5.536   0.082
 5977TIP3   OH217936   0.826   0.475   2.872
 5977TIP3    H117937   0.852   0.537   2.803
 5977TIP3    H217938   0.801   0.530   2.946
 5978TIP3   OH217939   1.226   3.067   5.177
 5978TIP3    H117940   1.213   2.976   5.204
 5978TIP3    H217941   1.194   3.070   5.087
 5979TIP3   OH217942   3.053   4.522   4.779
 5979TIP3    H117943   2.969   4.553   4.812
 5979TIP3    H217944   3.092   4.598   4.737
 5980TIP3   OH217945   0.334   4.385   2.475
 5980TIP3    H117946   0.263   4.403   2.414
 5980TIP3    H217947   0.409   4.432   2.440
 5981TIP3   OH217948   1.673   5.808   3.426
 5981TIP3    H117949   1.621   5.765   3.357
 5981TIP3    H217950   1.622   5.885   3.449
 5982TIP3   OH217951   5.046   1.833   2.519
 5982TIP3    H117952   5.139   1.844   2.503
 5982TIP3    H217953   5.030   1.873   2.604
 5983TIP3   OH217954   6.267   1.940   3.685
 5983TIP3    H117955   6.238   1.858   3.646
 5983TIP3    H217956   6.307   1.915   3.768
 5984TIP3   OH217957   5.356   2.570   2.968
 5984TIP3    H117958   5.311   2.541   3.047
 5984TIP3    H217959   5.430   2.510   2.958
 5985TIP3   OH217960   4.658   0.979   0.169
 5985TIP3    H117961   4.731   1.032   0.136
 5985TIP3    H217962   4.672   0.893   0.131
 5986TIP3   OH217963   0.732   1.353   0.266
 5986TIP3    H117964   0.779   1.418   0.214
 5986TIP3    H217965   0.778   1.271   0.249
 5987TIP3   OH217966   2.385   4.904   0.979
 5987TIP3    H117967   2.422   4.843   1.042
 5987TIP3    H217968   2.298   4.867   0.959
 5988TIP3   OH217969   4.188   0.807   0.829
 5988TIP3    H117970   4.228   0.751   0.763
 5988TIP3    H217971   4.239   0.888   0.827
 5989TIP3   OH217972   4.710   5.418   0.187
 5989TIP3    H117973   4.708   5.406   0.092
 5989TIP3    H217974   4.752   5.503   0.200
 5990TIP3   OH217975   3.242   3.573   3.892
 5990TIP3    H117976   3.278   3.632   3.825
 5990TIP3    H217977   3.163   3.617   3.923
 5991TIP3   OH217978   5.675   4.332   3.901
 5991TIP3    H117979   5.714   4.375   3.978
 5991TIP3    H217980   5.688   4.239   3.917
 5992TIP3   OH217981   5.042   3.312   0.028
 5992TIP3    H117982   5.126   3.294   0.070
 5992TIP3    H217983   5.064   3.348  -0.058
 5993TIP3   OH217984   2.493   0.436   1.150
 5993TIP3    H117985   2.492   0.484   1.233
 5993TIP3    H217986   2.406   0.397   1.144
 5994TIP3   OH217987   5.863   5.866   0.810
 5994TIP3    H117988   5.933   5.807   0.780
 5994TIP3    H217989   5.891   5.953   0.779
 5995TIP3   OH217990   1.463   1.012   1.049
 5995TIP3    H117991   1.508   0.964   1.119
 5995TIP3    H217992   1.485   0.962   0.970
 5996TIP3   OH217993   1.003   3.659   3.214
 5996TIP3    H117994   1.025   3.740   3.260
 5996TIP3    H217995   1.087   3.628   3.180
 5997TIP3   OH217996   1.592   0.676   3.688
 5997TIP3    H117997   1.528   0.622   3.734
 5997TIP3    H217998   1.622   0.621   3.616
 5998TIP3   OH217999   3.778   0.271   0.532
 5998TIP3    H118000   3.843   0.201   0.533
 5998TIP3    H218001   3.819   0.342   0.583
 5999TIP3   OH218002   1.412   4.156   4.497
 5999TIP3    H118003   1.401   4.083   4.437
 5999TIP3    H218004   1.445   4.227   4.442
 6000TIP3   OH218005   0.605   4.188   1.342
 6000TIP3    H118006   0.661   4.208   1.417
 6000TIP3    H218007   0.542   4.124   1.375
 6001TIP3   OH218008   3.134   2.060   1.633
 6001TIP3    H118009   3.128   2.000   1.707
 6001TIP3    H218010   3.105   2.009   1.557
 6002TIP3   OH218011   4.373   0.472   3.057
 6002TIP3    H118012   4.398   0.413   2.986
 6002TIP3    H218013   4.442   0.462   3.123
 6003TIP3   OH218014   0.454   2.138   3.559
 6003TIP3    H118015   0.464   2.232   3.576
 6003TIP3    H218016   0.406   2.105   3.634
 6004TIP3   OH218017   2.261   4.099   0.046
 6004TIP3    H118018   2.198   4.037   0.010
 6004TIP3    H218019   2.331   4.045   0.082
 6005TIP3   OH218020   0.247   0.607   4.497
 6005TIP3    H118021   0.330   0.657   4.497
 6005TIP3    H218022   0.216   0.614   4.587
 6006TIP3   OH218023   6.016   5.529   0.527
 6006TIP3    H118024   5.935   5.518   0.478
 6006TIP3    H218025   5.990   5.576   0.606
 6007TIP3   OH218026   4.582   1.496   2.550
 6007TIP3    H118027   4.652   1.434   2.569
 6007TIP3    H218028   4.627   1.573   2.514
 6008TIP3   OH218029   6.164   2.369   1.717
 6008TIP3    H118030   6.133   2.458   1.699
 6008TIP3    H218031   6.214   2.345   1.639
 6009TIP3   OH218032   1.459   2.873   4.760
 6009TIP3    H118033   1.443   2.928   4.836
 6009TIP3    H218034   1.538   2.911   4.719
 6010TIP3   OH218035   2.805   2.303   2.323
 6010TIP3    H118036   2.862   2.364   2.371
 6010TIP3    H218037   2.723   2.351   2.314
 6011TIP3   OH218038   0.604   0.923   5.004
 6011TIP3    H118039   0.587   0.983   4.931
 6011TIP3    H218040   0.604   0.980   5.082
 6012TIP3   OH218041   2.373   3.602   3.286
 6012TIP3    H118042   2.309   3.635   3.349
 6012TIP3    H218043   2.383   3.510   3.307
 6013TIP3   OH218044   0.366   5.274   0.829
 6013TIP3    H118045   0.405   5.355   0.863
 6013TIP3    H218046   0.423   5.248   0.757
 6014TIP3   OH218047   3.082   1.777   3.473
 6014TIP3    H118048   3.001   1.762   3.424
 6014TIP3    H218049   3.057   1.836   3.544
 6015TIP3   OH218050   4.801   4.772   3.765
 6015TIP3    H118051   4.741   4.782   3.691
 6015TIP3    H218052   4.871   4.715   3.732
 6016TIP3   OH218053   5.129   0.183   0.864
 6016TIP3    H118054   5.079   0.263   0.848
 6016TIP3    H218055   5.166   0.160   0.779
 6017TIP3   OH218056   6.077   2.393   2.467
 6017TIP3    H118057   6.001   2.338   2.453
 6017TIP3    H218058   6.131   2.381   2.389
 6018TIP3   OH218059   2.347   0.564   0.612
 6018TIP3    H118060   2.357   0.536   0.703
 6018TIP3    H218061   2.361   0.485   0.560
 6019TIP3   OH218062   1.054   5.614   4.715
 6019TIP3    H118063   0.991   5.561   4.665
 6019TIP3    H218064   1.024   5.607   4.806
 6020TIP3   OH218065   3.064   2.963   3.665
 6020TIP3    H118066   2.981   2.954   3.713
 6020TIP3    H218067   3.124   2.905   3.711
 6021TIP3   OH218068   3.944   4.408   1.504
 6021TIP3    H118069   3.902   4.322   1.501
 6021TIP3    H218070   3.922   4.443   1.590
 6022TIP3   OH218071   0.003   2.700   4.180
 6022TIP3    H118072   0.031   2.789   4.201
 6022TIP3    H218073  -0.006   2.657   4.265
 6023TIP3   OH218074   0.787   3.436   0.894
 6023TIP3    H118075   0.853   3.497   0.859
 6023TIP3    H218076   0.809   3.352   0.855
 6024TIP3   OH218077   0.810   4.967   2.411
 6024TIP3    H118078   0.785   5.027   2.341
 6024TIP3    H218079   0.867   5.019   2.468
 6025TIP3   OH218080   4.996   4.343   2.906
 6025TIP3    H118081   4.980   4.250   2.925
 6025TIP3    H218082   4.930   4.366   2.841
 6026TIP3   OH218083   4.298   4.333   5.020
 6026TIP3    H118084   4.272   4.305   4.932
 6026TIP3    H218085   4.308   4.428   5.014
 6027TIP3   OH218086   4.653   0.981   4.390
 6027TIP3    H118087   4.697   1.038   4.453
 6027TIP3    H218088   4.646   0.897   4.434
 6028TIP3   OH218089   3.522   2.716   3.448
 6028TIP3    H118090   3.575   2.792   3.471
 6028TIP3    H218091   3.552   2.647   3.506
 6029TIP3   OH218092   5.806   0.880   2.041
 6029TIP3    H118093   5.828   0.842   1.955
 6029TIP3    H218094   5.719   0.917   2.029
 6030TIP3   OH218095   5.449   3.350   0.585
 6030TIP3    H118096   5.512   3.296   0.537
 6030TIP3    H218097   5.469   3.440   0.558
 6031TIP3   OH218098   5.002   2.324   0.018
 6031TIP3    H118099   4.989   2.370  -0.065
 6031TIP3    H218100   5.005   2.394   0.083
 6032TIP3   OH218101   3.481   2.299   3.376
 6032TIP3    H118102   3.386   2.287   3.382
 6032TIP3    H218103   3.510   2.229   3.318
 6033TIP3   OH218104   0.068   2.155   1.814
 6033TIP3    H118105  -0.026   2.171   1.827
 6033TIP3    H218106   0.075   2.060   1.812
 6034TIP3   OH218107   3.169   4.760   4.727
 6034TIP3    H118108   3.254   4.730   4.758
 6034TIP3    H218109   3.130   4.806   4.802
 6035TIP3   OH218110   0.097   1.824   1.377
 6035TIP3    H118111   0.144   1.848   1.457
 6035TIP3    H218112   0.144   1.868   1.307
 6036TIP3   OH218113   3.356   2.764   1.367
 6036TIP3    H118114   3.449   2.741   1.361
 6036TIP3    H218115   3.347   2.804   1.454
 6037TIP3   OH218116   2.031   2.479   3.531
 6037TIP3    H118117   2.066   2.568   3.526
 6037TIP3    H218118   2.072   2.442   3.610
 6038TIP3   OH218119   4.232   2.939   1.476
 6038TIP3    H118120   4.271   2.975   1.556
 6038TIP3    H218121   4.265   2.995   1.406
 6039TIP3   OH218122   3.390   5.836   2.765
 6039TIP3    H118123   3.454   5.785   2.716
 6039TIP3    H218124   3.305   5.810   2.728
 6040TIP3   OH218125   6.225   5.314   4.962
 6040TIP3    H118126   6.158   5.348   4.903
 6040TIP3    H218127   6.298   5.291   4.905
 6041TIP3   OH218128   4.192   5.379   3.514
 6041TIP3    H118129   4.100   5.368   3.537
 6041TIP3    H218130   4.191   5.399   3.420
 6042TIP3   OH218131   3.446   1.073   4.471
 6042TIP3    H118132   3.447   0.978   4.475
 6042TIP3    H218133   3.358   1.095   4.441
 6043TIP3   OH218134   2.493   4.734   4.731
 6043TIP3    H118135   2.416   4.789   4.714
 6043TIP3    H218136   2.567   4.788   4.704
 6044TIP3   OH218137   4.435   0.923   0.364
 6044TIP3    H118138   4.523   0.933   0.327
 6044TIP3    H218139   4.421   1.004   0.414
 6045TIP3   OH218140   1.365   4.348   0.846
 6045TIP3    H118141   1.441   4.294   0.825
 6045TIP3    H218142   1.384   4.433   0.805
 6046TIP3   OH218143   0.644   4.238   0.874
 6046TIP3    H118144   0.722   4.184   0.857
 6046TIP3    H218145   0.578   4.175   0.903
 6047TIP3   OH218146   2.843   0.113   2.431
 6047TIP3    H118147   2.925   0.088   2.388
 6047TIP3    H218148   2.808   0.184   2.377
 6048TIP3   OH218149   3.326   2.458   2.748
 6048TIP3    H118150   3.338   2.474   2.842
 6048TIP3    H218151   3.274   2.378   2.744
 6049TIP3   OH218152   5.782   1.420   2.794
 6049TIP3    H118153   5.702   1.463   2.826
 6049TIP3    H218154   5.810   1.365   2.867
 6050TIP3   OH218155   1.894   3.729   3.729
 6050TIP3    H118156   1.874   3.789   3.658
 6050TIP3    H218157   1.938   3.655   3.688
 6051TIP3   OH218158   4.929   2.454   0.260
 6051TIP3    H118159   4.939   2.473   0.354
 6051TIP3    H218160   4.931   2.539   0.218
 6052TIP3   OH218161   4.635   4.688   0.192
 6052TIP3    H118162   4.550   4.718   0.160
 6052TIP3    H218163   4.691   4.766   0.188
 6053TIP3   OH218164   3.034   4.917   4.255
 6053TIP3    H118165   3.086   4.839   4.237
 6053TIP3    H218166   3.059   4.943   4.344
 6054TIP3   OH218167   2.242   3.566   3.051
 6054TIP3    H118168   2.323   3.532   3.013
 6054TIP3    H218169   2.258   3.567   3.146
 6055TIP3   OH218170   5.935   0.853   0.944
 6055TIP3    H118171   5.982   0.869   0.862
 6055TIP3    H218172   5.847   0.886   0.929
 6056TIP3   OH218173   5.228   0.056   4.551
 6056TIP3    H118174   5.279  -0.001   4.609
 6056TIP3    H218175   5.139   0.024   4.557
 6057TIP3   OH218176   6.090   2.443   4.430
 6057TIP3    H118177   6.111   2.369   4.372
 6057TIP3    H218178   6.152   2.511   4.405
 6058TIP3   OH218179   2.389   0.717   2.006
 6058TIP3    H118180   2.322   0.713   1.937
 6058TIP3    H218181   2.342   0.692   2.086
 6059TIP3   OH218182   4.222   4.600   0.834
 6059TIP3    H118183   4.175   4.658   0.894
 6059TIP3    H218184   4.203   4.512   0.866
 6060TIP3   OH218185   4.416   5.102   3.143
 6060TIP3    H118186   4.412   5.020   3.094
 6060TIP3    H218187   4.418   5.076   3.235
 6061TIP3   OH218188   1.841   4.204   0.298
 6061TIP3    H118189   1.931   4.219   0.267
 6061TIP3    H218190   1.852   4.177   0.389
 6062TIP3   OH218191   1.072   0.954   3.279
 6062TIP3    H118192   1.141   0.955   3.214
 6062TIP3    H218193   1.104   0.895   3.347
 6063TIP3   OH218194   3.384   2.974   1.153
 6063TIP3    H118195   3.411   2.895   1.199
 6063TIP3    H218196   3.294   2.989   1.180
 6064TIP3   OH218197   5.565   5.003   5.034
 6064TIP3    H118198   5.547   5.089   4.996
 6064TIP3    H218199   5.517   4.942   4.978
 6065TIP3   OH218200   5.648   0.623   4.305
 6065TIP3    H118201   5.587   0.610   4.233
 6065TIP3    H218202   5.602   0.590   4.382
 6066TIP3   OH218203   0.258   1.684   4.336
 6066TIP3    H118204   0.302   1.731   4.406
 6066TIP3    H218205   0.205   1.751   4.292
 6067TIP3   OH218206   5.373   4.744   0.601
 6067TIP3    H118207   5.353   4.660   0.559
 6067TIP3    H218208   5.399   4.720   0.690
 6068TIP3   OH218209   0.835   1.953   4.115
 6068TIP3    H118210   0.916   1.931   4.069
 6068TIP3    H218211   0.863   2.000   4.193
 6069TIP3   OH218212   5.068   3.260   1.714
 6069TIP3    H118213   5.139   3.273   1.651
 6069TIP3    H218214   4.999   3.217   1.663
 6070TIP3   OH218215   2.792   5.295   2.153
 6070TIP3    H118216   2.859   5.362   2.136
 6070TIP3    H218217   2.723   5.314   2.089
 6071TIP3   OH218218   1.938   1.636   3.575
 6071TIP3    H118219   2.004   1.683   3.627
 6071TIP3    H218220   1.855   1.675   3.602
 6072TIP3   OH218221   2.317   2.259   3.923
 6072TIP3    H118222   2.322   2.163   3.932
 6072TIP3    H218223   2.402   2.285   3.887
 6073TIP3   OH218224   1.585   5.871   1.122
 6073TIP3    H118225   1.491   5.870   1.137
 6073TIP3    H218226   1.599   5.811   1.049
 6074TIP3   OH218227   4.689   3.950   1.239
 6074TIP3    H118228   4.680   3.937   1.144
 6074TIP3    H218229   4.647   3.873   1.278
 6075TIP3   OH218230   2.383   2.679   3.819
 6075TIP3    H118231   2.336   2.601   3.848
 6075TIP3    H218232   2.427   2.652   3.739
 6076TIP3   OH218233   5.086   0.691   3.198
 6076TIP3    H118234   5.077   0.615   3.140
 6076TIP3    H218235   5.180   0.706   3.204
 6077TIP3   OH218236   3.161   3.504   0.601
 6077TIP3    H118237   3.112   3.496   0.519
 6077TIP3    H218238   3.223   3.575   0.585
 6078TIP3   OH218239   2.703   0.500   4.963
 6078TIP3    H118240   2.785   0.452   4.971
 6078TIP3    H218241   2.715   0.553   4.884
 6079TIP3   OH218242   3.131   0.739   2.009
 6079TIP3    H118243   3.080   0.697   1.940
 6079TIP3    H218244   3.166   0.666   2.060
 6080TIP3   OH218245   3.751   1.338   0.754
 6080TIP3    H118246   3.752   1.433   0.763
 6080TIP3    H218247   3.839   1.311   0.778
 6081TIP3   OH218248   0.649   4.174   3.806
 6081TIP3    H118249   0.564   4.200   3.841
 6081TIP3    H218250   0.689   4.122   3.876
 6082TIP3   OH218251   4.539   0.761   2.507
 6082TIP3    H118252   4.607   0.694   2.501
 6082TIP3    H218253   4.582   0.835   2.550
 6083TIP3   OH218254   6.276   0.686   3.844
 6083TIP3    H118255   6.236   0.613   3.892
 6083TIP3    H218256   6.237   0.681   3.757
 6084TIP3   OH218257   6.000   5.650   1.457
 6084TIP3    H118258   5.950   5.724   1.422
 6084TIP3    H218259   5.995   5.661   1.552
 6085TIP3   OH218260   0.778   0.716   5.044
 6085TIP3    H118261   0.715   0.785   5.064
 6085TIP3    H218262   0.801   0.730   4.952
 6086TIP3   OH218263   6.119   5.865   4.855
 6086TIP3    H118264   6.074   5.793   4.899
 6086TIP3    H218265   6.099   5.942   4.909
 6087TIP3   OH218266   1.934   4.299   3.823
 6087TIP3    H118267   1.959   4.219   3.777
 6087TIP3    H218268   2.006   4.315   3.884
 6088TIP3   OH218269   4.411   3.325   1.190
 6088TIP3    H118270   4.322   3.361   1.199
 6088TIP3    H218271   4.459   3.360   1.265
 6089TIP3   OH218272   2.527   1.741   0.425
 6089TIP3    H118273   2.540   1.834   0.404
 6089TIP3    H218274   2.606   1.698   0.392
 6090TIP3   OH218275   1.787   1.947   0.775
 6090TIP3    H118276   1.824   1.910   0.695
 6090TIP3    H218277   1.698   1.973   0.751
 6091TIP3   OH218278   5.424   5.085   3.551
 6091TIP3    H118279   5.516   5.102   3.571
 6091TIP3    H218280   5.389   5.169   3.522
 6092TIP3   OH218281   2.999   0.087   2.182
 6092TIP3    H118282   3.035   0.011   2.135
 6092TIP3    H218283   2.904   0.079   2.171
 6093TIP3   OH218284   5.607   0.334   2.576
 6093TIP3    H118285   5.602   0.396   2.648
 6093TIP3    H218286   5.557   0.258   2.606
 6094TIP3   OH218287   1.225   4.632   3.234
 6094TIP3    H118288   1.134   4.623   3.261
 6094TIP3    H218289   1.226   4.609   3.141
 6095TIP3   OH218290   5.934   0.646   3.100
 6095TIP3    H118291   5.908   0.725   3.148
 6095TIP3    H218292   5.898   0.574   3.151
 6096TIP3   OH218293   6.221   1.160   0.782
 6096TIP3    H118294   6.281   1.178   0.709
 6096TIP3    H218295   6.241   1.071   0.809
 6097TIP3   OH218296   2.492   3.692   5.113
 6097TIP3    H118297   2.413   3.678   5.061
 6097TIP3    H218298   2.530   3.773   5.079
 6098TIP3   OH218299   2.336   0.650   3.153
 6098TIP3    H118300   2.274   0.666   3.082
 6098TIP3    H218301   2.287   0.598   3.216
 6099TIP3   OH218302   1.683   2.101   1.829
 6099TIP3    H118303   1.627   2.049   1.772
 6099TIP3    H218304   1.771   2.066   1.815
 6100TIP3   OH218305   2.388   2.072   2.966
 6100TIP3    H118306   2.316   2.068   3.029
 6100TIP3    H218307   2.358   2.020   2.891
 6101TIP3   OH218308   1.143   4.742   1.910
 6101TIP3    H118309   1.058   4.767   1.946
 6101TIP3    H218310   1.148   4.786   1.825
 6102TIP3   OH218311   0.250   1.323   2.497
 6102TIP3    H118312   0.323   1.271   2.531
 6102TIP3    H218313   0.192   1.259   2.456
 6103TIP3   OH218314   2.308   1.198   4.691
 6103TIP3    H118315   2.241   1.266   4.698
 6103TIP3    H218316   2.258   1.117   4.681
 6104TIP3   OH218317   2.420   1.146   2.150
 6104TIP3    H118318   2.404   1.087   2.077
 6104TIP3    H218319   2.376   1.228   2.125
 6105TIP3   OH218320   1.349   5.928   2.457
 6105TIP3    H118321   1.399   5.961   2.382
 6105TIP3    H218322   1.412   5.929   2.529
 6106TIP3   OH218323   0.437   3.724   2.445
 6106TIP3    H118324   0.465   3.801   2.395
 6106TIP3    H218325   0.379   3.677   2.386
 6107TIP3   OH218326   0.139   3.672   3.717
 6107TIP3    H118327   0.065   3.710   3.671
 6107TIP3    H218328   0.163   3.736   3.784
 6108TIP3   OH218329   5.120   5.870   3.401
 6108TIP3    H118330   5.094   5.889   3.311
 6108TIP3    H218331   5.044   5.826   3.439
 6109TIP3   OH218332   0.390   4.125   0.989
 6109TIP3    H118333   0.377   4.102   1.081
 6109TIP3    H218334   0.374   4.219   0.984
 6110TIP3   OH218335   3.396   5.879   3.029
 6110TIP3    H118336   3.406   5.896   2.935
 6110TIP3    H218337   3.331   5.810   3.034
 6111TIP3   OH218338   4.290   0.363   3.516
 6111TIP3    H118339   4.369   0.416   3.526
 6111TIP3    H218340   4.223   0.408   3.568
 6112TIP3   OH218341   0.386   5.699   0.437
 6112TIP3    H118342   0.452   5.689   0.369
 6112TIP3    H218343   0.390   5.617   0.487
 6113TIP3   OH218344   2.843   4.252   5.080
 6113TIP3    H118345   2.905   4.235   5.150
 6113TIP3    H218346   2.797   4.332   5.107
 6114TIP3   OH218347   1.509   2.193   2.024
 6114TIP3    H118348   1.580   2.176   1.962
 6114TIP3    H218349   1.436   2.142   1.990
 6115TIP3   OH218350   1.233   3.786   0.901
 6115TIP3    H118351   1.216   3.829   0.817
 6115TIP3    H218352   1.282   3.851   0.952
 6116TIP3   OH218353   5.633   0.652   1.240
 6116TIP3    H118354   5.728   0.658   1.234
 6116TIP3    H218355   5.615   0.559   1.254
 6117TIP3   OH218356   3.602   5.975   4.152
 6117TIP3    H118357   3.579   5.897   4.202
 6117TIP3    H218358   3.580   5.954   4.062
 6118TIP3   OH218359   5.734   0.128   1.795
 6118TIP3    H118360   5.650   0.143   1.752
 6118TIP3    H218361   5.727   0.040   1.831
 6119TIP3   OH218362   3.912   1.200   1.264
 6119TIP3    H118363   3.874   1.219   1.349
 6119TIP3    H218364   3.928   1.106   1.264
 6120TIP3   OH218365   4.900   3.287   2.434
 6120TIP3    H118366   4.820   3.291   2.487
 6120TIP3    H218367   4.870   3.302   2.344
 6121TIP3   OH218368   0.942   4.316   4.166
 6121TIP3    H118369   0.929   4.392   4.110
 6121TIP3    H218370   1.031   4.328   4.201
 6122TIP3   OH218371   6.222   0.967   3.080
 6122TIP3    H118372   6.298   1.020   3.058
 6122TIP3    H218373   6.147   1.021   3.052
 6123TIP3   OH218374   4.182   4.869   2.348
 6123TIP3    H118375   4.094   4.855   2.315
 6123TIP3    H218376   4.189   4.963   2.360
 6124TIP3   OH218377   0.475   4.711   4.621
 6124TIP3    H118378   0.445   4.787   4.671
 6124TIP3    H218379   0.475   4.639   4.684
 6125TIP3   OH218380   2.993   2.968   4.299
 6125TIP3    H118381   3.086   2.954   4.278
 6125TIP3    H218382   2.995   3.030   4.372
 6126TIP3   OH218383   5.097   4.280   1.964
 6126TIP3    H118384   5.076   4.289   1.871
 6126TIP3    H218385   5.088   4.369   1.999
 6127TIP3   OH218386   1.811   2.575   4.485
 6127TIP3    H118387   1.773   2.488   4.489
 6127TIP3    H218388   1.899   2.562   4.448
 6128TIP3   OH218389   5.529   1.964   0.040
 6128TIP3    H118390   5.612   1.930   0.074
 6128TIP3    H218391   5.484   1.886   0.006
 6129TIP3   OH218392   4.179   5.249   4.167
 6129TIP3    H118393   4.261   5.256   4.118
 6129TIP3    H218394   4.117   5.209   4.105
 6130TIP3   OH218395   3.636   4.925   2.291
 6130TIP3    H118396   3.563   4.870   2.263
 6130TIP3    H218397   3.637   4.998   2.229
 6131TIP3   OH218398   1.449   3.671   3.427
 6131TIP3    H118399   1.414   3.758   3.404
 6131TIP3    H218400   1.467   3.630   3.342
 6132TIP3   OH218401  -0.018   4.570   0.194
 6132TIP3    H118402  -0.052   4.504   0.134
 6132TIP3    H218403   0.073   4.581   0.167
 6133TIP3   OH218404   2.134   1.501   0.885
 6133TIP3    H118405   2.119   1.406   0.881
 6133TIP3    H218406   2.089   1.528   0.965
 6134TIP3   OH218407   5.633   1.610   1.552
 6134TIP3    H118408   5.621   1.567   1.637
 6134TIP3    H218409   5.709   1.566   1.513
 6135TIP3   OH218410   1.480   5.845   4.731
 6135TIP3    H118411   1.546   5.796   4.780
 6135TIP3    H218412   1.526   5.877   4.653
 6136TIP3   OH218413   6.084   4.915   4.783
 6136TIP3    H118414   6.037   4.832   4.788
 6136TIP3    H218415   6.017   4.978   4.755
 6137TIP3   OH218416   2.806   1.007   2.053
 6137TIP3    H118417   2.877   0.943   2.065
 6137TIP3    H218418   2.813   1.033   1.961
 6138TIP3   OH218419   2.882   0.770   1.104
 6138TIP3    H118420   2.800   0.811   1.134
 6138TIP3    H218421   2.854   0.697   1.049
 6139TIP3   OH218422   3.511   1.657   3.259
 6139TIP3    H118423   3.431   1.710   3.253
 6139TIP3    H218424   3.501   1.606   3.339
 6140TIP3   OH218425   1.933   0.592   2.580
 6140TIP3    H118426   1.965   0.505   2.604
 6140TIP3    H218427   1.969   0.650   2.647
 6141TIP3   OH218428   2.017   2.800   3.222
 6141TIP3    H118429   1.939   2.813   3.275
 6141TIP3    H218430   1.992   2.833   3.135
 6142TIP3   OH218431   5.817   2.527   4.376
 6142TIP3    H118432   5.897   2.488   4.412
 6142TIP3    H218433   5.804   2.482   4.292
 6143TIP3   OH218434   2.618   3.469   2.692
 6143TIP3    H118435   2.532   3.506   2.707
 6143TIP3    H218436   2.677   3.521   2.747
 6144TIP3   OH218437   5.733   2.401   2.086
 6144TIP3    H118438   5.638   2.411   2.075
 6144TIP3    H218439   5.745   2.381   2.178
 6145TIP3   OH218440   3.530   0.049   0.896
 6145TIP3    H118441   3.491   0.114   0.954
 6145TIP3    H218442   3.462  -0.017   0.885
 6146TIP3   OH218443   5.915   5.023   1.120
 6146TIP3    H118444   5.964   5.102   1.141
 6146TIP3    H218445   5.966   4.952   1.158
 6147TIP3   OH218446   3.338   4.563   3.132
 6147TIP3    H118447   3.294   4.647   3.121
 6147TIP3    H218448   3.275   4.498   3.100
 6148TIP3   OH218449   4.772   1.464   0.457
 6148TIP3    H118450   4.847   1.523   0.469
 6148TIP3    H218451   4.796   1.385   0.507
 6149TIP3   OH218452   2.998   5.302   3.024
 6149TIP3    H118453   3.069   5.256   3.068
 6149TIP3    H218454   3.020   5.298   2.931
 6150TIP3   OH218455   0.957   5.703   0.035
 6150TIP3    H118456   0.959   5.782  -0.018
 6150TIP3    H218457   0.879   5.656   0.006
 6151TIP3   OH218458   1.055   2.073   1.579
 6151TIP3    H118459   1.000   2.084   1.502
 6151TIP3    H218460   1.140   2.047   1.544
 6152TIP3   OH218461   0.201   1.330   4.769
 6152TIP3    H118462   0.197   1.380   4.850
 6152TIP3    H218463   0.225   1.241   4.796
 6153TIP3   OH218464   1.001   3.026   2.446
 6153TIP3    H118465   1.068   3.040   2.513
 6153TIP3    H218466   1.042   2.967   2.383
 6154TIP3   OH218467   0.199   0.617   0.864
 6154TIP3    H118468   0.222   0.569   0.944
 6154TIP3    H218469   0.111   0.587   0.842
 6155TIP3   OH218470   3.574   1.155   1.723
 6155TIP3    H118471   3.650   1.097   1.721
 6155TIP3    H218472   3.502   1.101   1.691
 6156TIP3   OH218473   6.033   4.128   0.917
 6156TIP3    H118474   5.977   4.113   0.841
 6156TIP3    H218475   6.114   4.165   0.881
 6157TIP3   OH218476   3.235   1.462   1.905
 6157TIP3    H118477   3.179   1.445   1.982
 6157TIP3    H218478   3.291   1.385   1.899
 6158TIP3   OH218479   3.116   1.433   1.100
 6158TIP3    H118480   3.127   1.521   1.135
 6158TIP3    H218481   3.196   1.418   1.049
 6159TIP3   OH218482   6.165   4.894   1.631
 6159TIP3    H118483   6.165   4.989   1.639
 6159TIP3    H218484   6.205   4.863   1.713
 6160TIP3   OH218485   2.737   2.765   0.852
 6160TIP3    H118486   2.757   2.858   0.862
 6160TIP3    H218487   2.822   2.722   0.845
 6161TIP3   OH218488   4.801   4.953   4.286
 6161TIP3    H118489   4.731   4.900   4.250
 6161TIP3    H218490   4.825   5.013   4.215
 6162TIP3   OH218491   4.450   5.656   0.451
 6162TIP3    H118492   4.546   5.661   0.459
 6162TIP3    H218493   4.435   5.581   0.394
 6163TIP3   OH218494   0.571   3.795   0.042
 6163TIP3    H118495   0.644   3.808   0.102
 6163TIP3    H218496   0.610   3.801  -0.046
 6164TIP3   OH218497   2.655   0.203   3.449
 6164TIP3    H118498   2.665   0.298   3.460
 6164TIP3    H218499   2.659   0.189   3.354
 6165TIP3   OH218500   6.082   1.062   2.103
 6165TIP3    H118501   6.101   1.148   2.064
 6165TIP3    H218502   6.026   1.083   2.179
 6166TIP3   OH218503   1.825   5.397   1.023
 6166TIP3    H118504   1.767   5.439   1.087
 6166TIP3    H218505   1.855   5.317   1.067
 6167TIP3   OH218506   4.022   3.663   3.331
 6167TIP3    H118507   3.934   3.701   3.335
 6167TIP3    H218508   4.011   3.575   3.369
 6168TIP3   OH218509   6.267   1.452   4.973
 6168TIP3    H118510   6.285   1.538   4.934
 6168TIP3    H218511   6.349   1.404   4.963
 6169TIP3   OH218512   4.745   2.996   0.703
 6169TIP3    H118513   4.782   3.007   0.791
 6169TIP3    H218514   4.702   3.080   0.685
 6170TIP3   OH218515   3.863   4.334   3.107
 6170TIP3    H118516   3.772   4.306   3.099
 6170TIP3    H218517   3.897   4.284   3.182
 6171TIP3   OH218518   5.111   5.842   3.131
 6171TIP3    H118519   5.203   5.850   3.105
 6171TIP3    H218520   5.068   5.807   3.053
 6172TIP3   OH218521   2.333   5.796   1.898
 6172TIP3    H118522   2.316   5.837   1.983
 6172TIP3    H218523   2.406   5.737   1.913
 6173TIP3   OH218524   4.585   1.923   3.876
 6173TIP3    H118525   4.656   1.975   3.838
 6173TIP3    H218526   4.518   1.920   3.807
 6174TIP3   OH218527   0.871   4.436   4.574
 6174TIP3    H118528   0.830   4.457   4.658
 6174TIP3    H218529   0.883   4.521   4.531
 6175TIP3   OH218530   2.435   4.864   3.222
 6175TIP3    H118531   2.447   4.855   3.128
 6175TIP3    H218532   2.453   4.776   3.257
 6176TIP3   OH218533   1.935   0.698   3.569
 6176TIP3    H118534   1.866   0.632   3.565
 6176TIP3    H218535   1.932   0.740   3.483
 6177TIP3   OH218536   2.184   1.865   5.044
 6177TIP3    H118537   2.255   1.877   4.981
 6177TIP3    H218538   2.123   1.806   5.001
 6178TIP3   OH218539   5.854   2.420   4.103
 6178TIP3    H118540   5.943   2.434   4.070
 6178TIP3    H218541   5.799   2.479   4.050
 6179TIP3   OH218542   1.020   1.494   2.412
 6179TIP3    H118543   0.965   1.542   2.474
 6179TIP3    H218544   0.975   1.411   2.400
 6180TIP3   OH218545   4.196   5.201   3.806
 6180TIP3    H118546   4.203   5.151   3.888
 6180TIP3    H218547   4.116   5.168   3.765
 6181TIP3   OH218548   2.524   3.091   3.159
 6181TIP3    H118549   2.552   3.001   3.175
 6181TIP3    H218550   2.462   3.084   3.087
 6182TIP3   OH218551   0.843   3.690   1.682
 6182TIP3    H118552   0.836   3.701   1.777
 6182TIP3    H218553   0.900   3.614   1.671
 6183TIP3   OH218554   1.666   3.741   4.277
 6183TIP3    H118555   1.656   3.646   4.268
 6183TIP3    H218556   1.605   3.778   4.213
 6184TIP3   OH218557   5.976   5.274   4.810
 6184TIP3    H118558   5.921   5.200   4.786
 6184TIP3    H218559   5.963   5.283   4.905
 6185TIP3   OH218560   3.810   1.639   1.696
 6185TIP3    H118561   3.825   1.634   1.602
 6185TIP3    H218562   3.791   1.549   1.722
 6186TIP3   OH218563   1.980   0.874   2.280
 6186TIP3    H118564   1.996   0.955   2.233
 6186TIP3    H218565   1.974   0.807   2.212
 6187TIP3   OH218566   4.696   1.027   1.472
 6187TIP3    H118567   4.691   1.082   1.393
 6187TIP3    H218568   4.640   1.072   1.536
 6188TIP3   OH218569   4.473   0.455   3.792
 6188TIP3    H118570   4.448   0.367   3.767
 6188TIP3    H218571   4.391   0.504   3.796
 6189TIP3   OH218572   2.706   1.837   0.970
 6189TIP3    H118573   2.622   1.796   0.994
 6189TIP3    H218574   2.754   1.841   1.053
 6190TIP3   OH218575   0.607   5.920   4.133
 6190TIP3    H118576   0.518   5.948   4.112
 6190TIP3    H218577   0.658   5.946   4.057
 6191TIP3   OH218578   0.910   0.416   2.597
 6191TIP3    H118579   0.823   0.378   2.589
 6191TIP3    H218580   0.919   0.470   2.518
 6192TIP3   OH218581   3.027   4.786   3.589
 6192TIP3    H118582   2.998   4.739   3.667
 6192TIP3    H218583   2.971   4.864   3.586
 6193TIP3   OH218584   1.159   4.343   1.020
 6193TIP3    H118585   1.241   4.321   0.976
 6193TIP3    H218586   1.114   4.258   1.030
 6194TIP3   OH218587   5.698   0.937   3.344
 6194TIP3    H118588   5.684   0.871   3.412
 6194TIP3    H218589   5.664   1.018   3.382
 6195TIP3   OH218590   2.821   3.754   0.668
 6195TIP3    H118591   2.873   3.689   0.716
 6195TIP3    H218592   2.817   3.829   0.727
 6196TIP3   OH218593   2.785   0.467   2.516
 6196TIP3    H118594   2.729   0.521   2.461
 6196TIP3    H218595   2.869   0.466   2.470
 6197TIP3   OH218596   3.745   2.060   0.616
 6197TIP3    H118597   3.728   2.055   0.522
 6197TIP3    H218598   3.815   2.125   0.624
 6198TIP3   OH218599   6.098   1.752   2.116
 6198TIP3    H118600   6.067   1.836   2.147
 6198TIP3    H218601   6.070   1.690   2.183
 6199TIP3   OH218602   3.502   2.729   3.750
 6199TIP3    H118603   3.517   2.659   3.686
 6199TIP3    H218604   3.568   2.714   3.817
 6200TIP3   OH218605  -0.004   3.094   0.839
 6200TIP3    H118606   0.071   3.049   0.800
 6200TIP3    H218607  -0.060   3.023   0.871
 6201TIP3   OH218608   3.301   3.538   4.231
 6201TIP3    H118609   3.252   3.456   4.221
 6201TIP3    H218610   3.369   3.533   4.163
 6202TIP3   OH218611   5.992   4.243   1.162
 6202TIP3    H118612   6.008   4.205   1.076
 6202TIP3    H218613   6.068   4.217   1.214
 6203TIP3   OH218614   0.996   1.677   1.081
 6203TIP3    H118615   0.920   1.639   1.125
 6203TIP3    H218616   1.047   1.602   1.051
 6204TIP3   OH218617   3.543   3.462   3.828
 6204TIP3    H118618   3.464   3.429   3.786
 6204TIP3    H218619   3.538   3.429   3.918
 6205TIP3   OH218620   4.280   0.740   3.141
 6205TIP3    H118621   4.301   0.660   3.092
 6205TIP3    H218622   4.187   0.754   3.125
 6206TIP3   OH218623   1.663   2.516   3.099
 6206TIP3    H118624   1.625   2.488   3.183
 6206TIP3    H218625   1.589   2.516   3.039
 6207TIP3   OH218626   6.129   4.105   2.586
 6207TIP3    H118627   6.113   4.104   2.492
 6207TIP3    H218628   6.186   4.181   2.600
 6208TIP3   OH218629   4.645   2.296   1.062
 6208TIP3    H118630   4.623   2.272   1.152
 6208TIP3    H218631   4.641   2.392   1.061
 6209TIP3   OH218632   2.566   1.825   1.516
 6209TIP3    H118633   2.550   1.847   1.608
 6209TIP3    H218634   2.641   1.765   1.520
 6210TIP3   OH218635   5.591   0.010   2.161
 6210TIP3    H118636   5.517   0.008   2.100
 6210TIP3    H218637   5.584   0.095   2.205
 6211TIP3   OH218638   2.867   1.120   0.283
 6211TIP3    H118639   2.840   1.115   0.375
 6211TIP3    H218640   2.947   1.173   0.284
 6212TIP3   OH218641   5.800   5.723   4.812
 6212TIP3    H118642   5.871   5.710   4.874
 6212TIP3    H218643   5.762   5.808   4.837
 6213TIP3   OH218644   3.859   4.829   0.097
 6213TIP3    H118645   3.800   4.762   0.130
 6213TIP3    H218646   3.944   4.785   0.091
 6214TIP3   OH218647   2.736   4.703   3.662
 6214TIP3    H118648   2.768   4.624   3.618
 6214TIP3    H218649   2.667   4.671   3.720
 6215TIP3   OH218650   3.743   1.069   2.831
 6215TIP3    H118651   3.783   1.138   2.885
 6215TIP3    H218652   3.668   1.039   2.883
 6216TIP3   OH218653   2.765   3.796   0.130
 6216TIP3    H118654   2.828   3.786   0.201
 6216TIP3    H218655   2.766   3.889   0.110
 6217TIP3   OH218656   1.366   2.876   3.077
 6217TIP3    H118657   1.297   2.831   3.029
 6217TIP3    H218658   1.447   2.837   3.045
 6218TIP3   OH218659   1.879   4.944   0.290
 6218TIP3    H118660   1.958   4.921   0.339
 6218TIP3    H218661   1.836   5.010   0.344
 6219TIP3   OH218662   3.524   0.359   0.040
 6219TIP3    H118663   3.565   0.357  -0.047
 6219TIP3    H218664   3.597   0.376   0.100
 6220TIP3   OH218665   5.933   4.844   1.513
 6220TIP3    H118666   5.991   4.846   1.589
 6220TIP3    H218667   5.860   4.900   1.537
 6221TIP3   OH218668   1.436   2.155   1.463
 6221TIP3    H118669   1.356   2.124   1.419
 6221TIP3    H218670   1.412   2.241   1.497
 6222TIP3   OH218671   0.876   5.042   3.274
 6222TIP3    H118672   0.893   5.026   3.181
 6222TIP3    H218673   0.785   5.071   3.277
 6223TIP3   OH218674   3.237   3.640   1.686
 6223TIP3    H118675   3.207   3.594   1.608
 6223TIP3    H218676   3.304   3.584   1.724
 6224TIP3   OH218677   4.757   0.477   0.375
 6224TIP3    H118678   4.670   0.452   0.344
 6224TIP3    H218679   4.797   0.524   0.301
 6225TIP3   OH218680   1.328   0.181   0.945
 6225TIP3    H118681   1.325   0.214   0.855
 6225TIP3    H218682   1.239   0.149   0.962
 6226TIP3   OH218683   4.917   1.313   4.202
 6226TIP3    H118684   4.916   1.388   4.143
 6226TIP3    H218685   5.010   1.297   4.219
 6227TIP3   OH218686   0.373  -0.023   4.614
 6227TIP3    H118687   0.310   0.035   4.656
 6227TIP3    H218688   0.388   0.015   4.528
 6228TIP3   OH218689   5.192   5.924   2.063
 6228TIP3    H118690   5.220   5.917   2.154
 6228TIP3    H218691   5.140   5.846   2.048
 6229TIP3   OH218692   5.705   1.818   0.874
 6229TIP3    H118693   5.760   1.895   0.862
 6229TIP3    H218694   5.653   1.813   0.794
 6230TIP3   OH218695   0.405   3.055   4.471
 6230TIP3    H118696   0.312   3.051   4.495
 6230TIP3    H218697   0.448   3.089   4.550
 6231TIP3   OH218698   3.271   5.262   3.118
 6231TIP3    H118699   3.295   5.173   3.145
 6231TIP3    H218700   3.242   5.304   3.199
 6232TIP3   OH218701   3.824   4.293   1.914
 6232TIP3    H118702   3.848   4.356   1.846
 6232TIP3    H218703   3.899   4.292   1.973
 6233TIP3   OH218704   6.181   2.093   1.538
 6233TIP3    H118705   6.201   2.020   1.479
 6233TIP3    H218706   6.264   2.140   1.547
 6234TIP3   OH218707   0.721   3.172   3.292
 6234TIP3    H118708   0.781   3.245   3.276
 6234TIP3    H218709   0.638   3.201   3.254
 6235TIP3   OH218710   3.297   0.630   4.758
 6235TIP3    H118711   3.223   0.636   4.819
 6235TIP3    H218712   3.356   0.700   4.785
 6236TIP3   OH218713   1.563   1.602   5.116
 6236TIP3    H118714   1.656   1.593   5.096
 6236TIP3    H218715   1.518   1.562   5.041
 6237TIP3   OH218716   5.388   4.038   0.989
 6237TIP3    H118717   5.394   4.024   1.083
 6237TIP3    H218718   5.450   4.109   0.971
 6238TIP3   OH218719   1.710   1.625   0.484
 6238TIP3    H118720   1.654   1.678   0.540
 6238TIP3    H218721   1.704   1.666   0.397
 6239TIP3   OH218722   2.475   4.665   2.608
 6239TIP3    H118723   2.502   4.630   2.523
 6239TIP3    H218724   2.493   4.759   2.603
 6240TIP3   OH218725   4.680   3.258   0.784
 6240TIP3    H118726   4.608   3.231   0.842
 6240TIP3    H218727   4.660   3.349   0.762
 6241TIP3   OH218728   4.177   0.102   3.616
 6241TIP3    H118729   4.203   0.188   3.583
 6241TIP3    H218730   4.115   0.070   3.550
 6242TIP3   OH218731  -0.004   2.560   4.408
 6242TIP3    H118732   0.019   2.474   4.372
 6242TIP3    H218733   0.066   2.578   4.471
 6243TIP3   OH218734   1.753   2.001   1.528
 6243TIP3    H118735   1.698   2.047   1.465
 6243TIP3    H218736   1.815   2.067   1.559
 6244TIP3   OH218737   5.159   5.119   1.753
 6244TIP3    H118738   5.097   5.142   1.684
 6244TIP3    H218739   5.147   5.025   1.765
 6245TIP3   OH218740   2.872   0.401   1.620
 6245TIP3    H118741   2.915   0.397   1.534
 6245TIP3    H218742   2.790   0.353   1.608
 6246TIP3   OH218743   1.591   4.238   3.555
 6246TIP3    H118744   1.619   4.172   3.491
 6246TIP3    H218745   1.599   4.194   3.639
 6247TIP3   OH218746   4.085   3.832   0.618
 6247TIP3    H118747   4.146   3.783   0.562
 6247TIP3    H218748   4.139   3.860   0.692
 6248TIP3   OH218749   3.352   3.333   0.950
 6248TIP3    H118750   3.297   3.311   1.025
 6248TIP3    H218751   3.296   3.321   0.874
 6249TIP3   OH218752   2.920   3.244   2.641
 6249TIP3    H118753   2.851   3.195   2.685
 6249TIP3    H218754   2.934   3.197   2.558
 6250TIP3   OH218755   0.973   2.951   3.879
 6250TIP3    H118756   1.022   3.033   3.868
 6250TIP3    H218757   0.902   2.975   3.939
 6251TIP3   OH218758   6.192   0.188   2.075
 6251TIP3    H118759   6.212   0.100   2.106
 6251TIP3    H218760   6.097   0.195   2.085
 6252TIP3   OH218761   6.242   1.768   2.793
 6252TIP3    H118762   6.296   1.703   2.839
 6252TIP3    H218763   6.304   1.817   2.739
 6253TIP3   OH218764   3.397   1.257   1.256
 6253TIP3    H118765   3.487   1.248   1.223
 6253TIP3    H218766   3.344   1.265   1.176
 6254TIP3   OH218767   4.366   5.971   2.645
 6254TIP3    H118768   4.286   5.971   2.698
 6254TIP3    H218769   4.400   5.882   2.652
 6255TIP3   OH218770   0.250   4.186   4.966
 6255TIP3    H118771   0.267   4.091   4.965
 6255TIP3    H218772   0.202   4.201   5.048
 6256TIP3   OH218773   2.964   5.783   1.567
 6256TIP3    H118774   2.933   5.858   1.516
 6256TIP3    H218775   3.053   5.807   1.592
 6257TIP3   OH218776   5.716   1.000   3.706
 6257TIP3    H118777   5.704   1.094   3.719
 6257TIP3    H218778   5.811   0.988   3.702
 6258TIP3   OH218779   3.513   5.022   0.132
 6258TIP3    H118780   3.417   5.014   0.129
 6258TIP3    H218781   3.528   5.097   0.190
 6259TIP3   OH218782   2.092   3.989   4.695
 6259TIP3    H118783   2.036   3.999   4.772
 6259TIP3    H218784   2.179   4.014   4.725
 6260TIP3   OH218785   0.133   5.819   1.193
 6260TIP3    H118786   0.097   5.810   1.281
 6260TIP3    H218787   0.228   5.810   1.205
 6261TIP3   OH218788   5.784   4.598   2.698
 6261TIP3    H118789   5.840   4.532   2.658
 6261TIP3    H218790   5.773   4.665   2.630
 6262TIP3   OH218791   1.631   1.628   1.371
 6262TIP3    H118792   1.709   1.584   1.337
 6262TIP3    H218793   1.663   1.681   1.443
 6263TIP3   OH218794   0.854   3.129   4.330
 6263TIP3    H118795   0.792   3.061   4.356
 6263TIP3    H218796   0.937   3.083   4.321
 6264TIP3   OH218797   1.983   1.275   0.170
 6264TIP3    H118798   1.995   1.369   0.158
 6264TIP3    H218799   2.016   1.258   0.258
 6265TIP3   OH218800   3.014   3.328   1.871
 6265TIP3    H118801   2.932   3.363   1.906
 6265TIP3    H218802   3.051   3.278   1.944
 6266TIP3   OH218803   1.890   4.721   0.994
 6266TIP3    H118804   1.867   4.782   0.924
 6266TIP3    H218805   1.861   4.635   0.962
 6267TIP3   OH218806   0.261   3.115   2.206
 6267TIP3    H118807   0.169   3.105   2.229
 6267TIP3    H218808   0.270   3.067   2.124
 6268TIP3   OH218809   6.019   5.601   4.340
 6268TIP3    H118810   5.998   5.616   4.432
 6268TIP3    H218811   5.933   5.592   4.297
 6269TIP3   OH218812   0.792   4.062   1.549
 6269TIP3    H118813   0.869   4.115   1.528
 6269TIP3    H218814   0.772   4.084   1.640
 6270TIP3   OH218815   1.715   3.710   0.224
 6270TIP3    H118816   1.696   3.802   0.239
 6270TIP3    H218817   1.683   3.694   0.135
 6271TIP3   OH218818   0.244   2.316   0.359
 6271TIP3    H118819   0.181   2.250   0.388
 6271TIP3    H218820   0.205   2.400   0.385
 6272TIP3   OH218821   5.680   1.789   1.160
 6272TIP3    H118822   5.614   1.719   1.163
 6272TIP3    H218823   5.694   1.805   1.067
 6273TIP3   OH218824   5.401   0.180   4.975
 6273TIP3    H118825   5.397   0.217   5.063
 6273TIP3    H218826   5.339   0.107   4.978
 6274TIP3   OH218827   0.771   2.979   4.069
 6274TIP3    H118828   0.681   2.962   4.095
 6274TIP3    H218829   0.795   3.060   4.115
 6275TIP3   OH218830   6.036   5.100   0.403
 6275TIP3    H118831   5.966   5.165   0.400
 6275TIP3    H218832   5.997   5.025   0.448
 6276TIP3   OH218833   3.971   0.043   0.075
 6276TIP3    H118834   3.999  -0.044   0.046
 6276TIP3    H218835   4.051   0.086   0.104
 6277TIP3   OH218836   3.408   1.156   4.156
 6277TIP3    H118837   3.475   1.128   4.218
 6277TIP3    H218838   3.334   1.182   4.210
 6278TIP3   OH218839   4.299   4.343   1.264
 6278TIP3    H118840   4.278   4.267   1.208
 6278TIP3    H218841   4.269   4.317   1.351
 6279TIP3   OH218842   5.560   3.229   1.472
 6279TIP3    H118843   5.582   3.167   1.542
 6279TIP3    H218844   5.575   3.315   1.510
 6280TIP3   OH218845   4.444   5.723   2.739
 6280TIP3    H118846   4.508   5.689   2.676
 6280TIP3    H218847   4.485   5.711   2.824
 6281TIP3   OH218848   0.629   5.697   0.723
 6281TIP3    H118849   0.687   5.733   0.791
 6281TIP3    H218850   0.588   5.774   0.684
 6282TIP3   OH218851   2.971   1.079   2.523
 6282TIP3    H118852   3.036   1.082   2.594
 6282TIP3    H218853   2.887   1.081   2.568
 6283TIP3   OH218854   3.494   4.567   0.416
 6283TIP3    H118855   3.510   4.546   0.324
 6283TIP3    H218856   3.406   4.603   0.417
 6284TIP3   OH218857   4.086   4.433   0.325
 6284TIP3    H118858   4.059   4.423   0.416
 6284TIP3    H218859   4.179   4.455   0.330
 6285TIP3   OH218860   4.946   4.374   0.732
 6285TIP3    H118861   4.970   4.448   0.676
 6285TIP3    H218862   4.992   4.391   0.814
 6286TIP3   OH218863   5.730   4.122   1.041
 6286TIP3    H118864   5.805   4.178   1.022
 6286TIP3    H218865   5.680   4.120   0.959
 6287TIP3   OH218866   6.117   4.256   0.499
 6287TIP3    H118867   6.169   4.336   0.499
 6287TIP3    H218868   6.181   4.185   0.498
 6288TIP3   OH218869   6.047   1.945   1.783
 6288TIP3    H118870   6.052   1.850   1.795
 6288TIP3    H218871   6.086   1.980   1.864
 6289TIP3   OH218872   5.627   1.249   2.492
 6289TIP3    H118873   5.597   1.185   2.427
 6289TIP3    H218874   5.563   1.320   2.487
 6290TIP3   OH218875   1.561   3.797   1.463
 6290TIP3    H118876   1.616   3.775   1.387
 6290TIP3    H218877   1.512   3.874   1.435
 6291TIP3   OH218878   0.078   2.266   1.566
 6291TIP3    H118879   0.083   2.242   1.659
 6291TIP3    H218880   0.096   2.360   1.565
 6292TIP3   OH218881   5.904   3.623   0.129
 6292TIP3    H118882   5.908   3.709   0.088
 6292TIP3    H218883   5.837   3.576   0.079
 6293TIP3   OH218884   3.308   3.545   3.172
 6293TIP3    H118885   3.344   3.632   3.186
 6293TIP3    H218886   3.291   3.511   3.260
 6294TIP3   OH218887   4.193   5.934   2.169
 6294TIP3    H118888   4.190   5.948   2.264
 6294TIP3    H218889   4.160   5.845   2.157
 6295TIP3   OH218890   3.166   4.941   4.927
 6295TIP3    H118891   3.136   5.030   4.945
 6295TIP3    H218892   3.257   4.940   4.956
 6296TIP3   OH218893   0.498   5.722   0.088
 6296TIP3    H118894   0.566   5.697   0.024
 6296TIP3    H218895   0.440   5.780   0.039
 6297TIP3   OH218896   6.019   3.424   0.720
 6297TIP3    H118897   5.959   3.497   0.704
 6297TIP3    H218898   6.001   3.397   0.810
 6298TIP3   OH218899   2.377   3.326   1.627
 6298TIP3    H118900   2.434   3.357   1.697
 6298TIP3    H218901   2.407   3.236   1.610
 6299TIP3   OH218902   1.884   2.059   0.133
 6299TIP3    H118903   1.898   2.058   0.228
 6299TIP3    H218904   1.959   2.108   0.098
 6300TIP3   OH218905   1.468   4.983   3.567
 6300TIP3    H118906   1.396   5.042   3.547
 6300TIP3    H218907   1.448   4.950   3.655
 6301TIP3   OH218908   1.522   2.632   1.350
 6301TIP3    H118909   1.503   2.577   1.425
 6301TIP3    H218910   1.615   2.655   1.359
 6302TIP3   OH218911   4.897   3.701   0.827
 6302TIP3    H118912   4.964   3.757   0.867
 6302TIP3    H218913   4.829   3.694   0.894
 6303TIP3   OH218914   2.885   1.535   3.731
 6303TIP3    H118915   2.980   1.546   3.728
 6303TIP3    H218916   2.858   1.531   3.640
 6304TIP3   OH218917   4.775   1.915   0.778
 6304TIP3    H118918   4.754   1.988   0.720
 6304TIP3    H218919   4.760   1.949   0.866
 6305TIP3   OH218920   1.946   0.437   3.085
 6305TIP3    H118921   1.877   0.489   3.126
 6305TIP3    H218922   1.930   0.348   3.115
 6306TIP3   OH218923   2.858   4.886   0.794
 6306TIP3    H118924   2.821   4.949   0.732
 6306TIP3    H218925   2.837   4.922   0.880
 6307TIP3   OH218926   0.137   0.559   5.102
 6307TIP3    H118927   0.061   0.550   5.161
 6307TIP3    H218928   0.100   0.549   5.014
 6308TIP3   OH218929   1.622   1.860   4.422
 6308TIP3    H118930   1.623   1.833   4.513
 6308TIP3    H218931   1.564   1.936   4.420
 6309TIP3   OH218932   0.608   1.274   1.660
 6309TIP3    H118933   0.564   1.198   1.697
 6309TIP3    H218934   0.627   1.330   1.735
 6310TIP3   OH218935   3.288   1.888   2.418
 6310TIP3    H118936   3.295   1.854   2.507
 6310TIP3    H218937   3.266   1.811   2.365
 6311TIP3   OH218938   6.053   3.782   4.422
 6311TIP3    H118939   6.094   3.703   4.387
 6311TIP3    H218940   6.127   3.836   4.451
 6312TIP3   OH218941   4.891   0.883   1.234
 6312TIP3    H118942   4.878   0.901   1.327
 6312TIP3    H218943   4.817   0.828   1.209
 6313TIP3   OH218944   3.444   5.381   4.651
 6313TIP3    H118945   3.358   5.419   4.672
 6313TIP3    H218946   3.423   5.303   4.599
 6314TIP3   OH218947   5.091   0.616   1.319
 6314TIP3    H118948   5.029   0.623   1.246
 6314TIP3    H218949   5.036   0.615   1.397
 6315TIP3   OH218950   3.713   4.612   3.344
 6315TIP3    H118951   3.743   4.640   3.257
 6315TIP3    H218952   3.765   4.535   3.363
 6316TIP3   OH218953   2.137   4.626   4.712
 6316TIP3    H118954   2.068   4.602   4.650
 6316TIP3    H218955   2.166   4.712   4.683
 6317TIP3   OH218956   4.259   4.667   3.636
 6317TIP3    H118957   4.166   4.643   3.632
 6317TIP3    H218958   4.285   4.677   3.545
 6318TIP3   OH218959   1.882   1.062   4.568
 6318TIP3    H118960   1.854   0.978   4.604
 6318TIP3    H218961   1.835   1.127   4.620
 6319TIP3   OH218962   5.313   0.838   4.103
 6319TIP3    H118963   5.286   0.752   4.072
 6319TIP3    H218964   5.241   0.897   4.080
 6320TIP3   OH218965   0.784   2.935   1.768
 6320TIP3    H118966   0.828   2.882   1.702
 6320TIP3    H218967   0.802   3.025   1.741
 6321TIP3   OH218968   5.362   0.407   4.797
 6321TIP3    H118969   5.323   0.469   4.859
 6321TIP3    H218970   5.388   0.332   4.850
 6322TIP3   OH218971   3.802   4.673   3.064
 6322TIP3    H118972   3.882   4.687   3.013
 6322TIP3    H218973   3.779   4.582   3.049
 6323TIP3   OH218974   0.895   5.853   3.212
 6323TIP3    H118975   0.834   5.900   3.156
 6323TIP3    H218976   0.863   5.763   3.213
 6324TIP3   OH218977   0.705   2.527   4.673
 6324TIP3    H118978   0.765   2.596   4.645
 6324TIP3    H218979   0.725   2.514   4.766
 6325TIP3   OH218980   5.538   1.766   4.568
 6325TIP3    H118981   5.593   1.690   4.588
 6325TIP3    H218982   5.592   1.841   4.592
 6326TIP3   OH218983   1.324   1.777   1.844
 6326TIP3    H118984   1.235   1.751   1.817
 6326TIP3    H218985   1.381   1.710   1.807
 6327TIP3   OH218986   1.931   0.268   3.688
 6327TIP3    H118987   2.015   0.310   3.704
 6327TIP3    H218988   1.882   0.279   3.770
 6328TIP3   OH218989   5.420   4.051   1.306
 6328TIP3    H118990   5.390   3.990   1.374
 6328TIP3    H218991   5.513   4.031   1.296
 6329TIP3   OH218992   0.404   0.424   1.448
 6329TIP3    H118993   0.436   0.508   1.414
 6329TIP3    H218994   0.447   0.358   1.394
 6330TIP3   OH218995   2.568   0.281   2.542
 6330TIP3    H118996   2.644   0.333   2.569
 6330TIP3    H218997   2.578   0.271   2.448
 6331TIP3   OH218998   3.817   4.702   1.571
 6331TIP3    H118999   3.773   4.617   1.566
 6331TIP3    H219000   3.749   4.765   1.548
 6332TIP3   OH219001   5.520   5.379   0.207
 6332TIP3    H119002   5.455   5.312   0.224
 6332TIP3    H219003   5.478   5.461   0.234
 6333TIP3   OH219004   0.742   3.994   1.186
 6333TIP3    H119005   0.698   3.923   1.234
 6333TIP3    H219006   0.703   4.074   1.221
 6334TIP3   OH219007   1.767   2.924   1.995
 6334TIP3    H119008   1.725   3.009   2.004
 6334TIP3    H219009   1.704   2.871   1.946
 6335TIP3   OH219010   1.361   2.373   2.538
 6335TIP3    H119011   1.392   2.354   2.449
 6335TIP3    H219012   1.268   2.348   2.537
 6336TIP3   OH219013   0.290   2.080   4.334
 6336TIP3    H119014   0.326   2.057   4.420
 6336TIP3    H219015   0.368   2.093   4.279
 6337TIP3   OH219016   0.603   2.929   2.506
 6337TIP3    H119017   0.518   2.888   2.519
 6337TIP3    H219018   0.650   2.871   2.446
 6338TIP3   OH219019   5.292   0.540   0.548
 6338TIP3    H119020   5.274   0.607   0.482
 6338TIP3    H219021   5.385   0.547   0.565
 6339TIP3   OH219022   0.063   1.582   3.133
 6339TIP3    H119023   0.108   1.665   3.120
 6339TIP3    H219024   0.051   1.546   3.045
 6340TIP3   OH219025   1.148   0.310   2.699
 6340TIP3    H119026   1.072   0.360   2.667
 6340TIP3    H219027   1.188   0.274   2.620
 6341TIP3   OH219028   0.070   2.557   5.137
 6341TIP3    H119029   0.148   2.534   5.088
 6341TIP3    H219030   0.078   2.509   5.219
 6342TIP3   OH219031   1.819   2.320   3.455
 6342TIP3    H119032   1.802   2.309   3.362
 6342TIP3    H219033   1.892   2.382   3.459
 6343TIP3   OH219034   5.450   0.962   4.309
 6343TIP3    H119035   5.543   0.980   4.293
 6343TIP3    H219036   5.426   0.901   4.239
 6344TIP3   OH219037   2.752   4.460   4.597
 6344TIP3    H119038   2.793   4.489   4.678
 6344TIP3    H219039   2.739   4.366   4.608
 6345TIP3   OH219040   5.684   1.388   0.312
 6345TIP3    H119041   5.778   1.400   0.318
 6345TIP3    H219042   5.653   1.395   0.403
 6346TIP3   OH219043   0.904   0.585   2.397
 6346TIP3    H119044   0.930   0.675   2.414
 6346TIP3    H219045   0.808   0.589   2.390
 6347TIP3   OH219046   1.875   2.674   2.141
 6347TIP3    H119047   1.932   2.671   2.218
 6347TIP3    H219048   1.903   2.752   2.093
 6348TIP3   OH219049   5.599   4.422   0.210
 6348TIP3    H119050   5.541   4.349   0.185
 6348TIP3    H219051   5.681   4.380   0.234
 6349TIP3   OH219052   5.686   3.970   2.640
 6349TIP3    H119053   5.706   3.910   2.712
 6349TIP3    H219054   5.591   3.983   2.646
 6350TIP3   OH219055   3.579   5.776   3.484
 6350TIP3    H119056   3.550   5.841   3.419
 6350TIP3    H219057   3.506   5.714   3.490
 6351TIP3   OH219058   2.769   2.425   1.584
 6351TIP3    H119059   2.857   2.388   1.588
 6351TIP3    H219060   2.714   2.354   1.550
 6352TIP3   OH219061   1.225   0.327   0.695
 6352TIP3    H119062   1.234   0.382   0.617
 6352TIP3    H219063   1.138   0.289   0.688
 6353TIP3   OH219064   1.141   4.522   3.001
 6353TIP3    H119065   1.122   4.429   2.989
 6353TIP3    H219066   1.057   4.561   3.026
 6354TIP3   OH219067   0.846   5.335   2.406
 6354TIP3    H119068   0.820   5.265   2.348
 6354TIP3    H219069   0.836   5.415   2.354
 6355TIP3   OH219070   0.590   2.510   0.722
 6355TIP3    H119071   0.591   2.478   0.812
 6355TIP3    H219072   0.585   2.431   0.669
 6356TIP3   OH219073   4.727   5.201   0.918
 6356TIP3    H119074   4.744   5.227   1.008
 6356TIP3    H219075   4.704   5.282   0.873
 6357TIP3   OH219076   3.052   1.369   1.385
 6357TIP3    H119077   3.088   1.363   1.296
 6357TIP3    H219078   2.966   1.327   1.379
 6358TIP3   OH219079   0.818   2.874   2.031
 6358TIP3    H119080   0.787   2.939   2.094
 6358TIP3    H219081   0.800   2.912   1.945
 6359TIP3   OH219082   5.658   0.685   3.448
 6359TIP3    H119083   5.588   0.679   3.514
 6359TIP3    H219084   5.735   0.648   3.492
 6360TIP3   OH219085   4.199   5.249   0.947
 6360TIP3    H119086   4.141   5.224   0.875
 6360TIP3    H219087   4.287   5.225   0.917
 6361TIP3   OH219088   3.028   5.920   2.861
 6361TIP3    H119089   3.012   5.848   2.800
 6361TIP3    H219090   3.018   5.880   2.948
 6362TIP3   OH219091   2.486   5.099   0.824
 6362TIP3    H119092   2.465   5.043   0.900
 6362TIP3    H219093   2.551   5.160   0.857
 6363TIP3   OH219094   0.314   4.319   2.732
 6363TIP3    H119095   0.322   4.334   2.638
 6363TIP3    H219096   0.381   4.255   2.752
 6364TIP3   OH219097   0.646   1.781   0.919
 6364TIP3    H119098   0.553   1.760   0.924
 6364TIP3    H219099   0.690   1.705   0.959
 6365TIP3   OH219100   6.035   0.177   1.018
 6365TIP3    H119101   5.996   0.159   1.104
 6365TIP3    H219102   6.124   0.144   1.025
 6366TIP3   OH219103   0.920   4.985   0.205
 6366TIP3    H119104   0.960   4.989   0.292
 6366TIP3    H219105   0.857   5.057   0.205
 6367TIP3   OH219106   5.074   0.840   2.455
 6367TIP3    H119107   5.114   0.803   2.376
 6367TIP3    H219108   5.119   0.796   2.527
 6368TIP3   OH219109   3.762   3.769   3.349
 6368TIP3    H119110   3.734   3.839   3.289
 6368TIP3    H219111   3.693   3.703   3.343
 6369TIP3   OH219112   3.289   5.280   1.736
 6369TIP3    H119113   3.201   5.265   1.701
 6369TIP3    H219114   3.348   5.255   1.665
 6370TIP3   OH219115   2.680   5.034   2.054
 6370TIP3    H119116   2.611   5.101   2.052
 6370TIP3    H219117   2.633   4.951   2.065
 6371TIP3   OH219118   3.806   3.569   1.407
 6371TIP3    H119119   3.766   3.516   1.476
 6371TIP3    H219120   3.732   3.601   1.355
 6372TIP3   OH219121   5.452   2.317   0.904
 6372TIP3    H119122   5.458   2.246   0.967
 6372TIP3    H219123   5.360   2.317   0.876
 6373TIP3   OH219124   3.886   2.302   0.635
 6373TIP3    H119125   3.966   2.305   0.583
 6373TIP3    H219126   3.915   2.297   0.726
 6374TIP3   OH219127   3.870   1.906   1.798
 6374TIP3    H119128   3.841   1.817   1.818
 6374TIP3    H219129   3.935   1.926   1.866
 6375TIP3   OH219130  -0.006   4.744   0.581
 6375TIP3    H119131   0.051   4.817   0.557
 6375TIP3    H219132  -0.008   4.746   0.677
 6376TIP3   OH219133   3.666   5.640   5.097
 6376TIP3    H119134   3.585   5.690   5.084
 6376TIP3    H219135   3.649   5.557   5.053
 6377TIP3   OH219136   2.533   0.350   1.815
 6377TIP3    H119137   2.590   0.420   1.848
 6377TIP3    H219138   2.589   0.297   1.759
 6378TIP3   OH219139   0.619   0.523   4.509
 6378TIP3    H119140   0.622   0.546   4.602
 6378TIP3    H219141   0.564   0.590   4.469
 6379TIP3   OH219142   1.072   0.594   0.821
 6379TIP3    H119143   1.042   0.555   0.739
 6379TIP3    H219144   1.132   0.529   0.858
 6380TIP3   OH219145   0.795   1.273   4.709
 6380TIP3    H119146   0.718   1.326   4.729
 6380TIP3    H219147   0.826   1.307   4.625
 6381TIP3   OH219148   5.939   0.900   3.204
 6381TIP3    H119149   5.861   0.924   3.254
 6381TIP3    H219150   6.006   0.962   3.234
 6382TIP3   OH219151   5.512   3.471   0.144
 6382TIP3    H119152   5.553   3.486   0.229
 6382TIP3    H219153   5.583   3.438   0.089
 6383TIP3   OH219154   5.265   0.223   4.277
 6383TIP3    H119155   5.192   0.284   4.285
 6383TIP3    H219156   5.325   0.248   4.347
 6384TIP3   OH219157   2.934   5.813   3.091
 6384TIP3    H119158   2.956   5.738   3.146
 6384TIP3    H219159   2.847   5.795   3.057
 6385TIP3   OH219160   2.189   2.972   3.045
 6385TIP3    H119161   2.250   2.899   3.056
 6385TIP3    H219162   2.182   2.984   2.951
 6386TIP3   OH219163   4.757   4.726   2.713
 6386TIP3    H119164   4.725   4.749   2.626
 6386TIP3    H219165   4.800   4.642   2.702
 6387TIP3   OH219166   3.130   2.733   2.715
 6387TIP3    H119167   3.205   2.748   2.772
 6387TIP3    H219168   3.167   2.728   2.627
 6388TIP3   OH219169   4.254   3.328   3.086
 6388TIP3    H119170   4.272   3.350   2.995
 6388TIP3    H219171   4.158   3.323   3.091
 6389TIP3   OH219172   2.327   1.531   4.768
 6389TIP3    H119173   2.309   1.519   4.861
 6389TIP3    H219174   2.245   1.508   4.724
 6390TIP3   OH219175   0.943   2.382   2.102
 6390TIP3    H119176   0.943   2.428   2.186
 6390TIP3    H219177   0.887   2.305   2.117
 6391TIP3   OH219178   3.850   1.754   0.452
 6391TIP3    H119179   3.907   1.819   0.412
 6391TIP3    H219180   3.767   1.800   0.465
 6392TIP3   OH219181   3.027   2.125   1.988
 6392TIP3    H119182   3.101   2.102   2.044
 6392TIP3    H219183   3.044   2.216   1.962
 6393TIP3   OH219184   3.247   1.737   2.041
 6393TIP3    H119185   3.255   1.710   2.132
 6393TIP3    H219186   3.277   1.661   1.991
 6394TIP3   OH219187   4.958   3.199   2.926
 6394TIP3    H119188   5.047   3.227   2.903
 6394TIP3    H219189   4.936   3.133   2.860
 6395TIP3   OH219190   3.554   1.117   2.321
 6395TIP3    H119191   3.635   1.099   2.369
 6395TIP3    H219192   3.582   1.171   2.247
 6396TIP3   OH219193   3.526   5.898   3.914
 6396TIP3    H119194   3.588   5.851   3.858
 6396TIP3    H219195   3.440   5.859   3.893
 6397TIP3   OH219196   2.080   0.561   0.270
 6397TIP3    H119197   2.081   0.567   0.174
 6397TIP3    H219198   2.171   0.543   0.293
 6398TIP3   OH219199   4.246   4.956   4.438
 6398TIP3    H119200   4.327   4.977   4.391
 6398TIP3    H219201   4.191   5.034   4.427
 6399TIP3   OH219202   1.957   5.341   1.266
 6399TIP3    H119203   1.953   5.255   1.224
 6399TIP3    H219204   2.030   5.335   1.328
 6400TIP3   OH219205   1.393   4.781   2.991
 6400TIP3    H119206   1.405   4.699   2.942
 6400TIP3    H219207   1.448   4.771   3.068
 6401TIP3   OH219208   2.219   4.908   2.425
 6401TIP3    H119209   2.220   4.950   2.511
 6401TIP3    H219210   2.243   4.978   2.364
 6402TIP3   OH219211   2.144   4.394   2.835
 6402TIP3    H119212   2.184   4.458   2.776
 6402TIP3    H219213   2.191   4.313   2.818
 6403TIP3   OH219214   0.278   2.349   2.175
 6403TIP3    H119215   0.302   2.300   2.096
 6403TIP3    H219216   0.354   2.403   2.193
 6404TIP3   OH219217   2.830   4.565   2.598
 6404TIP3    H119218   2.777   4.539   2.523
 6404TIP3    H219219   2.905   4.506   2.597
 6405TIP3   OH219220   4.895   4.668   1.187
 6405TIP3    H119221   4.803   4.696   1.191
 6405TIP3    H219222   4.906   4.610   1.262
 6406TIP3   OH219223   1.635   2.464   2.544
 6406TIP3    H119224   1.664   2.471   2.453
 6406TIP3    H219225   1.570   2.394   2.544
 6407TIP3   OH219226   4.034   4.923   2.991
 6407TIP3    H119227   4.089   4.871   3.050
 6407TIP3    H219228   4.011   4.863   2.921
 6408TIP3   OH219229   3.864   2.578   0.078
 6408TIP3    H119230   3.935   2.556   0.138
 6408TIP3    H219231   3.815   2.647   0.124
 6409TIP3   OH219232   1.933   1.803   0.008
 6409TIP3    H119233   2.027   1.799  -0.011
 6409TIP3    H219234   1.914   1.896   0.018
 6410TIP3   OH219235   3.996   4.020   4.748
 6410TIP3    H119236   4.021   3.950   4.688
 6410TIP3    H219237   4.060   4.014   4.819
 6411TIP3   OH219238   1.380   0.634   2.628
 6411TIP3    H119239   1.474   0.619   2.617
 6411TIP3    H219240   1.363   0.716   2.582
 6412TIP3   OH219241   1.995   2.302   4.280
 6412TIP3    H119242   2.048   2.357   4.222
 6412TIP3    H219243   2.056   2.235   4.311
 6413TIP3   OH219244   0.552   4.775   3.745
 6413TIP3    H119245   0.528   4.844   3.683
 6413TIP3    H219246   0.643   4.754   3.724
 6414TIP3   OH219247   1.277   0.782   0.810
 6414TIP3    H119248   1.229   0.701   0.790
 6414TIP3    H219249   1.243   0.846   0.747
 6415TIP3   OH219250   5.102   0.594   0.743
 6415TIP3    H119251   5.166   0.583   0.673
 6415TIP3    H219252   5.021   0.619   0.697
 6416TIP3   OH219253   2.994   0.552   0.529
 6416TIP3    H119254   3.002   0.475   0.472
 6416TIP3    H219255   3.066   0.609   0.501
 6417TIP3   OH219256   0.390   4.743   3.973
 6417TIP3    H119257   0.440   4.760   3.893
 6417TIP3    H219258   0.324   4.812   3.975
 6418TIP3   OH219259   2.079   0.048   2.133
 6418TIP3    H119260   2.030  -0.016   2.081
 6418TIP3    H219261   2.041   0.133   2.110
 6419TIP3   OH219262   0.621   5.035   1.307
 6419TIP3    H119263   0.550   5.059   1.247
 6419TIP3    H219264   0.577   5.022   1.391
 6420TIP3   OH219265   2.133   0.636   1.892
 6420TIP3    H119266   2.105   0.631   1.801
 6420TIP3    H219267   2.059   0.602   1.942
 6421TIP3   OH219268   0.658   3.433   2.977
 6421TIP3    H119269   0.639   3.357   3.032
 6421TIP3    H219270   0.661   3.507   3.038
 6422TIP3   OH219271   3.161   4.388   2.959
 6422TIP3    H119272   3.067   4.391   2.944
 6422TIP3    H219273   3.197   4.449   2.894
 6423TIP3   OH219274   5.096   0.690   3.967
 6423TIP3    H119275   5.013   0.651   3.941
 6423TIP3    H219276   5.098   0.775   3.923
 6424TIP3   OH219277   0.142   1.454   4.189
 6424TIP3    H119278   0.190   1.511   4.249
 6424TIP3    H219279   0.065   1.427   4.238
 6425TIP3   OH219280   6.276   4.221   0.794
 6425TIP3    H119281   6.336   4.203   0.867
 6425TIP3    H219282   6.230   4.300   0.820
 6426TIP3   OH219283   0.556   3.914   3.419
 6426TIP3    H119284   0.592   3.959   3.495
 6426TIP3    H219285   0.526   3.830   3.453
 6427TIP3   OH219286   4.055   3.461   2.829
 6427TIP3    H119287   4.113   3.537   2.816
 6427TIP3    H219288   4.050   3.450   2.924
 6428TIP3   OH219289   5.334   3.242   3.362
 6428TIP3    H119290   5.307   3.227   3.272
 6428TIP3    H219291   5.336   3.154   3.401
 6429TIP3   OH219292   3.734   1.813   2.270
 6429TIP3    H119293   3.822   1.842   2.247
 6429TIP3    H219294   3.709   1.754   2.198
 6430TIP3   OH219295   0.409   1.260   4.327
 6430TIP3    H119296   0.465   1.279   4.252
 6430TIP3    H219297   0.394   1.344   4.369
 6431TIP3   OH219298   5.629   2.180   3.749
 6431TIP3    H119299   5.557   2.234   3.782
 6431TIP3    H219300   5.661   2.134   3.826
 6432TIP3   OH219301   2.642   1.678   4.854
 6432TIP3    H119302   2.616   1.600   4.904
 6432TIP3    H219303   2.628   1.751   4.915
 6433TIP3   OH219304   2.310   3.094   4.005
 6433TIP3    H119305   2.354   3.175   4.030
 6433TIP3    H219306   2.378   3.027   4.009
 6434TIP3   OH219307   4.234   3.865   4.640
 6434TIP3    H119308   4.269   3.953   4.649
 6434TIP3    H219309   4.311   3.809   4.634
 6435TIP3   OH219310   3.284   5.917   0.540
 6435TIP3    H119311   3.329   5.981   0.484
 6435TIP3    H219312   3.205   5.893   0.490
 6436TIP3   OH219313   5.569   5.183   4.146
 6436TIP3    H119314   5.571   5.098   4.189
 6436TIP3    H219315   5.610   5.243   4.208
 6437TIP3   OH219316   1.523   0.385   2.536
 6437TIP3    H119317   1.437   0.351   2.563
 6437TIP3    H219318   1.541   0.341   2.453
 6438TIP3   OH219319   5.675   5.759   1.667
 6438TIP3    H119320   5.714   5.703   1.600
 6438TIP3    H219321   5.749   5.789   1.720
 6439TIP3   OH219322   3.973   4.641   2.079
 6439TIP3    H119323   3.907   4.638   2.010
 6439TIP3    H219324   3.931   4.601   2.155
 6440TIP3   OH219325   1.320   5.903   1.189
 6440TIP3    H119326   1.247   5.960   1.166
 6440TIP3    H219327   1.295   5.866   1.274
 6441TIP3   OH219328   5.019   2.403   5.039
 6441TIP3    H119329   5.096   2.375   4.989
 6441TIP3    H219330   4.953   2.336   5.021
 6442TIP3   OH219331   1.610   5.927   0.576
 6442TIP3    H119332   1.519   5.938   0.548
 6442TIP3    H219333   1.623   5.833   0.578
 6443TIP3   OH219334   3.384   4.257   2.180
 6443TIP3    H119335   3.428   4.322   2.125
 6443TIP3    H219336   3.322   4.213   2.122
 6444TIP3   OH219337   3.006   5.565   3.210
 6444TIP3    H119338   3.039   5.491   3.262
 6444TIP3    H219339   2.969   5.525   3.132
 6445TIP3   OH219340   5.260   5.318   3.459
 6445TIP3    H119341   5.243   5.399   3.411
 6445TIP3    H219342   5.173   5.281   3.475
 6446TIP3   OH219343   2.779   5.472   3.027
 6446TIP3    H119344   2.838   5.396   3.027
 6446TIP3    H219345   2.697   5.439   2.991
 6447TIP3   OH219346   1.702   0.853   2.784
 6447TIP3    H119347   1.670   0.774   2.741
 6447TIP3    H219348   1.753   0.898   2.717
 6448TIP3   OH219349   1.029   2.669   5.104
 6448TIP3    H119350   1.124   2.684   5.111
 6448TIP3    H219351   0.996   2.749   5.064
 6449TIP3   OH219352   4.541   2.788   1.867
 6449TIP3    H119353   4.608   2.727   1.836
 6449TIP3    H219354   4.524   2.761   1.957
 6450TIP3   OH219355   2.368   2.216   2.057
 6450TIP3    H119356   2.278   2.194   2.033
 6450TIP3    H219357   2.361   2.251   2.147
 6451TIP3   OH219358   2.755   4.682   3.246
 6451TIP3    H119359   2.709   4.599   3.228
 6451TIP3    H219360   2.814   4.693   3.172
 6452TIP3   OH219361   3.676   4.540   3.926
 6452TIP3    H119362   3.652   4.518   4.016
 6452TIP3    H219363   3.731   4.467   3.898
 6453TIP3   OH219364   5.594   4.704   4.205
 6453TIP3    H119365   5.588   4.658   4.289
 6453TIP3    H219366   5.546   4.648   4.144
 6454TIP3   OH219367   2.102   5.586   2.351
 6454TIP3    H119368   2.114   5.659   2.412
 6454TIP3    H219369   2.170   5.524   2.374
 6455TIP3   OH219370   0.876   4.360   0.993
 6455TIP3    H119371   0.783   4.341   0.977
 6455TIP3    H219372   0.917   4.348   0.907
 6456TIP3   OH219373   2.731   1.973   0.089
 6456TIP3    H119374   2.810   1.922   0.110
 6456TIP3    H219375   2.668   1.907   0.060
 6457TIP3   OH219376   0.271   1.044   2.697
 6457TIP3    H119377   0.327   1.059   2.621
 6457TIP3    H219378   0.204   1.113   2.692
 6458TIP3   OH219379   0.044   5.357   1.772
 6458TIP3    H119380   0.050   5.378   1.866
 6458TIP3    H219381   0.057   5.441   1.728
 6459TIP3   OH219382   3.502   2.045   3.196
 6459TIP3    H119383   3.557   1.987   3.143
 6459TIP3    H219384   3.431   1.989   3.227
 6460TIP3   OH219385   4.411   0.750   2.241
 6460TIP3    H119386   4.474   0.738   2.312
 6460TIP3    H219387   4.341   0.687   2.261
 6461TIP3   OH219388   3.808   2.125   5.172
 6461TIP3    H119389   3.790   2.216   5.197
 6461TIP3    H219390   3.736   2.102   5.113
 6462TIP3   OH219391   0.617   0.613   1.906
 6462TIP3    H119392   0.671   0.590   1.830
 6462TIP3    H219393   0.529   0.625   1.871
 6463TIP3   OH219394   4.563   5.213   2.492
 6463TIP3    H119395   4.574   5.238   2.584
 6463TIP3    H219396   4.482   5.256   2.465
 6464TIP3   OH219397   3.992   3.823   0.161
 6464TIP3    H119398   3.955   3.807   0.074
 6464TIP3    H219399   3.961   3.911   0.184
 6465TIP3   OH219400   0.203   4.914   4.069
 6465TIP3    H119401   0.171   4.836   4.114
 6465TIP3    H219402   0.140   4.928   3.998
 6466TIP3   OH219403   4.256   1.588   0.772
 6466TIP3    H119404   4.259   1.637   0.690
 6466TIP3    H219405   4.239   1.655   0.839
 6467TIP3   OH219406   0.457   4.966   1.518
 6467TIP3    H119407   0.433   5.048   1.561
 6467TIP3    H219408   0.415   4.898   1.570
 6468TIP3   OH219409   4.945   2.226   0.397
 6468TIP3    H119410   5.037   2.212   0.420
 6468TIP3    H219411   4.946   2.302   0.340
 6469TIP3   OH219412   3.100   1.397   3.935
 6469TIP3    H119413   3.120   1.310   3.899
 6469TIP3    H219414   3.144   1.458   3.876
 6470TIP3   OH219415   2.329   5.106   3.865
 6470TIP3    H119416   2.300   5.142   3.949
 6470TIP3    H219417   2.412   5.063   3.884
 6471TIP3   OH219418   3.415   1.546   4.953
 6471TIP3    H119419   3.477   1.490   4.905
 6471TIP3    H219420   3.460   1.567   5.034
 6472TIP3   OH219421   3.719   0.358   1.611
 6472TIP3    H119422   3.670   0.343   1.530
 6472TIP3    H219423   3.810   0.349   1.585
 6473TIP3   OH219424   5.692   4.048   3.923
 6473TIP3    H119425   5.706   3.977   3.985
 6473TIP3    H219426   5.730   4.017   3.841
 6474TIP3   OH219427   4.777   5.814   3.745
 6474TIP3    H119428   4.807   5.901   3.721
 6474TIP3    H219429   4.766   5.768   3.662
 6475TIP3   OH219430   4.881   5.594   4.863
 6475TIP3    H119431   4.826   5.654   4.813
 6475TIP3    H219432   4.970   5.613   4.833
 6476TIP3   OH219433   3.539   0.374   1.827
 6476TIP3    H119434   3.595   0.396   1.752
 6476TIP3    H219435   3.468   0.322   1.789
 6477TIP3   OH219436   1.862   0.523   1.872
 6477TIP3    H119437   1.865   0.549   1.780
 6477TIP3    H219438   1.792   0.457   1.876
 6478TIP3   OH219439   2.730   4.146   1.564
 6478TIP3    H119440   2.732   4.105   1.651
 6478TIP3    H219441   2.801   4.103   1.516
 6479TIP3   OH219442   2.604   5.715   1.867
 6479TIP3    H119443   2.690   5.673   1.855
 6479TIP3    H219444   2.617   5.805   1.840
 6480TIP3   OH219445   5.429   2.623   5.114
 6480TIP3    H119446   5.352   2.653   5.162
 6480TIP3    H219447   5.499   2.682   5.143
 6481TIP3   OH219448   0.426   5.624   4.302
 6481TIP3    H119449   0.517   5.593   4.299
 6481TIP3    H219450   0.431   5.708   4.348
 6482TIP3   OH219451   2.687   3.743   4.622
 6482TIP3    H119452   2.611   3.685   4.625
 6482TIP3    H219453   2.762   3.687   4.640
 6483TIP3   OH219454   2.688   5.774   0.921
 6483TIP3    H119455   2.600   5.745   0.896
 6483TIP3    H219456   2.731   5.695   0.954
 6484TIP3   OH219457   0.285   3.210   4.816
 6484TIP3    H119458   0.246   3.289   4.778
 6484TIP3    H219459   0.222   3.140   4.796
 6485TIP3   OH219460   4.744   2.966   0.246
 6485TIP3    H119461   4.655   2.931   0.252
 6485TIP3    H219462   4.801   2.889   0.247
 6486TIP3   OH219463   2.777   0.194   0.537
 6486TIP3    H119464   2.726   0.275   0.539
 6486TIP3    H219465   2.799   0.182   0.445
 6487TIP3   OH219466   4.493   2.668   2.116
 6487TIP3    H119467   4.562   2.602   2.105
 6487TIP3    H219468   4.479   2.672   2.210
 6488TIP3   OH219469   5.682   4.680   2.095
 6488TIP3    H119470   5.648   4.592   2.080
 6488TIP3    H219471   5.653   4.702   2.184
 6489TIP3   OH219472   2.874   2.087   3.035
 6489TIP3    H119473   2.834   2.173   3.022
 6489TIP3    H219474   2.800   2.026   3.036
 6490TIP3   OH219475   3.138   4.957   1.761
 6490TIP3    H119476   3.085   5.033   1.739
 6490TIP3    H219477   3.141   4.957   1.857
 6491TIP3   OH219478   0.711   5.205   0.231
 6491TIP3    H119479   0.644   5.254   0.277
 6491TIP3    H219480   0.663   5.145   0.175
 6492TIP3   OH219481   0.862   3.328   3.953
 6492TIP3    H119482   0.810   3.259   3.912
 6492TIP3    H219483   0.799   3.376   4.007
 6493TIP3   OH219484   1.165   3.702   2.822
 6493TIP3    H119485   1.228   3.671   2.757
 6493TIP3    H219486   1.121   3.775   2.779
 6494TIP3   OH219487   4.494   4.664   2.830
 6494TIP3    H119488   4.448   4.580   2.822
 6494TIP3    H219489   4.540   4.673   2.747
 6495TIP3   OH219490   1.282   2.057   0.270
 6495TIP3    H119491   1.188   2.054   0.287
 6495TIP3    H219492   1.308   2.143   0.302
 6496TIP3   OH219493   3.663   0.827   3.776
 6496TIP3    H119494   3.652   0.920   3.798
 6496TIP3    H219495   3.737   0.825   3.716
 6497TIP3   OH219496   0.569   1.406   0.883
 6497TIP3    H119497   0.629   1.341   0.921
 6497TIP3    H219498   0.537   1.456   0.958
 6498TIP3   OH219499   0.105   1.198   3.521
 6498TIP3    H119500   0.104   1.139   3.597
 6498TIP3    H219501   0.073   1.281   3.554
 6499TIP3   OH219502   0.620   3.508   1.595
 6499TIP3    H119503   0.708   3.543   1.610
 6499TIP3    H219504   0.581   3.503   1.682
 6500TIP3   OH219505   5.927   4.864   2.294
 6500TIP3    H119506   5.992   4.930   2.317
 6500TIP3    H219507   5.968   4.781   2.316
 6501TIP3   OH219508   4.864   5.125   2.088
 6501TIP3    H119509   4.791   5.101   2.031
 6501TIP3    H219510   4.867   5.220   2.083
 6502TIP3   OH219511   3.555   0.409   3.824
 6502TIP3    H119512   3.516   0.493   3.801
 6502TIP3    H219513   3.518   0.347   3.761
 6503TIP3   OH219514   2.062   3.419   0.068
 6503TIP3    H119515   2.036   3.327   0.071
 6503TIP3    H219516   1.983   3.466   0.043
 6504TIP3   OH219517   1.003   5.574   0.262
 6504TIP3    H119518   1.016   5.485   0.229
 6504TIP3    H219519   0.991   5.627   0.184
 6505TIP3   OH219520   6.178   4.543   4.739
 6505TIP3    H119521   6.265   4.520   4.774
 6505TIP3    H219522   6.151   4.620   4.790
 6506TIP3   OH219523   3.768   4.589   0.249
 6506TIP3    H119524   3.759   4.536   0.328
 6506TIP3    H219525   3.689   4.644   0.248
 6507TIP3   OH219526   0.031   5.413   4.340
 6507TIP3    H119527   0.120   5.378   4.336
 6507TIP3    H219528   0.043   5.508   4.339
 6508TIP3   OH219529   2.368   1.199   4.423
 6508TIP3    H119530   2.372   1.295   4.424
 6508TIP3    H219531   2.381   1.173   4.514
 6509TIP3   OH219532   0.867   0.653   4.788
 6509TIP3    H119533   0.847   0.559   4.794
 6509TIP3    H219534   0.884   0.668   4.695
 6510TIP3   OH219535   3.608   0.223   1.204
 6510TIP3    H119536   3.596   0.290   1.271
 6510TIP3    H219537   3.519   0.203   1.174
 6511TIP3   OH219538   2.223   2.236   1.549
 6511TIP3    H119539   2.257   2.263   1.634
 6511TIP3    H219540   2.192   2.147   1.562
 6512TIP3   OH219541   2.124   3.867   0.823
 6512TIP3    H119542   2.171   3.914   0.754
 6512TIP3    H219543   2.039   3.846   0.784
 6513TIP3   OH219544   2.344   3.823   1.339
 6513TIP3    H119545   2.370   3.744   1.386
 6513TIP3    H219546   2.249   3.826   1.348
 6514TIP3   OH219547   0.895   4.365   2.640
 6514TIP3    H119548   0.958   4.381   2.570
 6514TIP3    H219549   0.883   4.270   2.640
 6515TIP3   OH219550   3.722   5.828   2.062
 6515TIP3    H119551   3.685   5.819   1.975
 6515TIP3    H219552   3.669   5.896   2.104
 6516TIP3   OH219553   4.124   0.075   4.868
 6516TIP3    H119554   4.033   0.075   4.837
 6516TIP3    H219555   4.123   0.017   4.944
 6517TIP3   OH219556   2.101   4.021   1.640
 6517TIP3    H119557   2.040   4.081   1.683
 6517TIP3    H219558   2.100   3.943   1.695
 6518TIP3   OH219559   4.522   4.036   1.566
 6518TIP3    H119560   4.509   4.131   1.566
 6518TIP3    H219561   4.575   4.020   1.488
 6519TIP3   OH219562   4.947   2.554   0.524
 6519TIP3    H119563   4.911   2.642   0.517
 6519TIP3    H219564   4.904   2.516   0.601
 6520TIP3   OH219565   4.044   2.531   3.371
 6520TIP3    H119566   4.040   2.576   3.287
 6520TIP3    H219567   3.988   2.454   3.360
 6521TIP3   OH219568   0.836   4.774   4.177
 6521TIP3    H119569   0.750   4.732   4.165
 6521TIP3    H219570   0.824   4.862   4.143
 6522TIP3   OH219571   2.333   0.241   4.216
 6522TIP3    H119572   2.364   0.157   4.184
 6522TIP3    H219573   2.326   0.295   4.137
 6523TIP3   OH219574   5.764   1.618   5.042
 6523TIP3    H119575   5.700   1.623   5.113
 6523TIP3    H219576   5.793   1.527   5.043
 6524TIP3   OH219577   2.593   0.486   3.316
 6524TIP3    H119578   2.640   0.510   3.236
 6524TIP3    H219579   2.643   0.528   3.387
 6525TIP3   OH219580   1.437   4.967   1.599
 6525TIP3    H119581   1.346   4.952   1.622
 6525TIP3    H219582   1.452   4.914   1.521
 6526TIP3   OH219583   2.878   1.309   1.708
 6526TIP3    H119584   2.895   1.402   1.722
 6526TIP3    H219585   2.800   1.291   1.760
 6527TIP3   OH219586   0.938   3.612   3.809
 6527TIP3    H119587   0.899   3.542   3.861
 6527TIP3    H219588   0.901   3.693   3.845
 6528TIP3   OH219589   1.549   2.736   1.007
 6528TIP3    H119590   1.470   2.784   1.031
 6528TIP3    H219591   1.590   2.715   1.090
 6529TIP3   OH219592   5.250   2.080   0.364
 6529TIP3    H119593   5.263   2.044   0.452
 6529TIP3    H219594   5.208   2.010   0.315
 6530TIP3   OH219595   1.170   2.084   4.961
 6530TIP3    H119596   1.128   2.019   4.905
 6530TIP3    H219597   1.222   2.137   4.901
 6531TIP3   OH219598   2.590   0.613   3.028
 6531TIP3    H119599   2.496   0.621   3.046
 6531TIP3    H219600   2.611   0.690   2.975
 6532TIP3   OH219601   0.485   2.383   0.462
 6532TIP3    H119602   0.466   2.468   0.502
 6532TIP3    H219603   0.402   2.357   0.421
 6533TIP3   OH219604   3.963   0.063   0.474
 6533TIP3    H119605   4.032   0.008   0.436
 6533TIP3    H219606   3.892   0.002   0.492
 6534TIP3   OH219607   1.451   2.149   2.719
 6534TIP3    H119608   1.457   2.087   2.647
 6534TIP3    H219609   1.417   2.229   2.679
 6535TIP3   OH219610   0.004   3.734   4.486
 6535TIP3    H119611   0.083   3.787   4.473
 6535TIP3    H219612   0.017   3.659   4.428
 6536TIP3   OH219613   0.549   4.553   4.391
 6536TIP3    H119614   0.563   4.607   4.314
 6536TIP3    H219615   0.573   4.610   4.465
 6537TIP3   OH219616   1.013   4.391   3.220
 6537TIP3    H119617   1.083   4.347   3.268
 6537TIP3    H219618   1.002   4.338   3.141
 6538TIP3   OH219619   4.160   1.315   1.250
 6538TIP3    H119620   4.094   1.246   1.259
 6538TIP3    H219621   4.113   1.389   1.212
 6539TIP3   OH219622   3.072   4.411   2.602
 6539TIP3    H119623   3.129   4.442   2.672
 6539TIP3    H219624   3.072   4.316   2.610
 6540TIP3   OH219625   0.297   2.018   2.244
 6540TIP3    H119626   0.328   2.068   2.319
 6540TIP3    H219627   0.353   2.045   2.171
 6541TIP3   OH219628   3.492   3.634   2.629
 6541TIP3    H119629   3.450   3.552   2.604
 6541TIP3    H219630   3.528   3.617   2.716
 6542TIP3   OH219631   1.330   5.842   5.078
 6542TIP3    H119632   1.306   5.933   5.062
 6542TIP3    H219633   1.309   5.797   4.996
 6543TIP3   OH219634   5.508   1.458   3.438
 6543TIP3    H119635   5.427   1.435   3.483
 6543TIP3    H219636   5.515   1.553   3.446
 6544TIP3   OH219637   2.060   0.380   4.120
 6544TIP3    H119638   2.136   0.392   4.064
 6544TIP3    H219639   2.093   0.329   4.194
 6545TIP3   OH219640   5.864   4.650   4.252
 6545TIP3    H119641   5.793   4.709   4.226
 6545TIP3    H219642   5.896   4.686   4.334
 6546TIP3   OH219643   4.633   4.073   2.881
 6546TIP3    H119644   4.624   4.127   2.960
 6546TIP3    H219645   4.607   3.985   2.909
 6547TIP3   OH219646   0.237   1.181   1.830
 6547TIP3    H119647   0.211   1.092   1.806
 6547TIP3    H219648   0.277   1.173   1.916
 6548TIP3   OH219649   2.339   3.062   1.143
 6548TIP3    H119650   2.281   3.123   1.188
 6548TIP3    H219651   2.416   3.056   1.200
 6549TIP3   OH219652   0.473   1.296   2.222
 6549TIP3    H119653   0.553   1.245   2.208
 6549TIP3    H219654   0.458   1.292   2.316
 6550TIP3   OH219655   1.312   4.399   2.536
 6550TIP3    H119656   1.322   4.480   2.485
 6550TIP3    H219657   1.390   4.348   2.513
 6551TIP3   OH219658   1.886   1.661   0.707
 6551TIP3    H119659   1.944   1.732   0.679
 6551TIP3    H219660   1.825   1.650   0.635
 6552TIP3   OH219661   2.481   4.362   2.136
 6552TIP3    H119662   2.544   4.425   2.171
 6552TIP3    H219663   2.535   4.293   2.097
 6553TIP3   OH219664   5.675   1.849   1.428
 6553TIP3    H119665   5.653   1.831   1.337
 6553TIP3    H219666   5.647   1.771   1.476
 6554TIP3   OH219667   0.440   0.074   0.391
 6554TIP3    H119668   0.395   0.022   0.457
 6554TIP3    H219669   0.374   0.093   0.325
 6555TIP3   OH219670   5.545   4.954   3.239
 6555TIP3    H119671   5.575   5.009   3.312
 6555TIP3    H219672   5.592   4.987   3.163
 6556TIP3   OH219673   5.930   3.040   2.038
 6556TIP3    H119674   5.868   3.036   2.111
 6556TIP3    H219675   5.929   2.951   2.001
 6557TIP3   OH219676   0.639   2.418   0.988
 6557TIP3    H119677   0.582   2.344   1.009
 6557TIP3    H219678   0.726   2.379   0.977
 6558TIP3   OH219679   4.571   2.382   0.386
 6558TIP3    H119680   4.491   2.344   0.421
 6558TIP3    H219681   4.631   2.308   0.376
 6559TIP3   OH219682   5.385   0.776   0.840
 6559TIP3    H119683   5.433   0.818   0.769
 6559TIP3    H219684   5.302   0.824   0.845
 6560TIP3   OH219685   5.013   2.621   1.952
 6560TIP3    H119686   5.040   2.655   2.038
 6560TIP3    H219687   5.007   2.699   1.897
 6561TIP3   OH219688   1.211   2.196   1.275
 6561TIP3    H119689   1.270   2.243   1.215
 6561TIP3    H219690   1.191   2.115   1.229
 6562TIP3   OH219691   2.380   2.177   3.555
 6562TIP3    H119692   2.402   2.224   3.636
 6562TIP3    H219693   2.370   2.246   3.490
 6563TIP3   OH219694   5.022   4.537   3.782
 6563TIP3    H119695   5.005   4.574   3.869
 6563TIP3    H219696   5.114   4.556   3.766
 6564TIP3   OH219697   1.337   5.001   4.602
 6564TIP3    H119698   1.404   5.069   4.593
 6564TIP3    H219699   1.275   5.037   4.665
 6565TIP3   OH219700   4.242   4.837   2.644
 6565TIP3    H119701   4.258   4.799   2.558
 6565TIP3    H219702   4.250   4.762   2.704
 6566TIP3   OH219703   1.344   5.231   3.621
 6566TIP3    H119704   1.252   5.248   3.639
 6566TIP3    H219705   1.363   5.280   3.541
 6567TIP3   OH219706   3.855   1.561   3.476
 6567TIP3    H119707   3.825   1.643   3.437
 6567TIP3    H219708   3.800   1.494   3.436
 6568TIP3   OH219709   0.658  -0.012   0.172
 6568TIP3    H119710   0.573   0.009   0.212
 6568TIP3    H219711   0.722   0.027   0.231
 6569TIP3   OH219712   6.302   3.051   0.148
 6569TIP3    H119713   6.372   3.117   0.142
 6569TIP3    H219714   6.225   3.100   0.178
 6570TIP3   OH219715   0.707   1.457   3.232
 6570TIP3    H119716   0.633   1.472   3.291
 6570TIP3    H219717   0.784   1.484   3.284
 6571TIP3   OH219718   4.871   4.452   2.657
 6571TIP3    H119719   4.898   4.495   2.576
 6571TIP3    H219720   4.809   4.385   2.630
 6572TIP3   OH219721   0.485   1.104   2.516
 6572TIP3    H119722   0.543   1.178   2.501
 6572TIP3    H219723   0.537   1.027   2.492
 6573TIP3   OH219724   1.848   5.738   3.133
 6573TIP3    H119725   1.896   5.720   3.213
 6573TIP3    H219726   1.850   5.834   3.125
 6574TIP3   OH219727   3.383   1.920   1.571
 6574TIP3    H119728   3.312   1.983   1.562
 6574TIP3    H219729   3.340   1.836   1.590
 6575TIP3   OH219730   1.500   1.063   4.633
 6575TIP3    H119731   1.405   1.053   4.633
 6575TIP3    H219732   1.520   1.108   4.715
 6576TIP3   OH219733   3.070   0.949   0.463
 6576TIP3    H119734   3.056   1.043   0.462
 6576TIP3    H219735   3.077   0.925   0.370
 6577TIP3   OH219736   0.794   3.374   1.267
 6577TIP3    H119737   0.849   3.437   1.220
 6577TIP3    H219738   0.714   3.368   1.214
 6578TIP3   OH219739   2.319   4.404   1.844
 6578TIP3    H119740   2.263   4.461   1.897
 6578TIP3    H219741   2.274   4.398   1.760
 6579TIP3   OH219742   3.717   0.542   0.851
 6579TIP3    H119743   3.716   0.479   0.923
 6579TIP3    H219744   3.697   0.626   0.893
 6580TIP3   OH219745   1.031   0.651   2.104
 6580TIP3    H119746   1.116   0.691   2.085
 6580TIP3    H219747   1.044   0.609   2.189
 6581TIP3   OH219748   3.405   1.998   4.900
 6581TIP3    H119749   3.364   2.056   4.963
 6581TIP3    H219750   3.341   1.929   4.885
 6582TIP3   OH219751   1.090   1.868   4.064
 6582TIP3    H119752   1.140   1.917   3.998
 6582TIP3    H219753   1.153   1.852   4.134
 6583TIP3   OH219754   0.084   0.138   4.042
 6583TIP3    H119755   0.166   0.089   4.045
 6583TIP3    H219756   0.059   0.149   4.133
 6584TIP3   OH219757   1.322   4.107   0.053
 6584TIP3    H119758   1.271   4.122  -0.027
 6584TIP3    H219759   1.395   4.168   0.047
 6585TIP3   OH219760   4.016   5.775   2.544
 6585TIP3    H119761   3.977   5.796   2.459
 6585TIP3    H219762   4.027   5.861   2.586
 6586TIP3   OH219763   1.560   0.795   0.424
 6586TIP3    H119764   1.601   0.868   0.470
 6586TIP3    H219765   1.631   0.732   0.409
 6587TIP3   OH219766   2.937   3.814   3.882
 6587TIP3    H119767   3.002   3.818   3.951
 6587TIP3    H219768   2.910   3.905   3.868
 6588TIP3   OH219769   1.819   4.120   0.561
 6588TIP3    H119770   1.737   4.150   0.599
 6588TIP3    H219771   1.878   4.195   0.569
 6589TIP3   OH219772   1.556   4.938   2.183
 6589TIP3    H119773   1.520   5.008   2.237
 6589TIP3    H219774   1.482   4.882   2.162
 6590TIP3   OH219775   5.640   1.219   3.402
 6590TIP3    H119776   5.609   1.283   3.466
 6590TIP3    H219777   5.561   1.184   3.362
 6591TIP3   OH219778   5.493   3.061   4.795
 6591TIP3    H119779   5.540   2.997   4.848
 6591TIP3    H219780   5.561   3.123   4.768
 6592TIP3   OH219781   5.539   1.052   2.328
 6592TIP3    H119782   5.514   1.028   2.239
 6592TIP3    H219783   5.521   0.974   2.380
 6593TIP3   OH219784   3.657   4.524   4.424
 6593TIP3    H119785   3.741   4.482   4.405
 6593TIP3    H219786   3.653   4.528   4.520
 6594TIP3   OH219787   4.166   1.200   0.943
 6594TIP3    H119788   4.107   1.135   0.979
 6594TIP3    H219789   4.113   1.248   0.879
 6595TIP3   OH219790   2.312   1.290   1.476
 6595TIP3    H119791   2.231   1.340   1.470
 6595TIP3    H219792   2.295   1.209   1.428
 6596TIP3   OH219793   5.732   1.505   3.667
 6596TIP3    H119794   5.816   1.516   3.710
 6596TIP3    H219795   5.754   1.487   3.576
 6597TIP3   OH219796   0.665   2.303   3.863
 6597TIP3    H119797   0.688   2.219   3.901
 6597TIP3    H219798   0.749   2.342   3.838
 6598TIP3   OH219799   5.920   1.989   2.145
 6598TIP3    H119800   5.892   2.079   2.159
 6598TIP3    H219801   5.903   1.973   2.052
 6599TIP3   OH219802   2.831   4.986   2.766
 6599TIP3    H119803   2.899   4.999   2.832
 6599TIP3    H219804   2.864   4.915   2.711
 6600TIP3   OH219805   3.939   1.999   0.329
 6600TIP3    H119806   4.024   2.041   0.316
 6600TIP3    H219807   3.890   2.018   0.249
 6601TIP3   OH219808   1.514   5.161   5.009
 6601TIP3    H119809   1.422   5.148   5.032
 6601TIP3    H219810   1.556   5.078   5.032
 6602TIP3   OH219811   4.968   2.425   4.614
 6602TIP3    H119812   4.886   2.404   4.660
 6602TIP3    H219813   5.037   2.402   4.676
 6603TIP3   OH219814   5.664   3.727   1.051
 6603TIP3    H119815   5.664   3.734   0.956
 6603TIP3    H219816   5.665   3.633   1.068
 6604TIP3   OH219817   3.821   4.537   2.264
 6604TIP3    H119818   3.815   4.556   2.358
 6604TIP3    H219819   3.781   4.451   2.255
 6605TIP3   OH219820   2.169   0.291   3.539
 6605TIP3    H119821   2.262   0.307   3.556
 6605TIP3    H219822   2.165   0.265   3.447
 6606TIP3   OH219823   4.818   5.964   1.212
 6606TIP3    H119824   4.780   5.927   1.132
 6606TIP3    H219825   4.842   5.888   1.264
 6607TIP3   OH219826   1.276   5.659   1.047
 6607TIP3    H119827   1.287   5.719   1.121
 6607TIP3    H219828   1.256   5.716   0.973
 6608TIP3   OH219829   0.745   4.012   3.230
 6608TIP3    H119830   0.717   3.965   3.308
 6608TIP3    H219831   0.744   4.104   3.256
 6609TIP3   OH219832   5.325   4.581   4.495
 6609TIP3    H119833   5.293   4.671   4.504
 6609TIP3    H219834   5.279   4.548   4.417
 6610TIP3   OH219835   4.634   3.014   5.151
 6610TIP3    H119836   4.625   3.072   5.227
 6610TIP3    H219837   4.721   3.033   5.117
 6611TIP3   OH219838   3.347   4.272   0.340
 6611TIP3    H119839   3.352   4.202   0.405
 6611TIP3    H219840   3.435   4.277   0.303
 6612TIP3   OH219841   4.983   0.373   1.915
 6612TIP3    H119842   4.960   0.281   1.903
 6612TIP3    H219843   5.016   0.400   1.829
 6613TIP3   OH219844   4.237   1.006   5.057
 6613TIP3    H119845   4.247   1.101   5.059
 6613TIP3    H219846   4.293   0.974   5.128
 6614TIP3   OH219847   4.618   5.318   2.176
 6614TIP3    H119848   4.547   5.381   2.165
 6614TIP3    H219849   4.683   5.365   2.228
 6615TIP3   OH219850   0.245   4.360   3.370
 6615TIP3    H119851   0.336   4.387   3.385
 6615TIP3    H219852   0.208   4.430   3.317
 6616TIP3   OH219853   1.327   5.714   3.693
 6616TIP3    H119854   1.275   5.794   3.691
 6616TIP3    H219855   1.383   5.723   3.770
 6617TIP3   OH219856   3.894   4.411   4.521
 6617TIP3    H119857   3.967   4.381   4.575
 6617TIP3    H219858   3.936   4.446   4.442
 6618TIP3   OH219859   0.549   1.280   4.087
 6618TIP3    H119860   0.582   1.193   4.111
 6618TIP3    H219861   0.619   1.340   4.113
 6619TIP3   OH219862   2.730   0.636   4.715
 6619TIP3    H119863   2.693   0.567   4.660
 6619TIP3    H219864   2.788   0.685   4.657
 6620TIP3   OH219865   5.500   4.524   1.079
 6620TIP3    H119866   5.561   4.518   1.153
 6620TIP3    H219867   5.525   4.451   1.022
 6621TIP3   OH219868   0.390   0.590   5.018
 6621TIP3    H119869   0.460   0.586   5.083
 6621TIP3    H219870   0.310   0.600   5.069
 6622TIP3   OH219871   3.738   0.374   4.693
 6622TIP3    H119872   3.723   0.448   4.752
 6622TIP3    H219873   3.660   0.320   4.702
 6623TIP3   OH219874   5.157   2.328   4.472
 6623TIP3    H119875   5.091   2.365   4.530
 6623TIP3    H219876   5.208   2.404   4.443
 6624TIP3   OH219877   4.376   0.828   4.719
 6624TIP3    H119878   4.293   0.815   4.764
 6624TIP3    H219879   4.378   0.921   4.699
 6625TIP3   OH219880   5.504   2.901   1.130
 6625TIP3    H119881   5.432   2.904   1.066
 6625TIP3    H219882   5.489   2.977   1.186
 6626TIP3   OH219883   0.833   3.845   3.599
 6626TIP3    H119884   0.805   3.936   3.608
 6626TIP3    H219885   0.908   3.836   3.658
 6627TIP3   OH219886   1.863   5.608   1.245
 6627TIP3    H119887   1.893   5.518   1.258
 6627TIP3    H219888   1.914   5.640   1.170
 6628TIP3   OH219889   2.003   5.190   3.727
 6628TIP3    H119890   1.913   5.217   3.744
 6628TIP3    H219891   2.014   5.108   3.775
 6629TIP3   OH219892   3.704   5.320   4.771
 6629TIP3    H119893   3.724   5.227   4.756
 6629TIP3    H219894   3.714   5.331   4.865
 6630TIP3   OH219895   4.700   5.795   0.971
 6630TIP3    H119896   4.704   5.700   0.980
 6630TIP3    H219897   4.745   5.814   0.889
 6631TIP3   OH219898   3.403   0.558   0.353
 6631TIP3    H119899   3.472   0.622   0.336
 6631TIP3    H219900   3.323   0.610   0.361
 6632TIP3   OH219901   4.105   1.460   1.478
 6632TIP3    H119902   4.134   1.385   1.426
 6632TIP3    H219903   4.025   1.490   1.435
 6633TIP3   OH219904   3.481   3.417   1.567
 6633TIP3    H119905   3.537   3.342   1.587
 6633TIP3    H219906   3.478   3.421   1.472
 6634TIP3   OH219907   5.027   5.157   4.034
 6634TIP3    H119908   4.992   5.073   4.003
 6634TIP3    H219909   5.113   5.135   4.070
 6635TIP3   OH219910   6.357   2.912   2.615
 6635TIP3    H119911   6.272   2.953   2.597
 6635TIP3    H219912   6.336   2.839   2.673
 6636TIP3   OH219913   0.355   4.837   5.154
 6636TIP3    H119914   0.417   4.898   5.114
 6636TIP3    H219915   0.270   4.879   5.143
 6637TIP3   OH219916   1.974   3.902   0.484
 6637TIP3    H119917   2.069   3.900   0.488
 6637TIP3    H219918   1.949   3.974   0.541
 6638TIP3   OH219919   2.263   5.803   4.923
 6638TIP3    H119920   2.189   5.824   4.980
 6638TIP3    H219921   2.335   5.786   4.983
 6639TIP3   OH219922   5.813   1.016   2.275
 6639TIP3    H119923   5.717   1.021   2.273
 6639TIP3    H219924   5.839   1.014   2.183
 6640TIP3   OH219925   5.376   4.052   2.945
 6640TIP3    H119926   5.378   4.007   3.029
 6640TIP3    H219927   5.337   4.137   2.963
 6641TIP3   OH219928   0.468   5.024   3.631
 6641TIP3    H119929   0.409   5.045   3.704
 6641TIP3    H219930   0.540   5.086   3.639
 6642TIP3   OH219931   1.800   0.033   1.114
 6642TIP3    H119932   1.801  -0.028   1.188
 6642TIP3    H219933   1.721   0.085   1.127
 6643TIP3   OH219934   5.427   2.051   3.110
 6643TIP3    H119935   5.490   2.094   3.168
 6643TIP3    H219936   5.470   1.969   3.085
 6644TIP3   OH219937   2.434   2.092   4.319
 6644TIP3    H119938   2.449   2.078   4.412
 6644TIP3    H219939   2.349   2.138   4.315
 6645TIP3   OH219940   1.693   0.368   0.075
 6645TIP3    H119941   1.687   0.276   0.047
 6645TIP3    H219942   1.750   0.366   0.152
   6.33844   5.97594   5.17532   0.00000   0.00000  -2.11282   0.00000  -2.11282  -2.98797
