;;
;; Generated by CHARMM-GUI FF-Converter
;;
;; Correspondance:
;; jul316@lehigh.edu or wonpil@lehigh.edu
;;
;; GROMACS topology file for PROA
;;


[ moleculetype ]
; name	nrexcl
PROA	     3

[ atoms ]
; nr	type	resnr	residu	atom	cgnr	charge	mass
     1        NH3      1      ASP      N      1    -0.300000    14.0070   ; qtot -0.300
     2         HC      1      ASP    HT1      2     0.330000     1.0080   ; qtot  0.030
     3         HC      1      ASP    HT2      3     0.330000     1.0080   ; qtot  0.360
     4         HC      1      ASP    HT3      4     0.330000     1.0080   ; qtot  0.690
     5        CT1      1      ASP     CA      5     0.210000    12.0110   ; qtot  0.900
     6        HB1      1      ASP     HA      6     0.100000     1.0080   ; qtot  1.000
     7       CT2A      1      ASP     CB      7    -0.280000    12.0110   ; qtot  0.720
     8        HA2      1      ASP    HB1      8     0.090000     1.0080   ; qtot  0.810
     9        HA2      1      ASP    HB2      9     0.090000     1.0080   ; qtot  0.900
    10         CC      1      ASP     CG     10     0.620000    12.0110   ; qtot  1.520
    11         OC      1      ASP    OD1     11    -0.760000    15.9994   ; qtot  0.760
    12         OC      1      ASP    OD2     12    -0.760000    15.9994   ; qtot  0.000
    13          C      1      ASP      C     13     0.510000    12.0110   ; qtot  0.510
    14          O      1      ASP      O     14    -0.510000    15.9994   ; qtot  0.000
    15        NH1      2      ALA      N     15    -0.470000    14.0070   ; qtot -0.470
    16          H      2      ALA     HN     16     0.310000     1.0080   ; qtot -0.160
    17        CT1      2      ALA     CA     17     0.070000    12.0110   ; qtot -0.090
    18        HB1      2      ALA     HA     18     0.090000     1.0080   ; qtot  0.000
    19        CT3      2      ALA     CB     19    -0.270000    12.0110   ; qtot -0.270
    20        HA3      2      ALA    HB1     20     0.090000     1.0080   ; qtot -0.180
    21        HA3      2      ALA    HB2     21     0.090000     1.0080   ; qtot -0.090
    22        HA3      2      ALA    HB3     22     0.090000     1.0080   ; qtot -0.000
    23          C      2      ALA      C     23     0.510000    12.0110   ; qtot  0.510
    24          O      2      ALA      O     24    -0.510000    15.9994   ; qtot  0.000
    25        NH1      3      ASP      N     25    -0.470000    14.0070   ; qtot -0.470
    26          H      3      ASP     HN     26     0.310000     1.0080   ; qtot -0.160
    27        CT1      3      ASP     CA     27     0.070000    12.0110   ; qtot -0.090
    28        HB1      3      ASP     HA     28     0.090000     1.0080   ; qtot  0.000
    29       CT2A      3      ASP     CB     29    -0.280000    12.0110   ; qtot -0.280
    30        HA2      3      ASP    HB1     30     0.090000     1.0080   ; qtot -0.190
    31        HA2      3      ASP    HB2     31     0.090000     1.0080   ; qtot -0.100
    32         CC      3      ASP     CG     32     0.620000    12.0110   ; qtot  0.520
    33         OC      3      ASP    OD1     33    -0.760000    15.9994   ; qtot -0.240
    34         OC      3      ASP    OD2     34    -0.760000    15.9994   ; qtot -1.000
    35          C      3      ASP      C     35     0.510000    12.0110   ; qtot -0.490
    36          O      3      ASP      O     36    -0.510000    15.9994   ; qtot -1.000
    37        NH1      4      GLY      N     37    -0.470000    14.0070   ; qtot -1.470
    38          H      4      GLY     HN     38     0.310000     1.0080   ; qtot -1.160
    39        CT2      4      GLY     CA     39    -0.020000    12.0110   ; qtot -1.180
    40        HB2      4      GLY    HA1     40     0.090000     1.0080   ; qtot -1.090
    41        HB2      4      GLY    HA2     41     0.090000     1.0080   ; qtot -1.000
    42          C      4      GLY      C     42     0.510000    12.0110   ; qtot -0.490
    43          O      4      GLY      O     43    -0.510000    15.9994   ; qtot -1.000
    44          N      5      PRO      N     44    -0.290000    14.0070   ; qtot -1.290
    45        CP3      5      PRO     CD     45     0.000000    12.0110   ; qtot -1.290
    46        HA2      5      PRO    HD1     46     0.090000     1.0080   ; qtot -1.200
    47        HA2      5      PRO    HD2     47     0.090000     1.0080   ; qtot -1.110
    48        CP1      5      PRO     CA     48     0.020000    12.0110   ; qtot -1.090
    49        HB1      5      PRO     HA     49     0.090000     1.0080   ; qtot -1.000
    50        CP2      5      PRO     CB     50    -0.180000    12.0110   ; qtot -1.180
    51        HA2      5      PRO    HB1     51     0.090000     1.0080   ; qtot -1.090
    52        HA2      5      PRO    HB2     52     0.090000     1.0080   ; qtot -1.000
    53        CP2      5      PRO     CG     53    -0.180000    12.0110   ; qtot -1.180
    54        HA2      5      PRO    HG1     54     0.090000     1.0080   ; qtot -1.090
    55        HA2      5      PRO    HG2     55     0.090000     1.0080   ; qtot -1.000
    56          C      5      PRO      C     56     0.510000    12.0110   ; qtot -0.490
    57          O      5      PRO      O     57    -0.510000    15.9994   ; qtot -1.000
    58        NH1      6      GLY      N     58    -0.470000    14.0070   ; qtot -1.470
    59          H      6      GLY     HN     59     0.310000     1.0080   ; qtot -1.160
    60        CT2      6      GLY     CA     60    -0.020000    12.0110   ; qtot -1.180
    61        HB2      6      GLY    HA1     61     0.090000     1.0080   ; qtot -1.090
    62        HB2      6      GLY    HA2     62     0.090000     1.0080   ; qtot -1.000
    63          C      6      GLY      C     63     0.510000    12.0110   ; qtot -0.490
    64          O      6      GLY      O     64    -0.510000    15.9994   ; qtot -1.000
    65        NH1      7      ASP      N     65    -0.470000    14.0070   ; qtot -1.470
    66          H      7      ASP     HN     66     0.310000     1.0080   ; qtot -1.160
    67        CT1      7      ASP     CA     67     0.070000    12.0110   ; qtot -1.090
    68        HB1      7      ASP     HA     68     0.090000     1.0080   ; qtot -1.000
    69       CT2A      7      ASP     CB     69    -0.280000    12.0110   ; qtot -1.280
    70        HA2      7      ASP    HB1     70     0.090000     1.0080   ; qtot -1.190
    71        HA2      7      ASP    HB2     71     0.090000     1.0080   ; qtot -1.100
    72         CC      7      ASP     CG     72     0.620000    12.0110   ; qtot -0.480
    73         OC      7      ASP    OD1     73    -0.760000    15.9994   ; qtot -1.240
    74         OC      7      ASP    OD2     74    -0.760000    15.9994   ; qtot -2.000
    75          C      7      ASP      C     75     0.510000    12.0110   ; qtot -1.490
    76          O      7      ASP      O     76    -0.510000    15.9994   ; qtot -2.000
    77          N      8      PRO      N     77    -0.290000    14.0070   ; qtot -2.290
    78        CP3      8      PRO     CD     78     0.000000    12.0110   ; qtot -2.290
    79        HA2      8      PRO    HD1     79     0.090000     1.0080   ; qtot -2.200
    80        HA2      8      PRO    HD2     80     0.090000     1.0080   ; qtot -2.110
    81        CP1      8      PRO     CA     81     0.020000    12.0110   ; qtot -2.090
    82        HB1      8      PRO     HA     82     0.090000     1.0080   ; qtot -2.000
    83        CP2      8      PRO     CB     83    -0.180000    12.0110   ; qtot -2.180
    84        HA2      8      PRO    HB1     84     0.090000     1.0080   ; qtot -2.090
    85        HA2      8      PRO    HB2     85     0.090000     1.0080   ; qtot -2.000
    86        CP2      8      PRO     CG     86    -0.180000    12.0110   ; qtot -2.180
    87        HA2      8      PRO    HG1     87     0.090000     1.0080   ; qtot -2.090
    88        HA2      8      PRO    HG2     88     0.090000     1.0080   ; qtot -2.000
    89          C      8      PRO      C     89     0.510000    12.0110   ; qtot -1.490
    90          O      8      PRO      O     90    -0.510000    15.9994   ; qtot -2.000
    91        NH1      9      ASP      N     91    -0.470000    14.0070   ; qtot -2.470
    92          H      9      ASP     HN     92     0.310000     1.0080   ; qtot -2.160
    93        CT1      9      ASP     CA     93     0.070000    12.0110   ; qtot -2.090
    94        HB1      9      ASP     HA     94     0.090000     1.0080   ; qtot -2.000
    95       CT2A      9      ASP     CB     95    -0.280000    12.0110   ; qtot -2.280
    96        HA2      9      ASP    HB1     96     0.090000     1.0080   ; qtot -2.190
    97        HA2      9      ASP    HB2     97     0.090000     1.0080   ; qtot -2.100
    98         CC      9      ASP     CG     98     0.620000    12.0110   ; qtot -1.480
    99         OC      9      ASP    OD1     99    -0.760000    15.9994   ; qtot -2.240
   100         OC      9      ASP    OD2    100    -0.760000    15.9994   ; qtot -3.000
   101          C      9      ASP      C    101     0.510000    12.0110   ; qtot -2.490
   102          O      9      ASP      O    102    -0.510000    15.9994   ; qtot -3.000
   103        NH1     10      ALA      N    103    -0.470000    14.0070   ; qtot -3.470
   104          H     10      ALA     HN    104     0.310000     1.0080   ; qtot -3.160
   105        CT1     10      ALA     CA    105     0.070000    12.0110   ; qtot -3.090
   106        HB1     10      ALA     HA    106     0.090000     1.0080   ; qtot -3.000
   107        CT3     10      ALA     CB    107    -0.270000    12.0110   ; qtot -3.270
   108        HA3     10      ALA    HB1    108     0.090000     1.0080   ; qtot -3.180
   109        HA3     10      ALA    HB2    109     0.090000     1.0080   ; qtot -3.090
   110        HA3     10      ALA    HB3    110     0.090000     1.0080   ; qtot -3.000
   111          C     10      ALA      C    111     0.510000    12.0110   ; qtot -2.490
   112          O     10      ALA      O    112    -0.510000    15.9994   ; qtot -3.000
   113        NH1     11      GLY      N    113    -0.470000    14.0070   ; qtot -3.470
   114          H     11      GLY     HN    114     0.310000     1.0080   ; qtot -3.160
   115        CT2     11      GLY     CA    115    -0.020000    12.0110   ; qtot -3.180
   116        HB2     11      GLY    HA1    116     0.090000     1.0080   ; qtot -3.090
   117        HB2     11      GLY    HA2    117     0.090000     1.0080   ; qtot -3.000
   118         CC     11      GLY      C    118     0.340000    12.0110   ; qtot -2.660
   119         OC     11      GLY    OT1    119    -0.670000    15.9994   ; qtot -3.330
   120         OC     11      GLY    OT2    120    -0.670000    15.9994   ; qtot -4.000

[ bonds ]
; ai	aj	funct	b0	Kb
    2     1     1
    3     1     1
    4     1     1
    1     5     1
    5     6     1
    7     5     1
   13     5     1
    7     8     1
    7     9     1
   10     7     1
   10    11     1
   12    10     1
   14    13     1
   13    15     1
   15    16     1
   15    17     1
   17    18     1
   19    17     1
   23    17     1
   19    20     1
   19    21     1
   19    22     1
   24    23     1
   23    25     1
   25    26     1
   25    27     1
   27    28     1
   29    27     1
   35    27     1
   29    30     1
   29    31     1
   32    29     1
   32    33     1
   34    32     1
   36    35     1
   35    37     1
   37    38     1
   37    39     1
   39    40     1
   39    41     1
   42    39     1
   43    42     1
   42    44     1
   44    45     1
   44    48     1
   46    45     1
   47    45     1
   53    45     1
   49    48     1
   48    50     1
   56    48     1
   51    50     1
   52    50     1
   50    53     1
   54    53     1
   55    53     1
   57    56     1
   56    58     1
   58    59     1
   58    60     1
   60    61     1
   60    62     1
   63    60     1
   64    63     1
   63    65     1
   65    66     1
   65    67     1
   67    68     1
   69    67     1
   75    67     1
   69    70     1
   69    71     1
   72    69     1
   72    73     1
   74    72     1
   76    75     1
   75    77     1
   77    78     1
   77    81     1
   79    78     1
   80    78     1
   86    78     1
   82    81     1
   81    83     1
   89    81     1
   84    83     1
   85    83     1
   83    86     1
   87    86     1
   88    86     1
   90    89     1
   89    91     1
   91    92     1
   91    93     1
   93    94     1
   95    93     1
  101    93     1
   95    96     1
   95    97     1
   98    95     1
   98    99     1
  100    98     1
  102   101     1
  101   103     1
  103   104     1
  103   105     1
  105   106     1
  107   105     1
  111   105     1
  107   108     1
  107   109     1
  107   110     1
  112   111     1
  111   113     1
  113   114     1
  113   115     1
  115   116     1
  115   117     1
  118   115     1
  118   119     1
  118   120     1

[ pairs ]
; ai	aj	funct	c6	c12 or
; ai	aj	funct	fudgeQQ	q1	q2	c6	c12
    1     8     1
    1     9     1
    1    10     1
    1    14     1
    1    15     1
    2     6     1
    2     7     1
    2    13     1
    3     6     1
    3     7     1
    3    13     1
    4     6     1
    4     7     1
    4    13     1
    5    11     1
    5    12     1
    5    16     1
    5    17     1
    6     8     1
    6     9     1
    6    10     1
    6    14     1
    6    15     1
    7    14     1
    7    15     1
    8    11     1
    8    12     1
    8    13     1
    9    11     1
    9    12     1
    9    13     1
   10    13     1
   13    18     1
   13    19     1
   13    23     1
   14    16     1
   14    17     1
   15    20     1
   15    21     1
   15    22     1
   15    24     1
   15    25     1
   16    18     1
   16    19     1
   16    23     1
   17    26     1
   17    27     1
   18    20     1
   18    21     1
   18    22     1
   18    24     1
   18    25     1
   19    24     1
   19    25     1
   20    23     1
   21    23     1
   22    23     1
   23    28     1
   23    29     1
   23    35     1
   24    26     1
   24    27     1
   25    30     1
   25    31     1
   25    32     1
   25    36     1
   25    37     1
   26    28     1
   26    29     1
   26    35     1
   27    33     1
   27    34     1
   27    38     1
   27    39     1
   28    30     1
   28    31     1
   28    32     1
   28    36     1
   28    37     1
   29    36     1
   29    37     1
   30    33     1
   30    34     1
   30    35     1
   31    33     1
   31    34     1
   31    35     1
   32    35     1
   35    40     1
   35    41     1
   35    42     1
   36    38     1
   36    39     1
   37    43     1
   37    44     1
   38    40     1
   38    41     1
   38    42     1
   39    45     1
   39    48     1
   40    43     1
   40    44     1
   41    43     1
   41    44     1
   42    46     1
   42    47     1
   42    49     1
   42    50     1
   42    53     1
   42    56     1
   43    45     1
   43    48     1
   44    51     1
   44    52     1
   44    54     1
   44    55     1
   44    57     1
   44    58     1
   45    49     1
   45    51     1
   45    52     1
   45    56     1
   46    48     1
   46    50     1
   46    54     1
   46    55     1
   47    48     1
   47    50     1
   47    54     1
   47    55     1
   48    54     1
   48    55     1
   48    59     1
   48    60     1
   49    51     1
   49    52     1
   49    53     1
   49    57     1
   49    58     1
   50    57     1
   50    58     1
   51    54     1
   51    55     1
   51    56     1
   52    54     1
   52    55     1
   52    56     1
   53    56     1
   56    61     1
   56    62     1
   56    63     1
   57    59     1
   57    60     1
   58    64     1
   58    65     1
   59    61     1
   59    62     1
   59    63     1
   60    66     1
   60    67     1
   61    64     1
   61    65     1
   62    64     1
   62    65     1
   63    68     1
   63    69     1
   63    75     1
   64    66     1
   64    67     1
   65    70     1
   65    71     1
   65    72     1
   65    76     1
   65    77     1
   66    68     1
   66    69     1
   66    75     1
   67    73     1
   67    74     1
   67    78     1
   67    81     1
   68    70     1
   68    71     1
   68    72     1
   68    76     1
   68    77     1
   69    76     1
   69    77     1
   70    73     1
   70    74     1
   70    75     1
   71    73     1
   71    74     1
   71    75     1
   72    75     1
   75    79     1
   75    80     1
   75    82     1
   75    83     1
   75    86     1
   75    89     1
   76    78     1
   76    81     1
   77    84     1
   77    85     1
   77    87     1
   77    88     1
   77    90     1
   77    91     1
   78    82     1
   78    84     1
   78    85     1
   78    89     1
   79    81     1
   79    83     1
   79    87     1
   79    88     1
   80    81     1
   80    83     1
   80    87     1
   80    88     1
   81    87     1
   81    88     1
   81    92     1
   81    93     1
   82    84     1
   82    85     1
   82    86     1
   82    90     1
   82    91     1
   83    90     1
   83    91     1
   84    87     1
   84    88     1
   84    89     1
   85    87     1
   85    88     1
   85    89     1
   86    89     1
   89    94     1
   89    95     1
   89   101     1
   90    92     1
   90    93     1
   91    96     1
   91    97     1
   91    98     1
   91   102     1
   91   103     1
   92    94     1
   92    95     1
   92   101     1
   93    99     1
   93   100     1
   93   104     1
   93   105     1
   94    96     1
   94    97     1
   94    98     1
   94   102     1
   94   103     1
   95   102     1
   95   103     1
   96    99     1
   96   100     1
   96   101     1
   97    99     1
   97   100     1
   97   101     1
   98   101     1
  101   106     1
  101   107     1
  101   111     1
  102   104     1
  102   105     1
  103   108     1
  103   109     1
  103   110     1
  103   112     1
  103   113     1
  104   106     1
  104   107     1
  104   111     1
  105   114     1
  105   115     1
  106   108     1
  106   109     1
  106   110     1
  106   112     1
  106   113     1
  107   112     1
  107   113     1
  108   111     1
  109   111     1
  110   111     1
  111   116     1
  111   117     1
  111   118     1
  112   114     1
  112   115     1
  113   119     1
  113   120     1
  114   116     1
  114   117     1
  114   118     1
  116   119     1
  116   120     1
  117   119     1
  117   120     1

[ angles ] 
; ai	aj	ak	funct	th0	cth	S0	Kub
    2     1     3     5
    2     1     4     5
    2     1     5     5
    3     1     4     5
    3     1     5     5
    4     1     5     5
    1     5     6     5
    1     5     7     5
    1     5    13     5
    6     5     7     5
    6     5    13     5
    7     5    13     5
    5     7     8     5
    5     7     9     5
    5     7    10     5
    8     7     9     5
    8     7    10     5
    9     7    10     5
    7    10    11     5
    7    10    12     5
   11    10    12     5
    5    13    14     5
    5    13    15     5
   14    13    15     5
   13    15    16     5
   13    15    17     5
   16    15    17     5
   15    17    18     5
   15    17    19     5
   15    17    23     5
   18    17    19     5
   18    17    23     5
   19    17    23     5
   17    19    20     5
   17    19    21     5
   17    19    22     5
   20    19    21     5
   20    19    22     5
   21    19    22     5
   17    23    24     5
   17    23    25     5
   24    23    25     5
   23    25    26     5
   23    25    27     5
   26    25    27     5
   25    27    28     5
   25    27    29     5
   25    27    35     5
   28    27    29     5
   28    27    35     5
   29    27    35     5
   27    29    30     5
   27    29    31     5
   27    29    32     5
   30    29    31     5
   30    29    32     5
   31    29    32     5
   29    32    33     5
   29    32    34     5
   33    32    34     5
   27    35    36     5
   27    35    37     5
   36    35    37     5
   35    37    38     5
   35    37    39     5
   38    37    39     5
   37    39    40     5
   37    39    41     5
   37    39    42     5
   40    39    41     5
   40    39    42     5
   41    39    42     5
   39    42    43     5
   39    42    44     5
   43    42    44     5
   42    44    45     5
   42    44    48     5
   45    44    48     5
   44    45    46     5
   44    45    47     5
   44    45    53     5
   46    45    47     5
   46    45    53     5
   47    45    53     5
   44    48    49     5
   44    48    50     5
   44    48    56     5
   49    48    50     5
   49    48    56     5
   50    48    56     5
   48    50    51     5
   48    50    52     5
   48    50    53     5
   51    50    52     5
   51    50    53     5
   52    50    53     5
   45    53    50     5
   45    53    54     5
   45    53    55     5
   50    53    54     5
   50    53    55     5
   54    53    55     5
   48    56    57     5
   48    56    58     5
   57    56    58     5
   56    58    59     5
   56    58    60     5
   59    58    60     5
   58    60    61     5
   58    60    62     5
   58    60    63     5
   61    60    62     5
   61    60    63     5
   62    60    63     5
   60    63    64     5
   60    63    65     5
   64    63    65     5
   63    65    66     5
   63    65    67     5
   66    65    67     5
   65    67    68     5
   65    67    69     5
   65    67    75     5
   68    67    69     5
   68    67    75     5
   69    67    75     5
   67    69    70     5
   67    69    71     5
   67    69    72     5
   70    69    71     5
   70    69    72     5
   71    69    72     5
   69    72    73     5
   69    72    74     5
   73    72    74     5
   67    75    76     5
   67    75    77     5
   76    75    77     5
   75    77    78     5
   75    77    81     5
   78    77    81     5
   77    78    79     5
   77    78    80     5
   77    78    86     5
   79    78    80     5
   79    78    86     5
   80    78    86     5
   77    81    82     5
   77    81    83     5
   77    81    89     5
   82    81    83     5
   82    81    89     5
   83    81    89     5
   81    83    84     5
   81    83    85     5
   81    83    86     5
   84    83    85     5
   84    83    86     5
   85    83    86     5
   78    86    83     5
   78    86    87     5
   78    86    88     5
   83    86    87     5
   83    86    88     5
   87    86    88     5
   81    89    90     5
   81    89    91     5
   90    89    91     5
   89    91    92     5
   89    91    93     5
   92    91    93     5
   91    93    94     5
   91    93    95     5
   91    93   101     5
   94    93    95     5
   94    93   101     5
   95    93   101     5
   93    95    96     5
   93    95    97     5
   93    95    98     5
   96    95    97     5
   96    95    98     5
   97    95    98     5
   95    98    99     5
   95    98   100     5
   99    98   100     5
   93   101   102     5
   93   101   103     5
  102   101   103     5
  101   103   104     5
  101   103   105     5
  104   103   105     5
  103   105   106     5
  103   105   107     5
  103   105   111     5
  106   105   107     5
  106   105   111     5
  107   105   111     5
  105   107   108     5
  105   107   109     5
  105   107   110     5
  108   107   109     5
  108   107   110     5
  109   107   110     5
  105   111   112     5
  105   111   113     5
  112   111   113     5
  111   113   114     5
  111   113   115     5
  114   113   115     5
  113   115   116     5
  113   115   117     5
  113   115   118     5
  116   115   117     5
  116   115   118     5
  117   115   118     5
  115   118   119     5
  115   118   120     5
  119   118   120     5

[ dihedrals ]
; ai	aj	ak	al	funct	phi0	cp	mult
    2     1     5     6     9
    2     1     5     7     9
    2     1     5    13     9
    3     1     5     6     9
    3     1     5     7     9
    3     1     5    13     9
    4     1     5     6     9
    4     1     5     7     9
    4     1     5    13     9
    1     5     7     8     9
    1     5     7     9     9
    1     5     7    10     9
    6     5     7     8     9
    6     5     7     9     9
    6     5     7    10     9
    1     5    13    14     9
    1     5    13    15     9
    6     5    13    14     9
    6     5    13    15     9
    7     5    13    14     9
    7     5    13    15     9
    8     7     5    13     9
    9     7     5    13     9
   10     7     5    13     9
    5     7    10    11     9
    5     7    10    12     9
    8     7    10    11     9
    8     7    10    12     9
    9     7    10    11     9
    9     7    10    12     9
    5    13    15    16     9
    5    13    15    17     9
   14    13    15    16     9
   14    13    15    17     9
   13    15    17    18     9
   13    15    17    19     9
   13    15    17    23     9
   16    15    17    18     9
   16    15    17    19     9
   16    15    17    23     9
   15    17    19    20     9
   15    17    19    21     9
   15    17    19    22     9
   18    17    19    20     9
   18    17    19    21     9
   18    17    19    22     9
   15    17    23    24     9
   15    17    23    25     9
   18    17    23    24     9
   18    17    23    25     9
   19    17    23    24     9
   19    17    23    25     9
   20    19    17    23     9
   21    19    17    23     9
   22    19    17    23     9
   17    23    25    26     9
   17    23    25    27     9
   24    23    25    26     9
   24    23    25    27     9
   23    25    27    28     9
   23    25    27    29     9
   23    25    27    35     9
   26    25    27    28     9
   26    25    27    29     9
   26    25    27    35     9
   25    27    29    30     9
   25    27    29    31     9
   25    27    29    32     9
   28    27    29    30     9
   28    27    29    31     9
   28    27    29    32     9
   25    27    35    36     9
   25    27    35    37     9
   28    27    35    36     9
   28    27    35    37     9
   29    27    35    36     9
   29    27    35    37     9
   30    29    27    35     9
   31    29    27    35     9
   32    29    27    35     9
   27    29    32    33     9
   27    29    32    34     9
   30    29    32    33     9
   30    29    32    34     9
   31    29    32    33     9
   31    29    32    34     9
   27    35    37    38     9
   27    35    37    39     9
   36    35    37    38     9
   36    35    37    39     9
   35    37    39    40     9
   35    37    39    41     9
   35    37    39    42     9
   38    37    39    40     9
   38    37    39    41     9
   38    37    39    42     9
   37    39    42    43     9
   37    39    42    44     9
   40    39    42    43     9
   40    39    42    44     9
   41    39    42    43     9
   41    39    42    44     9
   39    42    44    45     9
   39    42    44    48     9
   43    42    44    45     9
   43    42    44    48     9
   42    44    45    46     9
   42    44    45    47     9
   42    44    45    53     9
   48    44    45    53     9
   42    44    48    49     9
   42    44    48    50     9
   42    44    48    56     9
   45    44    48    49     9
   45    44    48    50     9
   45    44    48    56     9
   46    45    44    48     9
   47    45    44    48     9
   44    45    53    50     9
   44    45    53    54     9
   44    45    53    55     9
   46    45    53    50     9
   46    45    53    54     9
   46    45    53    55     9
   47    45    53    50     9
   47    45    53    54     9
   47    45    53    55     9
   44    48    50    51     9
   44    48    50    52     9
   44    48    50    53     9
   49    48    50    51     9
   49    48    50    52     9
   49    48    50    53     9
   44    48    56    57     9
   44    48    56    58     9
   49    48    56    57     9
   49    48    56    58     9
   50    48    56    57     9
   50    48    56    58     9
   51    50    48    56     9
   52    50    48    56     9
   53    50    48    56     9
   48    50    53    54     9
   48    50    53    55     9
   51    50    53    54     9
   51    50    53    55     9
   52    50    53    54     9
   52    50    53    55     9
   45    53    50    48     9
   45    53    50    51     9
   45    53    50    52     9
   48    56    58    59     9
   48    56    58    60     9
   57    56    58    59     9
   57    56    58    60     9
   56    58    60    61     9
   56    58    60    62     9
   56    58    60    63     9
   59    58    60    61     9
   59    58    60    62     9
   59    58    60    63     9
   58    60    63    64     9
   58    60    63    65     9
   61    60    63    64     9
   61    60    63    65     9
   62    60    63    64     9
   62    60    63    65     9
   60    63    65    66     9
   60    63    65    67     9
   64    63    65    66     9
   64    63    65    67     9
   63    65    67    68     9
   63    65    67    69     9
   63    65    67    75     9
   66    65    67    68     9
   66    65    67    69     9
   66    65    67    75     9
   65    67    69    70     9
   65    67    69    71     9
   65    67    69    72     9
   68    67    69    70     9
   68    67    69    71     9
   68    67    69    72     9
   65    67    75    76     9
   65    67    75    77     9
   68    67    75    76     9
   68    67    75    77     9
   69    67    75    76     9
   69    67    75    77     9
   70    69    67    75     9
   71    69    67    75     9
   72    69    67    75     9
   67    69    72    73     9
   67    69    72    74     9
   70    69    72    73     9
   70    69    72    74     9
   71    69    72    73     9
   71    69    72    74     9
   67    75    77    78     9
   67    75    77    81     9
   76    75    77    78     9
   76    75    77    81     9
   75    77    78    79     9
   75    77    78    80     9
   75    77    78    86     9
   81    77    78    86     9
   75    77    81    82     9
   75    77    81    83     9
   75    77    81    89     9
   78    77    81    82     9
   78    77    81    83     9
   78    77    81    89     9
   79    78    77    81     9
   80    78    77    81     9
   77    78    86    83     9
   77    78    86    87     9
   77    78    86    88     9
   79    78    86    83     9
   79    78    86    87     9
   79    78    86    88     9
   80    78    86    83     9
   80    78    86    87     9
   80    78    86    88     9
   77    81    83    84     9
   77    81    83    85     9
   77    81    83    86     9
   82    81    83    84     9
   82    81    83    85     9
   82    81    83    86     9
   77    81    89    90     9
   77    81    89    91     9
   82    81    89    90     9
   82    81    89    91     9
   83    81    89    90     9
   83    81    89    91     9
   84    83    81    89     9
   85    83    81    89     9
   86    83    81    89     9
   81    83    86    87     9
   81    83    86    88     9
   84    83    86    87     9
   84    83    86    88     9
   85    83    86    87     9
   85    83    86    88     9
   78    86    83    81     9
   78    86    83    84     9
   78    86    83    85     9
   81    89    91    92     9
   81    89    91    93     9
   90    89    91    92     9
   90    89    91    93     9
   89    91    93    94     9
   89    91    93    95     9
   89    91    93   101     9
   92    91    93    94     9
   92    91    93    95     9
   92    91    93   101     9
   91    93    95    96     9
   91    93    95    97     9
   91    93    95    98     9
   94    93    95    96     9
   94    93    95    97     9
   94    93    95    98     9
   91    93   101   102     9
   91    93   101   103     9
   94    93   101   102     9
   94    93   101   103     9
   95    93   101   102     9
   95    93   101   103     9
   96    95    93   101     9
   97    95    93   101     9
   98    95    93   101     9
   93    95    98    99     9
   93    95    98   100     9
   96    95    98    99     9
   96    95    98   100     9
   97    95    98    99     9
   97    95    98   100     9
   93   101   103   104     9
   93   101   103   105     9
  102   101   103   104     9
  102   101   103   105     9
  101   103   105   106     9
  101   103   105   107     9
  101   103   105   111     9
  104   103   105   106     9
  104   103   105   107     9
  104   103   105   111     9
  103   105   107   108     9
  103   105   107   109     9
  103   105   107   110     9
  106   105   107   108     9
  106   105   107   109     9
  106   105   107   110     9
  103   105   111   112     9
  103   105   111   113     9
  106   105   111   112     9
  106   105   111   113     9
  107   105   111   112     9
  107   105   111   113     9
  108   107   105   111     9
  109   107   105   111     9
  110   107   105   111     9
  105   111   113   114     9
  105   111   113   115     9
  112   111   113   114     9
  112   111   113   115     9
  111   113   115   116     9
  111   113   115   117     9
  111   113   115   118     9
  114   113   115   116     9
  114   113   115   117     9
  114   113   115   118     9
  113   115   118   119     9
  113   115   118   120     9
  116   115   118   119     9
  116   115   118   120     9
  117   115   118   119     9
  117   115   118   120     9

[ dihedrals ]
; ai	aj	ak	al	funct	q0	cq
   10     7    12    11     2
   13     5    15    14     2
   15    13    17    16     2
   23    17    25    24     2
   25    23    27    26     2
   32    29    34    33     2
   35    27    37    36     2
   37    35    39    38     2
   42    39    44    43     2
   44    42    48    45     2
   56    48    58    57     2
   58    56    60    59     2
   63    60    65    64     2
   65    63    67    66     2
   72    69    74    73     2
   75    67    77    76     2
   77    75    81    78     2
   89    81    91    90     2
   91    89    93    92     2
   98    95   100    99     2
  101    93   103   102     2
  103   101   105   104     2
  111   105   113   112     2
  113   111   115   114     2
  118   115   120   119     2

[ cmap ] 
; ai	aj	ak	al	am	funct
   13    15    17    23    25     1
   23    25    27    35    37     1
   35    37    39    42    44     1
   42    44    48    56    58     1
   56    58    60    63    65     1
   63    65    67    75    77     1
   75    77    81    89    91     1
   89    91    93   101   103     1
  101   103   105   111   113     1

#ifdef POSRES
[ position_restraints ]
    1     1    POSRES_FC_BB    POSRES_FC_BB    POSRES_FC_BB   
    5     1    POSRES_FC_BB    POSRES_FC_BB    POSRES_FC_BB   
    7     1    POSRES_FC_SC    POSRES_FC_SC    POSRES_FC_SC   
   10     1    POSRES_FC_SC    POSRES_FC_SC    POSRES_FC_SC   
   11     1    POSRES_FC_SC    POSRES_FC_SC    POSRES_FC_SC   
   12     1    POSRES_FC_SC    POSRES_FC_SC    POSRES_FC_SC   
   13     1    POSRES_FC_BB    POSRES_FC_BB    POSRES_FC_BB   
   14     1    POSRES_FC_BB    POSRES_FC_BB    POSRES_FC_BB   
   15     1    POSRES_FC_BB    POSRES_FC_BB    POSRES_FC_BB   
   17     1    POSRES_FC_BB    POSRES_FC_BB    POSRES_FC_BB   
   19     1    POSRES_FC_SC    POSRES_FC_SC    POSRES_FC_SC   
   23     1    POSRES_FC_BB    POSRES_FC_BB    POSRES_FC_BB   
   24     1    POSRES_FC_BB    POSRES_FC_BB    POSRES_FC_BB   
   25     1    POSRES_FC_BB    POSRES_FC_BB    POSRES_FC_BB   
   27     1    POSRES_FC_BB    POSRES_FC_BB    POSRES_FC_BB   
   29     1    POSRES_FC_SC    POSRES_FC_SC    POSRES_FC_SC   
   32     1    POSRES_FC_SC    POSRES_FC_SC    POSRES_FC_SC   
   33     1    POSRES_FC_SC    POSRES_FC_SC    POSRES_FC_SC   
   34     1    POSRES_FC_SC    POSRES_FC_SC    POSRES_FC_SC   
   35     1    POSRES_FC_BB    POSRES_FC_BB    POSRES_FC_BB   
   36     1    POSRES_FC_BB    POSRES_FC_BB    POSRES_FC_BB   
   37     1    POSRES_FC_BB    POSRES_FC_BB    POSRES_FC_BB   
   39     1    POSRES_FC_BB    POSRES_FC_BB    POSRES_FC_BB   
   42     1    POSRES_FC_BB    POSRES_FC_BB    POSRES_FC_BB   
   43     1    POSRES_FC_BB    POSRES_FC_BB    POSRES_FC_BB   
   44     1    POSRES_FC_BB    POSRES_FC_BB    POSRES_FC_BB   
   45     1    POSRES_FC_SC    POSRES_FC_SC    POSRES_FC_SC   
   48     1    POSRES_FC_BB    POSRES_FC_BB    POSRES_FC_BB   
   50     1    POSRES_FC_SC    POSRES_FC_SC    POSRES_FC_SC   
   53     1    POSRES_FC_SC    POSRES_FC_SC    POSRES_FC_SC   
   56     1    POSRES_FC_BB    POSRES_FC_BB    POSRES_FC_BB   
   57     1    POSRES_FC_BB    POSRES_FC_BB    POSRES_FC_BB   
   58     1    POSRES_FC_BB    POSRES_FC_BB    POSRES_FC_BB   
   60     1    POSRES_FC_BB    POSRES_FC_BB    POSRES_FC_BB   
   63     1    POSRES_FC_BB    POSRES_FC_BB    POSRES_FC_BB   
   64     1    POSRES_FC_BB    POSRES_FC_BB    POSRES_FC_BB   
   65     1    POSRES_FC_BB    POSRES_FC_BB    POSRES_FC_BB   
   67     1    POSRES_FC_BB    POSRES_FC_BB    POSRES_FC_BB   
   69     1    POSRES_FC_SC    POSRES_FC_SC    POSRES_FC_SC   
   72     1    POSRES_FC_SC    POSRES_FC_SC    POSRES_FC_SC   
   73     1    POSRES_FC_SC    POSRES_FC_SC    POSRES_FC_SC   
   74     1    POSRES_FC_SC    POSRES_FC_SC    POSRES_FC_SC   
   75     1    POSRES_FC_BB    POSRES_FC_BB    POSRES_FC_BB   
   76     1    POSRES_FC_BB    POSRES_FC_BB    POSRES_FC_BB   
   77     1    POSRES_FC_BB    POSRES_FC_BB    POSRES_FC_BB   
   78     1    POSRES_FC_SC    POSRES_FC_SC    POSRES_FC_SC   
   81     1    POSRES_FC_BB    POSRES_FC_BB    POSRES_FC_BB   
   83     1    POSRES_FC_SC    POSRES_FC_SC    POSRES_FC_SC   
   86     1    POSRES_FC_SC    POSRES_FC_SC    POSRES_FC_SC   
   89     1    POSRES_FC_BB    POSRES_FC_BB    POSRES_FC_BB   
   90     1    POSRES_FC_BB    POSRES_FC_BB    POSRES_FC_BB   
   91     1    POSRES_FC_BB    POSRES_FC_BB    POSRES_FC_BB   
   93     1    POSRES_FC_BB    POSRES_FC_BB    POSRES_FC_BB   
   95     1    POSRES_FC_SC    POSRES_FC_SC    POSRES_FC_SC   
   98     1    POSRES_FC_SC    POSRES_FC_SC    POSRES_FC_SC   
   99     1    POSRES_FC_SC    POSRES_FC_SC    POSRES_FC_SC   
  100     1    POSRES_FC_SC    POSRES_FC_SC    POSRES_FC_SC   
  101     1    POSRES_FC_BB    POSRES_FC_BB    POSRES_FC_BB   
  102     1    POSRES_FC_BB    POSRES_FC_BB    POSRES_FC_BB   
  103     1    POSRES_FC_BB    POSRES_FC_BB    POSRES_FC_BB   
  105     1    POSRES_FC_BB    POSRES_FC_BB    POSRES_FC_BB   
  107     1    POSRES_FC_SC    POSRES_FC_SC    POSRES_FC_SC   
  111     1    POSRES_FC_BB    POSRES_FC_BB    POSRES_FC_BB   
  112     1    POSRES_FC_BB    POSRES_FC_BB    POSRES_FC_BB   
  113     1    POSRES_FC_BB    POSRES_FC_BB    POSRES_FC_BB   
  115     1    POSRES_FC_BB    POSRES_FC_BB    POSRES_FC_BB   
  118     1    POSRES_FC_BB    POSRES_FC_BB    POSRES_FC_BB   
  119     1    POSRES_FC_SC    POSRES_FC_SC    POSRES_FC_SC   
  120     1    POSRES_FC_SC    POSRES_FC_SC    POSRES_FC_SC   
#endif
