Generated by CHARMM-GUI FF-Converter
34465
    1SER      N    1   5.582   4.381   3.476
    1SER    HT1    2   5.644   4.299   3.489
    1SER    HT2    3   5.631   4.472   3.494
    1SER    HT3    4   5.554   4.381   3.375
    1SER     CA    5   5.456   4.373   3.549
    1SER     HA    6   5.478   4.387   3.652
    1SER     CB    7   5.362   4.486   3.506
    1SER    HB1    8   5.413   4.585   3.507
    1SER    HB2    9   5.277   4.494   3.578
    1SER     OG   10   5.310   4.462   3.376
    1SER    HG1   11   5.221   4.425   3.385
    1SER      C   12   5.388   4.239   3.527
    1SER      O   13   5.401   4.178   3.420
    2GLY      N   14   5.353   4.156   3.633
    2GLY     HN   15   5.352   4.197   3.725
    2GLY     CA   16   5.283   4.029   3.626
    2GLY    HA1   17   5.261   3.998   3.727
    2GLY    HA2   18   5.347   3.960   3.573
    2GLY      C   19   5.151   4.037   3.552
    2GLY      O   20   5.102   4.146   3.524
    3ASP      N   21   5.111   3.941   3.504
    3ASP     HN   22   5.160   3.855   3.505
    3ASP     CA   23   4.978   3.936   3.444
    3ASP     HA   24   4.981   3.997   3.355
    3ASP     CB   25   4.942   3.792   3.408
    3ASP    HB1   26   4.840   3.786   3.364
    3ASP    HB2   27   4.945   3.728   3.499
    3ASP     CG   28   5.037   3.730   3.306
    3ASP    OD1   29   5.098   3.805   3.227
    3ASP    OD2   30   5.050   3.606   3.306
    3ASP      C   31   4.873   3.995   3.538
    3ASP      O   32   4.889   3.990   3.660
    4SER      N   33   4.774   4.040   3.474
    4SER     HN   34   4.771   4.048   3.374
    4SER     CA   35   4.660   4.081   3.555
    4SER     HA   36   4.691   4.159   3.622
    4SER     CB   37   4.548   4.135   3.466
    4SER    HB1   38   4.461   4.167   3.527
    4SER    HB2   39   4.513   4.054   3.397
    4SER     OG   40   4.594   4.244   3.388
    4SER    HG1   41   4.631   4.310   3.449
    4SER      C   42   4.607   3.965   3.639
    4SER      O   43   4.620   3.848   3.600
    5GLY      N   44   4.574   3.991   3.772
    5GLY     HN   45   4.572   4.085   3.804
    5GLY     CA   46   4.510   3.891   3.856
    5GLY    HA1   47   4.485   3.938   3.949
    5GLY    HA2   48   4.581   3.810   3.865
    5GLY      C   49   4.381   3.837   3.795
    5GLY      O   50   4.335   3.886   3.692
    6PRO      N   51   4.327   3.738   3.854
    6PRO     CD   52   4.373   3.684   3.970
    6PRO    HD1   53   4.380   3.762   4.050
    6PRO    HD2   54   4.473   3.637   3.955
    6PRO     CA   55   4.194   3.692   3.812
    6PRO     HA   56   4.196   3.668   3.707
    6PRO     CB   57   4.170   3.570   3.901
    6PRO    HB1   58   4.192   3.478   3.842
    6PRO    HB2   59   4.066   3.561   3.940
    6PRO     CG   60   4.272   3.581   4.010
    6PRO    HG1   61   4.221   3.618   4.103
    6PRO    HG2   62   4.319   3.484   4.035
    6PRO      C   63   4.086   3.797   3.834
    6PRO      O   64   4.104   3.890   3.913
    7GLY      N   65   3.980   3.784   3.758
    7GLY     HN   66   3.969   3.705   3.699
    7GLY     CA   67   3.870   3.878   3.775
    7GLY    HA1   68   3.797   3.857   3.697
    7GLY    HA2   69   3.908   3.979   3.770
    7GLY      C   70   3.798   3.862   3.907
    7GLY      O   71   3.814   3.762   3.977
    8ASP      N   72   3.723   3.967   3.949
    8ASP     HN   73   3.726   4.053   3.899
    8ASP     CA   74   3.637   3.965   4.067
    8ASP     HA   75   3.704   3.946   4.150
    8ASP     CB   76   3.567   4.100   4.085
    8ASP    HB1   77   3.491   4.095   4.166
    8ASP    HB2   78   3.515   4.128   3.991
    8ASP     CG   79   3.662   4.211   4.122
    8ASP    OD1   80   3.778   4.183   4.161
    8ASP    OD2   81   3.622   4.329   4.113
    8ASP      C   82   3.533   3.853   4.057
    8ASP      O   83   3.492   3.816   3.947
    9PRO      N   84   3.486   3.801   4.166
    9PRO     CD   85   3.538   3.824   4.294
    9PRO    HD1   86   3.505   3.924   4.328
    9PRO    HD2   87   3.649   3.815   4.298
    9PRO     CA   88   3.373   3.708   4.159
    9PRO     HA   89   3.401   3.625   4.095
    9PRO     CB   90   3.351   3.668   4.305
    9PRO    HB1   91   3.335   3.558   4.315
    9PRO    HB2   92   3.263   3.721   4.348
    9PRO     CG   93   3.474   3.715   4.376
    9PRO    HG1   94   3.451   3.749   4.480
    9PRO    HG2   95   3.546   3.630   4.383
    9PRO      C   96   3.248   3.773   4.101
    9PRO      O   97   3.232   3.895   4.107
   10GLY      N   98   3.161   3.699   4.017
   10GLY     HN   99   3.179   3.602   4.006
   10GLY     CA  100   3.035   3.750   3.965
   10GLY    HA1  101   2.987   3.671   3.909
   10GLY    HA2  102   3.058   3.838   3.908
   10GLY      C  103   2.938   3.793   4.074
   10GLY      O  104   2.956   3.758   4.191
   11ASP      N  105   2.831   3.872   4.053
   11ASP     HN  106   2.823   3.920   3.967
   11ASP     CA  107   2.725   3.914   4.144
   11ASP     HA  108   2.772   3.963   4.228
   11ASP     CB  109   2.631   4.013   4.074
   11ASP    HB1  110   2.545   4.039   4.139
   11ASP    HB2  111   2.591   3.968   3.980
   11ASP     CG  112   2.698   4.144   4.037
   11ASP    OD1  113   2.803   4.177   4.097
   11ASP    OD2  114   2.645   4.215   3.949
   11ASP      C  115   2.646   3.795   4.196
   11ASP      O  116   2.623   3.698   4.123
   12SER      N  117   2.623   3.777   4.315
   12SER     HN  118   2.650   3.847   4.380
   12SER     CA  119   2.541   3.671   4.373
   12SER     HA  120   2.587   3.577   4.347
   12SER     CB  121   2.533   3.686   4.524
   12SER    HB1  122   2.636   3.687   4.567
   12SER    HB2  123   2.479   3.601   4.571
   12SER     OG  124   2.470   3.808   4.559
   12SER    HG1  125   2.398   3.821   4.496
   12SER      C  126   2.401   3.670   4.313
   12SER      O  127   2.348   3.775   4.276
   13GLY      N  128   2.339   3.564   4.234
   13GLY     HN  129   2.392   3.480   4.232
   13GLY     CA  130   2.208   3.548   4.173
   13GLY    HA1  131   2.194   3.444   4.150
   13GLY    HA2  132   2.205   3.613   4.087
   13GLY      C  133   2.095   3.592   4.264
   13GLY    OT1  134   2.124   3.635   4.379
   13GLY    OT2  135   1.977   3.582   4.220
   14SOD    SOD  136   4.451   0.213   2.437
   15SOD    SOD  137   1.085   4.654   2.854
   16SOD    SOD  138   6.728   5.775   5.221
   17SOD    SOD  139   3.776   1.478   4.274
   18SOD    SOD  140   1.028   4.529   0.324
   19SOD    SOD  141   2.981   3.908   3.640
   20SOD    SOD  142   4.146   3.902   7.512
   21SOD    SOD  143   3.642   3.787   0.428
   22SOD    SOD  144   6.252   5.996   5.860
   23SOD    SOD  145   3.438   6.257   7.149
   24SOD    SOD  146   6.324   3.384   0.557
   25SOD    SOD  147   2.249   5.659   1.553
   26SOD    SOD  148   8.206   4.682   5.229
   27SOD    SOD  149   4.204   5.628   2.655
   28SOD    SOD  150   4.412   3.132   6.732
   29SOD    SOD  151   0.245   4.407   2.339
   30SOD    SOD  152   2.348   1.913   4.340
   31SOD    SOD  153   0.870   2.688   3.898
   32SOD    SOD  154   4.942   1.472   1.787
   33SOD    SOD  155   5.156   6.506   6.235
   34SOD    SOD  156   1.951   4.613   4.155
   35SOD    SOD  157   0.789   5.870   4.546
   36SOD    SOD  158   4.607   3.545   2.432
   37SOD    SOD  159   1.826   2.881   2.676
   38SOD    SOD  160   2.740   2.382   6.488
   39SOD    SOD  161   3.826   2.515   3.785
   40SOD    SOD  162   1.878   3.710   4.371
   41SOD    SOD  163   7.059   2.932   6.476
   42SOD    SOD  164   6.030   4.840   6.169
   43SOD    SOD  165   5.150   7.129   6.026
   44SOD    SOD  166   3.269   3.512   3.504
   45SOD    SOD  167   1.474   2.737   4.894
   46SOD    SOD  168   0.819   4.420   6.165
   47SOD    SOD  169   0.952   7.004   3.417
   48SOD    SOD  170   7.125   6.024   4.999
   49CLA    CLA  171   3.845   3.309   7.799
   50CLA    CLA  172   4.926   3.285   3.493
   51CLA    CLA  173   5.371   7.436   5.513
   52CLA    CLA  174   0.952   5.343   2.617
   53CLA    CLA  175   1.940   4.487   2.669
   54CLA    CLA  176   3.474   2.273   6.729
   55CLA    CLA  177   6.231   5.753   6.385
   56CLA    CLA  178   7.023   4.260   5.333
   57CLA    CLA  179   4.149   2.834   7.197
   58CLA    CLA  180   4.536   1.064   2.356
   59CLA    CLA  181   6.426   2.968   3.287
   60CLA    CLA  182   5.178   4.728   3.731
   61CLA    CLA  183   3.281   0.339   3.928
   62CLA    CLA  184   4.861   2.382   7.534
   63CLA    CLA  185   0.286   4.658   5.123
   64CLA    CLA  186   2.544  -0.052   5.361
   65CLA    CLA  187   3.426   6.354   1.894
   66CLA    CLA  188   3.928   2.594   4.297
   67CLA    CLA  189   4.486   1.655   7.319
   68CLA    CLA  190   5.625   7.167   3.463
   69CLA    CLA  191   8.078   3.993   4.905
   70CLA    CLA  192   0.683   1.332   5.295
   71CLA    CLA  193   5.255   0.845   1.456
   72CLA    CLA  194   1.593   6.179   4.675
   73CLA    CLA  195   2.676   1.168   1.369
   74CLA    CLA  196   2.167   0.901   5.521
   75CLA    CLA  197   7.995   3.930   5.775
   76CLA    CLA  198   5.343   5.242   6.350
   77CLA    CLA  199   3.938   6.719   7.552
   78CLA    CLA  200   5.075   0.386   4.806
   79CLA    CLA  201   4.971   7.060   5.545
   80CLA    CLA  202   1.345   5.436   1.510
   81TIP3   OH2  203   3.422  -0.529   2.141
   81TIP3    H1  204   3.364  -0.479   2.083
   81TIP3    H2  205   3.448  -0.464   2.207
   82TIP3   OH2  206   3.080   0.184   2.045
   82TIP3    H1  207   3.068   0.115   1.979
   82TIP3    H2  208   3.056   0.264   1.993
   83TIP3   OH2  209   3.312  -0.210   1.898
   83TIP3    H1  210   3.241  -0.145   1.901
   83TIP3    H2  211   3.342  -0.202   1.806
   84TIP3   OH2  212   3.319   0.525   2.101
   84TIP3    H1  213   3.317   0.429   2.119
   84TIP3    H2  214   3.236   0.552   2.146
   85TIP3   OH2  215   2.409   0.323   2.255
   85TIP3    H1  216   2.418   0.414   2.288
   85TIP3    H2  217   2.440   0.270   2.330
   86TIP3   OH2  218   3.210  -0.326   2.389
   86TIP3    H1  219   3.123  -0.319   2.346
   86TIP3    H2  220   3.224  -0.423   2.388
   87TIP3   OH2  221   3.009   0.874   2.199
   87TIP3    H1  222   3.006   0.898   2.104
   87TIP3    H2  223   3.089   0.923   2.228
   88TIP3   OH2  224   2.717   0.302   2.155
   88TIP3    H1  225   2.621   0.294   2.153
   88TIP3    H2  226   2.732   0.362   2.231
   89TIP3   OH2  227   3.326   0.237   2.154
   89TIP3    H1  228   3.229   0.232   2.136
   89TIP3    H2  229   3.361   0.209   2.066
   90TIP3   OH2  230   2.843   0.569   2.038
   90TIP3    H1  231   2.769   0.511   2.015
   90TIP3    H2  232   2.834   0.637   1.968
   91TIP3   OH2  233   2.882   0.568   1.667
   91TIP3    H1  234   2.851   0.585   1.576
   91TIP3    H2  235   2.977   0.558   1.648
   92TIP3   OH2  236   2.132   0.531   2.658
   92TIP3    H1  237   2.224   0.507   2.676
   92TIP3    H2  238   2.114   0.474   2.582
   93TIP3   OH2  239   2.752   0.436   2.391
   93TIP3    H1  240   2.746   0.366   2.460
   93TIP3    H2  241   2.831   0.487   2.419
   94TIP3   OH2  242   2.887   0.102   2.240
   94TIP3    H1  243   2.957   0.150   2.192
   94TIP3    H2  244   2.810   0.160   2.220
   95TIP3   OH2  245   2.740  -0.004   2.600
   95TIP3    H1  246   2.808  -0.035   2.539
   95TIP3    H2  247   2.742  -0.074   2.668
   96TIP3   OH2  248   2.976  -0.316   2.644
   96TIP3    H1  249   2.979  -0.406   2.609
   96TIP3    H2  250   3.025  -0.266   2.578
   97TIP3   OH2  251   3.007  -0.083   2.395
   97TIP3    H1  252   2.948  -0.021   2.348
   97TIP3    H2  253   3.090  -0.068   2.345
   98TIP3   OH2  254   3.146   0.596   1.604
   98TIP3    H1  255   3.161   0.649   1.685
   98TIP3    H2  256   3.146   0.665   1.536
   99TIP3   OH2  257   3.145   0.651   1.879
   99TIP3    H1  258   3.103   0.563   1.867
   99TIP3    H2  259   3.223   0.626   1.931
  100TIP3   OH2  260   3.191   0.324   2.445
  100TIP3    H1  261   3.118   0.334   2.510
  100TIP3    H2  262   3.233   0.412   2.448
  101TIP3   OH2  263   3.248   0.088   1.711
  101TIP3    H1  264   3.285   0.046   1.634
  101TIP3    H2  265   3.272   0.183   1.696
  102TIP3   OH2  266   3.009   0.402   1.892
  102TIP3    H1  267   2.955   0.458   1.951
  102TIP3    H2  268   2.943   0.380   1.823
  103TIP3   OH2  269   3.237  -0.011   2.260
  103TIP3    H1  270   3.312  -0.074   2.252
  103TIP3    H2  271   3.269   0.066   2.211
  104TIP3   OH2  272   3.426  -0.201   2.286
  104TIP3    H1  273   3.349  -0.246   2.329
  104TIP3    H2  274   3.498  -0.261   2.315
  105TIP3   OH2  275   2.422   0.589   2.324
  105TIP3    H1  276   2.466   0.590   2.411
  105TIP3    H2  277   2.491   0.633   2.269
  106TIP3   OH2  278   2.610   0.722   2.174
  106TIP3    H1  279   2.686   0.678   2.131
  106TIP3    H2  280   2.658   0.782   2.236
  107TIP3   OH2  281   2.613   0.555   1.875
  107TIP3    H1  282   2.533   0.513   1.910
  107TIP3    H2  283   2.597   0.650   1.877
  108TIP3   OH2  284   2.814   0.763   1.842
  108TIP3    H1  285   2.790   0.837   1.781
  108TIP3    H2  286   2.828   0.690   1.778
  109TIP3   OH2  287   3.071   0.605   2.200
  109TIP3    H1  288   2.992   0.578   2.149
  109TIP3    H2  289   3.056   0.702   2.204
  110TIP3   OH2  290   4.259  -0.027   1.416
  110TIP3    H1  291   4.342  -0.036   1.464
  110TIP3    H2  292   4.198  -0.082   1.466
  111TIP3   OH2  293   3.630  -0.103   1.724
  111TIP3    H1  294   3.658  -0.165   1.795
  111TIP3    H2  295   3.715  -0.063   1.702
  112TIP3   OH2  296   3.601   0.278   1.418
  112TIP3    H1  297   3.598   0.182   1.434
  112TIP3    H2  298   3.697   0.295   1.421
  113TIP3   OH2  299   4.230   0.738   1.041
  113TIP3    H1  300   4.281   0.665   1.002
  113TIP3    H2  301   4.223   0.711   1.134
  114TIP3   OH2  302   4.127   0.227   1.389
  114TIP3    H1  303   4.161   0.139   1.362
  114TIP3    H2  304   4.213   0.269   1.411
  115TIP3   OH2  305   3.994   0.129   1.620
  115TIP3    H1  306   3.928   0.191   1.661
  115TIP3    H2  307   4.031   0.186   1.550
  116TIP3   OH2  308   3.818   0.316   1.719
  116TIP3    H1  309   3.798   0.405   1.683
  116TIP3    H2  310   3.738   0.304   1.775
  117TIP3   OH2  311   4.655   0.534   1.211
  117TIP3    H1  312   4.563   0.515   1.237
  117TIP3    H2  313   4.644   0.615   1.159
  118TIP3   OH2  314   4.366   0.560   0.876
  118TIP3    H1  315   4.418   0.496   0.825
  118TIP3    H2  316   4.410   0.641   0.842
  119TIP3   OH2  317   4.863   0.443   1.552
  119TIP3    H1  318   4.861   0.374   1.482
  119TIP3    H2  319   4.862   0.525   1.499
  120TIP3   OH2  320   4.738  -0.050   1.706
  120TIP3    H1  321   4.759   0.039   1.741
  120TIP3    H2  322   4.651  -0.034   1.665
  121TIP3   OH2  323   3.869   0.322   1.343
  121TIP3    H1  324   3.851   0.303   1.249
  121TIP3    H2  325   3.961   0.290   1.354
  122TIP3   OH2  326   3.885  -0.110   1.541
  122TIP3    H1  327   3.924  -0.128   1.455
  122TIP3    H2  328   3.928  -0.027   1.568
  123TIP3   OH2  329   4.399   0.516   1.309
  123TIP3    H1  330   4.396   0.600   1.359
  123TIP3    H2  331   4.390   0.449   1.378
  124TIP3   OH2  332   4.024   0.432   1.872
  124TIP3    H1  333   3.963   0.497   1.912
  124TIP3    H2  334   3.961   0.381   1.817
  125TIP3   OH2  335   3.786   0.000   1.970
  125TIP3    H1  336   3.784   0.086   2.017
  125TIP3    H2  337   3.691  -0.023   1.972
  126TIP3   OH2  338   4.070   0.482   0.858
  126TIP3    H1  339   4.158   0.513   0.886
  126TIP3    H2  340   4.027   0.563   0.827
  127TIP3   OH2  341   3.820   0.601   1.951
  127TIP3    H1  342   3.787   0.604   1.859
  127TIP3    H2  343   3.738   0.581   2.002
  128TIP3   OH2  344   3.413   0.141   1.922
  128TIP3    H1  345   3.357   0.116   1.846
  128TIP3    H2  346   3.458   0.057   1.944
  129TIP3   OH2  347   3.333   0.338   1.652
  129TIP3    H1  348   3.356   0.321   1.560
  129TIP3    H2  349   3.268   0.409   1.642
  130TIP3   OH2  350   4.220   0.564   1.723
  130TIP3    H1  351   4.219   0.659   1.751
  130TIP3    H2  352   4.149   0.528   1.780
  131TIP3   OH2  353   3.977   0.699   0.678
  131TIP3    H1  354   3.924   0.692   0.598
  131TIP3    H2  355   3.955   0.790   0.709
  132TIP3   OH2  356   3.424   0.581   1.033
  132TIP3    H1  357   3.465   0.563   1.120
  132TIP3    H2  358   3.369   0.502   1.025
  133TIP3   OH2  359   4.227   0.650   0.583
  133TIP3    H1  360   4.138   0.657   0.622
  133TIP3    H2  361   4.274   0.598   0.649
  134TIP3   OH2  362   5.003  -0.090   1.888
  134TIP3    H1  363   4.935  -0.045   1.835
  134TIP3    H2  364   5.000  -0.180   1.851
  135TIP3   OH2  365   3.609   0.329   1.892
  135TIP3    H1  366   3.659   0.306   1.973
  135TIP3    H2  367   3.533   0.267   1.897
  136TIP3   OH2  368   4.760  -0.294   1.830
  136TIP3    H1  369   4.776  -0.278   1.926
  136TIP3    H2  370   4.734  -0.205   1.798
  137TIP3   OH2  371   3.956  -0.333   1.699
  137TIP3    H1  372   3.882  -0.338   1.762
  137TIP3    H2  373   3.917  -0.273   1.632
  138TIP3   OH2  374   4.484  -0.078   2.027
  138TIP3    H1  375   4.456  -0.144   2.095
  138TIP3    H2  376   4.580  -0.070   2.049
  139TIP3   OH2  377   3.740  -0.300   1.882
  139TIP3    H1  378   3.777  -0.261   1.961
  139TIP3    H2  379   3.747  -0.396   1.903
  140TIP3   OH2  380   4.455  -0.085   1.624
  140TIP3    H1  381   4.426  -0.179   1.627
  140TIP3    H2  382   4.451  -0.071   1.720
  141TIP3   OH2  383   4.800   1.142   1.675
  141TIP3    H1  384   4.793   1.153   1.578
  141TIP3    H2  385   4.889   1.176   1.690
  142TIP3   OH2  386   3.760   0.241   2.108
  142TIP3    H1  387   3.837   0.282   2.152
  142TIP3    H2  388   3.695   0.242   2.182
  143TIP3   OH2  389   4.228  -0.367   1.647
  143TIP3    H1  390   4.130  -0.357   1.650
  143TIP3    H2  391   4.258  -0.313   1.721
  144TIP3   OH2  392   4.861   0.255   1.356
  144TIP3    H1  393   4.847   0.272   1.261
  144TIP3    H2  394   4.819   0.167   1.364
  145TIP3   OH2  395   4.332   0.299   1.744
  145TIP3    H1  396   4.352   0.285   1.837
  145TIP3    H2  397   4.301   0.392   1.742
  146TIP3   OH2  398   3.617  -0.008   1.415
  146TIP3    H1  399   3.694  -0.037   1.364
  146TIP3    H2  400   3.623  -0.066   1.492
  147TIP3   OH2  401   3.521  -0.075   2.042
  147TIP3    H1  402   3.536  -0.095   2.136
  147TIP3    H2  403   3.460  -0.147   2.016
  148TIP3   OH2  404   4.235   0.045   2.050
  148TIP3    H1  405   4.171  -0.018   2.012
  148TIP3    H2  406   4.320   0.003   2.028
  149TIP3   OH2  407   4.495   0.549   1.640
  149TIP3    H1  408   4.400   0.561   1.655
  149TIP3    H2  409   4.531   0.605   1.713
  150TIP3   OH2  410   5.123   0.467   1.663
  150TIP3    H1  411   5.032   0.500   1.678
  150TIP3    H2  412   5.139   0.504   1.574
  151TIP3   OH2  413   3.756   0.327   1.074
  151TIP3    H1  414   3.751   0.412   1.028
  151TIP3    H2  415   3.668   0.291   1.052
  152TIP3   OH2  416   3.930   0.121   1.010
  152TIP3    H1  417   3.885   0.202   1.040
  152TIP3    H2  418   3.856   0.058   1.005
  153TIP3   OH2  419   4.004   0.654   1.513
  153TIP3    H1  420   4.047   0.728   1.465
  153TIP3    H2  421   4.079   0.619   1.563
  154TIP3   OH2  422   3.663   0.555   0.898
  154TIP3    H1  423   3.580   0.577   0.945
  154TIP3    H2  424   3.704   0.644   0.894
  155TIP3   OH2  425   4.386   0.287   1.475
  155TIP3    H1  426   4.373   0.287   1.573
  155TIP3    H2  427   4.476   0.254   1.468
  156TIP3   OH2  428   4.636   0.819   1.523
  156TIP3    H1  429   4.556   0.764   1.512
  156TIP3    H2  430   4.623   0.885   1.450
  157TIP3   OH2  431   3.479   0.564   1.694
  157TIP3    H1  432   3.454   0.470   1.693
  157TIP3    H2  433   3.520   0.571   1.781
  158TIP3   OH2  434   4.400  -0.249   1.827
  158TIP3    H1  435   4.430  -0.206   1.909
  158TIP3    H2  436   4.418  -0.344   1.845
  159TIP3   OH2  437   4.658   0.795   1.114
  159TIP3    H1  438   4.614   0.844   1.041
  159TIP3    H2  439   4.750   0.824   1.098
  160TIP3   OH2  440   3.432   0.824   2.100
  160TIP3    H1  441   3.518   0.826   2.146
  160TIP3    H2  442   3.413   0.729   2.097
  161TIP3   OH2  443   3.906   0.785   2.146
  161TIP3    H1  444   4.003   0.789   2.148
  161TIP3    H2  445   3.890   0.724   2.071
  162TIP3   OH2  446   4.559   0.687   1.865
  162TIP3    H1  447   4.545   0.627   1.941
  162TIP3    H2  448   4.630   0.746   1.897
  163TIP3   OH2  449   3.562   0.226   2.300
  163TIP3    H1  450   3.575   0.130   2.302
  163TIP3    H2  451   3.473   0.234   2.259
  164TIP3   OH2  452   4.171   0.314   2.075
  164TIP3    H1  453   4.127   0.339   1.991
  164TIP3    H2  454   4.194   0.219   2.059
  165TIP3   OH2  455   4.654   0.321   1.674
  165TIP3    H1  456   4.733   0.365   1.635
  165TIP3    H2  457   4.589   0.393   1.661
  166TIP3   OH2  458   3.691  -0.042   2.284
  166TIP3    H1  459   3.775  -0.082   2.255
  166TIP3    H2  460   3.716  -0.005   2.370
  167TIP3   OH2  461   4.020  -0.135   1.953
  167TIP3    H1  462   3.935  -0.086   1.949
  167TIP3    H2  463   4.058  -0.116   1.864
  168TIP3   OH2  464   4.544   0.237   2.098
  168TIP3    H1  465   4.609   0.263   2.032
  168TIP3    H2  466   4.553   0.141   2.095
  169TIP3   OH2  467   4.143  -0.351   2.049
  169TIP3    H1  468   4.156  -0.400   1.967
  169TIP3    H2  469   4.091  -0.274   2.015
  170TIP3   OH2  470   4.171  -0.037   1.742
  170TIP3    H1  471   4.253  -0.012   1.699
  170TIP3    H2  472   4.110   0.032   1.709
  171TIP3   OH2  473   4.737  -0.059   2.111
  171TIP3    H1  474   4.777  -0.147   2.126
  171TIP3    H2  475   4.814  -0.004   2.094
  172TIP3   OH2  476   4.784   0.180   1.864
  172TIP3    H1  477   4.728   0.233   1.802
  172TIP3    H2  478   4.873   0.201   1.827
  173TIP3   OH2  479   3.988  -0.233   2.287
  173TIP3    H1  480   4.003  -0.323   2.323
  173TIP3    H2  481   4.032  -0.242   2.202
  174TIP3   OH2  482   4.376  -0.273   2.182
  174TIP3    H1  483   4.407  -0.359   2.215
  174TIP3    H2  484   4.292  -0.300   2.140
  175TIP3   OH2  485   3.245   0.511   1.284
  175TIP3    H1  486   3.224   0.442   1.349
  175TIP3    H2  487   3.287   0.579   1.342
  176TIP3   OH2  488   4.894   0.924   1.083
  176TIP3    H1  489   4.933   0.935   1.171
  176TIP3    H2  490   4.971   0.935   1.025
  177TIP3   OH2  491   4.953   0.904   1.358
  177TIP3    H1  492   4.913   0.815   1.364
  177TIP3    H2  493   5.040   0.886   1.400
  178TIP3   OH2  494   4.988   0.577   1.932
  178TIP3    H1  495   4.914   0.592   1.995
  178TIP3    H2  496   5.026   0.667   1.927
  179TIP3   OH2  497   4.823   0.659   1.385
  179TIP3    H1  498   4.751   0.702   1.435
  179TIP3    H2  499   4.773   0.610   1.316
  180TIP3   OH2  500   5.025   0.233   1.763
  180TIP3    H1  501   5.104   0.174   1.768
  180TIP3    H2  502   5.057   0.310   1.711
  181TIP3   OH2  503   5.221   0.057   1.809
  181TIP3    H1  504   5.169  -0.019   1.842
  181TIP3    H2  505   5.313   0.027   1.810
  182TIP3   OH2  506   3.592  -0.409   2.343
  182TIP3    H1  507   3.679  -0.400   2.303
  182TIP3    H2  508   3.591  -0.506   2.360
  183TIP3   OH2  509   4.493   0.755   0.739
  183TIP3    H1  510   4.544   0.730   0.661
  183TIP3    H2  511   4.550   0.822   0.780
  184TIP3   OH2  512   3.598   0.555   2.119
  184TIP3    H1  513   3.506   0.528   2.099
  184TIP3    H2  514   3.602   0.544   2.214
  185TIP3   OH2  515   3.785   0.585   1.668
  185TIP3    H1  516   3.722   0.650   1.630
  185TIP3    H2  517   3.865   0.611   1.617
  186TIP3   OH2  518   4.214   0.834   1.790
  186TIP3    H1  519   4.253   0.831   1.881
  186TIP3    H2  520   4.283   0.886   1.743
  187TIP3   OH2  521   4.401   0.986   1.658
  187TIP3    H1  522   4.475   0.935   1.622
  187TIP3    H2  523   4.449   1.044   1.722
  188TIP3   OH2  524   3.459   0.873   1.682
  188TIP3    H1  525   3.365   0.891   1.660
  188TIP3    H2  526   3.457   0.882   1.778
  189TIP3   OH2  527   3.690   0.822   1.545
  189TIP3    H1  528   3.606   0.840   1.593
  189TIP3    H2  529   3.669   0.857   1.456
  190TIP3   OH2  530   4.115   0.854   1.342
  190TIP3    H1  531   4.043   0.873   1.280
  190TIP3    H2  532   4.126   0.941   1.386
  191TIP3   OH2  533   4.383   0.786   1.392
  191TIP3    H1  534   4.290   0.809   1.375
  191TIP3    H2  535   4.429   0.863   1.354
  192TIP3   OH2  536   4.587   0.983   1.308
  192TIP3    H1  537   4.573   1.067   1.260
  192TIP3    H2  538   4.617   0.923   1.236
  193TIP3   OH2  539   3.393   0.671   1.450
  193TIP3    H1  540   3.419   0.658   1.544
  193TIP3    H2  541   3.465   0.621   1.405
  194TIP3   OH2  542   3.566   0.530   1.295
  194TIP3    H1  543   3.581   0.445   1.341
  194TIP3    H2  544   3.657   0.566   1.288
  195TIP3   OH2  545   3.831   0.610   1.292
  195TIP3    H1  546   3.861   0.518   1.282
  195TIP3    H2  547   3.875   0.632   1.377
  196TIP3   OH2  548   4.855   0.869   1.698
  196TIP3    H1  549   4.791   0.829   1.637
  196TIP3    H2  550   4.839   0.964   1.684
  197TIP3   OH2  551   5.786   0.680   1.366
  197TIP3    H1  552   5.718   0.739   1.404
  197TIP3    H2  553   5.737   0.646   1.287
  198TIP3   OH2  554   5.588   0.868   1.441
  198TIP3    H1  555   5.580   0.873   1.343
  198TIP3    H2  556   5.495   0.852   1.465
  199TIP3   OH2  557   5.118   0.435   1.381
  199TIP3    H1  558   5.027   0.402   1.375
  199TIP3    H2  559   5.165   0.362   1.422
  200TIP3   OH2  560   5.028   0.658   0.994
  200TIP3    H1  561   5.071   0.572   1.013
  200TIP3    H2  562   5.012   0.692   1.083
  201TIP3   OH2  563   2.987   6.859   7.130
  201TIP3    H1  564   2.975   6.947   7.170
  201TIP3    H2  565   2.897   6.828   7.119
  202TIP3   OH2  566   5.390   0.542   1.354
  202TIP3    H1  567   5.457   0.537   1.424
  202TIP3    H2  568   5.330   0.609   1.392
  203TIP3   OH2  569   6.603   1.383   1.224
  203TIP3    H1  570   6.576   1.403   1.132
  203TIP3    H2  571   6.683   1.437   1.236
  204TIP3   OH2  572   5.542   0.531   1.593
  204TIP3    H1  573   5.624   0.536   1.645
  204TIP3    H2  574   5.476   0.526   1.663
  205TIP3   OH2  575   5.255   0.779   1.162
  205TIP3    H1  576   5.306   0.700   1.185
  205TIP3    H2  577   5.245   0.815   1.253
  206TIP3   OH2  578   5.225   1.111   1.603
  206TIP3    H1  579   5.310   1.105   1.652
  206TIP3    H2  580   5.222   1.020   1.566
  207TIP3   OH2  581   5.703   1.047   1.621
  207TIP3    H1  582   5.795   1.019   1.636
  207TIP3    H2  583   5.672   0.980   1.557
  208TIP3   OH2  584   6.278   0.900   1.433
  208TIP3    H1  585   6.193   0.858   1.417
  208TIP3    H2  586   6.290   0.959   1.365
  209TIP3   OH2  587   5.355   0.496   1.800
  209TIP3    H1  588   5.377   0.401   1.788
  209TIP3    H2  589   5.266   0.498   1.758
  210TIP3   OH2  590   5.452   0.242   1.770
  210TIP3    H1  591   5.538   0.203   1.742
  210TIP3    H2  592   5.477   0.270   1.860
  211TIP3   OH2  593   5.591   0.858   1.158
  211TIP3    H1  594   5.537   0.932   1.125
  211TIP3    H2  595   5.623   0.821   1.075
  212TIP3   OH2  596   6.002   1.084   1.285
  212TIP3    H1  597   6.026   1.102   1.377
  212TIP3    H2  598   6.059   1.147   1.238
  213TIP3   OH2  599   6.190   1.237   1.159
  213TIP3    H1  600   6.269   1.197   1.121
  213TIP3    H2  601   6.232   1.298   1.224
  214TIP3   OH2  602   5.254   1.124   1.177
  214TIP3    H1  603   5.162   1.156   1.164
  214TIP3    H2  604   5.251   1.093   1.268
  215TIP3   OH2  605   5.489   1.088   1.036
  215TIP3    H1  606   5.403   1.105   1.081
  215TIP3    H2  607   5.467   1.110   0.943
  216TIP3   OH2  608   5.147   0.960   0.961
  216TIP3    H1  609   5.187   0.949   1.049
  216TIP3    H2  610   5.187   0.883   0.916
  217TIP3   OH2  611   1.162   2.077   2.247
  217TIP3    H1  612   1.159   1.982   2.271
  217TIP3    H2  613   1.086   2.111   2.299
  218TIP3   OH2  614   0.857   2.437   2.352
  218TIP3    H1  615   0.851   2.467   2.260
  218TIP3    H2  616   0.930   2.491   2.385
  219TIP3   OH2  617   1.151   1.794   2.289
  219TIP3    H1  618   1.055   1.796   2.313
  219TIP3    H2  619   1.147   1.771   2.196
  220TIP3   OH2  620   0.709   2.155   2.242
  220TIP3    H1  621   0.691   2.063   2.224
  220TIP3    H2  622   0.763   2.182   2.166
  221TIP3   OH2  623   0.614   1.981   2.529
  221TIP3    H1  624   0.600   1.926   2.607
  221TIP3    H2  625   0.677   2.048   2.560
  222TIP3   OH2  626   0.951   2.210   2.049
  222TIP3    H1  627   0.937   2.140   1.982
  222TIP3    H2  628   1.041   2.189   2.080
  223TIP3   OH2  629   1.030   1.888   2.591
  223TIP3    H1  630   0.960   1.893   2.659
  223TIP3    H2  631   1.074   1.975   2.600
  224TIP3   OH2  632   1.069   1.556   2.428
  224TIP3    H1  633   1.083   1.469   2.387
  224TIP3    H2  634   1.124   1.614   2.375
  225TIP3   OH2  635   1.275   1.391   2.565
  225TIP3    H1  636   1.192   1.357   2.526
  225TIP3    H2  637   1.342   1.338   2.518
  226TIP3   OH2  638   0.461   2.291   2.282
  226TIP3    H1  639   0.545   2.247   2.301
  226TIP3    H2  640   0.458   2.353   2.357
  227TIP3   OH2  641   0.944   2.178   2.376
  227TIP3    H1  642   0.857   2.149   2.342
  227TIP3    H2  643   0.928   2.274   2.374
  228TIP3   OH2  644   2.156   1.499   1.508
  228TIP3    H1  645   2.221   1.520   1.577
  228TIP3    H2  646   2.108   1.430   1.555
  229TIP3   OH2  647   2.419   1.835   1.187
  229TIP3    H1  648   2.421   1.771   1.260
  229TIP3    H2  649   2.448   1.916   1.233
  230TIP3   OH2  650   2.071   2.304   1.198
  230TIP3    H1  651   2.119   2.231   1.152
  230TIP3    H2  652   2.053   2.263   1.283
  231TIP3   OH2  653   1.982   1.761   1.531
  231TIP3    H1  654   2.036   1.689   1.493
  231TIP3    H2  655   2.055   1.813   1.569
  232TIP3   OH2  656   2.994   1.081   1.547
  232TIP3    H1  657   3.026   1.168   1.577
  232TIP3    H2  658   2.957   1.104   1.460
  233TIP3   OH2  659   2.386   1.257   1.580
  233TIP3    H1  660   2.453   1.199   1.621
  233TIP3    H2  661   2.371   1.205   1.501
  234TIP3   OH2  662   3.075   1.289   1.723
  234TIP3    H1  663   2.995   1.336   1.692
  234TIP3    H2  664   3.078   1.319   1.814
  235TIP3   OH2  665   1.848   1.682   1.785
  235TIP3    H1  666   1.770   1.728   1.822
  235TIP3    H2  667   1.870   1.735   1.708
  236TIP3   OH2  668   1.658   1.877   1.870
  236TIP3    H1  669   1.629   1.965   1.838
  236TIP3    H2  670   1.582   1.853   1.926
  237TIP3   OH2  671   2.490   2.081   1.341
  237TIP3    H1  672   2.402   2.072   1.384
  237TIP3    H2  673   2.482   2.169   1.299
  238TIP3   OH2  674   2.774   0.989   1.693
  238TIP3    H1  675   2.690   1.017   1.651
  238TIP3    H2  676   2.839   1.022   1.628
  239TIP3   OH2  677   2.221   2.123   1.054
  239TIP3    H1  678   2.266   2.042   1.024
  239TIP3    H2  679   2.270   2.190   1.001
  240TIP3   OH2  680   2.341   1.903   0.933
  240TIP3    H1  681   2.306   1.820   0.903
  240TIP3    H2  682   2.378   1.878   1.021
  241TIP3   OH2  683   2.718   1.995   1.692
  241TIP3    H1  684   2.708   1.916   1.633
  241TIP3    H2  685   2.702   2.068   1.629
  242TIP3   OH2  686   2.915   1.638   1.535
  242TIP3    H1  687   2.829   1.684   1.542
  242TIP3    H2  688   2.940   1.657   1.443
  243TIP3   OH2  689   2.582   1.507   1.834
  243TIP3    H1  690   2.584   1.590   1.885
  243TIP3    H2  691   2.498   1.516   1.786
  244TIP3   OH2  692   1.709   1.860   1.471
  244TIP3    H1  693   1.721   1.845   1.376
  244TIP3    H2  694   1.800   1.846   1.504
  245TIP3   OH2  695   2.253   2.075   1.470
  245TIP3    H1  696   2.239   2.157   1.522
  245TIP3    H2  697   2.235   2.004   1.534
  246TIP3   OH2  698   1.865   1.996   2.013
  246TIP3    H1  699   1.801   2.056   2.058
  246TIP3    H2  700   1.803   1.940   1.962
  247TIP3   OH2  701   1.562   1.613   2.088
  247TIP3    H1  702   1.601   1.665   2.159
  247TIP3    H2  703   1.521   1.539   2.134
  248TIP3   OH2  704   1.963   1.990   1.053
  248TIP3    H1  705   2.042   2.046   1.054
  248TIP3    H2  706   1.911   2.031   0.982
  249TIP3   OH2  707   1.656   2.166   2.102
  249TIP3    H1  708   1.622   2.166   2.010
  249TIP3    H2  709   1.576   2.144   2.154
  250TIP3   OH2  710   2.954   2.339   1.736
  250TIP3    H1  711   2.955   2.242   1.750
  250TIP3    H2  712   2.871   2.363   1.783
  251TIP3   OH2  713   2.058   2.126   1.869
  251TIP3    H1  714   2.059   2.218   1.904
  251TIP3    H2  715   1.988   2.086   1.924
  252TIP3   OH2  716   2.019   2.196   0.842
  252TIP3    H1  717   2.000   2.243   0.760
  252TIP3    H2  718   2.113   2.212   0.854
  253TIP3   OH2  719   2.843   1.466   2.014
  253TIP3    H1  720   2.780   1.480   1.942
  253TIP3    H2  721   2.863   1.371   2.002
  254TIP3   OH2  722   1.439   1.883   2.047
  254TIP3    H1  723   1.502   1.875   2.122
  254TIP3    H2  724   1.402   1.794   2.047
  255TIP3   OH2  725   2.396   0.829   2.036
  255TIP3    H1  726   2.475   0.799   2.086
  255TIP3    H2  727   2.324   0.797   2.092
  256TIP3   OH2  728   2.609   1.242   1.930
  256TIP3    H1  729   2.562   1.243   2.017
  256TIP3    H2  730   2.594   1.333   1.897
  257TIP3   OH2  731   2.326   1.470   2.174
  257TIP3    H1  732   2.304   1.395   2.233
  257TIP3    H2  733   2.421   1.479   2.190
  258TIP3   OH2  734   2.307   1.466   1.734
  258TIP3    H1  735   2.338   1.389   1.681
  258TIP3    H2  736   2.285   1.420   1.818
  259TIP3   OH2  737   2.478   0.997   1.633
  259TIP3    H1  738   2.430   1.011   1.717
  259TIP3    H2  739   2.420   0.938   1.585
  260TIP3   OH2  740   2.646   2.690   1.836
  260TIP3    H1  741   2.644   2.713   1.741
  260TIP3    H2  742   2.726   2.737   1.865
  261TIP3   OH2  743   1.602   1.823   2.269
  261TIP3    H1  744   1.684   1.843   2.319
  261TIP3    H2  745   1.538   1.810   2.341
  262TIP3   OH2  746   2.030   1.210   1.805
  262TIP3    H1  747   1.954   1.261   1.840
  262TIP3    H2  748   2.106   1.244   1.855
  263TIP3   OH2  749   2.681   1.782   1.526
  263TIP3    H1  750   2.707   1.830   1.444
  263TIP3    H2  751   2.594   1.744   1.500
  264TIP3   OH2  752   2.194   1.870   1.888
  264TIP3    H1  753   2.194   1.823   1.973
  264TIP3    H2  754   2.142   1.950   1.907
  265TIP3   OH2  755   1.345   1.500   2.240
  265TIP3    H1  756   1.409   1.502   2.315
  265TIP3    H2  757   1.324   1.406   2.235
  266TIP3   OH2  758   2.079   1.595   2.198
  266TIP3    H1  759   2.035   1.568   2.115
  266TIP3    H2  760   2.168   1.559   2.181
  267TIP3   OH2  761   2.340   2.125   1.787
  267TIP3    H1  762   2.245   2.114   1.803
  267TIP3    H2  763   2.367   2.174   1.867
  268TIP3   OH2  764   2.969   2.051   1.777
  268TIP3    H1  765   2.871   2.043   1.771
  268TIP3    H2  766   2.995   2.018   1.688
  269TIP3   OH2  767   2.488   2.010   0.628
  269TIP3    H1  768   2.450   1.964   0.704
  269TIP3    H2  769   2.514   1.939   0.569
  270TIP3   OH2  770   2.440   1.663   1.447
  270TIP3    H1  771   2.354   1.621   1.461
  270TIP3    H2  772   2.493   1.587   1.413
  271TIP3   OH2  773   1.844   2.207   1.670
  271TIP3    H1  774   1.882   2.279   1.616
  271TIP3    H2  775   1.922   2.175   1.718
  272TIP3   OH2  776   2.230   1.836   1.623
  272TIP3    H1  777   2.223   1.841   1.722
  272TIP3    H2  778   2.321   1.803   1.613
  273TIP3   OH2  779   2.479   2.378   1.676
  273TIP3    H1  780   2.400   2.320   1.670
  273TIP3    H2  781   2.463   2.441   1.603
  274TIP3   OH2  782   2.527   2.217   0.339
  274TIP3    H1  783   2.585   2.266   0.279
  274TIP3    H2  784   2.464   2.287   0.364
  275TIP3   OH2  785   1.283   2.078   1.841
  275TIP3    H1  786   1.315   1.991   1.868
  275TIP3    H2  787   1.328   2.135   1.904
  276TIP3   OH2  788   2.396   1.062   1.887
  276TIP3    H1  789   2.484   1.103   1.899
  276TIP3    H2  790   2.400   0.985   1.948
  277TIP3   OH2  791   2.251   1.312   1.951
  277TIP3    H1  792   2.270   1.363   2.032
  277TIP3    H2  793   2.302   1.230   1.964
  278TIP3   OH2  794   2.880   1.201   1.933
  278TIP3    H1  795   2.781   1.197   1.935
  278TIP3    H2  796   2.896   1.171   1.843
  279TIP3   OH2  797   2.579   1.456   1.342
  279TIP3    H1  798   2.531   1.379   1.306
  279TIP3    H2  799   2.649   1.404   1.386
  280TIP3   OH2  800   2.500   2.353   1.269
  280TIP3    H1  801   2.457   2.398   1.193
  280TIP3    H2  802   2.594   2.372   1.248
  281TIP3   OH2  803   1.273   2.382   2.250
  281TIP3    H1  804   1.360   2.380   2.294
  281TIP3    H2  805   1.255   2.286   2.244
  282TIP3   OH2  806   1.756   2.345   2.292
  282TIP3    H1  807   1.849   2.318   2.297
  282TIP3    H2  808   1.725   2.287   2.219
  283TIP3   OH2  809   2.388   2.255   2.029
  283TIP3    H1  810   2.381   2.183   2.095
  283TIP3    H2  811   2.469   2.301   2.057
  284TIP3   OH2  812   1.397   1.784   2.451
  284TIP3    H1  813   1.415   1.689   2.462
  284TIP3    H2  814   1.309   1.783   2.409
  285TIP3   OH2  815   2.007   1.870   2.222
  285TIP3    H1  816   1.967   1.886   2.135
  285TIP3    H2  817   2.038   1.777   2.215
  286TIP3   OH2  818   2.503   1.878   1.825
  286TIP3    H1  819   2.576   1.926   1.783
  286TIP3    H2  820   2.431   1.943   1.817
  287TIP3   OH2  821   1.539   1.519   2.434
  287TIP3    H1  822   1.615   1.460   2.422
  287TIP3    H2  823   1.558   1.554   2.524
  288TIP3   OH2  824   2.377   1.810   2.229
  288TIP3    H1  825   2.451   1.780   2.174
  288TIP3    H2  826   2.372   1.740   2.295
  289TIP3   OH2  827   1.972   1.210   2.214
  289TIP3    H1  828   1.972   1.117   2.190
  289TIP3    H2  829   1.931   1.251   2.136
  290TIP3   OH2  830   2.030   1.541   1.932
  290TIP3    H1  831   2.086   1.518   1.857
  290TIP3    H2  832   1.954   1.583   1.886
  291TIP3   OH2  833   2.594   1.483   2.281
  291TIP3    H1  834   2.640   1.398   2.285
  291TIP3    H2  835   2.661   1.539   2.238
  292TIP3   OH2  836   2.631   1.740   2.019
  292TIP3    H1  837   2.575   1.791   1.956
  292TIP3    H2  838   2.719   1.757   1.979
  293TIP3   OH2  839   1.859   1.308   2.453
  293TIP3    H1  840   1.794   1.236   2.465
  293TIP3    H2  841   1.893   1.289   2.363
  294TIP3   OH2  842   2.242   1.250   2.311
  294TIP3    H1  843   2.231   1.235   2.406
  294TIP3    H2  844   2.150   1.235   2.280
  295TIP3   OH2  845   2.481   1.205   2.167
  295TIP3    H1  846   2.407   1.202   2.230
  295TIP3    H2  847   2.556   1.171   2.220
  296TIP3   OH2  848   2.706   1.137   2.315
  296TIP3    H1  849   2.721   1.042   2.332
  296TIP3    H2  850   2.706   1.176   2.405
  297TIP3   OH2  851   1.706   1.085   2.506
  297TIP3    H1  852   1.710   0.997   2.463
  297TIP3    H2  853   1.749   1.065   2.592
  298TIP3   OH2  854   2.200   0.755   2.322
  298TIP3    H1  855   2.275   0.693   2.327
  298TIP3    H2  856   2.138   0.707   2.265
  299TIP3   OH2  857   2.272   0.964   2.505
  299TIP3    H1  858   2.250   0.901   2.434
  299TIP3    H2  859   2.195   1.025   2.502
  300TIP3   OH2  860   2.753   2.444   1.226
  300TIP3    H1  861   2.781   2.476   1.314
  300TIP3    H2  862   2.817   2.486   1.167
  301TIP3   OH2  863   2.782   2.463   1.508
  301TIP3    H1  864   2.738   2.376   1.503
  301TIP3    H2  865   2.858   2.439   1.564
  302TIP3   OH2  866   2.828   2.141   2.080
  302TIP3    H1  867   2.756   2.150   2.146
  302TIP3    H2  868   2.870   2.229   2.085
  303TIP3   OH2  869   2.693   1.627   0.683
  303TIP3    H1  870   2.744   1.710   0.674
  303TIP3    H2  871   2.719   1.600   0.775
  304TIP3   OH2  872   2.774   1.522   0.919
  304TIP3    H1  873   2.718   1.470   0.980
  304TIP3    H2  874   2.846   1.555   0.978
  305TIP3   OH2  875   2.826   1.912   1.333
  305TIP3    H1  876   2.881   1.845   1.288
  305TIP3    H2  877   2.825   1.985   1.268
  306TIP3   OH2  878   2.657   2.213   1.529
  306TIP3    H1  879   2.585   2.253   1.581
  306TIP3    H2  880   2.609   2.166   1.458
  307TIP3   OH2  881   2.609   1.346   1.047
  307TIP3    H1  882   2.617   1.262   1.096
  307TIP3    H2  883   2.565   1.399   1.115
  308TIP3   OH2  884   2.876   1.802   1.909
  308TIP3    H1  885   2.946   1.734   1.900
  308TIP3    H2  886   2.903   1.867   1.842
  309TIP3   OH2  887   3.060   1.607   1.930
  309TIP3    H1  888   2.985   1.554   1.964
  309TIP3    H2  889   3.133   1.543   1.943
  310TIP3   OH2  890   2.836   1.428   1.709
  310TIP3    H1  891   2.740   1.443   1.719
  310TIP3    H2  892   2.857   1.486   1.633
  311TIP3   OH2  893   1.464   1.203   2.499
  311TIP3    H1  894   1.556   1.170   2.494
  311TIP3    H2  895   1.427   1.149   2.570
  312TIP3   OH2  896   3.263   1.002   2.227
  312TIP3    H1  897   3.324   0.938   2.185
  312TIP3    H2  898   3.234   1.056   2.150
  313TIP3   OH2  899   3.134   1.144   2.032
  313TIP3    H1  900   3.046   1.183   2.045
  313TIP3    H2  901   3.109   1.069   1.974
  314TIP3   OH2  902   2.322   2.303   0.877
  314TIP3    H1  903   2.377   2.298   0.796
  314TIP3    H2  904   2.370   2.371   0.928
  315TIP3   OH2  905   1.436   2.124   2.269
  315TIP3    H1  906   1.349   2.088   2.247
  315TIP3    H2  907   1.451   2.090   2.358
  316TIP3   OH2  908   1.615   2.149   1.817
  316TIP3    H1  909   1.573   2.229   1.778
  316TIP3    H2  910   1.702   2.157   1.773
  317TIP3   OH2  911   2.061   2.392   1.956
  317TIP3    H1  912   2.105   2.392   2.043
  317TIP3    H2  913   2.126   2.441   1.902
  318TIP3   OH2  914   2.239   2.542   1.814
  318TIP3    H1  915   2.308   2.492   1.768
  318TIP3    H2  916   2.293   2.599   1.873
  319TIP3   OH2  917   3.040   0.908   1.917
  319TIP3    H1  918   2.949   0.897   1.884
  319TIP3    H2  919   3.073   0.816   1.905
  320TIP3   OH2  920   1.298   2.406   1.848
  320TIP3    H1  921   1.209   2.436   1.819
  320TIP3    H2  922   1.301   2.449   1.935
  321TIP3   OH2  923   1.528   2.379   1.697
  321TIP3    H1  924   1.443   2.398   1.742
  321TIP3    H2  925   1.517   2.422   1.610
  322TIP3   OH2  926   1.953   2.409   1.496
  322TIP3    H1  927   1.888   2.425   1.426
  322TIP3    H2  928   1.965   2.498   1.534
  323TIP3   OH2  929   2.223   2.349   1.548
  323TIP3    H1  930   2.129   2.366   1.527
  323TIP3    H2  931   2.267   2.422   1.501
  324TIP3   OH2  932   2.431   2.541   1.461
  324TIP3    H1  933   2.416   2.625   1.413
  324TIP3    H2  934   2.458   2.481   1.388
  325TIP3   OH2  935   1.283   2.216   1.599
  325TIP3    H1  936   1.272   2.192   1.694
  325TIP3    H2  937   1.379   2.204   1.590
  326TIP3   OH2  938   1.673   2.188   1.438
  326TIP3    H1  939   1.675   2.094   1.412
  326TIP3    H2  940   1.714   2.184   1.526
  327TIP3   OH2  941   2.480   2.283   0.649
  327TIP3    H1  942   2.492   2.186   0.642
  327TIP3    H2  943   2.432   2.302   0.567
  328TIP3   OH2  944   1.725   0.829   2.417
  328TIP3    H1  945   1.681   0.764   2.477
  328TIP3    H2  946   1.817   0.822   2.450
  329TIP3   OH2  947   1.954   0.811   2.563
  329TIP3    H1  948   2.039   0.776   2.534
  329TIP3    H2  949   1.930   0.747   2.634
  330TIP3   OH2  950   2.770   0.866   2.344
  330TIP3    H1  951   2.791   0.835   2.435
  330TIP3    H2  952   2.859   0.863   2.302
  331TIP3   OH2  953   2.707   2.420   1.839
  331TIP3    H1  954   2.630   2.389   1.787
  331TIP3    H2  955   2.688   2.516   1.842
  332TIP3   OH2  956   3.975   1.792   0.605
  332TIP3    H1  957   3.945   1.883   0.584
  332TIP3    H2  958   3.902   1.741   0.568
  333TIP3   OH2  959   3.973   1.794   0.986
  333TIP3    H1  960   4.007   1.763   1.072
  333TIP3    H2  961   3.935   1.713   0.949
  334TIP3   OH2  962   3.271   1.688   1.350
  334TIP3    H1  963   3.299   1.617   1.410
  334TIP3    H2  964   3.353   1.740   1.345
  335TIP3   OH2  965   4.218   2.095   0.666
  335TIP3    H1  966   4.204   2.024   0.731
  335TIP3    H2  967   4.249   2.168   0.722
  336TIP3   OH2  968   3.245   2.096   1.074
  336TIP3    H1  969   3.236   1.999   1.075
  336TIP3    H2  970   3.341   2.106   1.067
  337TIP3   OH2  971   2.936   1.294   0.840
  337TIP3    H1  972   2.895   1.379   0.863
  337TIP3    H2  973   2.917   1.239   0.918
  338TIP3   OH2  974   3.014   1.587   1.030
  338TIP3    H1  975   3.063   1.510   1.066
  338TIP3    H2  976   3.080   1.625   0.970
  339TIP3   OH2  977   3.870   2.559   0.685
  339TIP3    H1  978   3.912   2.488   0.631
  339TIP3    H2  979   3.863   2.515   0.771
  340TIP3   OH2  980   3.773   2.019   1.033
  340TIP3    H1  981   3.812   1.942   0.989
  340TIP3    H2  982   3.856   2.065   1.057
  341TIP3   OH2  983   4.781   1.340   1.029
  341TIP3    H1  984   4.818   1.421   1.068
  341TIP3    H2  985   4.803   1.352   0.936
  342TIP3   OH2  986   4.185   1.520   1.065
  342TIP3    H1  987   4.228   1.435   1.085
  342TIP3    H2  988   4.154   1.503   0.973
  343TIP3   OH2  989   3.524   1.179   1.029
  343TIP3    H1  990   3.504   1.252   0.966
  343TIP3    H2  991   3.477   1.106   0.984
  344TIP3   OH2  992   4.219   1.273   0.654
  344TIP3    H1  993   4.292   1.254   0.717
  344TIP3    H2  994   4.270   1.307   0.578
  345TIP3   OH2  995   3.158   1.382   1.128
  345TIP3    H1  996   3.233   1.365   1.188
  345TIP3    H2  997   3.178   1.318   1.057
  346TIP3   OH2  998   3.598   1.578   0.932
  346TIP3    H1  999   3.692   1.554   0.944
  346TIP3    H2 1000   3.560   1.494   0.899
  347TIP3   OH2 1001   4.863   1.552   1.198
  347TIP3    H1 1002   4.781   1.595   1.165
  347TIP3    H2 1003   4.841   1.551   1.292
  348TIP3   OH2 1004   3.521   1.164   1.464
  348TIP3    H1 1005   3.458   1.199   1.398
  348TIP3    H2 1006   3.469   1.177   1.546
  349TIP3   OH2 1007   3.861   2.011   0.476
  349TIP3    H1 1008   3.828   1.998   0.386
  349TIP3    H2 1009   3.819   2.095   0.501
  350TIP3   OH2 1010   3.628   1.938   1.259
  350TIP3    H1 1011   3.566   2.005   1.296
  350TIP3    H2 1012   3.669   1.988   1.185
  351TIP3   OH2 1013   4.431   1.269   0.825
  351TIP3    H1 1014   4.417   1.227   0.910
  351TIP3    H2 1015   4.484   1.348   0.849
  352TIP3   OH2 1016   3.390   1.280   1.249
  352TIP3    H1 1017   3.455   1.350   1.273
  352TIP3    H2 1018   3.438   1.237   1.175
  353TIP3   OH2 1019   3.455   2.133   1.358
  353TIP3    H1 1020   3.428   2.219   1.320
  353TIP3    H2 1021   3.375   2.115   1.413
  354TIP3   OH2 1022   2.849   1.837   0.589
  354TIP3    H1 1023   2.845   1.882   0.503
  354TIP3    H2 1024   2.888   1.909   0.643
  355TIP3   OH2 1025   4.288   2.339   0.835
  355TIP3    H1 1026   4.198   2.330   0.873
  355TIP3    H2 1027   4.280   2.424   0.788
  356TIP3   OH2 1028   4.579   1.239   1.198
  356TIP3    H1 1029   4.492   1.267   1.164
  356TIP3    H2 1030   4.640   1.272   1.128
  357TIP3   OH2 1031   3.876   0.881   1.179
  357TIP3    H1 1032   3.861   0.786   1.198
  357TIP3    H2 1033   3.799   0.921   1.226
  358TIP3   OH2 1034   3.987   2.385   0.506
  358TIP3    H1 1035   4.036   2.301   0.488
  358TIP3    H2 1036   4.051   2.449   0.466
  359TIP3   OH2 1037   4.128   2.169   0.416
  359TIP3    H1 1038   4.106   2.089   0.367
  359TIP3    H2 1039   4.166   2.133   0.499
  360TIP3   OH2 1040   4.514   2.249   1.177
  360TIP3    H1 1041   4.503   2.172   1.118
  360TIP3    H2 1042   4.497   2.324   1.116
  361TIP3   OH2 1043   3.809   1.646   0.435
  361TIP3    H1 1044   3.728   1.695   0.412
  361TIP3    H2 1045   3.851   1.633   0.348
  362TIP3   OH2 1046   3.785   1.415   0.168
  362TIP3    H1 1047   3.862   1.471   0.187
  362TIP3    H2 1048   3.823   1.342   0.119
  363TIP3   OH2 1049   4.710   1.889   1.023
  363TIP3    H1 1050   4.626   1.940   1.026
  363TIP3    H2 1051   4.740   1.912   0.932
  364TIP3   OH2 1052   4.154   1.726   0.406
  364TIP3    H1 1053   4.100   1.749   0.485
  364TIP3    H2 1054   4.238   1.701   0.449
  365TIP3   OH2 1055   4.387   1.766   1.317
  365TIP3    H1 1056   4.382   1.851   1.365
  365TIP3    H2 1057   4.300   1.767   1.272
  366TIP3   OH2 1058   3.387   1.724   0.824
  366TIP3    H1 1059   3.347   1.666   0.756
  366TIP3    H2 1060   3.464   1.671   0.855
  367TIP3   OH2 1061   3.515   2.135   0.972
  367TIP3    H1 1062   3.495   2.098   0.885
  367TIP3    H2 1063   3.605   2.100   0.989
  368TIP3   OH2 1064   3.519   1.697   1.177
  368TIP3    H1 1065   3.555   1.671   1.089
  368TIP3    H2 1066   3.566   1.781   1.195
  369TIP3   OH2 1067   4.045   2.334   0.954
  369TIP3    H1 1068   4.035   2.413   1.010
  369TIP3    H2 1069   4.031   2.260   1.016
  370TIP3   OH2 1070   3.660   2.253   1.501
  370TIP3    H1 1071   3.599   2.314   1.547
  370TIP3    H2 1072   3.596   2.198   1.451
  371TIP3   OH2 1073   3.995   1.588   0.228
  371TIP3    H1 1074   4.052   1.648   0.281
  371TIP3    H2 1075   4.022   1.613   0.136
  372TIP3   OH2 1076   3.415   1.809   1.603
  372TIP3    H1 1077   3.418   1.896   1.647
  372TIP3    H2 1078   3.320   1.787   1.614
  373TIP3   OH2 1079   3.736   2.265   0.514
  373TIP3    H1 1080   3.818   2.317   0.521
  373TIP3    H2 1081   3.679   2.324   0.462
  374TIP3   OH2 1082   3.454   2.421   1.588
  374TIP3    H1 1083   3.419   2.421   1.497
  374TIP3    H2 1084   3.374   2.399   1.641
  375TIP3   OH2 1085   3.254   1.566   0.625
  375TIP3    H1 1086   3.186   1.610   0.568
  375TIP3    H2 1087   3.206   1.489   0.656
  376TIP3   OH2 1088   4.303   2.200  -0.177
  376TIP3    H1 1089   4.323   2.294  -0.194
  376TIP3    H2 1090   4.391   2.158  -0.184
  377TIP3   OH2 1091   3.033   1.950   1.535
  377TIP3    H1 1092   2.968   1.925   1.466
  377TIP3    H2 1093   3.071   1.863   1.561
  378TIP3   OH2 1094   2.887   2.143   1.166
  378TIP3    H1 1095   2.983   2.136   1.158
  378TIP3    H2 1096   2.879   2.222   1.222
  379TIP3   OH2 1097   4.752   2.596   1.224
  379TIP3    H1 1098   4.750   2.499   1.236
  379TIP3    H2 1099   4.668   2.621   1.270
  380TIP3   OH2 1100   3.857   2.381   1.358
  380TIP3    H1 1101   3.855   2.473   1.391
  380TIP3    H2 1102   3.785   2.341   1.412
  381TIP3   OH2 1103   3.617   2.507   0.309
  381TIP3    H1 1104   3.576   2.489   0.222
  381TIP3    H2 1105   3.586   2.597   0.330
  382TIP3   OH2 1106   3.055   2.360   0.697
  382TIP3    H1 1107   3.105   2.350   0.780
  382TIP3    H2 1108   3.000   2.280   0.699
  383TIP3   OH2 1109   3.813   2.408  -0.038
  383TIP3    H1 1110   3.872   2.350  -0.090
  383TIP3    H2 1111   3.859   2.412   0.048
  384TIP3   OH2 1112   3.875   2.464   0.230
  384TIP3    H1 1113   3.783   2.469   0.266
  384TIP3    H2 1114   3.921   2.416   0.301
  385TIP3   OH2 1115   4.642   1.718   1.516
  385TIP3    H1 1116   4.564   1.745   1.465
  385TIP3    H2 1117   4.658   1.629   1.480
  386TIP3   OH2 1118   3.236   2.135   1.523
  386TIP3    H1 1119   3.287   2.116   1.605
  386TIP3    H2 1120   3.163   2.070   1.530
  387TIP3   OH2 1121   3.642   0.960   1.307
  387TIP3    H1 1122   3.553   0.930   1.279
  387TIP3    H2 1123   3.615   1.040   1.356
  388TIP3   OH2 1124   4.172   1.072   1.502
  388TIP3    H1 1125   4.241   1.044   1.565
  388TIP3    H2 1126   4.089   1.052   1.550
  389TIP3   OH2 1127   4.415   1.503   1.424
  389TIP3    H1 1128   4.361   1.498   1.506
  389TIP3    H2 1129   4.387   1.588   1.385
  390TIP3   OH2 1130   4.071   1.641  -0.024
  390TIP3    H1 1131   4.044   1.595  -0.105
  390TIP3    H2 1132   4.154   1.683  -0.054
  391TIP3   OH2 1133   3.798   1.027   0.282
  391TIP3    H1 1134   3.765   1.000   0.370
  391TIP3    H2 1135   3.792   0.944   0.232
  392TIP3   OH2 1136   3.571   1.475   1.326
  392TIP3    H1 1137   3.518   1.493   1.407
  392TIP3    H2 1138   3.553   1.556   1.273
  393TIP3   OH2 1139   3.454   1.358   0.835
  393TIP3    H1 1140   3.361   1.331   0.855
  393TIP3    H2 1141   3.465   1.320   0.746
  394TIP3   OH2 1142   3.943   1.444   0.571
  394TIP3    H1 1143   3.893   1.515   0.525
  394TIP3    H2 1144   4.000   1.411   0.498
  395TIP3   OH2 1145   4.117   1.723   1.655
  395TIP3    H1 1146   4.095   1.650   1.716
  395TIP3    H2 1147   4.211   1.735   1.677
  396TIP3   OH2 1148   4.100   1.473   0.806
  396TIP3    H1 1149   4.039   1.501   0.735
  396TIP3    H2 1150   4.135   1.393   0.763
  397TIP3   OH2 1151   3.389   1.502   1.532
  397TIP3    H1 1152   3.416   1.562   1.604
  397TIP3    H2 1153   3.372   1.419   1.580
  398TIP3   OH2 1154   3.023   1.076   1.056
  398TIP3    H1 1155   3.064   1.090   1.144
  398TIP3    H2 1156   3.008   0.981   1.059
  399TIP3   OH2 1157   4.112   1.719   1.230
  399TIP3    H1 1158   4.144   1.647   1.170
  399TIP3    H2 1159   4.082   1.665   1.306
  400TIP3   OH2 1160   3.782   1.182   0.903
  400TIP3    H1 1161   3.700   1.179   0.957
  400TIP3    H2 1162   3.850   1.178   0.972
  401TIP3   OH2 1163   3.217   1.237   0.897
  401TIP3    H1 1164   3.122   1.226   0.881
  401TIP3    H2 1165   3.248   1.145   0.900
  402TIP3   OH2 1166   3.496   1.237   0.584
  402TIP3    H1 1167   3.593   1.242   0.598
  402TIP3    H2 1168   3.488   1.278   0.497
  403TIP3   OH2 1169   4.272   1.258   1.104
  403TIP3    H1 1170   4.238   1.270   1.195
  403TIP3    H2 1171   4.207   1.196   1.068
  404TIP3   OH2 1172   4.443   2.946   1.322
  404TIP3    H1 1173   4.441   2.969   1.228
  404TIP3    H2 1174   4.524   2.993   1.352
  405TIP3   OH2 1175   3.399   2.058   1.743
  405TIP3    H1 1176   3.479   2.086   1.792
  405TIP3    H2 1177   3.335   2.053   1.817
  406TIP3   OH2 1178   3.862   1.509   0.999
  406TIP3    H1 1179   3.936   1.471   0.949
  406TIP3    H2 1180   3.870   1.465   1.085
  407TIP3   OH2 1181   3.383   1.004   0.873
  407TIP3    H1 1182   3.357   0.926   0.926
  407TIP3    H2 1183   3.421   0.964   0.792
  408TIP3   OH2 1184   3.840   1.407   1.286
  408TIP3    H1 1185   3.750   1.442   1.301
  408TIP3    H2 1186   3.896   1.468   1.338
  409TIP3   OH2 1187   3.573   1.796   0.382
  409TIP3    H1 1188   3.491   1.745   0.369
  409TIP3    H2 1189   3.560   1.830   0.474
  410TIP3   OH2 1190   4.476   2.033   1.012
  410TIP3    H1 1191   4.500   2.083   0.931
  410TIP3    H2 1192   4.392   1.990   0.986
  411TIP3   OH2 1193   4.051   1.114   0.260
  411TIP3    H1 1194   3.957   1.087   0.249
  411TIP3    H2 1195   4.046   1.209   0.276
  412TIP3   OH2 1196   3.977   2.116   1.380
  412TIP3    H1 1197   4.000   2.092   1.470
  412TIP3    H2 1198   3.938   2.204   1.389
  413TIP3   OH2 1199   4.105   1.368   0.359
  413TIP3    H1 1200   4.202   1.367   0.369
  413TIP3    H2 1201   4.090   1.445   0.301
  414TIP3   OH2 1202   3.265   1.816   1.058
  414TIP3    H1 1203   3.307   1.789   0.974
  414TIP3    H2 1204   3.311   1.760   1.122
  415TIP3   OH2 1205   3.721   1.946   0.202
  415TIP3    H1 1206   3.676   2.033   0.212
  415TIP3    H2 1207   3.669   1.891   0.264
  416TIP3   OH2 1208   3.149   1.740   1.673
  416TIP3    H1 1209   3.166   1.721   1.768
  416TIP3    H2 1210   3.081   1.673   1.652
  417TIP3   OH2 1211   3.875   1.855   1.691
  417TIP3    H1 1212   3.814   1.794   1.647
  417TIP3    H2 1213   3.962   1.818   1.663
  418TIP3   OH2 1214   4.136   2.377   1.276
  418TIP3    H1 1215   4.040   2.373   1.289
  418TIP3    H2 1216   4.163   2.428   1.355
  419TIP3   OH2 1217   4.563   1.438   0.220
  419TIP3    H1 1218   4.492   1.408   0.160
  419TIP3    H2 1219   4.585   1.521   0.174
  420TIP3   OH2 1220   4.765   2.306   1.265
  420TIP3    H1 1221   4.667   2.300   1.256
  420TIP3    H2 1222   4.791   2.275   1.176
  421TIP3   OH2 1223   4.252   2.265   0.091
  421TIP3    H1 1224   4.219   2.194   0.148
  421TIP3    H2 1225   4.253   2.223   0.003
  422TIP3   OH2 1226   4.242   1.895   0.932
  422TIP3    H1 1227   4.149   1.871   0.944
  422TIP3    H2 1228   4.276   1.815   0.886
  423TIP3   OH2 1229   3.371   2.125   0.687
  423TIP3    H1 1230   3.372   2.204   0.630
  423TIP3    H2 1231   3.277   2.104   0.689
  424TIP3   OH2 1232   3.504   1.887   0.626
  424TIP3    H1 1233   3.472   1.977   0.646
  424TIP3    H2 1234   3.471   1.837   0.703
  425TIP3   OH2 1235   3.639   2.467   1.153
  425TIP3    H1 1236   3.682   2.539   1.102
  425TIP3    H2 1237   3.715   2.429   1.200
  426TIP3   OH2 1238   3.288   2.364   0.537
  426TIP3    H1 1239   3.203   2.372   0.584
  426TIP3    H2 1240   3.320   2.457   0.540
  427TIP3   OH2 1241   4.027   2.101   1.111
  427TIP3    H1 1242   4.018   2.098   1.209
  427TIP3    H2 1243   4.105   2.045   1.098
  428TIP3   OH2 1244   3.992   2.005   0.006
  428TIP3    H1 1245   4.054   1.974   0.074
  428TIP3    H2 1246   3.908   1.977   0.045
  429TIP3   OH2 1247   4.275   2.635   1.163
  429TIP3    H1 1248   4.196   2.578   1.156
  429TIP3    H2 1249   4.259   2.698   1.090
  430TIP3   OH2 1250   4.341   2.477  -0.196
  430TIP3    H1 1251   4.392   2.557  -0.216
  430TIP3    H2 1252   4.260   2.516  -0.158
  431TIP3   OH2 1253   3.357   1.245   1.678
  431TIP3    H1 1254   3.260   1.248   1.688
  431TIP3    H2 1255   3.383   1.184   1.749
  432TIP3   OH2 1256   4.161   1.931   0.218
  432TIP3    H1 1257   4.152   1.861   0.285
  432TIP3    H2 1258   4.259   1.929   0.204
  433TIP3   OH2 1259   3.077   2.328   1.312
  433TIP3    H1 1260   3.130   2.253   1.343
  433TIP3    H2 1261   3.107   2.397   1.372
  434TIP3   OH2 1262   3.364   1.985  -0.009
  434TIP3    H1 1263   3.416   1.905  -0.027
  434TIP3    H2 1264   3.327   1.962   0.078
  435TIP3   OH2 1265   3.313   1.989   0.283
  435TIP3    H1 1266   3.395   1.967   0.329
  435TIP3    H2 1267   3.321   2.087   0.277
  436TIP3   OH2 1268   3.051   1.677   0.477
  436TIP3    H1 1269   2.983   1.722   0.531
  436TIP3    H2 1270   3.068   1.748   0.412
  437TIP3   OH2 1271   4.198   1.310   1.364
  437TIP3    H1 1272   4.281   1.344   1.402
  437TIP3    H2 1273   4.183   1.228   1.417
  438TIP3   OH2 1274   4.064   1.065   0.532
  438TIP3    H1 1275   4.061   1.077   0.434
  438TIP3    H2 1276   4.112   1.145   0.560
  439TIP3   OH2 1277   3.584   2.177   0.222
  439TIP3    H1 1278   3.497   2.210   0.253
  439TIP3    H2 1279   3.593   2.224   0.138
  440TIP3   OH2 1280   3.761   1.247   0.636
  440TIP3    H1 1281   3.828   1.316   0.615
  440TIP3    H2 1282   3.774   1.236   0.732
  441TIP3   OH2 1283   4.037   1.558   1.436
  441TIP3    H1 1284   4.059   1.609   1.516
  441TIP3    H2 1285   4.090   1.477   1.448
  442TIP3   OH2 1286   3.923   0.965   0.742
  442TIP3    H1 1287   3.917   1.043   0.800
  442TIP3    H2 1288   3.981   1.001   0.670
  443TIP3   OH2 1289   3.330   2.261   0.285
  443TIP3    H1 1290   3.298   2.331   0.224
  443TIP3    H2 1291   3.310   2.300   0.373
  444TIP3   OH2 1292   3.470   0.954   0.615
  444TIP3    H1 1293   3.477   1.051   0.606
  444TIP3    H2 1294   3.560   0.929   0.585
  445TIP3   OH2 1295   4.686   1.467   1.409
  445TIP3    H1 1296   4.588   1.462   1.421
  445TIP3    H2 1297   4.696   1.396   1.344
  446TIP3   OH2 1298   4.327   1.654   0.807
  446TIP3    H1 1299   4.251   1.593   0.817
  446TIP3    H2 1300   4.399   1.607   0.854
  447TIP3   OH2 1301   3.052   1.902   0.324
  447TIP3    H1 1302   3.140   1.939   0.303
  447TIP3    H2 1303   3.016   1.881   0.236
  448TIP3   OH2 1304   4.296   2.610   0.755
  448TIP3    H1 1305   4.253   2.658   0.681
  448TIP3    H2 1306   4.390   2.629   0.735
  449TIP3   OH2 1307   3.379   0.887   1.281
  449TIP3    H1 1308   3.339   0.850   1.200
  449TIP3    H2 1309   3.373   0.813   1.345
  450TIP3   OH2 1310   2.914   2.095   0.666
  450TIP3    H1 1311   2.838   2.128   0.715
  450TIP3    H2 1312   2.893   2.129   0.576
  451TIP3   OH2 1313   3.068   2.638   1.736
  451TIP3    H1 1314   3.155   2.637   1.781
  451TIP3    H2 1315   3.048   2.543   1.733
  452TIP3   OH2 1316   3.549   2.602   1.779
  452TIP3    H1 1317   3.643   2.581   1.785
  452TIP3    H2 1318   3.522   2.542   1.706
  453TIP3   OH2 1319   3.537   2.182  -0.071
  453TIP3    H1 1320   3.466   2.117  -0.051
  453TIP3    H2 1321   3.603   2.123  -0.111
  454TIP3   OH2 1322   4.186   2.510   1.514
  454TIP3    H1 1323   4.179   2.439   1.582
  454TIP3    H2 1324   4.266   2.559   1.544
  455TIP3   OH2 1325   3.983   2.228  -0.170
  455TIP3    H1 1326   3.987   2.148  -0.113
  455TIP3    H2 1327   4.063   2.217  -0.223
  456TIP3   OH2 1328   3.198   2.044   1.935
  456TIP3    H1 1329   3.215   1.948   1.941
  456TIP3    H2 1330   3.112   2.045   1.889
  457TIP3   OH2 1331   3.292   1.730   0.103
  457TIP3    H1 1332   3.287   1.716   0.199
  457TIP3    H2 1333   3.203   1.708   0.073
  458TIP3   OH2 1334   3.805   2.129   1.709
  458TIP3    H1 1335   3.764   2.146   1.622
  458TIP3    H2 1336   3.835   2.036   1.700
  459TIP3   OH2 1337   3.640   1.874  -0.053
  459TIP3    H1 1338   3.669   1.904   0.036
  459TIP3    H2 1339   3.694   1.795  -0.065
  460TIP3   OH2 1340   4.299   2.138   1.318
  460TIP3    H1 1341   4.374   2.181   1.272
  460TIP3    H2 1342   4.228   2.202   1.301
  461TIP3   OH2 1343   3.319   1.781   1.916
  461TIP3    H1 1344   3.391   1.722   1.893
  461TIP3    H2 1345   3.346   1.812   2.005
  462TIP3   OH2 1346   3.348   1.609   0.355
  462TIP3    H1 1347   3.346   1.581   0.448
  462TIP3    H2 1348   3.414   1.548   0.316
  463TIP3   OH2 1349   3.655   1.665   1.581
  463TIP3    H1 1350   3.575   1.722   1.579
  463TIP3    H2 1351   3.704   1.698   1.502
  464TIP3   OH2 1352   3.522   1.440   0.237
  464TIP3    H1 1353   3.494   1.365   0.180
  464TIP3    H2 1354   3.618   1.442   0.216
  465TIP3   OH2 1355   4.172   2.066   1.714
  465TIP3    H1 1356   4.247   2.034   1.663
  465TIP3    H2 1357   4.164   1.999   1.784
  466TIP3   OH2 1358   4.302   1.723  -0.168
  466TIP3    H1 1359   4.282   1.677  -0.251
  466TIP3    H2 1360   4.295   1.815  -0.194
  467TIP3   OH2 1361   3.776   1.452   1.704
  467TIP3    H1 1362   3.776   1.372   1.648
  467TIP3    H2 1363   3.732   1.517   1.646
  468TIP3   OH2 1364   3.779   1.238   1.513
  468TIP3    H1 1365   3.806   1.278   1.428
  468TIP3    H2 1366   3.685   1.216   1.495
  469TIP3   OH2 1367   3.805   1.773   1.385
  469TIP3    H1 1368   3.889   1.781   1.339
  469TIP3    H2 1369   3.749   1.839   1.339
  470TIP3   OH2 1370   4.380   1.740   1.763
  470TIP3    H1 1371   4.424   1.656   1.779
  470TIP3    H2 1372   4.450   1.794   1.724
  471TIP3   OH2 1373   4.431   1.994   1.504
  471TIP3    H1 1374   4.371   2.046   1.445
  471TIP3    H2 1375   4.517   2.017   1.462
  472TIP3   OH2 1376   3.653   1.563   1.936
  472TIP3    H1 1377   3.586   1.492   1.950
  472TIP3    H2 1378   3.688   1.538   1.848
  473TIP3   OH2 1379   3.911   0.999   1.578
  473TIP3    H1 1380   3.860   1.081   1.557
  473TIP3    H2 1381   3.842   0.931   1.568
  474TIP3   OH2 1382   4.036   1.506   1.796
  474TIP3    H1 1383   4.025   1.489   1.891
  474TIP3    H2 1384   3.946   1.480   1.765
  475TIP3   OH2 1385   4.275   1.457   1.651
  475TIP3    H1 1386   4.201   1.456   1.714
  475TIP3    H2 1387   4.349   1.424   1.705
  476TIP3   OH2 1388   4.503   1.395   1.792
  476TIP3    H1 1389   4.521   1.300   1.812
  476TIP3    H2 1390   4.506   1.435   1.881
  477TIP3   OH2 1391   3.495   1.343   1.989
  477TIP3    H1 1392   3.496   1.252   1.954
  477TIP3    H2 1393   3.532   1.328   2.078
  478TIP3   OH2 1394   4.002   1.010   1.838
  478TIP3    H1 1395   4.072   0.942   1.831
  478TIP3    H2 1396   3.963   1.004   1.748
  479TIP3   OH2 1397   4.074   1.226   1.996
  479TIP3    H1 1398   4.052   1.154   1.934
  479TIP3    H2 1399   3.995   1.283   1.991
  480TIP3   OH2 1400   3.285   2.455   0.096
  480TIP3    H1 1401   3.380   2.451   0.074
  480TIP3    H2 1402   3.248   2.492   0.015
  481TIP3   OH2 1403   2.689   2.451   0.726
  481TIP3    H1 1404   2.622   2.391   0.688
  481TIP3    H2 1405   2.733   2.391   0.791
  482TIP3   OH2 1406   2.821   2.299   0.913
  482TIP3    H1 1407   2.813   2.225   0.976
  482TIP3    H2 1408   2.875   2.361   0.967
  483TIP3   OH2 1409   4.547   2.705   0.712
  483TIP3    H1 1410   4.580   2.735   0.799
  483TIP3    H2 1411   4.616   2.737   0.652
  484TIP3   OH2 1412   4.577   2.721   0.996
  484TIP3    H1 1413   4.534   2.633   0.990
  484TIP3    H2 1414   4.656   2.697   1.048
  485TIP3   OH2 1415   4.626   2.395   1.570
  485TIP3    H1 1416   4.552   2.406   1.634
  485TIP3    H2 1417   4.667   2.484   1.572
  486TIP3   OH2 1418   4.437   1.918   0.193
  486TIP3    H1 1419   4.505   1.981   0.162
  486TIP3    H2 1420   4.483   1.878   0.271
  487TIP3   OH2 1421   4.567   1.779   0.392
  487TIP3    H1 1422   4.501   1.737   0.451
  487TIP3    H2 1423   4.632   1.817   0.455
  488TIP3   OH2 1424   4.624   2.169   0.823
  488TIP3    H1 1425   4.676   2.103   0.775
  488TIP3    H2 1426   4.620   2.243   0.759
  489TIP3   OH2 1427   4.454   2.470   1.018
  489TIP3    H1 1428   4.382   2.511   1.068
  489TIP3    H2 1429   4.406   2.423   0.947
  490TIP3   OH2 1430   4.500   1.699   0.036
  490TIP3    H1 1431   4.426   1.702  -0.028
  490TIP3    H2 1432   4.476   1.773   0.095
  491TIP3   OH2 1433   4.398   1.412   0.011
  491TIP3    H1 1434   4.436   1.478  -0.050
  491TIP3    H2 1435   4.437   1.330  -0.021
  492TIP3   OH2 1436   4.383   1.635   0.538
  492TIP3    H1 1437   4.388   1.539   0.529
  492TIP3    H2 1438   4.369   1.647   0.634
  493TIP3   OH2 1439   3.008   1.711   1.280
  493TIP3    H1 1440   3.010   1.679   1.188
  493TIP3    H2 1441   3.105   1.712   1.300
  494TIP3   OH2 1442   4.673   2.059   1.394
  494TIP3    H1 1443   4.745   1.993   1.383
  494TIP3    H2 1444   4.697   2.126   1.328
  495TIP3   OH2 1445   4.855   1.859   1.416
  495TIP3    H1 1446   4.781   1.808   1.456
  495TIP3    H2 1447   4.929   1.797   1.431
  496TIP3   OH2 1448   4.381   1.354   0.435
  496TIP3    H1 1449   4.409   1.261   0.448
  496TIP3    H2 1450   4.451   1.384   0.374
  497TIP3   OH2 1451   4.537   1.523   0.928
  497TIP3    H1 1452   4.624   1.547   0.888
  497TIP3    H2 1453   4.553   1.558   1.018
  498TIP3   OH2 1454   4.611   1.669   1.158
  498TIP3    H1 1455   4.532   1.703   1.206
  498TIP3    H2 1456   4.643   1.750   1.113
  499TIP3   OH2 1457   3.229   1.398   1.970
  499TIP3    H1 1458   3.326   1.388   1.964
  499TIP3    H2 1459   3.204   1.309   2.002
  500TIP3   OH2 1460   5.043   1.294   1.685
  500TIP3    H1 1461   5.086   1.212   1.719
  500TIP3    H2 1462   5.095   1.296   1.602
  501TIP3   OH2 1463   4.467   1.098   0.480
  501TIP3    H1 1464   4.510   1.074   0.564
  501TIP3    H2 1465   4.409   1.020   0.466
  502TIP3   OH2 1466   3.186   1.085   1.280
  502TIP3    H1 1467   3.248   1.012   1.297
  502TIP3    H2 1468   3.244   1.162   1.289
  503TIP3   OH2 1469   3.032   1.363   1.392
  503TIP3    H1 1470   3.033   1.335   1.300
  503TIP3    H2 1471   3.036   1.458   1.385
  504TIP3   OH2 1472   4.136   2.568   0.372
  504TIP3    H1 1473   4.182   2.552   0.287
  504TIP3    H2 1474   4.196   2.632   0.415
  505TIP3   OH2 1475   3.193   0.936   1.676
  505TIP3    H1 1476   3.140   0.939   1.758
  505TIP3    H2 1477   3.132   0.981   1.614
  506TIP3   OH2 1478   3.233   2.375   1.754
  506TIP3    H1 1479   3.143   2.344   1.736
  506TIP3    H2 1480   3.245   2.349   1.846
  507TIP3   OH2 1481   3.412   2.405   1.302
  507TIP3    H1 1482   3.365   2.480   1.262
  507TIP3    H2 1483   3.499   2.417   1.258
  508TIP3   OH2 1484   3.856   2.648   1.441
  508TIP3    H1 1485   3.900   2.648   1.529
  508TIP3    H2 1486   3.922   2.699   1.388
  509TIP3   OH2 1487   4.035   2.800   1.299
  509TIP3    H1 1488   4.105   2.749   1.256
  509TIP3    H2 1489   4.089   2.856   1.360
  510TIP3   OH2 1490   4.825   1.147   1.398
  510TIP3    H1 1491   4.737   1.133   1.359
  510TIP3    H2 1492   4.866   1.058   1.388
  511TIP3   OH2 1493   3.088   2.661   1.324
  511TIP3    H1 1494   2.998   2.695   1.302
  511TIP3    H2 1495   3.098   2.697   1.413
  512TIP3   OH2 1496   3.326   2.640   1.184
  512TIP3    H1 1497   3.238   2.652   1.227
  512TIP3    H2 1498   3.307   2.670   1.093
  513TIP3   OH2 1499   3.750   2.667   0.983
  513TIP3    H1 1500   3.682   2.686   0.916
  513TIP3    H2 1501   3.763   2.755   1.024
  514TIP3   OH2 1502   4.020   2.607   1.036
  514TIP3    H1 1503   3.926   2.624   1.013
  514TIP3    H2 1504   4.065   2.679   0.989
  515TIP3   OH2 1505   4.226   2.798   0.947
  515TIP3    H1 1506   4.213   2.881   0.898
  515TIP3    H2 1507   4.254   2.737   0.875
  516TIP3   OH2 1508   3.000   2.453   1.071
  516TIP3    H1 1509   3.027   2.427   1.161
  516TIP3    H2 1510   3.072   2.409   1.020
  517TIP3   OH2 1511   3.194   2.325   0.929
  517TIP3    H1 1512   3.210   2.240   0.977
  517TIP3    H2 1513   3.285   2.360   0.923
  518TIP3   OH2 1514   3.461   2.420   0.932
  518TIP3    H1 1515   3.492   2.329   0.917
  518TIP3    H2 1516   3.507   2.440   1.015
  519TIP3   OH2 1517   4.034   1.076   1.017
  519TIP3    H1 1518   3.992   1.006   1.070
  519TIP3    H2 1519   4.109   1.030   0.974
  520TIP3   OH2 1520   4.554   0.959   0.925
  520TIP3    H1 1521   4.592   1.009   0.850
  520TIP3    H2 1522   4.459   0.977   0.916
  521TIP3   OH2 1523   4.649   1.044   0.683
  521TIP3    H1 1524   4.731   1.006   0.651
  521TIP3    H2 1525   4.674   1.140   0.683
  522TIP3   OH2 1526   3.274   0.808   1.033
  522TIP3    H1 1527   3.180   0.785   1.030
  522TIP3    H2 1528   3.320   0.722   1.026
  523TIP3   OH2 1529   3.735   0.820   0.915
  523TIP3    H1 1530   3.790   0.874   0.857
  523TIP3    H2 1531   3.753   0.860   1.002
  524TIP3   OH2 1532   4.271   0.964   0.898
  524TIP3    H1 1533   4.275   0.928   0.808
  524TIP3    H2 1534   4.258   0.882   0.951
  525TIP3   OH2 1535   4.303   0.885   0.471
  525TIP3    H1 1536   4.213   0.913   0.449
  525TIP3    H2 1537   4.286   0.798   0.513
  526TIP3   OH2 1538   2.776   2.224   0.473
  526TIP3    H1 1539   2.697   2.186   0.431
  526TIP3    H2 1540   2.771   2.316   0.443
  527TIP3   OH2 1541   3.735   0.988   0.548
  527TIP3    H1 1542   3.799   0.957   0.614
  527TIP3    H2 1543   3.749   1.085   0.557
  528TIP3   OH2 1544   3.552   2.428   0.037
  528TIP3    H1 1545   3.645   2.444   0.008
  528TIP3    H2 1546   3.537   2.345  -0.014
  529TIP3   OH2 1547   4.276   2.532   0.137
  529TIP3    H1 1548   4.273   2.434   0.127
  529TIP3    H2 1549   4.230   2.560   0.056
  530TIP3   OH2 1550   3.490   1.071   1.931
  530TIP3    H1 1551   3.456   0.996   1.982
  530TIP3    H2 1552   3.585   1.068   1.955
  531TIP3   OH2 1553   3.743   1.063   2.045
  531TIP3    H1 1554   3.828   1.041   2.004
  531TIP3    H2 1555   3.733   0.990   2.110
  532TIP3   OH2 1556   2.879   2.208   0.171
  532TIP3    H1 1557   2.857   2.297   0.200
  532TIP3    H2 1558   2.966   2.217   0.132
  533TIP3   OH2 1559   4.569   1.122   1.833
  533TIP3    H1 1560   4.581   1.068   1.913
  533TIP3    H2 1561   4.656   1.117   1.790
  534TIP3   OH2 1562   4.503   2.676   1.326
  534TIP3    H1 1563   4.426   2.646   1.274
  534TIP3    H2 1564   4.485   2.772   1.328
  535TIP3   OH2 1565   5.800   2.045   0.099
  535TIP3    H1 1566   5.776   2.139   0.090
  535TIP3    H2 1567   5.717   2.006   0.071
  536TIP3   OH2 1568   5.774   2.049   0.470
  536TIP3    H1 1569   5.802   2.019   0.558
  536TIP3    H2 1570   5.729   1.970   0.435
  537TIP3   OH2 1571   5.069   1.946   0.839
  537TIP3    H1 1572   5.101   1.876   0.899
  537TIP3    H2 1573   5.151   1.996   0.825
  538TIP3   OH2 1574   6.056   2.346   0.161
  538TIP3    H1 1575   6.009   2.283   0.217
  538TIP3    H2 1576   6.048   2.428   0.213
  539TIP3   OH2 1577   5.042   2.354   0.564
  539TIP3    H1 1578   5.035   2.256   0.565
  539TIP3    H2 1579   5.138   2.364   0.549
  540TIP3   OH2 1580   4.752   1.569   0.362
  540TIP3    H1 1581   4.690   1.645   0.370
  540TIP3    H2 1582   4.693   1.502   0.323
  541TIP3   OH2 1583   4.804   1.848   0.520
  541TIP3    H1 1584   4.853   1.772   0.559
  541TIP3    H2 1585   4.865   1.877   0.451
  542TIP3   OH2 1586   5.605   2.764   0.195
  542TIP3    H1 1587   5.674   2.736   0.132
  542TIP3    H2 1588   5.654   2.766   0.277
  543TIP3   OH2 1589   5.567   2.277   0.524
  543TIP3    H1 1590   5.600   2.205   0.467
  543TIP3    H2 1591   5.654   2.318   0.548
  544TIP3   OH2 1592   5.957   1.738   0.564
  544TIP3    H1 1593   6.030   1.698   0.613
  544TIP3    H2 1594   6.003   1.795   0.498
  545TIP3   OH2 1595   5.279   1.424   0.522
  545TIP3    H1 1596   5.276   1.496   0.456
  545TIP3    H2 1597   5.246   1.349   0.470
  546TIP3   OH2 1598   4.952   1.651   0.640
  546TIP3    H1 1599   5.034   1.630   0.690
  546TIP3    H2 1600   4.972   1.603   0.557
  547TIP3   OH2 1601   5.393   1.837   0.420
  547TIP3    H1 1602   5.488   1.817   0.433
  547TIP3    H2 1603   5.360   1.751   0.386
  548TIP3   OH2 1604   6.673   1.844   0.713
  548TIP3    H1 1605   6.595   1.880   0.667
  548TIP3    H2 1606   6.662   1.886   0.798
  549TIP3   OH2 1607   5.318   1.422   0.953
  549TIP3    H1 1608   5.257   1.461   0.888
  549TIP3    H2 1609   5.267   1.436   1.035
  550TIP3   OH2 1610   5.681   2.285   0.024
  550TIP3    H1 1611   5.654   2.251  -0.063
  550TIP3    H2 1612   5.630   2.367   0.024
  551TIP3   OH2 1613   5.423   2.195   0.745
  551TIP3    H1 1614   5.362   2.263   0.782
  551TIP3    H2 1615   5.464   2.243   0.670
  552TIP3   OH2 1616   5.185   1.543   0.745
  552TIP3    H1 1617   5.253   1.611   0.764
  552TIP3    H2 1618   5.224   1.498   0.667
  553TIP3   OH2 1619   5.252   2.389   0.846
  553TIP3    H1 1620   5.226   2.474   0.804
  553TIP3    H2 1621   5.171   2.374   0.900
  554TIP3   OH2 1622   4.641   2.077   0.086
  554TIP3    H1 1623   4.602   2.102  -0.000
  554TIP3    H2 1624   4.676   2.163   0.118
  555TIP3   OH2 1625   6.086   2.592   0.322
  555TIP3    H1 1626   6.002   2.574   0.370
  555TIP3    H2 1627   6.063   2.679   0.284
  556TIP3   OH2 1628   5.786   2.651   0.017
  556TIP3    H1 1629   5.823   2.606  -0.059
  556TIP3    H2 1630   5.794   2.744  -0.011
  557TIP3   OH2 1631   6.313   2.504   0.666
  557TIP3    H1 1632   6.296   2.426   0.609
  557TIP3    H2 1633   6.291   2.578   0.607
  558TIP3   OH2 1634   6.506   2.144   0.519
  558TIP3    H1 1635   6.425   2.199   0.514
  558TIP3    H2 1636   6.517   2.115   0.427
  559TIP3   OH2 1637   6.174   2.026   0.807
  559TIP3    H1 1638   6.172   2.110   0.856
  559TIP3    H2 1639   6.086   2.028   0.763
  560TIP3   OH2 1640   5.169   1.970   0.316
  560TIP3    H1 1641   5.132   1.910   0.249
  560TIP3    H2 1642   5.252   1.923   0.341
  561TIP3   OH2 1643   5.309   2.383   0.460
  561TIP3    H1 1644   5.295   2.348   0.371
  561TIP3    H2 1645   5.400   2.353   0.478
  562TIP3   OH2 1646   5.316   1.953   0.665
  562TIP3    H1 1647   5.349   1.930   0.576
  562TIP3    H2 1648   5.360   2.039   0.683
  563TIP3   OH2 1649   5.851   2.587   0.447
  563TIP3    H1 1650   5.831   2.669   0.495
  563TIP3    H2 1651   5.827   2.516   0.510
  564TIP3   OH2 1652   5.457   2.508   0.989
  564TIP3    H1 1653   5.396   2.571   1.033
  564TIP3    H2 1654   5.393   2.455   0.937
  565TIP3   OH2 1655   5.213   2.064   1.094
  565TIP3    H1 1656   5.215   2.153   1.134
  565TIP3    H2 1657   5.117   2.045   1.098
  566TIP3   OH2 1658   5.528   2.526  -0.013
  566TIP3    H1 1659   5.606   2.571   0.024
  566TIP3    H2 1660   5.460   2.594  -0.005
  567TIP3   OH2 1661   5.251   2.677   1.075
  567TIP3    H1 1662   5.217   2.678   0.983
  567TIP3    H2 1663   5.170   2.654   1.127
  568TIP3   OH2 1664   5.038   1.807   0.128
  568TIP3    H1 1665   5.000   1.861   0.055
  568TIP3    H2 1666   4.961   1.751   0.146
  569TIP3   OH2 1667   4.828   2.209   1.022
  569TIP3    H1 1668   4.763   2.187   0.951
  569TIP3    H2 1669   4.866   2.121   1.044
  570TIP3   OH2 1670   4.684   2.399   0.657
  570TIP3    H1 1671   4.779   2.391   0.642
  570TIP3    H2 1672   4.680   2.479   0.711
  571TIP3   OH2 1673   6.552   2.849   0.714
  571TIP3    H1 1674   6.551   2.752   0.723
  571TIP3    H2 1675   6.467   2.872   0.757
  572TIP3   OH2 1676   5.655   2.635   0.847
  572TIP3    H1 1677   5.652   2.728   0.878
  572TIP3    H2 1678   5.582   2.596   0.899
  573TIP3   OH2 1679   4.845   2.614   0.183
  573TIP3    H1 1680   4.901   2.607   0.264
  573TIP3    H2 1681   4.799   2.528   0.186
  574TIP3   OH2 1682   6.442   1.998   0.987
  574TIP3    H1 1683   6.363   2.007   0.931
  574TIP3    H2 1684   6.455   1.901   0.981
  575TIP3   OH2 1685   5.033   2.391   1.010
  575TIP3    H1 1686   5.083   2.373   1.092
  575TIP3    H2 1687   4.959   2.327   1.017
  576TIP3   OH2 1688   5.415   1.200   0.791
  576TIP3    H1 1689   5.321   1.192   0.768
  576TIP3    H2 1690   5.415   1.287   0.836
  577TIP3   OH2 1691   5.968   1.341   0.989
  577TIP3    H1 1692   6.032   1.302   1.051
  577TIP3    H2 1693   5.883   1.306   1.021
  578TIP3   OH2 1694   6.204   1.764   0.908
  578TIP3    H1 1695   6.147   1.753   0.988
  578TIP3    H2 1696   6.177   1.852   0.875
  579TIP3   OH2 1697   5.368   1.733   0.814
  579TIP3    H1 1698   5.318   1.754   0.895
  579TIP3    H2 1699   5.352   1.813   0.760
  580TIP3   OH2 1700   5.257   1.614   0.324
  580TIP3    H1 1701   5.162   1.614   0.347
  580TIP3    H2 1702   5.253   1.593   0.229
  581TIP3   OH2 1703   5.914   1.979   1.145
  581TIP3    H1 1704   5.894   1.904   1.205
  581TIP3    H2 1705   6.010   1.989   1.162
  582TIP3   OH2 1706   5.184   1.759   1.022
  582TIP3    H1 1707   5.219   1.821   1.087
  582TIP3    H2 1708   5.174   1.677   1.074
  583TIP3   OH2 1709   4.759   1.286   0.649
  583TIP3    H1 1710   4.844   1.325   0.675
  583TIP3    H2 1711   4.758   1.290   0.551
  584TIP3   OH2 1712   5.906   1.964   0.712
  584TIP3    H1 1713   5.921   1.883   0.661
  584TIP3    H2 1714   5.876   1.924   0.797
  585TIP3   OH2 1715   2.526   7.441   6.415
  585TIP3    H1 1716   2.448   7.432   6.473
  585TIP3    H2 1717   2.594   7.397   6.469
  586TIP3   OH2 1718   5.011   1.535   0.402
  586TIP3    H1 1719   4.915   1.544   0.381
  586TIP3    H2 1720   5.030   1.444   0.373
  587TIP3   OH2 1721   5.195   2.312   1.231
  587TIP3    H1 1722   5.276   2.342   1.278
  587TIP3    H2 1723   5.131   2.314   1.305
  588TIP3   OH2 1724   5.654   1.770   0.497
  588TIP3    H1 1725   5.721   1.719   0.449
  588TIP3    H2 1726   5.662   1.730   0.585
  589TIP3   OH2 1727   5.637   1.660   0.776
  589TIP3    H1 1728   5.548   1.698   0.790
  589TIP3    H2 1729   5.695   1.720   0.826
  590TIP3   OH2 1730   5.381   2.067  -0.028
  590TIP3    H1 1731   5.298   2.036   0.003
  590TIP3    H2 1732   5.406   2.129   0.045
  591TIP3   OH2 1733   6.263   2.284   0.509
  591TIP3    H1 1734   6.295   2.321   0.424
  591TIP3    H2 1735   6.177   2.244   0.483
  592TIP3   OH2 1736   5.775   2.373   0.867
  592TIP3    H1 1737   5.796   2.351   0.959
  592TIP3    H2 1738   5.734   2.461   0.874
  593TIP3   OH2 1739   5.063   2.075   0.549
  593TIP3    H1 1740   5.097   2.046   0.462
  593TIP3    H2 1741   5.108   2.015   0.609
  594TIP3   OH2 1742   4.944   1.998   1.161
  594TIP3    H1 1743   4.967   1.980   1.255
  594TIP3    H2 1744   4.878   1.930   1.142
  595TIP3   OH2 1745   5.673   2.110   1.178
  595TIP3    H1 1746   5.613   2.052   1.128
  595TIP3    H2 1747   5.760   2.074   1.153
  596TIP3   OH2 1748   5.935   2.631   0.765
  596TIP3    H1 1749   5.838   2.629   0.775
  596TIP3    H2 1750   5.960   2.684   0.843
  597TIP3   OH2 1751   6.564   2.564   0.750
  597TIP3    H1 1752   6.466   2.555   0.741
  597TIP3    H2 1753   6.591   2.531   0.661
  598TIP3   OH2 1754   6.030   2.153   0.428
  598TIP3    H1 1755   5.934   2.136   0.433
  598TIP3    H2 1756   6.062   2.062   0.417
  599TIP3   OH2 1757   5.152   2.385   0.179
  599TIP3    H1 1758   5.155   2.467   0.125
  599TIP3    H2 1759   5.060   2.360   0.167
  600TIP3   OH2 1760   4.738   1.681  -0.101
  600TIP3    H1 1761   4.780   1.767  -0.084
  600TIP3    H2 1762   4.657   1.685  -0.048
  601TIP3   OH2 1763   5.322   2.180   0.215
  601TIP3    H1 1764   5.264   2.254   0.189
  601TIP3    H2 1765   5.260   2.116   0.252
  602TIP3   OH2 1766   5.435   2.723   0.640
  602TIP3    H1 1767   5.474   2.796   0.588
  602TIP3    H2 1768   5.513   2.688   0.685
  603TIP3   OH2 1769   5.098   2.618   0.047
  603TIP3    H1 1770   5.005   2.631   0.071
  603TIP3    H2 1771   5.126   2.711   0.031
  604TIP3   OH2 1772   5.822   2.353   0.599
  604TIP3    H1 1773   5.813   2.353   0.697
  604TIP3    H2 1774   5.904   2.302   0.587
  605TIP3   OH2 1775   6.073   2.891   0.652
  605TIP3    H1 1776   5.992   2.838   0.641
  605TIP3    H2 1777   6.058   2.964   0.587
  606TIP3   OH2 1778   5.155   1.504   1.170
  606TIP3    H1 1779   5.057   1.498   1.170
  606TIP3    H2 1780   5.179   1.431   1.230
  607TIP3   OH2 1781   4.870   2.586   0.801
  607TIP3    H1 1782   4.926   2.511   0.827
  607TIP3    H2 1783   4.906   2.656   0.856
  608TIP3   OH2 1784   5.074   2.221  -0.134
  608TIP3    H1 1785   5.152   2.172  -0.160
  608TIP3    H2 1786   5.088   2.304  -0.182
  609TIP3   OH2 1787   4.848   1.932  -0.032
  609TIP3    H1 1788   4.781   1.977   0.024
  609TIP3    H2 1789   4.859   1.999  -0.102
  610TIP3   OH2 1790   5.979   1.589   0.866
  610TIP3    H1 1791   6.075   1.596   0.860
  610TIP3    H2 1792   5.970   1.499   0.904
  611TIP3   OH2 1793   5.829   1.814   0.923
  611TIP3    H1 1794   5.860   1.855   1.006
  611TIP3    H2 1795   5.884   1.732   0.919
  612TIP3   OH2 1796   6.470   1.730   0.928
  612TIP3    H1 1797   6.371   1.727   0.932
  612TIP3    H2 1798   6.484   1.679   0.847
  613TIP3   OH2 1799   6.098   1.886   0.387
  613TIP3    H1 1800   6.096   1.899   0.290
  613TIP3    H2 1801   6.165   1.817   0.399
  614TIP3   OH2 1802   4.821   2.147  -0.206
  614TIP3    H1 1803   4.901   2.190  -0.168
  614TIP3    H2 1804   4.846   2.146  -0.301
  615TIP3   OH2 1805   6.042   2.871   0.296
  615TIP3    H1 1806   6.014   2.855   0.204
  615TIP3    H2 1807   6.139   2.878   0.280
  616TIP3   OH2 1808   5.153   1.133   0.751
  616TIP3    H1 1809   5.145   1.061   0.687
  616TIP3    H2 1810   5.144   1.083   0.835
  617TIP3   OH2 1811   4.712   2.352   0.155
  617TIP3    H1 1812   4.634   2.381   0.203
  617TIP3    H2 1813   4.692   2.387   0.066
  618TIP3   OH2 1814   4.864   2.895   1.224
  618TIP3    H1 1815   4.951   2.895   1.269
  618TIP3    H2 1816   4.845   2.800   1.220
  619TIP3   OH2 1817   5.343   2.857   1.267
  619TIP3    H1 1818   5.438   2.840   1.272
  619TIP3    H2 1819   5.318   2.798   1.193
  620TIP3   OH2 1820   5.985   2.766   1.001
  620TIP3    H1 1821   5.975   2.695   1.068
  620TIP3    H2 1822   6.063   2.815   1.034
  621TIP3   OH2 1823   4.994   2.299   1.422
  621TIP3    H1 1824   5.008   2.203   1.427
  621TIP3    H2 1825   4.907   2.303   1.376
  622TIP3   OH2 1826   5.601   2.386   1.196
  622TIP3    H1 1827   5.560   2.405   1.109
  622TIP3    H2 1828   5.632   2.293   1.186
  623TIP3   OH2 1829   6.094   2.394   0.803
  623TIP3    H1 1830   6.169   2.438   0.759
  623TIP3    H2 1831   6.023   2.460   0.788
  624TIP3   OH2 1832   5.115   2.027   1.407
  624TIP3    H1 1833   5.197   1.989   1.374
  624TIP3    H2 1834   5.143   2.067   1.492
  625TIP3   OH2 1835   5.447   1.917   1.065
  625TIP3    H1 1836   5.371   1.979   1.065
  625TIP3    H2 1837   5.500   1.953   0.990
  626TIP3   OH2 1838   5.968   2.322   1.200
  626TIP3    H1 1839   6.044   2.293   1.149
  626TIP3    H2 1840   5.962   2.255   1.270
  627TIP3   OH2 1841   5.571   1.708   1.192
  627TIP3    H1 1842   5.574   1.628   1.136
  627TIP3    H2 1843   5.529   1.773   1.132
  628TIP3   OH2 1844   5.576   1.493   1.002
  628TIP3    H1 1845   5.605   1.535   0.918
  628TIP3    H2 1846   5.483   1.470   0.983
  629TIP3   OH2 1847   5.599   2.031   0.876
  629TIP3    H1 1848   5.682   2.037   0.829
  629TIP3    H2 1849   5.543   2.096   0.828
  630TIP3   OH2 1850   6.184   1.999   1.254
  630TIP3    H1 1851   6.226   1.912   1.259
  630TIP3    H2 1852   6.254   2.053   1.214
  631TIP3   OH2 1853   6.224   2.253   0.992
  631TIP3    H1 1854   6.167   2.305   0.931
  631TIP3    H2 1855   6.312   2.270   0.951
  632TIP3   OH2 1856   5.446   1.821   1.422
  632TIP3    H1 1857   5.381   1.748   1.435
  632TIP3    H2 1858   5.483   1.797   1.334
  633TIP3   OH2 1859   5.710   1.254   1.067
  633TIP3    H1 1860   5.661   1.337   1.046
  633TIP3    H2 1861   5.639   1.187   1.056
  634TIP3   OH2 1862   5.831   1.759   1.284
  634TIP3    H1 1863   5.815   1.746   1.379
  634TIP3    H2 1864   5.743   1.734   1.249
  635TIP3   OH2 1865   6.077   1.727   1.145
  635TIP3    H1 1866   5.999   1.715   1.203
  635TIP3    H2 1867   6.149   1.685   1.196
  636TIP3   OH2 1868   6.305   1.648   1.289
  636TIP3    H1 1869   6.315   1.552   1.308
  636TIP3    H2 1870   6.299   1.688   1.378
  637TIP3   OH2 1871   5.291   1.602   1.477
  637TIP3    H1 1872   5.294   1.511   1.441
  637TIP3    H2 1873   5.332   1.588   1.564
  638TIP3   OH2 1874   5.782   1.276   1.337
  638TIP3    H1 1875   5.770   1.186   1.348
  638TIP3    H2 1876   5.760   1.284   1.239
  639TIP3   OH2 1877   5.886   1.506   1.486
  639TIP3    H1 1878   5.876   1.450   1.406
  639TIP3    H2 1879   5.800   1.550   1.492
  640TIP3   OH2 1880   4.557   2.084  -0.189
  640TIP3    H1 1881   4.647   2.121  -0.198
  640TIP3    H2 1882   4.567   2.000  -0.234
  641TIP3   OH2 1883   4.479   2.707   0.210
  641TIP3    H1 1884   4.415   2.641   0.175
  641TIP3    H2 1885   4.526   2.651   0.276
  642TIP3   OH2 1886   4.612   2.561   0.400
  642TIP3    H1 1887   4.607   2.483   0.458
  642TIP3    H2 1888   4.671   2.618   0.454
  643TIP3   OH2 1889   6.307   2.890   0.239
  643TIP3    H1 1890   6.354   2.949   0.301
  643TIP3    H2 1891   6.376   2.873   0.172
  644TIP3   OH2 1892   6.381   2.982   0.496
  644TIP3    H1 1893   6.331   2.899   0.497
  644TIP3    H2 1894   6.467   2.953   0.529
  645TIP3   OH2 1895   6.422   2.654   1.055
  645TIP3    H1 1896   6.349   2.662   1.119
  645TIP3    H2 1897   6.462   2.743   1.058
  646TIP3   OH2 1898   6.427   2.379   0.313
  646TIP3    H1 1899   6.466   2.333   0.237
  646TIP3    H2 1900   6.409   2.466   0.271
  647TIP3   OH2 1901   6.248   2.724   0.510
  647TIP3    H1 1902   6.175   2.771   0.554
  647TIP3    H2 1903   6.201   2.680   0.436
  648TIP3   OH2 1904   4.804   1.963   0.773
  648TIP3    H1 1905   4.802   1.933   0.680
  648TIP3    H2 1906   4.902   1.965   0.789
  649TIP3   OH2 1907   6.471   2.314   0.882
  649TIP3    H1 1908   6.542   2.248   0.867
  649TIP3    H2 1909   6.489   2.379   0.812
  650TIP3   OH2 1910   6.667   2.121   0.898
  650TIP3    H1 1911   6.586   2.080   0.937
  650TIP3    H2 1912   6.734   2.054   0.920
  651TIP3   OH2 1913   6.414   1.942   0.678
  651TIP3    H1 1914   6.324   1.966   0.706
  651TIP3    H2 1915   6.437   2.016   0.618
  652TIP3   OH2 1916   5.023   1.646   1.471
  652TIP3    H1 1917   5.120   1.652   1.459
  652TIP3    H2 1918   5.008   1.555   1.444
  653TIP3   OH2 1919   6.834   1.544   1.216
  653TIP3    H1 1920   6.893   1.481   1.172
  653TIP3    H2 1921   6.797   1.596   1.141
  654TIP3   OH2 1922   4.990   1.352   0.778
  654TIP3    H1 1923   5.048   1.274   0.774
  654TIP3    H2 1924   5.055   1.425   0.775
  655TIP3   OH2 1925   4.783   1.617   0.857
  655TIP3    H1 1926   4.833   1.611   0.773
  655TIP3    H2 1927   4.812   1.703   0.889
  656TIP3   OH2 1928   6.716   1.689   1.026
  656TIP3    H1 1929   6.622   1.719   1.033
  656TIP3    H2 1930   6.706   1.626   0.954
  657TIP3   OH2 1931   4.699   1.211   0.393
  657TIP3    H1 1932   4.614   1.169   0.415
  657TIP3    H2 1933   4.701   1.208   0.297
  658TIP3   OH2 1934   4.994   1.220   1.178
  658TIP3    H1 1935   4.939   1.199   1.255
  658TIP3    H2 1936   4.926   1.233   1.109
  659TIP3   OH2 1937   5.030   2.629   1.241
  659TIP3    H1 1938   4.939   2.601   1.224
  659TIP3    H2 1939   5.040   2.609   1.335
  660TIP3   OH2 1940   5.208   2.662   0.789
  660TIP3    H1 1941   5.162   2.738   0.748
  660TIP3    H2 1942   5.295   2.673   0.745
  661TIP3   OH2 1943   5.650   2.901   0.929
  661TIP3    H1 1944   5.694   2.903   1.016
  661TIP3    H2 1945   5.713   2.953   0.875
  662TIP3   OH2 1946   5.824   3.055   0.788
  662TIP3    H1 1947   5.892   3.010   0.735
  662TIP3    H2 1948   5.879   3.109   0.848
  663TIP3   OH2 1949   4.883   2.916   0.813
  663TIP3    H1 1950   4.794   2.951   0.789
  663TIP3    H2 1951   4.895   2.956   0.899
  664TIP3   OH2 1952   5.121   2.895   0.672
  664TIP3    H1 1953   5.034   2.908   0.714
  664TIP3    H2 1954   5.104   2.926   0.581
  665TIP3   OH2 1955   5.546   2.922   0.475
  665TIP3    H1 1956   5.489   2.934   0.398
  665TIP3    H2 1957   5.556   3.014   0.506
  666TIP3   OH2 1958   5.813   2.863   0.528
  666TIP3    H1 1959   5.719   2.880   0.508
  666TIP3    H2 1960   5.856   2.932   0.474
  667TIP3   OH2 1961   6.022   3.084   0.463
  667TIP3    H1 1962   6.017   3.167   0.411
  667TIP3    H2 1963   6.029   3.017   0.392
  668TIP3   OH2 1964   4.794   2.709   0.558
  668TIP3    H1 1965   4.824   2.684   0.649
  668TIP3    H2 1966   4.866   2.666   0.506
  669TIP3   OH2 1967   4.988   2.583   0.415
  669TIP3    H1 1968   5.007   2.498   0.462
  669TIP3    H2 1969   5.079   2.619   0.406
  670TIP3   OH2 1970   5.253   2.678   0.421
  670TIP3    H1 1971   5.288   2.591   0.396
  670TIP3    H2 1972   5.303   2.694   0.503
  671TIP3   OH2 1973   4.576   2.472  -0.042
  671TIP3    H1 1974   4.495   2.439  -0.084
  671TIP3    H2 1975   4.573   2.565  -0.067
  672TIP3   OH2 1976   5.278   1.328   1.435
  672TIP3    H1 1977   5.255   1.241   1.472
  672TIP3    H2 1978   5.375   1.326   1.448
  673TIP3   OH2 1979   5.540   1.327   1.526
  673TIP3    H1 1980   5.623   1.310   1.477
  673TIP3    H2 1981   5.539   1.254   1.591
  674TIP3   OH2 1982   6.355   1.375   1.329
  674TIP3    H1 1983   6.369   1.347   1.422
  674TIP3    H2 1984   6.447   1.369   1.295
  675TIP3   OH2 1985   6.300   2.924   0.814
  675TIP3    H1 1986   6.224   2.883   0.767
  675TIP3    H2 1987   6.291   3.015   0.783
  676TIP3   OH2 1988   6.829   2.235   0.355
  676TIP3    H1 1989   6.870   2.158   0.398
  676TIP3    H2 1990   6.906   2.290   0.335
  677TIP3   OH2 1991   6.972   2.386   0.568
  677TIP3    H1 1992   6.979   2.462   0.629
  677TIP3    H2 1993   6.885   2.349   0.594
  678TIP3   OH2 1994   7.040   2.941   0.588
  678TIP3    H1 1995   7.013   2.910   0.501
  678TIP3    H2 1996   6.957   2.925   0.639
  679TIP3   OH2 1997   6.631   2.466   0.504
  679TIP3    H1 1998   6.564   2.436   0.440
  679TIP3    H2 1999   6.672   2.381   0.530
  680TIP3   OH2 2000   6.477   2.602   0.161
  680TIP3    H1 2001   6.574   2.607   0.161
  680TIP3    H2 2002   6.453   2.687   0.200
  681TIP3   OH2 2003   6.834   2.667   0.487
  681TIP3    H1 2004   6.876   2.653   0.574
  681TIP3    H2 2005   6.766   2.595   0.487
  682TIP3   OH2 2006   6.973   2.603   0.735
  682TIP3    H1 2007   7.059   2.580   0.777
  682TIP3    H2 2008   6.912   2.594   0.811
  683TIP3   OH2 2009   6.738   2.258   0.654
  683TIP3    H1 2010   6.746   2.222   0.744
  683TIP3    H2 2011   6.681   2.191   0.611
  684TIP3   OH2 2012   6.663   2.827   0.320
  684TIP3    H1 2013   6.730   2.776   0.370
  684TIP3    H2 2014   6.677   2.919   0.348
  685TIP3   OH2 2015   6.657   3.145   0.705
  685TIP3    H1 2016   6.738   3.135   0.759
  685TIP3    H2 2017   6.625   3.054   0.700
  686TIP3   OH2 2018   6.780   2.558   0.922
  686TIP3    H1 2019   6.792   2.463   0.933
  686TIP3    H2 2020   6.695   2.561   0.872
  687TIP3   OH2 2021   6.941   2.287   0.887
  687TIP3    H1 2022   6.938   2.191   0.898
  687TIP3    H2 2023   6.941   2.318   0.980
  688TIP3   OH2 2024   6.848   1.925   0.960
  688TIP3    H1 2025   6.941   1.899   0.969
  688TIP3    H2 2026   6.803   1.846   0.998
  689TIP3   OH2 2027   6.822   2.892   0.743
  689TIP3    H1 2028   6.732   2.866   0.714
  689TIP3    H2 2029   6.824   2.856   0.832
  690TIP3   OH2 2030   6.671   3.108   0.349
  690TIP3    H1 2031   6.618   3.150   0.279
  690TIP3    H2 2032   6.688   3.185   0.406
  691TIP3   OH2 2033   0.275   3.431   1.347
  691TIP3    H1 2034   0.348   3.380   1.311
  691TIP3    H2 2035   0.320   3.502   1.397
  692TIP3   OH2 2036  -0.047   3.841   1.362
  692TIP3    H1 2037   0.006   3.763   1.339
  692TIP3    H2 2038  -0.052   3.832   1.459
  693TIP3   OH2 2039   0.835   2.645   1.670
  693TIP3    H1 2040   0.864   2.720   1.727
  693TIP3    H2 2041   0.909   2.644   1.605
  694TIP3   OH2 2042   0.893   2.837   1.876
  694TIP3    H1 2043   0.826   2.899   1.840
  694TIP3    H2 2044   0.935   2.891   1.945
  695TIP3   OH2 2045   0.339   3.647   1.510
  695TIP3    H1 2046   0.248   3.629   1.543
  695TIP3    H2 2047   0.326   3.732   1.463
  696TIP3   OH2 2048   0.606   2.530   1.817
  696TIP3    H1 2049   0.551   2.588   1.872
  696TIP3    H2 2050   0.684   2.583   1.798
  697TIP3   OH2 2051   0.560   3.557   1.846
  697TIP3    H1 2052   0.551   3.478   1.787
  697TIP3    H2 2053   0.543   3.630   1.783
  698TIP3   OH2 2054   0.758   3.198   1.705
  698TIP3    H1 2055   0.675   3.251   1.701
  698TIP3    H2 2056   0.786   3.201   1.611
  699TIP3   OH2 2057   0.437   3.073   1.984
  699TIP3    H1 2058   0.435   3.157   2.033
  699TIP3    H2 2059   0.349   3.076   1.941
  700TIP3   OH2 2060   0.085   3.634   1.606
  700TIP3    H1 2061   0.075   3.708   1.667
  700TIP3    H2 2062   0.074   3.556   1.665
  701TIP3   OH2 2063  -0.292   3.528   2.187
  701TIP3    H1 2064  -0.329   3.605   2.233
  701TIP3    H2 2065  -0.350   3.526   2.108
  702TIP3   OH2 2066   0.797   3.898   1.889
  702TIP3    H1 2067   0.794   3.801   1.900
  702TIP3    H2 2068   0.713   3.923   1.934
  703TIP3   OH2 2069  -0.089   3.675   2.028
  703TIP3    H1 2070  -0.092   3.770   2.054
  703TIP3    H2 2071  -0.165   3.639   2.076
  704TIP3   OH2 2072   0.687   3.024   2.161
  704TIP3    H1 2073   0.603   3.041   2.114
  704TIP3    H2 2074   0.688   2.927   2.165
  705TIP3   OH2 2075   0.466   2.811   2.082
  705TIP3    H1 2076   0.405   2.791   2.157
  705TIP3    H2 2077   0.431   2.895   2.049
  706TIP3   OH2 2078   0.165   3.027   2.317
  706TIP3    H1 2079   0.140   2.955   2.379
  706TIP3    H2 2080   0.258   3.039   2.340
  707TIP3   OH2 2081   0.175   3.050   1.894
  707TIP3    H1 2082   0.174   2.975   1.833
  707TIP3    H2 2083   0.141   3.007   1.974
  708TIP3   OH2 2084   0.483   4.251   1.983
  708TIP3    H1 2085   0.481   4.275   1.889
  708TIP3    H2 2086   0.562   4.299   2.015
  709TIP3   OH2 2087   0.534   3.347   1.682
  709TIP3    H1 2088   0.558   3.394   1.598
  709TIP3    H2 2089   0.445   3.310   1.659
  710TIP3   OH2 2090   0.031   3.419   2.041
  710TIP3    H1 2091   0.037   3.398   2.135
  710TIP3    H2 2092  -0.019   3.502   2.040
  711TIP3   OH2 2093  -0.078   3.154   2.349
  711TIP3    H1 2094  -0.118   3.128   2.263
  711TIP3    H2 2095   0.013   3.121   2.334
  712TIP3   OH2 2096   0.184   3.696   1.933
  712TIP3    H1 2097   0.091   3.671   1.947
  712TIP3    H2 2098   0.205   3.737   2.019
  713TIP3   OH2 2099   0.811   3.607   1.929
  713TIP3    H1 2100   0.713   3.602   1.920
  713TIP3    H2 2101   0.837   3.576   1.839
  714TIP3   OH2 2102   0.308   3.226   1.610
  714TIP3    H1 2103   0.236   3.174   1.648
  714TIP3    H2 2104   0.325   3.177   1.528
  715TIP3   OH2 2105  -0.293   3.774   1.821
  715TIP3    H1 2106  -0.260   3.861   1.795
  715TIP3    H2 2107  -0.211   3.724   1.835
  716TIP3   OH2 2108   0.108   3.406   1.776
  716TIP3    H1 2109   0.070   3.399   1.866
  716TIP3    H2 2110   0.187   3.351   1.783
  717TIP3   OH2 2111   0.317   3.939   1.828
  717TIP3    H1 2112   0.248   3.871   1.819
  717TIP3    H2 2113   0.300   3.998   1.751
  718TIP3   OH2 2114   0.113   2.862   2.098
  718TIP3    H1 2115   0.113   2.932   2.166
  718TIP3    H2 2116   0.140   2.787   2.153
  719TIP3   OH2 2117   0.723   2.739   2.088
  719TIP3    H1 2118   0.626   2.752   2.084
  719TIP3    H2 2119   0.753   2.774   2.002
  720TIP3   OH2 2120   0.342   3.909   1.421
  720TIP3    H1 2121   0.306   3.947   1.339
  720TIP3    H2 2122   0.438   3.928   1.406
  721TIP3   OH2 2123  -0.341   3.947   2.384
  721TIP3    H1 2124  -0.277   3.884   2.419
  721TIP3    H2 2125  -0.421   3.891   2.376
  722TIP3   OH2 2126   0.228   3.814   2.181
  722TIP3    H1 2127   0.221   3.741   2.246
  722TIP3    H2 2128   0.310   3.860   2.209
  723TIP3   OH2 2129  -0.124   3.432   2.372
  723TIP3    H1 2130  -0.184   3.449   2.296
  723TIP3    H2 2131  -0.106   3.336   2.362
  724TIP3   OH2 2132   0.347   3.436   1.981
  724TIP3    H1 2133   0.418   3.487   1.936
  724TIP3    H2 2134   0.269   3.489   1.960
  725TIP3   OH2 2135   0.219   3.368   2.379
  725TIP3    H1 2136   0.292   3.336   2.326
  725TIP3    H2 2137   0.211   3.301   2.448
  726TIP3   OH2 2138  -0.120   3.104   2.079
  726TIP3    H1 2139  -0.072   3.061   2.007
  726TIP3    H2 2140  -0.180   3.161   2.028
  727TIP3   OH2 2141   0.431   3.041   2.428
  727TIP3    H1 2142   0.481   2.958   2.439
  727TIP3    H2 2143   0.499   3.101   2.394
  728TIP3   OH2 2144   0.476   3.294   2.168
  728TIP3    H1 2145   0.417   3.347   2.110
  728TIP3    H2 2146   0.563   3.316   2.127
  729TIP3   OH2 2147  -0.258   2.845   2.558
  729TIP3    H1 2148  -0.337   2.853   2.614
  729TIP3    H2 2149  -0.293   2.812   2.475
  730TIP3   OH2 2150   0.087   2.806   2.460
  730TIP3    H1 2151   0.079   2.805   2.557
  730TIP3    H2 2152   0.009   2.753   2.438
  731TIP3   OH2 2153   0.321   2.754   2.310
  731TIP3    H1 2154   0.249   2.758   2.377
  731TIP3    H2 2155   0.397   2.725   2.364
  732TIP3   OH2 2156   0.557   2.698   2.463
  732TIP3    H1 2157   0.564   2.602   2.481
  732TIP3    H2 2158   0.548   2.736   2.553
  733TIP3   OH2 2159   0.119   2.532   2.625
  733TIP3    H1 2160   0.072   2.446   2.632
  733TIP3    H2 2161   0.045   2.594   2.642
  734TIP3   OH2 2162   0.593   4.002   1.379
  734TIP3    H1 2163   0.627   4.042   1.461
  734TIP3    H2 2164   0.647   4.043   1.311
  735TIP3   OH2 2165   0.622   4.024   1.663
  735TIP3    H1 2166   0.579   3.936   1.655
  735TIP3    H2 2167   0.701   3.999   1.712
  736TIP3   OH2 2168   0.671   3.697   2.234
  736TIP3    H1 2169   0.596   3.708   2.297
  736TIP3    H2 2170   0.711   3.786   2.236
  737TIP3   OH2 2171   0.668   3.472   1.482
  737TIP3    H1 2172   0.718   3.402   1.436
  737TIP3    H2 2173   0.670   3.546   1.418
  738TIP3   OH2 2174   0.503   3.775   1.686
  738TIP3    H1 2175   0.428   3.812   1.735
  738TIP3    H2 2176   0.457   3.725   1.614
  739TIP3   OH2 2177   0.718   3.360   2.058
  739TIP3    H1 2178   0.791   3.295   2.047
  739TIP3    H2 2179   0.740   3.428   1.992
  740TIP3   OH2 2180   0.902   3.164   2.075
  740TIP3    H1 2181   0.827   3.114   2.113
  740TIP3    H2 2182   0.974   3.100   2.088
  741TIP3   OH2 2183   0.603   2.832   1.611
  741TIP3    H1 2184   0.673   2.881   1.563
  741TIP3    H2 2185   0.616   2.872   1.699
  742TIP3   OH2 2186   0.656   2.977   1.831
  742TIP3    H1 2187   0.579   3.015   1.877
  742TIP3    H2 2188   0.692   3.056   1.784
  743TIP3   OH2 2189   1.114   2.565   2.381
  743TIP3    H1 2190   1.169   2.496   2.337
  743TIP3    H2 2191   1.080   2.614   2.303
  744TIP3   OH2 2192   0.978   2.699   2.190
  744TIP3    H1 2193   0.891   2.739   2.211
  744TIP3    H2 2194   0.948   2.632   2.124
  745TIP3   OH2 2195   0.172   3.865   1.024
  745TIP3    H1 2196   0.236   3.796   1.008
  745TIP3    H2 2197   0.217   3.924   1.087
  746TIP3   OH2 2198  -0.448   3.638   2.001
  746TIP3    H1 2199  -0.470   3.728   2.034
  746TIP3    H2 2200  -0.390   3.663   1.926
  747TIP3   OH2 2201  -0.082   3.938   2.109
  747TIP3    H1 2202  -0.051   3.939   2.201
  747TIP3    H2 2203  -0.010   3.987   2.064
  748TIP3   OH2 2204   0.104   4.081   1.964
  748TIP3    H1 2205   0.158   4.019   1.913
  748TIP3    H2 2206   0.170   4.146   1.989
  749TIP3   OH2 2207   0.880   2.472   2.061
  749TIP3    H1 2208   0.788   2.469   2.031
  749TIP3    H2 2209   0.907   2.378   2.057
  750TIP3   OH2 2210  -0.227   4.069   1.544
  750TIP3    H1 2211  -0.311   4.022   1.530
  750TIP3    H2 2212  -0.209   4.054   1.638
  751TIP3   OH2 2213   0.066   3.907   1.687
  751TIP3    H1 2214  -0.013   3.954   1.718
  751TIP3    H2 2215   0.113   3.976   1.637
  752TIP3   OH2 2216   0.269   4.098   1.609
  752TIP3    H1 2217   0.259   4.185   1.564
  752TIP3    H2 2218   0.301   4.041   1.536
  753TIP3   OH2 2219   0.608   2.426   2.495
  753TIP3    H1 2220   0.625   2.394   2.586
  753TIP3    H2 2221   0.695   2.415   2.453
  754TIP3   OH2 2222   0.546   3.982   1.992
  754TIP3    H1 2223   0.470   3.951   1.939
  754TIP3    H2 2224   0.526   4.078   1.993
  755TIP3   OH2 2225   1.818   3.351   0.754
  755TIP3    H1 2226   1.787   3.441   0.734
  755TIP3    H2 2227   1.744   3.299   0.719
  756TIP3   OH2 2228   1.818   3.350   1.134
  756TIP3    H1 2229   1.847   3.322   1.222
  756TIP3    H2 2230   1.775   3.271   1.099
  757TIP3   OH2 2231   1.115   3.252   1.503
  757TIP3    H1 2232   1.149   3.180   1.559
  757TIP3    H2 2233   1.196   3.297   1.477
  758TIP3   OH2 2234   2.061   3.652   0.816
  758TIP3    H1 2235   2.042   3.584   0.882
  758TIP3    H2 2236   2.088   3.727   0.872
  759TIP3   OH2 2237   1.088   3.660   1.227
  759TIP3    H1 2238   1.084   3.562   1.231
  759TIP3    H2 2239   1.184   3.671   1.220
  760TIP3   OH2 2240   0.890   3.186   1.188
  760TIP3    H1 2241   0.940   3.110   1.223
  760TIP3    H2 2242   0.849   3.139   1.112
  761TIP3   OH2 2243   1.708   4.116   0.833
  761TIP3    H1 2244   1.754   4.044   0.785
  761TIP3    H2 2245   1.699   4.078   0.921
  762TIP3   OH2 2246   1.613   3.576   1.184
  762TIP3    H1 2247   1.652   3.500   1.138
  762TIP3    H2 2248   1.697   3.622   1.208
  763TIP3   OH2 2249   2.628   2.896   1.181
  763TIP3    H1 2250   2.658   2.979   1.223
  763TIP3    H2 2251   2.649   2.913   1.088
  764TIP3   OH2 2252   2.027   3.077   1.215
  764TIP3    H1 2253   2.068   2.990   1.234
  764TIP3    H2 2254   1.994   3.062   1.125
  765TIP3   OH2 2255   1.361   2.732   1.173
  765TIP3    H1 2256   1.334   2.798   1.106
  765TIP3    H2 2257   1.305   2.656   1.149
  766TIP3   OH2 2258   2.068   2.839   0.806
  766TIP3    H1 2259   2.140   2.818   0.870
  766TIP3    H2 2260   2.121   2.869   0.730
  767TIP3   OH2 2261   1.006   2.961   1.293
  767TIP3    H1 2262   1.083   2.906   1.316
  767TIP3    H2 2263   0.973   2.921   1.210
  768TIP3   OH2 2264   1.435   3.131   1.078
  768TIP3    H1 2265   1.530   3.112   1.093
  768TIP3    H2 2266   1.401   3.043   1.052
  769TIP3   OH2 2267   2.702   3.104   1.351
  769TIP3    H1 2268   2.618   3.151   1.330
  769TIP3    H2 2269   2.716   3.133   1.442
  770TIP3   OH2 2270   1.362   2.721   1.617
  770TIP3    H1 2271   1.301   2.755   1.547
  770TIP3    H2 2272   1.307   2.739   1.696
  771TIP3   OH2 2273   1.707   3.571   0.625
  771TIP3    H1 2274   1.666   3.554   0.539
  771TIP3    H2 2275   1.664   3.655   0.650
  772TIP3   OH2 2276   1.470   3.498   1.412
  772TIP3    H1 2277   1.406   3.564   1.447
  772TIP3    H2 2278   1.509   3.546   1.336
  773TIP3   OH2 2279   2.278   2.830   0.978
  773TIP3    H1 2280   2.260   2.784   1.061
  773TIP3    H2 2281   2.327   2.909   1.009
  774TIP3   OH2 2282   1.234   2.829   1.395
  774TIP3    H1 2283   1.290   2.906   1.421
  774TIP3    H2 2284   1.287   2.794   1.320
  775TIP3   OH2 2285   1.296   3.691   1.509
  775TIP3    H1 2286   1.270   3.776   1.469
  775TIP3    H2 2287   1.216   3.674   1.563
  776TIP3   OH2 2288   2.130   3.896   0.983
  776TIP3    H1 2289   2.041   3.887   1.024
  776TIP3    H2 2290   2.121   3.982   0.938
  777TIP3   OH2 2291   2.420   2.796   1.347
  777TIP3    H1 2292   2.332   2.823   1.315
  777TIP3    H2 2293   2.480   2.829   1.277
  778TIP3   OH2 2294   1.721   2.436   1.322
  778TIP3    H1 2295   1.705   2.343   1.350
  778TIP3    H2 2296   1.650   2.480   1.373
  779TIP3   OH2 2297   1.832   3.941   0.658
  779TIP3    H1 2298   1.881   3.858   0.638
  779TIP3    H2 2299   1.894   4.006   0.617
  780TIP3   OH2 2300   1.974   3.727   0.565
  780TIP3    H1 2301   1.939   3.647   0.524
  780TIP3    H2 2302   2.010   3.691   0.649
  781TIP3   OH2 2303   2.355   3.807   1.327
  781TIP3    H1 2304   2.343   3.730   1.268
  781TIP3    H2 2305   2.337   3.882   1.267
  782TIP3   OH2 2306   1.655   3.197   0.587
  782TIP3    H1 2307   1.575   3.250   0.564
  782TIP3    H2 2308   1.697   3.185   0.499
  783TIP3   OH2 2309   2.551   3.446   1.173
  783TIP3    H1 2310   2.467   3.497   1.178
  783TIP3    H2 2311   2.580   3.471   1.082
  784TIP3   OH2 2312   1.998   3.288   0.558
  784TIP3    H1 2313   1.942   3.310   0.636
  784TIP3    H2 2314   2.081   3.261   0.603
  785TIP3   OH2 2315   2.229   3.323   1.469
  785TIP3    H1 2316   2.226   3.407   1.518
  785TIP3    H2 2317   2.142   3.326   1.424
  786TIP3   OH2 2318   1.236   3.289   0.971
  786TIP3    H1 2319   1.178   3.222   0.932
  786TIP3    H2 2320   1.310   3.235   1.007
  787TIP3   OH2 2321   1.358   3.697   1.121
  787TIP3    H1 2322   1.333   3.653   1.038
  787TIP3    H2 2323   1.446   3.659   1.139
  788TIP3   OH2 2324   1.380   3.247   1.337
  788TIP3    H1 2325   1.392   3.234   1.241
  788TIP3    H2 2326   1.408   3.340   1.350
  789TIP3   OH2 2327   1.890   3.890   1.104
  789TIP3    H1 2328   1.875   3.971   1.156
  789TIP3    H2 2329   1.872   3.819   1.168
  790TIP3   OH2 2330   1.502   3.808   1.653
  790TIP3    H1 2331   1.441   3.871   1.698
  790TIP3    H2 2332   1.438   3.756   1.601
  791TIP3   OH2 2333   1.839   3.152   0.383
  791TIP3    H1 2334   1.896   3.213   0.434
  791TIP3    H2 2335   1.865   3.175   0.290
  792TIP3   OH2 2336   1.260   3.362   1.761
  792TIP3    H1 2337   1.261   3.452   1.800
  792TIP3    H2 2338   1.164   3.344   1.760
  793TIP3   OH2 2339   1.580   3.820   0.655
  793TIP3    H1 2340   1.659   3.874   0.673
  793TIP3    H2 2341   1.517   3.884   0.620
  794TIP3   OH2 2342   1.296   3.976   1.738
  794TIP3    H1 2343   1.261   3.979   1.647
  794TIP3    H2 2344   1.216   3.955   1.790
  795TIP3   OH2 2345   2.337   2.396   0.414
  795TIP3    H1 2346   2.264   2.411   0.477
  795TIP3    H2 2347   2.358   2.488   0.389
  796TIP3   OH2 2348   2.149   3.755  -0.024
  796TIP3    H1 2349   2.162   3.851  -0.041
  796TIP3    H2 2350   2.240   3.721  -0.030
  797TIP3   OH2 2351   0.873   3.509   1.684
  797TIP3    H1 2352   0.808   3.489   1.614
  797TIP3    H2 2353   0.911   3.421   1.704
  798TIP3   OH2 2354   0.728   3.701   1.322
  798TIP3    H1 2355   0.823   3.694   1.306
  798TIP3    H2 2356   0.722   3.783   1.372
  799TIP3   OH2 2357   2.593   4.154   1.374
  799TIP3    H1 2358   2.591   4.057   1.389
  799TIP3    H2 2359   2.510   4.180   1.420
  800TIP3   OH2 2360   1.699   3.937   1.509
  800TIP3    H1 2361   1.697   4.030   1.541
  800TIP3    H2 2362   1.627   3.898   1.564
  801TIP3   OH2 2363   1.457   4.071   0.456
  801TIP3    H1 2364   1.404   4.055   0.376
  801TIP3    H2 2365   1.423   4.157   0.487
  802TIP3   OH2 2366   0.906   3.931   0.847
  802TIP3    H1 2367   0.949   3.918   0.934
  802TIP3    H2 2368   0.856   3.846   0.841
  803TIP3   OH2 2369   1.653   3.964   0.114
  803TIP3    H1 2370   1.713   3.907   0.061
  803TIP3    H2 2371   1.699   3.969   0.200
  804TIP3   OH2 2372   1.716   4.022   0.380
  804TIP3    H1 2373   1.625   4.032   0.415
  804TIP3    H2 2374   1.760   3.976   0.453
  805TIP3   OH2 2375   2.482   3.283   1.649
  805TIP3    H1 2376   2.400   3.296   1.598
  805TIP3    H2 2377   2.497   3.187   1.636
  806TIP3   OH2 2378   1.078   3.691   1.673
  806TIP3    H1 2379   1.127   3.674   1.756
  806TIP3    H2 2380   1.003   3.628   1.680
  807TIP3   OH2 2381   1.503   2.527   1.466
  807TIP3    H1 2382   1.422   2.490   1.425
  807TIP3    H2 2383   1.466   2.607   1.508
  808TIP3   OH2 2384   2.013   2.631   1.653
  808TIP3    H1 2385   2.081   2.600   1.715
  808TIP3    H2 2386   1.929   2.610   1.699
  809TIP3   OH2 2387   2.252   3.060   1.571
  809TIP3    H1 2388   2.199   3.057   1.654
  809TIP3    H2 2389   2.227   3.147   1.533
  810TIP3   OH2 2390   1.911   3.205   0.129
  810TIP3    H1 2391   1.898   3.152   0.049
  810TIP3    H2 2392   1.990   3.255   0.104
  811TIP3   OH2 2393   1.412   3.024   1.480
  811TIP3    H1 2394   1.358   3.048   1.558
  811TIP3    H2 2395   1.403   3.106   1.426
  812TIP3   OH2 2396   1.277   2.906   0.978
  812TIP3    H1 2397   1.180   2.910   0.976
  812TIP3    H2 2398   1.296   2.885   0.885
  813TIP3   OH2 2399   1.789   2.999   0.722
  813TIP3    H1 2400   1.736   3.071   0.681
  813TIP3    H2 2401   1.845   2.971   0.647
  814TIP3   OH2 2402   1.960   3.279   1.803
  814TIP3    H1 2403   1.939   3.206   1.866
  814TIP3    H2 2404   2.054   3.294   1.824
  815TIP3   OH2 2405   1.940   3.033   0.959
  815TIP3    H1 2406   1.878   3.058   0.887
  815TIP3    H2 2407   1.978   2.953   0.916
  816TIP3   OH2 2408   1.232   3.061   1.684
  816TIP3    H1 2409   1.252   3.128   1.751
  816TIP3    H2 2410   1.222   2.980   1.738
  817TIP3   OH2 2411   1.954   3.276   1.380
  817TIP3    H1 2412   1.986   3.204   1.321
  817TIP3    H2 2413   1.921   3.223   1.456
  818TIP3   OH2 2414   1.626   2.740   1.050
  818TIP3    H1 2415   1.542   2.730   1.100
  818TIP3    H2 2416   1.691   2.740   1.122
  819TIP3   OH2 2417   2.113   2.814   1.254
  819TIP3    H1 2418   2.078   2.828   1.345
  819TIP3    H2 2419   2.046   2.751   1.219
  820TIP3   OH2 2420   2.285   4.503   1.473
  820TIP3    H1 2421   2.282   4.528   1.379
  820TIP3    H2 2422   2.363   4.552   1.505
  821TIP3   OH2 2423   1.240   3.613   1.895
  821TIP3    H1 2424   1.320   3.644   1.941
  821TIP3    H2 2425   1.175   3.614   1.967
  822TIP3   OH2 2426   1.702   3.068   1.148
  822TIP3    H1 2427   1.775   3.030   1.096
  822TIP3    H2 2428   1.713   3.023   1.234
  823TIP3   OH2 2429   1.681   2.962   1.441
  823TIP3    H1 2430   1.591   2.998   1.453
  823TIP3    H2 2431   1.737   3.027   1.489
  824TIP3   OH2 2432   1.430   3.349   0.539
  824TIP3    H1 2433   1.339   3.322   0.520
  824TIP3    H2 2434   1.416   3.392   0.627
  825TIP3   OH2 2435   2.317   3.590   1.162
  825TIP3    H1 2436   2.340   3.641   1.082
  825TIP3    H2 2437   2.232   3.547   1.137
  826TIP3   OH2 2438   1.866   2.686   0.414
  826TIP3    H1 2439   1.782   2.700   0.369
  826TIP3    H2 2440   1.899   2.778   0.425
  827TIP3   OH2 2441   1.818   3.674   1.530
  827TIP3    H1 2442   1.841   3.655   1.622
  827TIP3    H2 2443   1.778   3.763   1.536
  828TIP3   OH2 2444   1.950   2.929   0.503
  828TIP3    H1 2445   2.045   2.940   0.518
  828TIP3    H2 2446   1.925   3.010   0.453
  829TIP3   OH2 2447   1.131   3.391   1.217
  829TIP3    H1 2448   1.148   3.358   1.127
  829TIP3    H2 2449   1.105   3.310   1.263
  830TIP3   OH2 2450   1.561   3.504   0.350
  830TIP3    H1 2451   1.514   3.591   0.357
  830TIP3    H2 2452   1.510   3.451   0.414
  831TIP3   OH2 2453   0.993   3.296   1.823
  831TIP3    H1 2454   1.005   3.279   1.918
  831TIP3    H2 2455   0.917   3.238   1.801
  832TIP3   OH2 2456   1.716   3.409   1.846
  832TIP3    H1 2457   1.655   3.354   1.794
  832TIP3    H2 2458   1.803   3.376   1.814
  833TIP3   OH2 2459   1.977   3.931   1.426
  833TIP3    H1 2460   1.881   3.931   1.440
  833TIP3    H2 2461   2.006   3.983   1.505
  834TIP3   OH2 2462   2.390   3.013   0.344
  834TIP3    H1 2463   2.334   2.968   0.276
  834TIP3    H2 2464   2.388   3.103   0.305
  835TIP3   OH2 2465   2.606   3.862   1.416
  835TIP3    H1 2466   2.508   3.857   1.408
  835TIP3    H2 2467   2.632   3.832   1.326
  836TIP3   OH2 2468   2.096   3.823   0.244
  836TIP3    H1 2469   2.057   3.755   0.301
  836TIP3    H2 2470   2.095   3.780   0.156
  837TIP3   OH2 2471   2.084   3.453   1.082
  837TIP3    H1 2472   1.990   3.429   1.095
  837TIP3    H2 2473   2.116   3.373   1.036
  838TIP3   OH2 2474   1.210   3.681   0.834
  838TIP3    H1 2475   1.205   3.762   0.780
  838TIP3    H2 2476   1.116   3.660   0.846
  839TIP3   OH2 2477   1.351   3.450   0.775
  839TIP3    H1 2478   1.313   3.538   0.794
  839TIP3    H2 2479   1.316   3.398   0.850
  840TIP3   OH2 2480   1.480   4.025   1.304
  840TIP3    H1 2481   1.521   4.098   1.254
  840TIP3    H2 2482   1.556   3.989   1.351
  841TIP3   OH2 2483   1.131   3.920   0.684
  841TIP3    H1 2484   1.047   3.928   0.734
  841TIP3    H2 2485   1.161   4.013   0.686
  842TIP3   OH2 2486   1.867   3.657   1.262
  842TIP3    H1 2487   1.857   3.656   1.360
  842TIP3    H2 2488   1.947   3.604   1.250
  843TIP3   OH2 2489   1.832   3.558   0.156
  843TIP3    H1 2490   1.897   3.530   0.223
  843TIP3    H2 2491   1.750   3.537   0.201
  844TIP3   OH2 2492   2.117   4.190   1.311
  844TIP3    H1 2493   2.036   4.135   1.305
  844TIP3    H2 2494   2.101   4.255   1.240
  845TIP3   OH2 2495   2.186   4.034  -0.042
  845TIP3    H1 2496   2.232   4.116  -0.069
  845TIP3    H2 2497   2.103   4.072  -0.008
  846TIP3   OH2 2498   1.203   2.803   1.836
  846TIP3    H1 2499   1.107   2.795   1.840
  846TIP3    H2 2500   1.231   2.736   1.901
  847TIP3   OH2 2501   2.004   3.485   0.364
  847TIP3    H1 2502   1.995   3.420   0.436
  847TIP3    H2 2503   2.101   3.483   0.350
  848TIP3   OH2 2504   0.918   3.887   1.464
  848TIP3    H1 2505   0.970   3.811   1.494
  848TIP3    H2 2506   0.952   3.957   1.521
  849TIP3   OH2 2507   1.202   3.524   0.385
  849TIP3    H1 2508   1.172   3.500   0.473
  849TIP3    H2 2509   1.175   3.617   0.381
  850TIP3   OH2 2510   2.039   2.869   1.514
  850TIP3    H1 2511   2.122   2.904   1.551
  850TIP3    H2 2512   2.025   2.787   1.567
  851TIP3   OH2 2513   1.885   2.661   0.690
  851TIP3    H1 2514   1.892   2.684   0.595
  851TIP3    H2 2515   1.938   2.732   0.731
  852TIP3   OH2 2516   1.425   3.740   0.350
  852TIP3    H1 2517   1.340   3.752   0.395
  852TIP3    H2 2518   1.438   3.829   0.313
  853TIP3   OH2 2519   1.597   2.799   0.770
  853TIP3    H1 2520   1.671   2.861   0.758
  853TIP3    H2 2521   1.601   2.782   0.866
  854TIP3   OH2 2522   1.876   3.115   1.587
  854TIP3    H1 2523   1.900   3.169   1.665
  854TIP3    H2 2524   1.931   3.036   1.597
  855TIP3   OH2 2525   1.761   2.541   0.909
  855TIP3    H1 2526   1.731   2.622   0.954
  855TIP3    H2 2527   1.804   2.579   0.829
  856TIP3   OH2 2528   1.168   3.812   0.429
  856TIP3    H1 2529   1.135   3.888   0.376
  856TIP3    H2 2530   1.152   3.846   0.520
  857TIP3   OH2 2531   2.518   3.016   1.569
  857TIP3    H1 2532   2.420   3.015   1.576
  857TIP3    H2 2533   2.529   2.974   1.483
  858TIP3   OH2 2534   2.169   3.210   0.956
  858TIP3    H1 2535   2.091   3.153   0.968
  858TIP3    H2 2536   2.239   3.162   1.005
  859TIP3   OH2 2537   2.137   4.167   0.905
  859TIP3    H1 2538   2.094   4.214   0.830
  859TIP3    H2 2539   2.231   4.185   0.884
  860TIP3   OH2 2540   1.254   2.428   1.414
  860TIP3    H1 2541   1.176   2.412   1.357
  860TIP3    H2 2542   1.245   2.359   1.482
  861TIP3   OH2 2543   0.789   3.684   0.827
  861TIP3    H1 2544   0.710   3.645   0.869
  861TIP3    H2 2545   0.760   3.688   0.736
  862TIP3   OH2 2546   0.909   4.196   1.889
  862TIP3    H1 2547   0.997   4.195   1.934
  862TIP3    H2 2548   0.890   4.101   1.884
  863TIP3   OH2 2549   1.386   4.158   1.932
  863TIP3    H1 2550   1.482   4.147   1.937
  863TIP3    H2 2551   1.364   4.098   1.858
  864TIP3   OH2 2552   1.360   3.725   0.055
  864TIP3    H1 2553   1.330   3.680   0.135
  864TIP3    H2 2554   1.445   3.681   0.040
  865TIP3   OH2 2555   2.032   4.065   1.661
  865TIP3    H1 2556   2.022   3.997   1.732
  865TIP3    H2 2557   2.107   4.118   1.694
  866TIP3   OH2 2558   1.822   3.789  -0.016
  866TIP3    H1 2559   1.835   3.706   0.034
  866TIP3    H2 2560   1.889   3.782  -0.084
  867TIP3   OH2 2561   1.039   3.600   2.086
  867TIP3    H1 2562   1.054   3.504   2.088
  867TIP3    H2 2563   0.952   3.605   2.040
  868TIP3   OH2 2564   1.645   3.686   1.860
  868TIP3    H1 2565   1.605   3.707   1.773
  868TIP3    H2 2566   1.675   3.594   1.848
  869TIP3   OH2 2567   1.487   3.447   0.092
  869TIP3    H1 2568   1.522   3.473   0.180
  869TIP3    H2 2569   1.543   3.370   0.072
  870TIP3   OH2 2570   2.140   3.696   1.466
  870TIP3    H1 2571   2.215   3.740   1.422
  870TIP3    H2 2572   2.069   3.761   1.451
  871TIP3   OH2 2573   1.158   3.336   2.072
  871TIP3    H1 2574   1.237   3.291   2.039
  871TIP3    H2 2575   1.188   3.370   2.158
  872TIP3   OH2 2576   1.497   3.221   1.733
  872TIP3    H1 2577   1.417   3.278   1.732
  872TIP3    H2 2578   1.545   3.255   1.654
  873TIP3   OH2 2579   2.010   3.623   1.864
  873TIP3    H1 2580   2.089   3.599   1.813
  873TIP3    H2 2581   2.008   3.554   1.933
  874TIP3   OH2 2582   2.145   3.282  -0.009
  874TIP3    H1 2583   2.147   3.225  -0.088
  874TIP3    H2 2584   2.131   3.370  -0.046
  875TIP3   OH2 2585   1.619   3.009   1.854
  875TIP3    H1 2586   1.618   2.930   1.796
  875TIP3    H2 2587   1.575   3.076   1.797
  876TIP3   OH2 2588   1.619   2.796   1.665
  876TIP3    H1 2589   1.648   2.838   1.581
  876TIP3    H2 2590   1.525   2.775   1.645
  877TIP3   OH2 2591   1.647   3.333   1.540
  877TIP3    H1 2592   1.729   3.342   1.489
  877TIP3    H2 2593   1.588   3.396   1.493
  878TIP3   OH2 2594   2.230   3.297   1.918
  878TIP3    H1 2595   2.280   3.214   1.918
  878TIP3    H2 2596   2.294   3.360   1.882
  879TIP3   OH2 2597   2.269   3.551   1.653
  879TIP3    H1 2598   2.211   3.604   1.594
  879TIP3    H2 2599   2.357   3.572   1.613
  880TIP3   OH2 2600   1.499   3.116   2.089
  880TIP3    H1 2601   1.428   3.050   2.100
  880TIP3    H2 2602   1.527   3.100   1.997
  881TIP3   OH2 2603   1.752   2.559   1.732
  881TIP3    H1 2604   1.702   2.640   1.706
  881TIP3    H2 2605   1.686   2.489   1.716
  882TIP3   OH2 2606   1.878   3.060   1.946
  882TIP3    H1 2607   1.861   3.051   2.041
  882TIP3    H2 2608   1.790   3.038   1.910
  883TIP3   OH2 2609   2.118   3.015   1.801
  883TIP3    H1 2610   2.042   3.014   1.863
  883TIP3    H2 2611   2.191   2.983   1.857
  884TIP3   OH2 2612   2.344   2.953   1.952
  884TIP3    H1 2613   2.359   2.858   1.967
  884TIP3    H2 2614   2.344   2.990   2.043
  885TIP3   OH2 2615   1.331   2.901   2.139
  885TIP3    H1 2616   1.335   2.811   2.101
  885TIP3    H2 2617   1.366   2.884   2.228
  886TIP3   OH2 2618   1.845   2.568   1.989
  886TIP3    H1 2619   1.912   2.497   1.982
  886TIP3    H2 2620   1.806   2.564   1.900
  887TIP3   OH2 2621   1.910   2.781   2.150
  887TIP3    H1 2622   1.892   2.710   2.084
  887TIP3    H2 2623   1.833   2.840   2.136
  888TIP3   OH2 2624   1.128   4.031   0.248
  888TIP3    H1 2625   1.219   4.024   0.215
  888TIP3    H2 2626   1.078   3.985   0.176
  889TIP3   OH2 2627   0.526   3.918   0.833
  889TIP3    H1 2628   0.450   3.965   0.868
  889TIP3    H2 2629   0.577   3.904   0.916
  890TIP3   OH2 2630   0.652   3.869   1.071
  890TIP3    H1 2631   0.653   3.789   1.126
  890TIP3    H2 2632   0.708   3.928   1.123
  891TIP3   OH2 2633   2.391   4.256   0.863
  891TIP3    H1 2634   2.416   4.288   0.952
  891TIP3    H2 2635   2.454   4.304   0.806
  892TIP3   OH2 2636   2.420   4.277   1.144
  892TIP3    H1 2637   2.375   4.190   1.140
  892TIP3    H2 2638   2.494   4.255   1.202
  893TIP3   OH2 2639   2.466   3.953   1.718
  893TIP3    H1 2640   2.393   3.963   1.782
  893TIP3    H2 2641   2.508   4.042   1.721
  894TIP3   OH2 2642   2.282   3.466   0.338
  894TIP3    H1 2643   2.348   3.532   0.308
  894TIP3    H2 2644   2.327   3.429   0.417
  895TIP3   OH2 2645   2.411   3.334   0.542
  895TIP3    H1 2646   2.343   3.292   0.600
  895TIP3    H2 2647   2.473   3.373   0.607
  896TIP3   OH2 2648   2.466   3.728   0.975
  896TIP3    H1 2649   2.517   3.661   0.925
  896TIP3    H2 2650   2.458   3.801   0.910
  897TIP3   OH2 2651   2.295   4.028   1.168
  897TIP3    H1 2652   2.224   4.070   1.219
  897TIP3    H2 2653   2.245   3.981   1.098
  898TIP3   OH2 2654   2.345   3.244   0.186
  898TIP3    H1 2655   2.272   3.242   0.121
  898TIP3    H2 2656   2.317   3.320   0.241
  899TIP3   OH2 2657   2.249   2.919   0.135
  899TIP3    H1 2658   2.183   2.948   0.070
  899TIP3    H2 2659   2.218   2.826   0.146
  900TIP3   OH2 2660   2.225   3.192   0.688
  900TIP3    H1 2661   2.232   3.096   0.680
  900TIP3    H2 2662   2.210   3.205   0.784
  901TIP3   OH2 2663   0.849   3.259   1.445
  901TIP3    H1 2664   0.852   3.240   1.348
  901TIP3    H2 2665   0.946   3.264   1.464
  902TIP3   OH2 2666   2.513   3.616   1.545
  902TIP3    H1 2667   2.586   3.551   1.535
  902TIP3    H2 2668   2.538   3.686   1.482
  903TIP3   OH2 2669   2.697   3.420   1.559
  903TIP3    H1 2670   2.623   3.370   1.600
  903TIP3    H2 2671   2.770   3.356   1.575
  904TIP3   OH2 2672   2.158   2.665   0.163
  904TIP3    H1 2673   2.242   2.622   0.188
  904TIP3    H2 2674   2.091   2.606   0.201
  905TIP3   OH2 2675   2.226   2.915   0.582
  905TIP3    H1 2676   2.269   2.827   0.597
  905TIP3    H2 2677   2.283   2.948   0.510
  906TIP3   OH2 2678   2.382   3.079   1.079
  906TIP3    H1 2679   2.467   3.106   1.037
  906TIP3    H2 2680   2.395   3.118   1.168
  907TIP3   OH2 2681   2.452   3.226   1.309
  907TIP3    H1 2682   2.373   3.260   1.356
  907TIP3    H2 2683   2.484   3.307   1.264
  908TIP3   OH2 2684   1.063   2.946   2.100
  908TIP3    H1 2685   1.161   2.943   2.103
  908TIP3    H2 2686   1.041   2.862   2.145
  909TIP3   OH2 2687   2.902   2.817   1.865
  909TIP3    H1 2688   2.962   2.751   1.823
  909TIP3    H2 2689   2.873   2.870   1.788
  910TIP3   OH2 2690   2.351   2.673   0.613
  910TIP3    H1 2691   2.394   2.656   0.700
  910TIP3    H2 2692   2.278   2.607   0.617
  911TIP3   OH2 2693   1.076   2.630   1.524
  911TIP3    H1 2694   1.141   2.564   1.496
  911TIP3    H2 2695   1.097   2.704   1.465
  912TIP3   OH2 2696   0.840   2.948   1.538
  912TIP3    H1 2697   0.862   2.880   1.471
  912TIP3    H2 2698   0.884   3.025   1.499
  913TIP3   OH2 2699   2.772   2.955   1.670
  913TIP3    H1 2700   2.686   2.997   1.687
  913TIP3    H2 2701   2.743   2.882   1.611
  914TIP3   OH2 2702   2.423   2.599   0.236
  914TIP3    H1 2703   2.489   2.533   0.209
  914TIP3    H2 2704   2.479   2.678   0.248
  915TIP3   OH2 2705   1.977   4.124   0.520
  915TIP3    H1 2706   2.028   4.112   0.437
  915TIP3    H2 2707   2.029   4.191   0.567
  916TIP3   OH2 2708   1.051   2.518   1.837
  916TIP3    H1 2709   0.983   2.511   1.907
  916TIP3    H2 2710   0.998   2.530   1.756
  917TIP3   OH2 2711   1.076   3.928   1.904
  917TIP3    H1 2712   0.983   3.901   1.886
  917TIP3    H2 2713   1.084   3.913   1.998
  918TIP3   OH2 2714   1.253   3.962   1.452
  918TIP3    H1 2715   1.206   4.038   1.412
  918TIP3    H2 2716   1.339   3.975   1.408
  919TIP3   OH2 2717   1.696   4.205   1.588
  919TIP3    H1 2718   1.738   4.205   1.677
  919TIP3    H2 2719   1.762   4.257   1.537
  920TIP3   OH2 2720   1.877   4.357   1.450
  920TIP3    H1 2721   1.949   4.307   1.409
  920TIP3    H2 2722   1.928   4.415   1.512
  921TIP3   OH2 2723   2.672   2.718   1.550
  921TIP3    H1 2724   2.582   2.710   1.514
  921TIP3    H2 2725   2.704   2.625   1.539
  922TIP3   OH2 2726   0.935   4.216   1.479
  922TIP3    H1 2727   0.844   4.244   1.455
  922TIP3    H2 2728   0.945   4.260   1.564
  923TIP3   OH2 2729   1.168   4.196   1.333
  923TIP3    H1 2730   1.081   4.208   1.378
  923TIP3    H2 2731   1.148   4.228   1.243
  924TIP3   OH2 2732   1.592   4.224   1.131
  924TIP3    H1 2733   1.522   4.244   1.066
  924TIP3    H2 2734   1.604   4.311   1.174
  925TIP3   OH2 2735   1.861   4.163   1.183
  925TIP3    H1 2736   1.766   4.181   1.164
  925TIP3    H2 2737   1.903   4.240   1.143
  926TIP3   OH2 2738   2.070   4.356   1.099
  926TIP3    H1 2739   2.054   4.440   1.051
  926TIP3    H2 2740   2.094   4.295   1.025
  927TIP3   OH2 2741   0.842   4.012   1.223
  927TIP3    H1 2742   0.868   3.986   1.314
  927TIP3    H2 2743   0.913   3.967   1.173
  928TIP3   OH2 2744   1.036   3.885   1.082
  928TIP3    H1 2745   1.051   3.800   1.129
  928TIP3    H2 2746   1.128   3.919   1.075
  929TIP3   OH2 2747   1.303   3.977   1.081
  929TIP3    H1 2748   1.334   3.885   1.070
  929TIP3    H2 2749   1.347   3.999   1.165
  930TIP3   OH2 2750   1.883   2.639   1.182
  930TIP3    H1 2751   1.834   2.566   1.225
  930TIP3    H2 2752   1.938   2.590   1.119
  931TIP3   OH2 2753   2.399   2.505   1.069
  931TIP3    H1 2754   2.436   2.561   0.997
  931TIP3    H2 2755   2.304   2.529   1.066
  932TIP3   OH2 2756   2.498   2.615   0.840
  932TIP3    H1 2757   2.572   2.563   0.801
  932TIP3    H2 2758   2.532   2.707   0.826
  933TIP3   OH2 2759   1.568   2.416   1.068
  933TIP3    H1 2760   1.634   2.452   1.007
  933TIP3    H2 2761   1.615   2.419   1.152
  934TIP3   OH2 2762   2.122   2.523   1.046
  934TIP3    H1 2763   2.104   2.488   0.958
  934TIP3    H2 2764   2.104   2.444   1.103
  935TIP3   OH2 2765   2.159   2.481   0.614
  935TIP3    H1 2766   2.063   2.483   0.596
  935TIP3    H2 2767   2.167   2.387   0.638
  936TIP3   OH2 2768   0.635   3.815   0.600
  936TIP3    H1 2769   0.560   3.804   0.541
  936TIP3    H2 2770   0.596   3.870   0.672
  937TIP3   OH2 2771   1.392   3.972   0.183
  937TIP3    H1 2772   1.486   3.987   0.155
  937TIP3    H2 2773   1.370   3.899   0.122
  938TIP3   OH2 2774   2.123   4.090   0.286
  938TIP3    H1 2775   2.116   3.992   0.277
  938TIP3    H2 2776   2.074   4.119   0.206
  939TIP3   OH2 2777   1.333   2.623   2.078
  939TIP3    H1 2778   1.298   2.553   2.135
  939TIP3    H2 2779   1.427   2.623   2.104
  940TIP3   OH2 2780   1.586   2.626   2.198
  940TIP3    H1 2781   1.666   2.597   2.152
  940TIP3    H2 2782   1.572   2.552   2.262
  941TIP3   OH2 2783   2.409   2.683   1.982
  941TIP3    H1 2784   2.428   2.650   2.072
  941TIP3    H2 2785   2.497   2.678   1.940
  942TIP3   OH2 2786   2.347   4.234   1.472
  942TIP3    H1 2787   2.267   4.203   1.424
  942TIP3    H2 2788   2.326   4.330   1.479
  943TIP3   OH2 2789   3.587   3.603   0.604
  943TIP3    H1 2790   3.628   3.594   0.692
  943TIP3    H2 2791   3.554   3.510   0.595
  944TIP3   OH2 2792   2.911   3.501   0.985
  944TIP3    H1 2793   2.940   3.432   1.047
  944TIP3    H2 2794   2.988   3.559   0.985
  945TIP3   OH2 2795   2.881   3.913   0.710
  945TIP3    H1 2796   2.874   3.815   0.712
  945TIP3    H2 2797   2.978   3.923   0.708
  946TIP3   OH2 2798   2.593   3.116   0.498
  946TIP3    H1 2799   2.544   3.199   0.516
  946TIP3    H2 2800   2.522   3.062   0.459
  947TIP3   OH2 2801   2.649   3.403   0.670
  947TIP3    H1 2802   2.697   3.324   0.705
  947TIP3    H2 2803   2.705   3.429   0.596
  948TIP3   OH2 2804   3.505   4.373   0.328
  948TIP3    H1 2805   3.548   4.300   0.278
  948TIP3    H2 2806   3.499   4.335   0.416
  949TIP3   OH2 2807   3.414   3.834   0.658
  949TIP3    H1 2808   3.442   3.741   0.647
  949TIP3    H2 2809   3.496   3.873   0.695
  950TIP3   OH2 2810   4.421   3.153   0.665
  950TIP3    H1 2811   4.453   3.235   0.709
  950TIP3    H2 2812   4.455   3.165   0.575
  951TIP3   OH2 2813   3.825   3.337   0.696
  951TIP3    H1 2814   3.867   3.253   0.722
  951TIP3    H2 2815   3.790   3.314   0.608
  952TIP3   OH2 2816   3.162   2.993   0.666
  952TIP3    H1 2817   3.141   3.066   0.604
  952TIP3    H2 2818   3.114   2.919   0.622
  953TIP3   OH2 2819   3.856   3.088   0.291
  953TIP3    H1 2820   3.929   3.068   0.355
  953TIP3    H2 2821   3.910   3.118   0.215
  954TIP3   OH2 2822   2.794   3.195   0.773
  954TIP3    H1 2823   2.877   3.175   0.822
  954TIP3    H2 2824   2.808   3.139   0.694
  955TIP3   OH2 2825   3.236   3.393   0.567
  955TIP3    H1 2826   3.328   3.366   0.580
  955TIP3    H2 2827   3.195   3.310   0.535
  956TIP3   OH2 2828   4.498   3.358   0.839
  956TIP3    H1 2829   4.414   3.405   0.820
  956TIP3    H2 2830   4.518   3.392   0.927
  957TIP3   OH2 2831   3.158   2.977   1.102
  957TIP3    H1 2832   3.097   3.013   1.035
  957TIP3    H2 2833   3.106   2.994   1.183
  958TIP3   OH2 2834   3.537   3.837   0.162
  958TIP3    H1 2835   3.500   3.796   0.080
  958TIP3    H2 2836   3.477   3.914   0.165
  959TIP3   OH2 2837   3.265   3.755   0.894
  959TIP3    H1 2838   3.200   3.814   0.939
  959TIP3    H2 2839   3.300   3.815   0.826
  960TIP3   OH2 2840   4.065   3.089   0.462
  960TIP3    H1 2841   4.062   3.033   0.540
  960TIP3    H2 2842   4.122   3.163   0.491
  961TIP3   OH2 2843   3.028   3.092   0.885
  961TIP3    H1 2844   3.091   3.163   0.910
  961TIP3    H2 2845   3.077   3.051   0.810
  962TIP3   OH2 2846   3.091   3.945   0.994
  962TIP3    H1 2847   3.066   4.033   0.957
  962TIP3    H2 2848   3.012   3.929   1.050
  963TIP3   OH2 2849   2.486   3.635   0.234
  963TIP3    H1 2850   2.446   3.658   0.148
  963TIP3    H2 2851   2.516   3.722   0.267
  964TIP3   OH2 2852   3.928   4.161   0.483
  964TIP3    H1 2853   3.835   4.147   0.510
  964TIP3    H2 2854   3.920   4.242   0.428
  965TIP3   OH2 2855   4.217   3.053   0.834
  965TIP3    H1 2856   4.130   3.081   0.801
  965TIP3    H2 2857   4.278   3.085   0.764
  966TIP3   OH2 2858   3.512   2.695   0.814
  966TIP3    H1 2859   3.499   2.600   0.833
  966TIP3    H2 2860   3.435   2.733   0.862
  967TIP3   OH2 2861   3.640   4.181   0.176
  967TIP3    H1 2862   3.680   4.111   0.121
  967TIP3    H2 2863   3.700   4.255   0.151
  968TIP3   OH2 2864   3.758   3.971   0.033
  968TIP3    H1 2865   3.692   3.901   0.051
  968TIP3    H2 2866   3.833   3.946   0.086
  969TIP3   OH2 2867   4.148   4.064   0.816
  969TIP3    H1 2868   4.144   3.989   0.754
  969TIP3    H2 2869   4.135   4.141   0.757
  970TIP3   OH2 2870   3.445   3.456   0.070
  970TIP3    H1 2871   3.365   3.510   0.058
  970TIP3    H2 2872   3.480   3.454  -0.020
  971TIP3   OH2 2873   3.390   3.232  -0.193
  971TIP3    H1 2874   3.468   3.280  -0.161
  971TIP3    H2 2875   3.431   3.160  -0.243
  972TIP3   OH2 2876   4.345   3.698   0.657
  972TIP3    H1 2877   4.264   3.753   0.662
  972TIP3    H2 2878   4.379   3.723   0.568
  973TIP3   OH2 2879   3.779   3.508   0.079
  973TIP3    H1 2880   3.720   3.496   0.154
  973TIP3    H2 2881   3.867   3.485   0.116
  974TIP3   OH2 2882   4.024   3.580   0.958
  974TIP3    H1 2883   4.025   3.662   1.012
  974TIP3    H2 2884   3.937   3.587   0.916
  975TIP3   OH2 2885   3.023   3.538   0.459
  975TIP3    H1 2886   2.980   3.481   0.392
  975TIP3    H2 2887   3.099   3.483   0.488
  976TIP3   OH2 2888   3.153   3.951   0.607
  976TIP3    H1 2889   3.127   3.912   0.523
  976TIP3    H2 2890   3.243   3.916   0.620
  977TIP3   OH2 2891   3.164   3.508   0.816
  977TIP3    H1 2892   3.192   3.487   0.724
  977TIP3    H2 2893   3.203   3.596   0.831
  978TIP3   OH2 2894   3.677   4.137   0.589
  978TIP3    H1 2895   3.670   4.228   0.626
  978TIP3    H2 2896   3.668   4.082   0.668
  979TIP3   OH2 2897   3.298   4.066   1.137
  979TIP3    H1 2898   3.238   4.128   1.185
  979TIP3    H2 2899   3.232   4.013   1.088
  980TIP3   OH2 2900   3.635   3.382  -0.139
  980TIP3    H1 2901   3.685   3.443  -0.081
  980TIP3    H2 2902   3.660   3.416  -0.228
  981TIP3   OH2 2903   3.052   3.623   1.239
  981TIP3    H1 2904   3.056   3.710   1.283
  981TIP3    H2 2905   2.957   3.602   1.252
  982TIP3   OH2 2906   3.382   4.075   0.158
  982TIP3    H1 2907   3.457   4.136   0.162
  982TIP3    H2 2908   3.319   4.122   0.101
  983TIP3   OH2 2909   3.092   4.232   1.225
  983TIP3    H1 2910   3.055   4.234   1.135
  983TIP3    H2 2911   3.012   4.211   1.280
  984TIP3   OH2 2912   4.146   2.646  -0.088
  984TIP3    H1 2913   4.065   2.650  -0.033
  984TIP3    H2 2914   4.148   2.736  -0.123
  985TIP3   OH2 2915   2.890   3.381   0.263
  985TIP3    H1 2916   2.822   3.427   0.208
  985TIP3    H2 2917   2.848   3.296   0.278
  986TIP3   OH2 2918   2.670   3.765   1.172
  986TIP3    H1 2919   2.603   3.744   1.104
  986TIP3    H2 2920   2.707   3.677   1.194
  987TIP3   OH2 2921   2.524   3.959   0.803
  987TIP3    H1 2922   2.621   3.954   0.797
  987TIP3    H2 2923   2.512   4.038   0.858
  988TIP3   OH2 2924   4.389   4.409   0.862
  988TIP3    H1 2925   4.387   4.313   0.877
  988TIP3    H2 2926   4.306   4.436   0.907
  989TIP3   OH2 2927   3.493   4.196   0.994
  989TIP3    H1 2928   3.493   4.288   1.028
  989TIP3    H2 2929   3.423   4.156   1.049
  990TIP3   OH2 2930   3.231   4.325  -0.054
  990TIP3    H1 2931   3.193   4.316  -0.142
  990TIP3    H2 2932   3.196   4.408  -0.019
  991TIP3   OH2 2933   2.693   4.174   0.332
  991TIP3    H1 2934   2.740   4.165   0.418
  991TIP3    H2 2935   2.640   4.092   0.333
  992TIP3   OH2 2936   3.496   4.364  -0.016
  992TIP3    H1 2937   3.403   4.344  -0.039
  992TIP3    H2 2938   3.538   4.279  -0.036
  993TIP3   OH2 2939   4.276   3.538   1.138
  993TIP3    H1 2940   4.197   3.549   1.084
  993TIP3    H2 2941   4.295   3.442   1.127
  994TIP3   OH2 2942   2.875   3.947   1.159
  994TIP3    H1 2943   2.923   3.932   1.242
  994TIP3    H2 2944   2.800   3.885   1.167
  995TIP3   OH2 2945   3.274   2.772   0.945
  995TIP3    H1 2946   3.186   2.741   0.916
  995TIP3    H2 2947   3.248   2.853   0.993
  996TIP3   OH2 2948   3.809   2.887   1.139
  996TIP3    H1 2949   3.878   2.858   1.202
  996TIP3    H2 2950   3.726   2.866   1.187
  997TIP3   OH2 2951   4.045   3.314   1.056
  997TIP3    H1 2952   3.995   3.311   1.141
  997TIP3    H2 2953   4.023   3.403   1.022
  998TIP3   OH2 2954   3.427   2.838  -0.082
  998TIP3    H1 2955   3.389   2.826   0.008
  998TIP3    H2 2956   3.383   2.768  -0.131
  999TIP3   OH2 2957   3.207   3.286   0.965
  999TIP3    H1 2958   3.155   3.307   1.046
  999TIP3    H2 2959   3.192   3.367   0.912
 1000TIP3   OH2 2960   3.089   3.177   0.479
 1000TIP3    H1 2961   2.997   3.148   0.496
 1000TIP3    H2 2962   3.103   3.135   0.390
 1001TIP3   OH2 2963   3.585   3.270   0.212
 1001TIP3    H1 2964   3.529   3.333   0.163
 1001TIP3    H2 2965   3.637   3.229   0.140
 1002TIP3   OH2 2966   3.755   3.536   1.290
 1002TIP3    H1 2967   3.734   3.464   1.353
 1002TIP3    H2 2968   3.849   3.552   1.312
 1003TIP3   OH2 2969   3.737   3.285   0.439
 1003TIP3    H1 2970   3.671   3.295   0.367
 1003TIP3    H2 2971   3.782   3.205   0.404
 1004TIP3   OH2 2972   3.025   3.316   1.172
 1004TIP3    H1 2973   3.052   3.379   1.240
 1004TIP3    H2 2974   3.014   3.234   1.223
 1005TIP3   OH2 2975   3.078   2.767  -0.112
 1005TIP3    H1 2976   3.078   2.784  -0.017
 1005TIP3    H2 2977   3.006   2.822  -0.143
 1006TIP3   OH2 2978   2.621   2.837   0.751
 1006TIP3    H1 2979   2.695   2.870   0.807
 1006TIP3    H2 2980   2.665   2.806   0.671
 1007TIP3   OH2 2981   2.585   2.822   0.269
 1007TIP3    H1 2982   2.638   2.856   0.194
 1007TIP3    H2 2983   2.530   2.900   0.289
 1008TIP3   OH2 2984   3.742   3.539   0.853
 1008TIP3    H1 2985   3.776   3.463   0.800
 1008TIP3    H2 2986   3.717   3.490   0.935
 1009TIP3   OH2 2987   3.420   3.007   0.540
 1009TIP3    H1 2988   3.338   2.997   0.592
 1009TIP3    H2 2989   3.489   2.986   0.606
 1010TIP3   OH2 2990   2.853   3.052   0.546
 1010TIP3    H1 2991   2.758   3.060   0.519
 1010TIP3    H2 2992   2.875   2.959   0.523
 1011TIP3   OH2 2993   3.123   3.048   0.240
 1011TIP3    H1 2994   3.217   3.061   0.217
 1011TIP3    H2 2995   3.076   3.066   0.156
 1012TIP3   OH2 2996   3.907   3.075   0.742
 1012TIP3    H1 2997   3.872   3.085   0.833
 1012TIP3    H2 2998   3.845   3.010   0.705
 1013TIP3   OH2 2999   2.963   3.072   0.024
 1013TIP3    H1 3000   2.871   3.056  -0.003
 1013TIP3    H2 3001   3.005   3.109  -0.057
 1014TIP3   OH2 3002   4.081   4.760   0.960
 1014TIP3    H1 3003   4.080   4.786   0.866
 1014TIP3    H2 3004   4.160   4.808   0.992
 1015TIP3   OH2 3005   3.038   3.870   1.381
 1015TIP3    H1 3006   3.117   3.900   1.429
 1015TIP3    H2 3007   2.972   3.869   1.453
 1016TIP3   OH2 3008   3.505   3.334   0.639
 1016TIP3    H1 3009   3.565   3.278   0.587
 1016TIP3    H2 3010   3.504   3.287   0.725
 1017TIP3   OH2 3011   3.023   2.812   0.514
 1017TIP3    H1 3012   2.988   2.733   0.562
 1017TIP3    H2 3013   3.073   2.770   0.443
 1018TIP3   OH2 3014   3.477   3.226   0.919
 1018TIP3    H1 3015   3.387   3.257   0.939
 1018TIP3    H2 3016   3.534   3.284   0.973
 1019TIP3   OH2 3017   3.205   3.603   0.027
 1019TIP3    H1 3018   3.132   3.539   0.014
 1019TIP3    H2 3019   3.187   3.637   0.118
 1020TIP3   OH2 3020   4.114   3.851   0.643
 1020TIP3    H1 3021   4.149   3.903   0.567
 1020TIP3    H2 3022   4.026   3.826   0.611
 1021TIP3   OH2 3023   3.691   2.910  -0.100
 1021TIP3    H1 3024   3.597   2.885  -0.115
 1021TIP3    H2 3025   3.689   3.006  -0.110
 1022TIP3   OH2 3026   3.606   3.930   1.012
 1022TIP3    H1 3027   3.640   3.907   1.100
 1022TIP3    H2 3028   3.574   4.021   1.025
 1023TIP3   OH2 3029   3.742   3.173   0.005
 1023TIP3    H1 3030   3.839   3.171   0.012
 1023TIP3    H2 3031   3.726   3.245  -0.059
 1024TIP3   OH2 3032   2.909   3.637   0.697
 1024TIP3    H1 3033   2.945   3.604   0.612
 1024TIP3    H2 3034   2.943   3.571   0.759
 1025TIP3   OH2 3035   3.398   3.776  -0.071
 1025TIP3    H1 3036   3.359   3.836  -0.137
 1025TIP3    H2 3037   3.323   3.717  -0.051
 1026TIP3   OH2 3038   2.788   3.552   1.309
 1026TIP3    H1 3039   2.806   3.539   1.404
 1026TIP3    H2 3040   2.718   3.487   1.293
 1027TIP3   OH2 3041   3.513   3.668   1.329
 1027TIP3    H1 3042   3.453   3.607   1.284
 1027TIP3    H2 3043   3.600   3.633   1.301
 1028TIP3   OH2 3044   3.769   4.180   0.916
 1028TIP3    H1 3045   3.673   4.189   0.931
 1028TIP3    H2 3046   3.804   4.235   0.989
 1029TIP3   OH2 3047   4.125   3.257  -0.148
 1029TIP3    H1 3048   4.120   3.199  -0.227
 1029TIP3    H2 3049   4.154   3.340  -0.187
 1030TIP3   OH2 3050   4.400   4.117   0.905
 1030TIP3    H1 3051   4.303   4.114   0.897
 1030TIP3    H2 3052   4.427   4.089   0.815
 1031TIP3   OH2 3053   3.841   3.710   0.526
 1031TIP3    H1 3054   3.804   3.665   0.604
 1031TIP3    H2 3055   3.903   3.640   0.495
 1032TIP3   OH2 3056   3.007   3.937   0.321
 1032TIP3    H1 3057   3.005   4.017   0.265
 1032TIP3    H2 3058   2.913   3.918   0.331
 1033TIP3   OH2 3059   2.581   3.241   0.037
 1033TIP3    H1 3060   2.619   3.330   0.052
 1033TIP3    H2 3061   2.497   3.246   0.087
 1034TIP3   OH2 3062   3.151   3.704   0.273
 1034TIP3    H1 3063   3.111   3.792   0.286
 1034TIP3    H2 3064   3.108   3.652   0.344
 1035TIP3   OH2 3065   3.277   4.280   0.789
 1035TIP3    H1 3066   3.318   4.354   0.740
 1035TIP3    H2 3067   3.352   4.248   0.841
 1036TIP3   OH2 3068   2.923   4.175   0.171
 1036TIP3    H1 3069   2.838   4.183   0.219
 1036TIP3    H2 3070   2.956   4.267   0.176
 1037TIP3   OH2 3071   3.668   3.893   0.750
 1037TIP3    H1 3072   3.644   3.905   0.845
 1037TIP3    H2 3073   3.764   3.882   0.761
 1038TIP3   OH2 3074   3.910   4.447   0.798
 1038TIP3    H1 3075   3.830   4.393   0.786
 1038TIP3    H2 3076   3.899   4.513   0.727
 1039TIP3   OH2 3077   2.997   3.059   1.317
 1039TIP3    H1 3078   2.900   3.062   1.330
 1039TIP3    H2 3079   3.025   3.000   1.389
 1040TIP3   OH2 3080   3.812   3.679  -0.126
 1040TIP3    H1 3081   3.819   3.628  -0.043
 1040TIP3    H2 3082   3.901   3.712  -0.141
 1041TIP3   OH2 3083   2.715   4.142   0.948
 1041TIP3    H1 3084   2.768   4.069   0.983
 1041TIP3    H2 3085   2.740   4.213   1.009
 1042TIP3   OH2 3086   3.011   3.825  -0.348
 1042TIP3    H1 3087   2.995   3.761  -0.417
 1042TIP3    H2 3088   2.966   3.787  -0.271
 1043TIP3   OH2 3089   2.944   3.798  -0.070
 1043TIP3    H1 3090   3.027   3.767  -0.032
 1043TIP3    H2 3091   2.962   3.894  -0.083
 1044TIP3   OH2 3092   2.687   3.491   0.108
 1044TIP3    H1 3093   2.620   3.536   0.164
 1044TIP3    H2 3094   2.703   3.559   0.040
 1045TIP3   OH2 3095   3.832   3.125   1.002
 1045TIP3    H1 3096   3.915   3.162   1.037
 1045TIP3    H2 3097   3.821   3.043   1.055
 1046TIP3   OH2 3098   3.704   2.878   0.170
 1046TIP3    H1 3099   3.698   2.890   0.073
 1046TIP3    H2 3100   3.749   2.961   0.197
 1047TIP3   OH2 3101   3.237   4.023  -0.174
 1047TIP3    H1 3102   3.151   4.037  -0.131
 1047TIP3    H2 3103   3.210   3.993  -0.263
 1048TIP3   OH2 3104   3.404   3.057   0.267
 1048TIP3    H1 3105   3.471   3.126   0.251
 1048TIP3    H2 3106   3.409   3.048   0.365
 1049TIP3   OH2 3107   3.678   3.379   1.068
 1049TIP3    H1 3108   3.699   3.427   1.150
 1049TIP3    H2 3109   3.728   3.296   1.080
 1050TIP3   OH2 3110   3.546   2.779   0.369
 1050TIP3    H1 3111   3.549   2.856   0.430
 1050TIP3    H2 3112   3.605   2.812   0.297
 1051TIP3   OH2 3113   2.975   4.070  -0.080
 1051TIP3    H1 3114   2.916   4.122  -0.135
 1051TIP3    H2 3115   2.955   4.105   0.010
 1052TIP3   OH2 3116   3.060   2.782   0.165
 1052TIP3    H1 3117   3.059   2.873   0.201
 1052TIP3    H2 3118   3.156   2.763   0.172
 1053TIP3   OH2 3119   4.313   3.274   1.057
 1053TIP3    H1 3120   4.215   3.270   1.061
 1053TIP3    H2 3121   4.329   3.232   0.972
 1054TIP3   OH2 3122   3.961   3.470   0.448
 1054TIP3    H1 3123   3.892   3.403   0.458
 1054TIP3    H2 3124   4.037   3.426   0.494
 1055TIP3   OH2 3125   2.680   3.704  -0.085
 1055TIP3    H1 3126   2.755   3.764  -0.069
 1055TIP3    H2 3127   2.724   3.645  -0.150
 1056TIP3   OH2 3128   2.634   2.977   0.037
 1056TIP3    H1 3129   2.627   3.075   0.035
 1056TIP3    H2 3130   2.547   2.953   0.004
 1057TIP3   OH2 3131   3.933   4.426   0.387
 1057TIP3    H1 3132   3.890   4.473   0.313
 1057TIP3    H2 3133   4.028   4.446   0.368
 1058TIP3   OH2 3134   3.009   2.692   0.919
 1058TIP3    H1 3135   2.979   2.657   0.832
 1058TIP3    H2 3136   3.000   2.614   0.977
 1059TIP3   OH2 3137   2.550   3.913   0.298
 1059TIP3    H1 3138   2.479   3.940   0.358
 1059TIP3    H2 3139   2.519   3.952   0.213
 1060TIP3   OH2 3140   2.706   4.454   1.371
 1060TIP3    H1 3141   2.792   4.454   1.418
 1060TIP3    H2 3142   2.685   4.359   1.371
 1061TIP3   OH2 3143   3.185   4.416   1.417
 1061TIP3    H1 3144   3.280   4.399   1.423
 1061TIP3    H2 3145   3.161   4.355   1.344
 1062TIP3   OH2 3146   3.829   4.319   1.146
 1062TIP3    H1 3147   3.819   4.253   1.218
 1062TIP3    H2 3148   3.904   4.373   1.178
 1063TIP3   OH2 3149   2.836   3.858   1.571
 1063TIP3    H1 3150   2.851   3.762   1.578
 1063TIP3    H2 3151   2.748   3.861   1.527
 1064TIP3   OH2 3152   2.825   3.532  -0.228
 1064TIP3    H1 3153   2.883   3.471  -0.179
 1064TIP3    H2 3154   2.810   3.489  -0.314
 1065TIP3   OH2 3155   3.443   3.944   1.345
 1065TIP3    H1 3156   3.402   3.962   1.259
 1065TIP3    H2 3157   3.474   3.851   1.336
 1066TIP3   OH2 3158   3.930   3.949   0.940
 1066TIP3    H1 3159   4.010   3.992   0.905
 1066TIP3    H2 3160   3.867   4.024   0.938
 1067TIP3   OH2 3161   2.956   3.592   1.554
 1067TIP3    H1 3162   3.032   3.538   1.532
 1067TIP3    H2 3163   2.982   3.627   1.642
 1068TIP3   OH2 3164   3.016   3.402  -0.012
 1068TIP3    H1 3165   2.987   3.367   0.073
 1068TIP3    H2 3166   3.055   3.324  -0.056
 1069TIP3   OH2 3167   3.289   3.477   1.217
 1069TIP3    H1 3168   3.211   3.536   1.217
 1069TIP3    H2 3169   3.340   3.511   1.140
 1070TIP3   OH2 3170   3.121   3.192  -0.164
 1070TIP3    H1 3171   3.117   3.173  -0.259
 1070TIP3    H2 3172   3.218   3.200  -0.153
 1071TIP3   OH2 3173   3.807   3.878   1.348
 1071TIP3    H1 3174   3.891   3.856   1.306
 1071TIP3    H2 3175   3.802   3.813   1.420
 1072TIP3   OH2 3176   3.413   3.266   1.341
 1072TIP3    H1 3177   3.414   3.186   1.284
 1072TIP3    H2 3178   3.368   3.332   1.284
 1073TIP3   OH2 3179   3.416   3.054   1.148
 1073TIP3    H1 3180   3.444   3.091   1.063
 1073TIP3    H2 3181   3.322   3.030   1.130
 1074TIP3   OH2 3182   3.439   3.586   1.023
 1074TIP3    H1 3183   3.524   3.595   0.979
 1074TIP3    H2 3184   3.384   3.653   0.978
 1075TIP3   OH2 3185   4.026   3.553   1.403
 1075TIP3    H1 3186   4.074   3.469   1.409
 1075TIP3    H2 3187   4.094   3.613   1.369
 1076TIP3   OH2 3188   4.064   3.808   1.133
 1076TIP3    H1 3189   4.007   3.861   1.074
 1076TIP3    H2 3190   4.153   3.830   1.096
 1077TIP3   OH2 3191   3.291   3.376   1.573
 1077TIP3    H1 3192   3.223   3.307   1.587
 1077TIP3    H2 3193   3.325   3.351   1.485
 1078TIP3   OH2 3194   3.548   2.815   1.216
 1078TIP3    H1 3195   3.497   2.896   1.194
 1078TIP3    H2 3196   3.480   2.746   1.205
 1079TIP3   OH2 3197   3.674   3.319   1.433
 1079TIP3    H1 3198   3.662   3.305   1.529
 1079TIP3    H2 3199   3.584   3.294   1.402
 1080TIP3   OH2 3200   3.913   3.271   1.288
 1080TIP3    H1 3201   3.839   3.270   1.351
 1080TIP3    H2 3202   3.988   3.239   1.343
 1081TIP3   OH2 3203   4.140   3.210   1.438
 1081TIP3    H1 3204   4.154   3.114   1.454
 1081TIP3    H2 3205   4.138   3.246   1.529
 1082TIP3   OH2 3206   3.131   3.156   1.626
 1082TIP3    H1 3207   3.135   3.065   1.592
 1082TIP3    H2 3208   3.167   3.144   1.716
 1083TIP3   OH2 3209   3.642   2.825   1.474
 1083TIP3    H1 3210   3.709   2.754   1.469
 1083TIP3    H2 3211   3.603   2.819   1.385
 1084TIP3   OH2 3212   3.709   3.040   1.633
 1084TIP3    H1 3213   3.688   2.969   1.569
 1084TIP3    H2 3214   3.630   3.098   1.626
 1085TIP3   OH2 3215   2.414   3.653  -0.038
 1085TIP3    H1 3216   2.505   3.684  -0.060
 1085TIP3    H2 3217   2.409   3.573  -0.091
 1086TIP3   OH2 3218   2.326   4.263   0.360
 1086TIP3    H1 3219   2.257   4.202   0.326
 1086TIP3    H2 3220   2.369   4.207   0.428
 1087TIP3   OH2 3221   2.459   4.115   0.550
 1087TIP3    H1 3222   2.446   4.041   0.612
 1087TIP3    H2 3223   2.511   4.175   0.606
 1088TIP3   OH2 3224   4.190   4.516   0.349
 1088TIP3    H1 3225   4.213   4.544   0.440
 1088TIP3    H2 3226   4.249   4.571   0.296
 1089TIP3   OH2 3227   4.213   4.535   0.631
 1089TIP3    H1 3228   4.175   4.445   0.630
 1089TIP3    H2 3229   4.294   4.518   0.681
 1090TIP3   OH2 3230   4.261   4.210   1.204
 1090TIP3    H1 3231   4.189   4.221   1.270
 1090TIP3    H2 3232   4.304   4.298   1.207
 1091TIP3   OH2 3233   4.210   3.576   0.022
 1091TIP3    H1 3234   4.139   3.549   0.083
 1091TIP3    H2 3235   4.274   3.622   0.080
 1092TIP3   OH2 3236   4.255   3.979   0.452
 1092TIP3    H1 3237   4.316   3.917   0.409
 1092TIP3    H2 3238   4.261   4.058   0.394
 1093TIP3   OH2 3239   4.095   4.285   0.660
 1093TIP3    H1 3240   4.023   4.330   0.709
 1093TIP3    H2 3241   4.044   4.240   0.589
 1094TIP3   OH2 3242   4.021   3.442   0.181
 1094TIP3    H1 3243   4.033   3.346   0.165
 1094TIP3    H2 3244   4.017   3.448   0.278
 1095TIP3   OH2 3245   2.646   3.520   0.922
 1095TIP3    H1 3246   2.643   3.489   0.829
 1095TIP3    H2 3247   2.743   3.522   0.938
 1096TIP3   OH2 3248   4.309   3.873   1.029
 1096TIP3    H1 3249   4.381   3.807   1.022
 1096TIP3    H2 3250   4.340   3.944   0.970
 1097TIP3   OH2 3251   4.491   3.676   1.049
 1097TIP3    H1 3252   4.418   3.624   1.090
 1097TIP3    H2 3253   4.566   3.614   1.063
 1098TIP3   OH2 3254   4.017   3.165   0.081
 1098TIP3    H1 3255   4.062   3.078   0.088
 1098TIP3    H2 3256   4.057   3.198  -0.003
 1099TIP3   OH2 3257   4.176   3.344   0.563
 1099TIP3    H1 3258   4.263   3.367   0.523
 1099TIP3    H2 3259   4.193   3.375   0.654
 1100TIP3   OH2 3260   4.248   3.481   0.797
 1100TIP3    H1 3261   4.171   3.517   0.845
 1100TIP3    H2 3262   4.282   3.561   0.751
 1101TIP3   OH2 3263   2.864   3.208   1.597
 1101TIP3    H1 3264   2.962   3.202   1.598
 1101TIP3    H2 3265   2.840   3.121   1.636
 1102TIP3   OH2 3266   4.696   3.073   1.352
 1102TIP3    H1 3267   4.758   3.008   1.311
 1102TIP3    H2 3268   4.669   3.126   1.275
 1103TIP3   OH2 3269   4.131   2.914   0.103
 1103TIP3    H1 3270   4.174   2.898   0.190
 1103TIP3    H2 3271   4.066   2.840   0.103
 1104TIP3   OH2 3272   2.824   2.900   0.927
 1104TIP3    H1 3273   2.886   2.825   0.936
 1104TIP3    H2 3274   2.888   2.974   0.919
 1105TIP3   OH2 3275   2.628   3.173   0.999
 1105TIP3    H1 3276   2.677   3.169   0.915
 1105TIP3    H2 3277   2.655   3.259   1.033
 1106TIP3   OH2 3278   4.568   3.212   1.156
 1106TIP3    H1 3279   4.481   3.253   1.174
 1106TIP3    H2 3280   4.540   3.139   1.098
 1107TIP3   OH2 3281   4.239   2.850  -0.290
 1107TIP3    H1 3282   4.231   2.755  -0.304
 1107TIP3    H2 3283   4.335   2.859  -0.282
 1108TIP3   OH2 3284   2.615   2.677   0.497
 1108TIP3    H1 3285   2.524   2.678   0.533
 1108TIP3    H2 3286   2.607   2.737   0.420
 1109TIP3   OH2 3287   3.798   4.372   0.073
 1109TIP3    H1 3288   3.779   4.360  -0.022
 1109TIP3    H2 3289   3.864   4.442   0.073
 1110TIP3   OH2 3290   2.832   2.759   1.315
 1110TIP3    H1 3291   2.780   2.752   1.397
 1110TIP3    H2 3292   2.766   2.795   1.254
 1111TIP3   OH2 3293   2.872   4.184   1.391
 1111TIP3    H1 3294   2.779   4.159   1.375
 1111TIP3    H2 3295   2.881   4.168   1.485
 1112TIP3   OH2 3296   3.050   4.216   0.938
 1112TIP3    H1 3297   3.001   4.292   0.899
 1112TIP3    H2 3298   3.136   4.232   0.894
 1113TIP3   OH2 3299   3.494   4.461   1.075
 1113TIP3    H1 3300   3.535   4.462   1.164
 1113TIP3    H2 3301   3.560   4.513   1.025
 1114TIP3   OH2 3302   3.675   4.613   0.936
 1114TIP3    H1 3303   3.750   4.565   0.897
 1114TIP3    H2 3304   3.723   4.672   0.998
 1115TIP3   OH2 3305   4.467   2.974   1.037
 1115TIP3    H1 3306   4.377   2.964   1.001
 1115TIP3    H2 3307   4.501   2.882   1.026
 1116TIP3   OH2 3308   2.725   4.475   0.962
 1116TIP3    H1 3309   2.636   4.508   0.940
 1116TIP3    H2 3310   2.737   4.513   1.050
 1117TIP3   OH2 3311   2.962   4.452   0.821
 1117TIP3    H1 3312   2.875   4.465   0.865
 1117TIP3    H2 3313   2.943   4.485   0.731
 1118TIP3   OH2 3314   3.388   4.481   0.620
 1118TIP3    H1 3315   3.320   4.501   0.553
 1118TIP3    H2 3316   3.401   4.568   0.662
 1119TIP3   OH2 3317   3.658   4.410   0.661
 1119TIP3    H1 3318   3.564   4.436   0.649
 1119TIP3    H2 3319   3.704   4.489   0.628
 1120TIP3   OH2 3320   3.860   4.608   0.585
 1120TIP3    H1 3321   3.847   4.695   0.540
 1120TIP3    H2 3322   3.889   4.552   0.510
 1121TIP3   OH2 3323   2.638   4.269   0.707
 1121TIP3    H1 3324   2.664   4.242   0.798
 1121TIP3    H2 3325   2.709   4.223   0.657
 1122TIP3   OH2 3326   2.831   4.139   0.565
 1122TIP3    H1 3327   2.846   4.056   0.615
 1122TIP3    H2 3328   2.922   4.175   0.561
 1123TIP3   OH2 3329   3.098   4.234   0.568
 1123TIP3    H1 3330   3.129   4.142   0.557
 1123TIP3    H2 3331   3.143   4.257   0.652
 1124TIP3   OH2 3332   3.668   2.888   0.651
 1124TIP3    H1 3333   3.629   2.818   0.706
 1124TIP3    H2 3334   3.744   2.843   0.609
 1125TIP3   OH2 3335   4.194   2.776   0.564
 1125TIP3    H1 3336   4.231   2.823   0.486
 1125TIP3    H2 3337   4.098   2.787   0.551
 1126TIP3   OH2 3338   4.289   2.871   0.326
 1126TIP3    H1 3339   4.362   2.817   0.288
 1126TIP3    H2 3340   4.326   2.961   0.311
 1127TIP3   OH2 3341   2.922   2.600   0.670
 1127TIP3    H1 3342   2.829   2.566   0.674
 1127TIP3    H2 3343   2.970   2.515   0.667
 1128TIP3   OH2 3344   2.694   2.471   0.317
 1128TIP3    H1 3345   2.740   2.525   0.249
 1128TIP3    H2 3346   2.681   2.538   0.388
 1129TIP3   OH2 3347   3.363   2.634   0.553
 1129TIP3    H1 3348   3.423   2.677   0.489
 1129TIP3    H2 3349   3.394   2.670   0.637
 1130TIP3   OH2 3350   3.910   2.778   0.534
 1130TIP3    H1 3351   3.913   2.737   0.446
 1130TIP3    H2 3352   3.898   2.699   0.591
 1131TIP3   OH2 3353   3.947   2.700   0.099
 1131TIP3    H1 3354   3.857   2.733   0.090
 1131TIP3    H2 3355   3.931   2.616   0.149
 1132TIP3   OH2 3356   2.427   4.038   0.095
 1132TIP3    H1 3357   2.342   4.001   0.064
 1132TIP3    H2 3358   2.409   4.132   0.086
 1133TIP3   OH2 3359   2.832   2.613   0.127
 1133TIP3    H1 3360   2.857   2.576   0.042
 1133TIP3    H2 3361   2.904   2.677   0.143
 1134TIP3   OH2 3362   3.336   2.805   0.182
 1134TIP3    H1 3363   3.398   2.756   0.240
 1134TIP3    H2 3364   3.361   2.897   0.206
 1135TIP3   OH2 3365   3.129   2.881   1.563
 1135TIP3    H1 3366   3.093   2.810   1.618
 1135TIP3    H2 3367   3.223   2.880   1.591
 1136TIP3   OH2 3368   3.379   2.878   1.681
 1136TIP3    H1 3369   3.464   2.852   1.641
 1136TIP3    H2 3370   3.367   2.807   1.748
 1137TIP3   OH2 3371   2.548   4.112  -0.232
 1137TIP3    H1 3372   2.492   4.104  -0.154
 1137TIP3    H2 3373   2.557   4.021  -0.261
 1138TIP3   OH2 3374   4.205   2.940   1.469
 1138TIP3    H1 3375   4.224   2.907   1.559
 1138TIP3    H2 3376   4.294   2.934   1.427
 1139TIP3   OH2 3377   4.141   4.491   0.961
 1139TIP3    H1 3378   4.062   4.462   0.911
 1139TIP3    H2 3379   4.125   4.587   0.965
 1140TIP3   OH2 3380   4.700   3.762   0.490
 1140TIP3    H1 3381   4.733   3.692   0.549
 1140TIP3    H2 3382   4.784   3.795   0.453
 1141TIP3   OH2 3383   4.637   4.152   0.243
 1141TIP3    H1 3384   4.651   4.057   0.230
 1141TIP3    H2 3385   4.720   4.186   0.208
 1142TIP3   OH2 3386   4.383   3.359  -0.030
 1142TIP3    H1 3387   4.357   3.452  -0.014
 1142TIP3    H2 3388   4.296   3.317  -0.020
 1143TIP3   OH2 3389   4.452   3.654   0.141
 1143TIP3    H1 3390   4.489   3.578   0.191
 1143TIP3    H2 3391   4.533   3.706   0.126
 1144TIP3   OH2 3392   5.624   3.597   0.185
 1144TIP3    H1 3393   5.646   3.504   0.206
 1144TIP3    H2 3394   5.702   3.623   0.130
 1145TIP3   OH2 3395   4.939   3.263   0.143
 1145TIP3    H1 3396   4.924   3.323   0.069
 1145TIP3    H2 3397   4.899   3.181   0.106
 1146TIP3   OH2 3398   4.590   3.459   0.274
 1146TIP3    H1 3399   4.676   3.447   0.319
 1146TIP3    H2 3400   4.597   3.385   0.209
 1147TIP3   OH2 3401   5.042   3.678   0.118
 1147TIP3    H1 3402   5.125   3.627   0.132
 1147TIP3    H2 3403   5.010   3.639   0.034
 1148TIP3   OH2 3404   6.269   3.590   0.354
 1148TIP3    H1 3405   6.196   3.647   0.320
 1148TIP3    H2 3406   6.342   3.653   0.352
 1149TIP3   OH2 3407   4.952   3.234   0.588
 1149TIP3    H1 3408   4.892   3.270   0.520
 1149TIP3    H2 3409   4.900   3.253   0.669
 1150TIP3   OH2 3410   5.066   4.021   0.387
 1150TIP3    H1 3411   4.993   4.070   0.430
 1150TIP3    H2 3412   5.117   4.095   0.352
 1151TIP3   OH2 3413   4.824   3.349   0.374
 1151TIP3    H1 3414   4.890   3.419   0.396
 1151TIP3    H2 3415   4.866   3.312   0.293
 1152TIP3   OH2 3416   4.885   4.204   0.481
 1152TIP3    H1 3417   4.863   4.292   0.444
 1152TIP3    H2 3418   4.806   4.189   0.536
 1153TIP3   OH2 3419   5.999   3.308   0.295
 1153TIP3    H1 3420   5.904   3.324   0.286
 1153TIP3    H2 3421   6.029   3.346   0.211
 1154TIP3   OH2 3422   5.295   2.943   0.306
 1154TIP3    H1 3423   5.288   2.847   0.324
 1154TIP3    H2 3424   5.217   2.977   0.355
 1155TIP3   OH2 3425   5.817   3.836   0.449
 1155TIP3    H1 3426   5.814   3.920   0.497
 1155TIP3    H2 3427   5.725   3.832   0.412
 1156TIP3   OH2 3428   4.925   3.788   0.330
 1156TIP3    H1 3429   4.964   3.752   0.246
 1156TIP3    H2 3430   4.982   3.867   0.341
 1157TIP3   OH2 3431   5.090   4.319   0.633
 1157TIP3    H1 3432   5.031   4.385   0.675
 1157TIP3    H2 3433   5.026   4.269   0.579
 1158TIP3   OH2 3434   4.854   3.879   0.734
 1158TIP3    H1 3435   4.854   3.967   0.775
 1158TIP3    H2 3436   4.758   3.861   0.731
 1159TIP3   OH2 3437   4.887   4.491   0.711
 1159TIP3    H1 3438   4.853   4.496   0.620
 1159TIP3    H2 3439   4.806   4.469   0.762
 1160TIP3   OH2 3440   4.464   4.021   0.661
 1160TIP3    H1 3441   4.409   3.996   0.586
 1160TIP3    H2 3442   4.507   3.937   0.688
 1161TIP3   OH2 3443   4.329   4.206   0.299
 1161TIP3    H1 3444   4.426   4.204   0.285
 1161TIP3    H2 3445   4.321   4.288   0.350
 1162TIP3   OH2 3446   5.290   4.448   0.489
 1162TIP3    H1 3447   5.292   4.540   0.524
 1162TIP3    H2 3448   5.219   4.410   0.544
 1163TIP3   OH2 3449   6.072   3.783   0.625
 1163TIP3    H1 3450   6.007   3.802   0.556
 1163TIP3    H2 3451   6.081   3.687   0.617
 1164TIP3   OH2 3452   4.671   4.204   0.647
 1164TIP3    H1 3453   4.721   4.188   0.730
 1164TIP3    H2 3454   4.596   4.142   0.656
 1165TIP3   OH2 3455   5.066   3.026   0.436
 1165TIP3    H1 3456   4.977   2.998   0.406
 1165TIP3    H2 3457   5.043   3.109   0.480
 1166TIP3   OH2 3458   5.605   3.148   0.627
 1166TIP3    H1 3459   5.672   3.114   0.689
 1166TIP3    H2 3460   5.521   3.124   0.671
 1167TIP3   OH2 3461   5.859   3.572   0.548
 1167TIP3    H1 3462   5.801   3.569   0.628
 1167TIP3    H2 3463   5.832   3.656   0.507
 1168TIP3   OH2 3464   4.999   3.548   0.448
 1168TIP3    H1 3465   4.953   3.566   0.533
 1168TIP3    H2 3466   4.982   3.631   0.400
 1169TIP3   OH2 3467   5.551   3.794   0.778
 1169TIP3    H1 3468   5.531   3.720   0.840
 1169TIP3    H2 3469   5.646   3.807   0.797
 1170TIP3   OH2 3470   4.819   3.573   0.661
 1170TIP3    H1 3471   4.858   3.635   0.724
 1170TIP3    H2 3472   4.813   3.491   0.713
 1171TIP3   OH2 3473   4.418   3.091   0.240
 1171TIP3    H1 3474   4.486   3.131   0.297
 1171TIP3    H2 3475   4.470   3.070   0.161
 1172TIP3   OH2 3476   5.558   3.792   0.364
 1172TIP3    H1 3477   5.571   3.727   0.291
 1172TIP3    H2 3478   5.518   3.735   0.432
 1173TIP3   OH2 3479   5.205   3.221   0.059
 1173TIP3    H1 3480   5.126   3.238   0.113
 1173TIP3    H2 3481   5.273   3.269   0.108
 1174TIP3   OH2 3482   4.615   3.262   0.092
 1174TIP3    H1 3483   4.535   3.278   0.039
 1174TIP3    H2 3484   4.673   3.209   0.035
 1175TIP3   OH2 3485   5.691   3.330   0.248
 1175TIP3    H1 3486   5.662   3.349   0.340
 1175TIP3    H2 3487   5.629   3.256   0.228
 1176TIP3   OH2 3488   4.832   4.127   0.868
 1176TIP3    H1 3489   4.913   4.157   0.913
 1176TIP3    H2 3490   4.769   4.129   0.943
 1177TIP3   OH2 3491   5.266   3.532   0.158
 1177TIP3    H1 3492   5.342   3.543   0.097
 1177TIP3    H2 3493   5.308   3.507   0.241
 1178TIP3   OH2 3494   4.810   3.075  -0.008
 1178TIP3    H1 3495   4.796   2.987   0.033
 1178TIP3    H2 3496   4.877   3.057  -0.076
 1179TIP3   OH2 3497   5.275   3.470   0.435
 1179TIP3    H1 3498   5.187   3.513   0.429
 1179TIP3    H2 3499   5.331   3.539   0.475
 1180TIP3   OH2 3500   5.394   4.183   0.504
 1180TIP3    H1 3501   5.434   4.174   0.591
 1180TIP3    H2 3502   5.377   4.279   0.500
 1181TIP3   OH2 3503   4.672   3.837   0.189
 1181TIP3    H1 3504   4.729   3.893   0.132
 1181TIP3    H2 3505   4.739   3.803   0.251
 1182TIP3   OH2 3506   4.581   3.814   0.800
 1182TIP3    H1 3507   4.609   3.801   0.893
 1182TIP3    H2 3508   4.519   3.741   0.787
 1183TIP3   OH2 3509   5.309   3.923   0.816
 1183TIP3    H1 3510   5.251   3.866   0.764
 1183TIP3    H2 3511   5.398   3.890   0.789
 1184TIP3   OH2 3512   5.575   4.420   0.419
 1184TIP3    H1 3513   5.488   4.447   0.388
 1184TIP3    H2 3514   5.592   4.489   0.487
 1185TIP3   OH2 3515   5.086   4.529   0.296
 1185TIP3    H1 3516   5.085   4.625   0.279
 1185TIP3    H2 3517   5.171   4.518   0.341
 1186TIP3   OH2 3518   5.477   4.129   0.242
 1186TIP3    H1 3519   5.443   4.139   0.333
 1186TIP3    H2 3520   5.572   4.122   0.260
 1187TIP3   OH2 3521   4.794   3.317   0.805
 1187TIP3    H1 3522   4.698   3.317   0.817
 1187TIP3    H2 3523   4.823   3.256   0.875
 1188TIP3   OH2 3524   4.504   4.398   0.439
 1188TIP3    H1 3525   4.567   4.329   0.463
 1188TIP3    H2 3526   4.538   4.474   0.489
 1189TIP3   OH2 3527   5.625   3.395   0.505
 1189TIP3    H1 3528   5.715   3.419   0.532
 1189TIP3    H2 3529   5.614   3.307   0.549
 1190TIP3   OH2 3530   5.466   3.629   0.561
 1190TIP3    H1 3531   5.495   3.679   0.639
 1190TIP3    H2 3532   5.523   3.549   0.564
 1191TIP3   OH2 3533   6.128   3.482   0.553
 1191TIP3    H1 3534   6.030   3.489   0.551
 1191TIP3    H2 3535   6.152   3.518   0.465
 1192TIP3   OH2 3536   4.799   2.951   0.407
 1192TIP3    H1 3537   4.774   2.916   0.319
 1192TIP3    H2 3538   4.794   2.870   0.463
 1193TIP3   OH2 3539   4.502   4.709   0.861
 1193TIP3    H1 3540   4.589   4.711   0.906
 1193TIP3    H2 3541   4.486   4.614   0.857
 1194TIP3   OH2 3542   4.981   4.671   0.906
 1194TIP3    H1 3543   5.076   4.658   0.908
 1194TIP3    H2 3544   4.956   4.614   0.830
 1195TIP3   OH2 3545   5.627   4.584   0.640
 1195TIP3    H1 3546   5.612   4.510   0.703
 1195TIP3    H2 3547   5.703   4.630   0.680
 1196TIP3   OH2 3548   4.631   4.114   1.060
 1196TIP3    H1 3549   4.648   4.018   1.064
 1196TIP3    H2 3550   4.545   4.117   1.014
 1197TIP3   OH2 3551   5.238   4.200   0.834
 1197TIP3    H1 3552   5.199   4.222   0.748
 1197TIP3    H2 3553   5.269   4.108   0.822
 1198TIP3   OH2 3554   5.733   4.202   0.430
 1198TIP3    H1 3555   5.792   4.235   0.361
 1198TIP3    H2 3556   5.667   4.275   0.433
 1199TIP3   OH2 3557   4.749   3.846   1.042
 1199TIP3    H1 3558   4.830   3.801   1.013
 1199TIP3    H2 3559   4.777   3.881   1.129
 1200TIP3   OH2 3560   5.083   3.728   0.699
 1200TIP3    H1 3561   5.009   3.792   0.703
 1200TIP3    H2 3562   5.136   3.764   0.625
 1201TIP3   OH2 3563   5.604   4.136   0.837
 1201TIP3    H1 3564   5.681   4.109   0.785
 1201TIP3    H2 3565   5.601   4.068   0.906
 1202TIP3   OH2 3566   5.209   3.522   0.828
 1202TIP3    H1 3567   5.211   3.442   0.772
 1202TIP3    H2 3568   5.166   3.587   0.769
 1203TIP3   OH2 3569   5.210   3.305   0.645
 1203TIP3    H1 3570   5.242   3.350   0.564
 1203TIP3    H2 3571   5.118   3.283   0.620
 1204TIP3   OH2 3572   5.235   3.842   0.510
 1204TIP3    H1 3573   5.321   3.848   0.467
 1204TIP3    H2 3574   5.184   3.911   0.464
 1205TIP3   OH2 3575   5.822   3.814   0.889
 1205TIP3    H1 3576   5.869   3.729   0.888
 1205TIP3    H2 3577   5.887   3.872   0.848
 1206TIP3   OH2 3578   5.862   4.070   0.626
 1206TIP3    H1 3579   5.805   4.120   0.563
 1206TIP3    H2 3580   5.950   4.092   0.588
 1207TIP3   OH2 3581   5.087   3.632   1.060
 1207TIP3    H1 3582   5.019   3.563   1.073
 1207TIP3    H2 3583   5.121   3.609   0.972
 1208TIP3   OH2 3584   5.345   3.071   0.705
 1208TIP3    H1 3585   5.295   3.152   0.682
 1208TIP3    H2 3586   5.278   3.001   0.691
 1209TIP3   OH2 3587   5.470   3.574   0.919
 1209TIP3    H1 3588   5.455   3.561   1.015
 1209TIP3    H2 3589   5.381   3.550   0.886
 1210TIP3   OH2 3590   5.714   3.532   0.777
 1210TIP3    H1 3591   5.635   3.530   0.835
 1210TIP3    H2 3592   5.784   3.496   0.834
 1211TIP3   OH2 3593   5.948   3.466   0.929
 1211TIP3    H1 3594   5.948   3.371   0.950
 1211TIP3    H2 3595   5.938   3.508   1.018
 1212TIP3   OH2 3596   4.925   3.413   1.113
 1212TIP3    H1 3597   4.932   3.323   1.078
 1212TIP3    H2 3598   4.963   3.401   1.203
 1213TIP3   OH2 3599   5.437   3.081   0.963
 1213TIP3    H1 3600   5.503   3.009   0.956
 1213TIP3    H2 3601   5.398   3.077   0.873
 1214TIP3   OH2 3602   5.505   3.296   1.120
 1214TIP3    H1 3603   5.484   3.225   1.055
 1214TIP3    H2 3604   5.427   3.355   1.112
 1215TIP3   OH2 3605   4.230   4.375   0.053
 1215TIP3    H1 3606   4.201   4.297   0.102
 1215TIP3    H2 3607   4.283   4.420   0.121
 1216TIP3   OH2 3608   6.060   4.467   0.696
 1216TIP3    H1 3609   5.987   4.478   0.760
 1216TIP3    H2 3610   6.101   4.555   0.696
 1217TIP3   OH2 3611   4.442   3.781   0.406
 1217TIP3    H1 3612   4.450   3.756   0.313
 1217TIP3    H2 3613   4.538   3.784   0.431
 1218TIP3   OH2 3614   6.105   4.143   0.514
 1218TIP3    H1 3615   6.175   4.076   0.526
 1218TIP3    H2 3616   6.119   4.175   0.423
 1219TIP3   OH2 3617   6.279   3.955   0.606
 1219TIP3    H1 3618   6.208   3.887   0.611
 1219TIP3    H2 3619   6.347   3.905   0.558
 1220TIP3   OH2 3620   6.051   3.753   0.323
 1220TIP3    H1 3621   5.965   3.786   0.353
 1220TIP3    H2 3622   6.048   3.775   0.228
 1221TIP3   OH2 3623   4.658   3.464   1.081
 1221TIP3    H1 3624   4.756   3.459   1.083
 1221TIP3    H2 3625   4.636   3.378   1.122
 1222TIP3   OH2 3626   4.617   3.160   0.424
 1222TIP3    H1 3627   4.676   3.083   0.426
 1222TIP3    H2 3628   4.681   3.231   0.406
 1223TIP3   OH2 3629   4.420   3.433   0.487
 1223TIP3    H1 3630   4.474   3.426   0.406
 1223TIP3    H2 3631   4.455   3.514   0.526
 1224TIP3   OH2 3632   4.395   2.941  -0.038
 1224TIP3    H1 3633   4.318   2.926   0.019
 1224TIP3    H2 3634   4.369   3.018  -0.088
 1225TIP3   OH2 3635   4.628   3.018   0.803
 1225TIP3    H1 3636   4.575   3.010   0.884
 1225TIP3    H2 3637   4.562   3.051   0.740
 1226TIP3   OH2 3638   4.667   4.442   0.877
 1226TIP3    H1 3639   4.574   4.415   0.862
 1226TIP3    H2 3640   4.678   4.426   0.971
 1227TIP3   OH2 3641   4.845   4.475   0.423
 1227TIP3    H1 3642   4.807   4.559   0.389
 1227TIP3    H2 3643   4.933   4.482   0.379
 1228TIP3   OH2 3644   5.280   4.708   0.578
 1228TIP3    H1 3645   5.352   4.736   0.636
 1228TIP3    H2 3646   5.305   4.748   0.491
 1229TIP3   OH2 3647   4.513   4.716   0.456
 1229TIP3    H1 3648   4.428   4.760   0.431
 1229TIP3    H2 3649   4.537   4.768   0.533
 1230TIP3   OH2 3650   4.757   4.718   0.318
 1230TIP3    H1 3651   4.665   4.736   0.344
 1230TIP3    H2 3652   4.755   4.718   0.220
 1231TIP3   OH2 3653   4.444   4.512   0.194
 1231TIP3    H1 3654   4.448   4.491   0.289
 1231TIP3    H2 3655   4.537   4.498   0.172
 1232TIP3   OH2 3656   5.483   3.139   0.228
 1232TIP3    H1 3657   5.409   3.081   0.255
 1232TIP3    H2 3658   5.498   3.109   0.136
 1233TIP3   OH2 3659   4.715   2.853   0.161
 1233TIP3    H1 3660   4.624   2.818   0.167
 1233TIP3    H2 3661   4.766   2.769   0.157
 1234TIP3   OH2 3662   4.479   2.719  -0.193
 1234TIP3    H1 3663   4.565   2.742  -0.231
 1234TIP3    H2 3664   4.468   2.786  -0.122
 1235TIP3   OH2 3665   5.150   2.893   0.053
 1235TIP3    H1 3666   5.188   2.948  -0.016
 1235TIP3    H2 3667   5.195   2.925   0.132
 1236TIP3   OH2 3668   4.924   3.137   1.049
 1236TIP3    H1 3669   4.890   3.065   1.106
 1236TIP3    H2 3670   5.019   3.136   1.076
 1237TIP3   OH2 3671   5.175   3.135   1.168
 1237TIP3    H1 3672   5.259   3.110   1.126
 1237TIP3    H2 3673   5.165   3.063   1.234
 1238TIP3   OH2 3674   5.992   3.190   0.964
 1238TIP3    H1 3675   5.997   3.160   1.058
 1238TIP3    H2 3676   6.084   3.178   0.938
 1239TIP3   OH2 3677   5.931   4.748   0.469
 1239TIP3    H1 3678   5.908   4.660   0.438
 1239TIP3    H2 3679   5.846   4.785   0.495
 1240TIP3   OH2 3680   6.564   3.578   0.391
 1240TIP3    H1 3681   6.557   3.618   0.301
 1240TIP3    H2 3682   6.600   3.492   0.366
 1241TIP3   OH2 3683   6.423   4.378   0.547
 1241TIP3    H1 3684   6.466   4.291   0.535
 1241TIP3    H2 3685   6.345   4.368   0.490
 1242TIP3   OH2 3686   6.560   4.115   0.529
 1242TIP3    H1 3687   6.536   4.024   0.507
 1242TIP3    H2 3688   6.563   4.116   0.626
 1243TIP3   OH2 3689   6.903   3.900   0.542
 1243TIP3    H1 3690   6.837   3.830   0.561
 1243TIP3    H2 3691   6.879   3.928   0.453
 1244TIP3   OH2 3692   6.761   3.673   0.590
 1244TIP3    H1 3693   6.704   3.609   0.543
 1244TIP3    H2 3694   6.756   3.640   0.681
 1245TIP3   OH2 3695   6.471   3.746   0.591
 1245TIP3    H1 3696   6.519   3.709   0.514
 1245TIP3    H2 3697   6.428   3.669   0.626
 1246TIP3   OH2 3698   6.366   3.283   0.366
 1246TIP3    H1 3699   6.327   3.204   0.327
 1246TIP3    H2 3700   6.396   3.332   0.290
 1247TIP3   OH2 3701   6.703   3.378   0.573
 1247TIP3    H1 3702   6.687   3.295   0.622
 1247TIP3    H2 3703   6.798   3.393   0.589
 1248TIP3   OH2 3704   6.973   3.396   0.662
 1248TIP3    H1 3705   7.060   3.371   0.628
 1248TIP3    H2 3706   6.958   3.326   0.729
 1249TIP3   OH2 3707   0.488   4.444   1.340
 1249TIP3    H1 3708   0.517   4.529   1.380
 1249TIP3    H2 3709   0.498   4.463   1.246
 1250TIP3   OH2 3710   0.554   4.655   1.511
 1250TIP3    H1 3711   0.469   4.698   1.486
 1250TIP3    H2 3712   0.573   4.700   1.595
 1251TIP3   OH2 3713   0.228   4.333   1.213
 1251TIP3    H1 3714   0.140   4.319   1.176
 1251TIP3    H2 3715   0.240   4.428   1.201
 1252TIP3   OH2 3716   0.264   4.352   1.502
 1252TIP3    H1 3717   0.176   4.377   1.470
 1252TIP3    H2 3718   0.318   4.371   1.422
 1253TIP3   OH2 3719   0.446   4.977   1.372
 1253TIP3    H1 3720   0.392   5.057   1.371
 1253TIP3    H2 3721   0.508   5.001   1.303
 1254TIP3   OH2 3722   0.102   4.886   1.625
 1254TIP3    H1 3723   0.095   4.961   1.687
 1254TIP3    H2 3724   0.011   4.886   1.590
 1255TIP3   OH2 3725   0.457   5.670   1.605
 1255TIP3    H1 3726   0.456   5.576   1.583
 1255TIP3    H2 3727   0.394   5.707   1.542
 1256TIP3   OH2 3728   0.317   4.831   1.803
 1256TIP3    H1 3729   0.246   4.847   1.739
 1256TIP3    H2 3730   0.334   4.735   1.787
 1257TIP3   OH2 3731  -0.148   4.035   1.809
 1257TIP3    H1 3732  -0.081   4.067   1.873
 1257TIP3    H2 3733  -0.230   4.073   1.847
 1258TIP3   OH2 3734   0.089   4.613   1.732
 1258TIP3    H1 3735   0.059   4.632   1.822
 1258TIP3    H2 3736   0.059   4.691   1.682
 1259TIP3   OH2 3737  -0.189   4.820   1.921
 1259TIP3    H1 3738  -0.230   4.771   1.996
 1259TIP3    H2 3739  -0.120   4.870   1.967
 1260TIP3   OH2 3740  -0.061   4.332   1.431
 1260TIP3    H1 3741  -0.095   4.271   1.498
 1260TIP3    H2 3742  -0.050   4.273   1.355
 1261TIP3   OH2 3743   0.434   5.395   1.557
 1261TIP3    H1 3744   0.341   5.422   1.558
 1261TIP3    H2 3745   0.456   5.403   1.461
 1262TIP3   OH2 3746  -0.142   4.403   1.843
 1262TIP3    H1 3747  -0.110   4.465   1.776
 1262TIP3    H2 3748  -0.223   4.371   1.802
 1263TIP3   OH2 3749  -0.293   4.648   1.730
 1263TIP3    H1 3750  -0.267   4.714   1.797
 1263TIP3    H2 3751  -0.255   4.685   1.649
 1264TIP3   OH2 3752   0.356   4.570   1.720
 1264TIP3    H1 3753   0.258   4.566   1.720
 1264TIP3    H2 3754   0.375   4.531   1.634
 1265TIP3   OH2 3755  -0.135   5.150   2.000
 1265TIP3    H1 3756  -0.039   5.156   1.998
 1265TIP3    H2 3757  -0.152   5.109   2.086
 1266TIP3   OH2 3758   0.075   4.867   2.077
 1266TIP3    H1 3759   0.086   4.774   2.050
 1266TIP3    H2 3760   0.145   4.913   2.029
 1267TIP3   OH2 3761   0.110   5.112   1.797
 1267TIP3    H1 3762   0.046   5.171   1.754
 1267TIP3    H2 3763   0.194   5.137   1.751
 1268TIP3   OH2 3764  -0.404   4.118   1.873
 1268TIP3    H1 3765  -0.459   4.189   1.836
 1268TIP3    H2 3766  -0.474   4.053   1.893
 1269TIP3   OH2 3767  -0.298   4.661   2.114
 1269TIP3    H1 3768  -0.255   4.628   2.194
 1269TIP3    H2 3769  -0.359   4.587   2.094
 1270TIP3   OH2 3770   0.006   4.599   2.002
 1270TIP3    H1 3771  -0.086   4.605   1.974
 1270TIP3    H2 3772   0.013   4.504   2.017
 1271TIP3   OH2 3773  -0.264   4.141   2.117
 1271TIP3    H1 3774  -0.219   4.054   2.117
 1271TIP3    H2 3775  -0.327   4.131   2.043
 1272TIP3   OH2 3776  -0.279   4.351   2.280
 1272TIP3    H1 3777  -0.260   4.273   2.222
 1272TIP3    H2 3778  -0.355   4.386   2.229
 1273TIP3   OH2 3779   0.298   5.513   1.857
 1273TIP3    H1 3780   0.238   5.529   1.932
 1273TIP3    H2 3781   0.351   5.596   1.857
 1274TIP3   OH2 3782   0.351   5.170   1.686
 1274TIP3    H1 3783   0.422   5.102   1.690
 1274TIP3    H2 3784   0.391   5.237   1.628
 1275TIP3   OH2 3785   0.533   4.979   1.738
 1275TIP3    H1 3786   0.460   4.920   1.766
 1275TIP3    H2 3787   0.608   4.917   1.739
 1276TIP3   OH2 3788   0.273   4.631   1.230
 1276TIP3    H1 3789   0.361   4.658   1.197
 1276TIP3    H2 3790   0.280   4.664   1.322
 1277TIP3   OH2 3791   0.302   4.770   1.463
 1277TIP3    H1 3792   0.227   4.811   1.510
 1277TIP3    H2 3793   0.350   4.850   1.431
 1278TIP3   OH2 3794   0.742   4.374   2.017
 1278TIP3    H1 3795   0.801   4.308   1.974
 1278TIP3    H2 3796   0.711   4.426   1.939
 1279TIP3   OH2 3797   0.613   4.513   1.821
 1279TIP3    H1 3798   0.525   4.551   1.839
 1279TIP3    H2 3799   0.587   4.441   1.760
 1280TIP3   OH2 3800   0.513   4.277   1.700
 1280TIP3    H1 3801   0.424   4.272   1.660
 1280TIP3    H2 3802   0.544   4.184   1.691
 1281TIP3   OH2 3803   0.263   4.051   1.208
 1281TIP3    H1 3804   0.299   4.142   1.203
 1281TIP3    H2 3805   0.168   4.072   1.217
 1282TIP3   OH2 3806   0.481   4.186   0.986
 1282TIP3    H1 3807   0.399   4.167   0.936
 1282TIP3    H2 3808   0.453   4.257   1.044
 1283TIP3   OH2 3809  -0.004   4.081   1.219
 1283TIP3    H1 3810  -0.010   4.051   1.127
 1283TIP3    H2 3811  -0.028   4.000   1.268
 1284TIP3   OH2 3812   1.397   5.196   0.402
 1284TIP3    H1 3813   1.456   5.270   0.376
 1284TIP3    H2 3814   1.398   5.145   0.321
 1285TIP3   OH2 3815   1.454   5.163   0.777
 1285TIP3    H1 3816   1.485   5.137   0.865
 1285TIP3    H2 3817   1.409   5.082   0.747
 1286TIP3   OH2 3818   0.765   5.053   1.156
 1286TIP3    H1 3819   0.786   4.976   1.212
 1286TIP3    H2 3820   0.846   5.105   1.165
 1287TIP3   OH2 3821   1.677   5.449   0.486
 1287TIP3    H1 3822   1.691   5.391   0.563
 1287TIP3    H2 3823   1.726   5.529   0.509
 1288TIP3   OH2 3824   1.270   5.397   0.796
 1288TIP3    H1 3825   1.303   5.308   0.772
 1288TIP3    H2 3826   1.354   5.435   0.830
 1289TIP3   OH2 3827   2.266   4.711   0.818
 1289TIP3    H1 3828   2.295   4.794   0.862
 1289TIP3    H2 3829   2.284   4.732   0.725
 1290TIP3   OH2 3830   1.666   4.892   0.852
 1290TIP3    H1 3831   1.706   4.806   0.874
 1290TIP3    H2 3832   1.634   4.874   0.762
 1291TIP3   OH2 3833   0.995   4.534   0.819
 1291TIP3    H1 3834   0.978   4.590   0.741
 1291TIP3    H2 3835   0.954   4.452   0.788
 1292TIP3   OH2 3836   1.696   4.641   0.438
 1292TIP3    H1 3837   1.766   4.623   0.506
 1292TIP3    H2 3838   1.752   4.674   0.366
 1293TIP3   OH2 3839   0.659   4.748   0.938
 1293TIP3    H1 3840   0.744   4.722   0.980
 1293TIP3    H2 3841   0.649   4.683   0.868
 1294TIP3   OH2 3842   1.092   4.961   0.735
 1294TIP3    H1 3843   1.186   4.936   0.752
 1294TIP3    H2 3844   1.067   4.898   0.667
 1295TIP3   OH2 3845   2.339   4.920   0.986
 1295TIP3    H1 3846   2.255   4.966   0.966
 1295TIP3    H2 3847   2.346   4.940   1.081
 1296TIP3   OH2 3848   1.004   4.527   1.264
 1296TIP3    H1 3849   0.948   4.567   1.195
 1296TIP3    H2 3850   0.951   4.548   1.343
 1297TIP3   OH2 3851   1.112   5.318   1.049
 1297TIP3    H1 3852   1.041   5.379   1.080
 1297TIP3    H2 3853   1.142   5.363   0.968
 1298TIP3   OH2 3854   1.907   4.645   0.612
 1298TIP3    H1 3855   1.886   4.601   0.696
 1298TIP3    H2 3856   1.956   4.723   0.642
 1299TIP3   OH2 3857   0.885   4.639   1.046
 1299TIP3    H1 3858   0.944   4.714   1.071
 1299TIP3    H2 3859   0.936   4.600   0.971
 1300TIP3   OH2 3860   0.911   5.503   1.110
 1300TIP3    H1 3861   0.890   5.596   1.125
 1300TIP3    H2 3862   0.855   5.462   1.181
 1301TIP3   OH2 3863   1.772   5.714   0.628
 1301TIP3    H1 3864   1.682   5.696   0.664
 1301TIP3    H2 3865   1.755   5.792   0.573
 1302TIP3   OH2 3866   2.058   4.611   0.985
 1302TIP3    H1 3867   1.970   4.638   0.954
 1302TIP3    H2 3868   2.116   4.644   0.913
 1303TIP3   OH2 3869   1.353   4.252   0.964
 1303TIP3    H1 3870   1.339   4.157   0.984
 1303TIP3    H2 3871   1.277   4.292   1.012
 1304TIP3   OH2 3872   1.993   5.625   0.965
 1304TIP3    H1 3873   1.982   5.545   0.910
 1304TIP3    H2 3874   1.977   5.697   0.901
 1305TIP3   OH2 3875   2.188   5.261   0.811
 1305TIP3    H1 3876   2.105   5.312   0.817
 1305TIP3    H2 3877   2.217   5.286   0.720
 1306TIP3   OH2 3878   1.605   5.048   0.222
 1306TIP3    H1 3879   1.592   5.143   0.236
 1306TIP3    H2 3880   1.701   5.040   0.239
 1307TIP3   OH2 3881   1.866   5.140   1.103
 1307TIP3    H1 3882   1.861   5.223   1.154
 1307TIP3    H2 3883   1.778   5.140   1.062
 1308TIP3   OH2 3884   1.012   5.066   0.979
 1308TIP3    H1 3885   1.036   5.050   0.886
 1308TIP3    H2 3886   1.049   5.155   0.995
 1309TIP3   OH2 3887   1.524   5.699   0.736
 1309TIP3    H1 3888   1.507   5.778   0.788
 1309TIP3    H2 3889   1.511   5.627   0.801
 1310TIP3   OH2 3890   1.129   5.656   1.262
 1310TIP3    H1 3891   1.084   5.694   1.340
 1310TIP3    H2 3892   1.102   5.564   1.265
 1311TIP3   OH2 3893   0.904   5.180   1.398
 1311TIP3    H1 3894   0.912   5.266   1.444
 1311TIP3    H2 3895   0.807   5.172   1.395
 1312TIP3   OH2 3896   0.918   5.802   1.385
 1312TIP3    H1 3897   0.874   5.770   1.306
 1312TIP3    H2 3898   0.852   5.776   1.454
 1313TIP3   OH2 3899   1.991   4.201   0.066
 1313TIP3    H1 3900   1.908   4.213   0.117
 1313TIP3    H2 3901   2.000   4.286   0.021
 1314TIP3   OH2 3902   0.497   5.216   1.255
 1314TIP3    H1 3903   0.493   5.315   1.250
 1314TIP3    H2 3904   0.569   5.204   1.317
 1315TIP3   OH2 3905   2.232   5.970   1.013
 1315TIP3    H1 3906   2.228   5.873   1.021
 1315TIP3    H2 3907   2.148   5.995   1.057
 1316TIP3   OH2 3908   1.347   5.756   1.147
 1316TIP3    H1 3909   1.345   5.847   1.182
 1316TIP3    H2 3910   1.274   5.715   1.198
 1317TIP3   OH2 3911   2.120   5.100   1.285
 1317TIP3    H1 3912   2.037   5.113   1.237
 1317TIP3    H2 3913   2.133   5.003   1.274
 1318TIP3   OH2 3914   0.753   5.430   1.314
 1318TIP3    H1 3915   0.794   5.435   1.403
 1318TIP3    H2 3916   0.661   5.457   1.331
 1319TIP3   OH2 3917   1.118   4.329   1.094
 1319TIP3    H1 3918   1.029   4.297   1.068
 1319TIP3    H2 3919   1.092   4.408   1.146
 1320TIP3   OH2 3920   1.649   4.443   1.289
 1320TIP3    H1 3921   1.717   4.417   1.355
 1320TIP3    H2 3922   1.565   4.424   1.337
 1321TIP3   OH2 3923   1.892   4.879   1.213
 1321TIP3    H1 3924   1.838   4.870   1.294
 1321TIP3    H2 3925   1.860   4.964   1.176
 1322TIP3   OH2 3926   1.291   4.351   0.073
 1322TIP3    H1 3927   1.366   4.355   0.133
 1322TIP3    H2 3928   1.326   4.298   0.000
 1323TIP3   OH2 3929   1.050   4.840   1.118
 1323TIP3    H1 3930   1.016   4.872   1.204
 1323TIP3    H2 3931   1.040   4.922   1.065
 1324TIP3   OH2 3932   0.915   4.669   0.598
 1324TIP3    H1 3933   0.830   4.693   0.637
 1324TIP3    H2 3934   0.933   4.752   0.547
 1325TIP3   OH2 3935   1.409   4.817   0.336
 1325TIP3    H1 3936   1.401   4.909   0.310
 1325TIP3    H2 3937   1.471   4.783   0.270
 1326TIP3   OH2 3938   1.616   5.089   1.427
 1326TIP3    H1 3939   1.572   5.033   1.494
 1326TIP3    H2 3940   1.703   5.103   1.469
 1327TIP3   OH2 3941   1.581   4.843   0.594
 1327TIP3    H1 3942   1.517   4.875   0.528
 1327TIP3    H2 3943   1.611   4.761   0.549
 1328TIP3   OH2 3944   0.863   4.868   1.336
 1328TIP3    H1 3945   0.919   4.927   1.389
 1328TIP3    H2 3946   0.859   4.787   1.390
 1329TIP3   OH2 3947   0.477   4.490   0.913
 1329TIP3    H1 3948   0.545   4.462   0.978
 1329TIP3    H2 3949   0.472   4.413   0.853
 1330TIP3   OH2 3950   1.594   5.092   1.016
 1330TIP3    H1 3951   1.624   5.019   0.959
 1330TIP3    H2 3952   1.560   5.041   1.093
 1331TIP3   OH2 3953   1.253   4.535   0.695
 1331TIP3    H1 3954   1.174   4.539   0.752
 1331TIP3    H2 3955   1.325   4.551   0.758
 1332TIP3   OH2 3956   1.751   4.627   0.884
 1332TIP3    H1 3957   1.724   4.640   0.978
 1332TIP3    H2 3958   1.681   4.567   0.854
 1333TIP3   OH2 3959   1.924   6.315   1.112
 1333TIP3    H1 3960   1.922   6.342   1.019
 1333TIP3    H2 3961   2.001   6.366   1.145
 1334TIP3   OH2 3962   0.886   5.423   1.551
 1334TIP3    H1 3963   0.967   5.455   1.595
 1334TIP3    H2 3964   0.820   5.436   1.622
 1335TIP3   OH2 3965   1.349   4.878   0.790
 1335TIP3    H1 3966   1.422   4.834   0.743
 1335TIP3    H2 3967   1.354   4.838   0.879
 1336TIP3   OH2 3968   0.881   4.345   0.651
 1336TIP3    H1 3969   0.827   4.285   0.707
 1336TIP3    H2 3970   0.958   4.291   0.632
 1337TIP3   OH2 3971   1.320   4.782   1.075
 1337TIP3    H1 3972   1.231   4.819   1.091
 1337TIP3    H2 3973   1.377   4.843   1.125
 1338TIP3   OH2 3974   1.955   5.406   0.801
 1338TIP3    H1 3975   1.978   5.457   0.721
 1338TIP3    H2 3976   1.871   5.363   0.776
 1339TIP3   OH2 3977   1.551   4.481   0.044
 1339TIP3    H1 3978   1.487   4.469  -0.028
 1339TIP3    H2 3979   1.560   4.578   0.045
 1340TIP3   OH2 3980   1.465   5.488   1.178
 1340TIP3    H1 3981   1.447   5.443   1.263
 1340TIP3    H2 3982   1.413   5.569   1.190
 1341TIP3   OH2 3983   1.590   4.752   0.118
 1341TIP3    H1 3984   1.677   4.742   0.160
 1341TIP3    H2 3985   1.594   4.843   0.087
 1342TIP3   OH2 3986   0.636   5.138   1.492
 1342TIP3    H1 3987   0.684   5.132   1.578
 1342TIP3    H2 3988   0.585   5.055   1.494
 1343TIP3   OH2 3989   1.610   5.769   1.049
 1343TIP3    H1 3990   1.519   5.744   1.074
 1343TIP3    H2 3991   1.642   5.806   1.134
 1344TIP3   OH2 3992   2.025   4.816  -0.014
 1344TIP3    H1 3993   1.959   4.768  -0.068
 1344TIP3    H2 3994   2.022   4.901  -0.064
 1345TIP3   OH2 3995   2.243   5.678   1.053
 1345TIP3    H1 3996   2.146   5.669   1.041
 1345TIP3    H2 3997   2.272   5.648   0.964
 1346TIP3   OH2 3998   1.720   5.270   0.713
 1346TIP3    H1 3999   1.628   5.244   0.732
 1346TIP3    H2 4000   1.754   5.188   0.673
 1347TIP3   OH2 4001   1.113   5.845   1.002
 1347TIP3    H1 4002   1.182   5.897   0.960
 1347TIP3    H2 4003   1.167   5.786   1.058
 1348TIP3   OH2 4004   1.511   5.473   0.907
 1348TIP3    H1 4005   1.498   5.471   1.004
 1348TIP3    H2 4006   1.588   5.415   0.897
 1349TIP3   OH2 4007   1.755   6.004   0.956
 1349TIP3    H1 4008   1.683   5.939   0.953
 1349TIP3    H2 4009   1.737   6.065   0.881
 1350TIP3   OH2 4010   0.839   4.613   1.471
 1350TIP3    H1 4011   0.742   4.617   1.480
 1350TIP3    H2 4012   0.864   4.554   1.544
 1351TIP3   OH2 4013   1.686   4.673   1.144
 1351TIP3    H1 4014   1.754   4.718   1.197
 1351TIP3    H2 4015   1.664   4.596   1.199
 1352TIP3   OH2 4016   1.536   4.444   0.318
 1352TIP3    H1 4017   1.548   4.464   0.224
 1352TIP3    H2 4018   1.582   4.518   0.361
 1353TIP3   OH2 4019   1.516   4.931   1.222
 1353TIP3    H1 4020   1.534   4.994   1.296
 1353TIP3    H2 4021   1.568   4.855   1.249
 1354TIP3   OH2 4022   1.386   4.340   0.530
 1354TIP3    H1 4023   1.368   4.420   0.583
 1354TIP3    H2 4024   1.440   4.377   0.457
 1355TIP3   OH2 4025   2.156   4.831   1.204
 1355TIP3    H1 4026   2.059   4.832   1.216
 1355TIP3    H2 4027   2.161   4.784   1.120
 1356TIP3   OH2 4028   1.805   5.026   0.596
 1356TIP3    H1 4029   1.730   4.965   0.609
 1356TIP3    H2 4030   1.877   4.979   0.643
 1357TIP3   OH2 4031   1.769   5.997   0.528
 1357TIP3    H1 4032   1.752   5.996   0.432
 1357TIP3    H2 4033   1.865   6.018   0.526
 1358TIP3   OH2 4034   0.855   4.245   1.068
 1358TIP3    H1 4035   0.820   4.211   0.984
 1358TIP3    H2 4036   0.843   4.168   1.128
 1359TIP3   OH2 4037   0.534   6.051   1.623
 1359TIP3    H1 4038   0.627   6.077   1.639
 1359TIP3    H2 4039   0.547   5.974   1.565
 1360TIP3   OH2 4040   1.037   5.974   1.567
 1360TIP3    H1 4041   1.129   5.942   1.573
 1360TIP3    H2 4042   1.003   5.919   1.494
 1361TIP3   OH2 4043   1.674   5.876   1.293
 1361TIP3    H1 4044   1.658   5.811   1.364
 1361TIP3    H2 4045   1.743   5.933   1.332
 1362TIP3   OH2 4046   0.668   5.411   1.726
 1362TIP3    H1 4047   0.690   5.316   1.730
 1362TIP3    H2 4048   0.584   5.409   1.676
 1363TIP3   OH2 4049   1.779   5.503   1.105
 1363TIP3    H1 4050   1.845   5.557   1.058
 1363TIP3    H2 4051   1.699   5.557   1.097
 1364TIP3   OH2 4052   0.803   5.136   1.712
 1364TIP3    H1 4053   0.889   5.103   1.683
 1364TIP3    H2 4054   0.825   5.176   1.799
 1365TIP3   OH2 4055   1.123   5.014   1.354
 1365TIP3    H1 4056   1.064   5.091   1.370
 1365TIP3    H2 4057   1.189   5.055   1.293
 1366TIP3   OH2 4058   1.697   5.446   1.508
 1366TIP3    H1 4059   1.727   5.386   1.438
 1366TIP3    H2 4060   1.613   5.406   1.535
 1367TIP3   OH2 4061   1.254   4.822   1.493
 1367TIP3    H1 4062   1.257   4.744   1.434
 1367TIP3    H2 4063   1.211   4.889   1.434
 1368TIP3   OH2 4064   1.261   4.610   1.299
 1368TIP3    H1 4065   1.285   4.654   1.215
 1368TIP3    H2 4066   1.167   4.586   1.283
 1369TIP3   OH2 4067   1.278   5.125   1.157
 1369TIP3    H1 4068   1.366   5.154   1.132
 1369TIP3    H2 4069   1.222   5.199   1.126
 1370TIP3   OH2 4070   1.868   5.111   1.555
 1370TIP3    H1 4071   1.912   5.027   1.572
 1370TIP3    H2 4072   1.937   5.163   1.513
 1371TIP3   OH2 4073   1.908   5.362   1.296
 1371TIP3    H1 4074   1.849   5.414   1.237
 1371TIP3    H2 4075   1.995   5.385   1.256
 1372TIP3   OH2 4076   1.128   4.935   1.723
 1372TIP3    H1 4077   1.062   4.864   1.735
 1372TIP3    H2 4078   1.166   4.912   1.636
 1373TIP3   OH2 4079   1.389   4.371   1.367
 1373TIP3    H1 4080   1.340   4.454   1.344
 1373TIP3    H2 4081   1.319   4.303   1.355
 1374TIP3   OH2 4082   1.517   4.879   1.580
 1374TIP3    H1 4083   1.504   4.871   1.676
 1374TIP3    H2 4084   1.426   4.856   1.549
 1375TIP3   OH2 4085   1.752   4.814   1.434
 1375TIP3    H1 4086   1.677   4.831   1.494
 1375TIP3    H2 4087   1.824   4.789   1.495
 1376TIP3   OH2 4088   1.992   4.768   1.586
 1376TIP3    H1 4089   2.000   4.673   1.605
 1376TIP3    H2 4090   1.983   4.808   1.675
 1377TIP3   OH2 4091   0.967   4.715   1.776
 1377TIP3    H1 4092   0.976   4.624   1.741
 1377TIP3    H2 4093   1.004   4.704   1.865
 1378TIP3   OH2 4094   1.481   4.381   1.625
 1378TIP3    H1 4095   1.549   4.311   1.618
 1378TIP3    H2 4096   1.442   4.377   1.536
 1379TIP3   OH2 4097   1.548   4.598   1.784
 1379TIP3    H1 4098   1.527   4.528   1.719
 1379TIP3    H2 4099   1.471   4.657   1.777
 1380TIP3   OH2 4100   2.027   6.075   0.504
 1380TIP3    H1 4101   2.056   6.111   0.589
 1380TIP3    H2 4102   2.096   6.107   0.444
 1381TIP3   OH2 4103   2.059   6.093   0.785
 1381TIP3    H1 4104   2.015   6.005   0.780
 1381TIP3    H2 4105   2.139   6.070   0.834
 1382TIP3   OH2 4106   2.125   5.755   1.391
 1382TIP3    H1 4107   2.032   5.770   1.421
 1382TIP3    H2 4108   2.149   5.845   1.358
 1383TIP3   OH2 4109   1.952   5.234  -0.038
 1383TIP3    H1 4110   2.002   5.318  -0.049
 1383TIP3    H2 4111   1.986   5.206   0.050
 1384TIP3   OH2 4112   2.058   5.136   0.194
 1384TIP3    H1 4113   1.985   5.101   0.250
 1384TIP3    H2 4114   2.112   5.186   0.258
 1385TIP3   OH2 4115   2.102   5.543   0.611
 1385TIP3    H1 4116   2.154   5.476   0.562
 1385TIP3    H2 4117   2.099   5.618   0.549
 1386TIP3   OH2 4118   1.935   5.844   0.806
 1386TIP3    H1 4119   1.863   5.883   0.859
 1386TIP3    H2 4120   1.885   5.795   0.737
 1387TIP3   OH2 4121   1.976   5.016  -0.188
 1387TIP3    H1 4122   1.926   5.048  -0.264
 1387TIP3    H2 4123   1.972   5.096  -0.131
 1388TIP3   OH2 4124   1.849   4.718  -0.194
 1388TIP3    H1 4125   1.790   4.775  -0.245
 1388TIP3    H2 4126   1.805   4.631  -0.196
 1389TIP3   OH2 4127   1.862   5.003   0.329
 1389TIP3    H1 4128   1.865   4.906   0.327
 1389TIP3    H2 4129   1.845   5.022   0.424
 1390TIP3   OH2 4130   2.145   5.431   1.184
 1390TIP3    H1 4131   2.222   5.370   1.186
 1390TIP3    H2 4132   2.179   5.504   1.129
 1391TIP3   OH2 4133   2.338   5.241   1.208
 1391TIP3    H1 4134   2.260   5.190   1.239
 1391TIP3    H2 4135   2.408   5.174   1.220
 1392TIP3   OH2 4136   1.796   4.449  -0.210
 1392TIP3    H1 4137   1.888   4.429  -0.183
 1392TIP3    H2 4138   1.745   4.407  -0.139
 1393TIP3   OH2 4139   1.852   4.718   0.221
 1393TIP3    H1 4140   1.893   4.630   0.233
 1393TIP3    H2 4141   1.914   4.757   0.156
 1394TIP3   OH2 4142   2.019   4.894   0.714
 1394TIP3    H1 4143   2.105   4.920   0.675
 1394TIP3    H2 4144   2.031   4.931   0.804
 1395TIP3   OH2 4145   2.088   5.040   0.945
 1395TIP3    H1 4146   2.011   5.072   0.995
 1395TIP3    H2 4147   2.120   5.122   0.902
 1396TIP3   OH2 4148   0.699   4.765   1.744
 1396TIP3    H1 4149   0.798   4.763   1.745
 1396TIP3    H2 4150   0.680   4.677   1.783
 1397TIP3   OH2 4151   2.539   4.632   1.501
 1397TIP3    H1 4152   2.599   4.567   1.459
 1397TIP3    H2 4153   2.510   4.685   1.424
 1398TIP3   OH2 4154   1.969   4.471   0.253
 1398TIP3    H1 4155   2.016   4.458   0.338
 1398TIP3    H2 4156   1.907   4.394   0.255
 1399TIP3   OH2 4157   0.678   4.453   1.092
 1399TIP3    H1 4158   0.736   4.374   1.094
 1399TIP3    H2 4159   0.745   4.524   1.092
 1400TIP3   OH2 4160   0.521   4.718   1.178
 1400TIP3    H1 4161   0.553   4.691   1.090
 1400TIP3    H2 4162   0.555   4.808   1.180
 1401TIP3   OH2 4163   2.410   4.771   1.305
 1401TIP3    H1 4164   2.323   4.812   1.323
 1401TIP3    H2 4165   2.380   4.697   1.248
 1402TIP3   OH2 4166   2.058   4.409  -0.131
 1402TIP3    H1 4167   2.126   4.345  -0.159
 1402TIP3    H2 4168   2.114   4.489  -0.120
 1403TIP3   OH2 4169   0.681   4.306   1.472
 1403TIP3    H1 4170   0.627   4.307   1.553
 1403TIP3    H2 4171   0.619   4.348   1.409
 1404TIP3   OH2 4172   0.725   5.721   1.552
 1404TIP3    H1 4173   0.628   5.725   1.547
 1404TIP3    H2 4174   0.737   5.724   1.648
 1405TIP3   OH2 4175   1.336   6.023   1.224
 1405TIP3    H1 4176   1.376   6.022   1.314
 1405TIP3    H2 4177   1.405   6.072   1.174
 1406TIP3   OH2 4178   1.528   6.164   1.081
 1406TIP3    H1 4179   1.608   6.112   1.060
 1406TIP3    H2 4180   1.567   6.229   1.145
 1407TIP3   OH2 4181   2.310   4.533   1.186
 1407TIP3    H1 4182   2.219   4.526   1.152
 1407TIP3    H2 4183   2.340   4.440   1.176
 1408TIP3   OH2 4184   1.481   5.996   0.788
 1408TIP3    H1 4185   1.391   6.009   0.822
 1408TIP3    H2 4186   1.518   6.084   0.805
 1409TIP3   OH2 4187   1.722   6.180   0.744
 1409TIP3    H1 4188   1.662   6.241   0.698
 1409TIP3    H2 4189   1.743   6.117   0.672
 1410TIP3   OH2 4190   1.519   4.450   0.810
 1410TIP3    H1 4191   1.469   4.381   0.857
 1410TIP3    H2 4192   1.586   4.399   0.761
 1411TIP3   OH2 4193   2.038   4.327   0.709
 1411TIP3    H1 4194   2.072   4.382   0.635
 1411TIP3    H2 4195   1.942   4.345   0.704
 1412TIP3   OH2 4196   2.132   4.429   0.472
 1412TIP3    H1 4197   2.207   4.379   0.434
 1412TIP3    H2 4198   2.165   4.521   0.459
 1413TIP3   OH2 4199   0.764   4.162   0.817
 1413TIP3    H1 4200   0.673   4.130   0.830
 1413TIP3    H2 4201   0.813   4.077   0.815
 1414TIP3   OH2 4202   1.197   4.198   0.699
 1414TIP3    H1 4203   1.258   4.243   0.638
 1414TIP3    H2 4204   1.230   4.229   0.784
 1415TIP3   OH2 4205   1.756   4.335   0.684
 1415TIP3    H1 4206   1.751   4.294   0.596
 1415TIP3    H2 4207   1.741   4.257   0.742
 1416TIP3   OH2 4208   1.787   4.257   0.248
 1416TIP3    H1 4209   1.695   4.288   0.246
 1416TIP3    H2 4210   1.775   4.173   0.298
 1417TIP3   OH2 4211   0.969   4.436   1.712
 1417TIP3    H1 4212   0.935   4.365   1.769
 1417TIP3    H2 4213   1.063   4.436   1.740
 1418TIP3   OH2 4214   1.219   4.435   1.831
 1418TIP3    H1 4215   1.305   4.415   1.790
 1418TIP3    H2 4216   1.211   4.362   1.896
 1419TIP3   OH2 4217   2.045   4.495   1.620
 1419TIP3    H1 4218   2.062   4.465   1.712
 1419TIP3    H2 4219   2.134   4.490   1.580
 1420TIP3   OH2 4220   1.983   6.046   1.116
 1420TIP3    H1 4221   1.905   6.017   1.064
 1420TIP3    H2 4222   1.968   6.143   1.117
 1421TIP3   OH2 4223   3.232   5.414   0.259
 1421TIP3    H1 4224   3.279   5.408   0.344
 1421TIP3    H2 4225   3.200   5.322   0.249
 1422TIP3   OH2 4226   2.551   5.315   0.620
 1422TIP3    H1 4227   2.579   5.246   0.684
 1422TIP3    H2 4228   2.626   5.376   0.628
 1423TIP3   OH2 4229   2.516   5.728   0.349
 1423TIP3    H1 4230   2.509   5.631   0.355
 1423TIP3    H2 4231   2.612   5.741   0.355
 1424TIP3   OH2 4232   2.234   4.931   0.128
 1424TIP3    H1 4233   2.184   5.009   0.158
 1424TIP3    H2 4234   2.160   4.876   0.096
 1425TIP3   OH2 4235   2.292   5.222   0.314
 1425TIP3    H1 4236   2.341   5.143   0.345
 1425TIP3    H2 4237   2.346   5.252   0.240
 1426TIP3   OH2 4238   3.051   5.643   0.302
 1426TIP3    H1 4239   3.098   5.562   0.274
 1426TIP3    H2 4240   3.129   5.697   0.326
 1427TIP3   OH2 4241   4.056   4.961   0.319
 1427TIP3    H1 4242   4.087   5.038   0.371
 1427TIP3    H2 4243   4.048   4.998   0.231
 1428TIP3   OH2 4244   3.450   5.142   0.352
 1428TIP3    H1 4245   3.495   5.058   0.370
 1428TIP3    H2 4246   3.434   5.135   0.256
 1429TIP3   OH2 4247   2.797   4.807   0.307
 1429TIP3    H1 4248   2.775   4.880   0.245
 1429TIP3    H2 4249   2.751   4.732   0.262
 1430TIP3   OH2 4250   2.433   5.009   0.409
 1430TIP3    H1 4251   2.514   4.990   0.460
 1430TIP3    H2 4252   2.446   4.950   0.332
 1431TIP3   OH2 4253   2.879   5.204   0.194
 1431TIP3    H1 4254   2.972   5.178   0.214
 1431TIP3    H2 4255   2.840   5.118   0.169
 1432TIP3   OH2 4256   4.126   5.172   0.476
 1432TIP3    H1 4257   4.043   5.223   0.464
 1432TIP3    H2 4258   4.160   5.212   0.558
 1433TIP3   OH2 4259   2.794   4.791   0.739
 1433TIP3    H1 4260   2.733   4.829   0.673
 1433TIP3    H2 4261   2.744   4.807   0.821
 1434TIP3   OH2 4262   2.899   5.567   0.533
 1434TIP3    H1 4263   2.837   5.633   0.572
 1434TIP3    H2 4264   2.946   5.621   0.467
 1435TIP3   OH2 4265   3.720   4.893   0.123
 1435TIP3    H1 4266   3.671   4.865   0.202
 1435TIP3    H2 4267   3.746   4.984   0.145
 1436TIP3   OH2 4268   2.664   4.907   0.525
 1436TIP3    H1 4269   2.726   4.979   0.549
 1436TIP3    H2 4270   2.714   4.866   0.451
 1437TIP3   OH2 4271   2.726   5.760   0.628
 1437TIP3    H1 4272   2.705   5.850   0.595
 1437TIP3    H2 4273   2.648   5.746   0.685
 1438TIP3   OH2 4274   2.081   5.464  -0.066
 1438TIP3    H1 4275   2.064   5.491  -0.159
 1438TIP3    H2 4276   2.142   5.535  -0.038
 1439TIP3   OH2 4277   3.848   4.863   0.478
 1439TIP3    H1 4278   3.762   4.893   0.444
 1439TIP3    H2 4279   3.910   4.891   0.408
 1440TIP3   OH2 4280   3.148   4.510   0.451
 1440TIP3    H1 4281   3.136   4.416   0.470
 1440TIP3    H2 4282   3.072   4.549   0.500
 1441TIP3   OH2 4283   3.787   5.867   0.465
 1441TIP3    H1 4284   3.790   5.790   0.405
 1441TIP3    H2 4285   3.757   5.936   0.402
 1442TIP3   OH2 4286   3.974   5.500   0.301
 1442TIP3    H1 4287   3.903   5.567   0.309
 1442TIP3    H2 4288   4.000   5.514   0.210
 1443TIP3   OH2 4289   3.662   5.394   0.594
 1443TIP3    H1 4290   3.663   5.475   0.648
 1443TIP3    H2 4291   3.578   5.406   0.546
 1444TIP3   OH2 4292   2.661   5.353   0.121
 1444TIP3    H1 4293   2.612   5.302   0.054
 1444TIP3    H2 4294   2.735   5.293   0.144
 1445TIP3   OH2 4295   2.804   5.759   0.235
 1445TIP3    H1 4296   2.777   5.677   0.195
 1445TIP3    H2 4297   2.893   5.737   0.267
 1446TIP3   OH2 4298   2.804   5.323   0.449
 1446TIP3    H1 4299   2.837   5.310   0.358
 1446TIP3    H2 4300   2.842   5.410   0.473
 1447TIP3   OH2 4301   3.271   5.945   0.246
 1447TIP3    H1 4302   3.321   6.016   0.287
 1447TIP3    H2 4303   3.294   5.868   0.301
 1448TIP3   OH2 4304   2.934   5.879   0.776
 1448TIP3    H1 4305   2.875   5.943   0.822
 1448TIP3    H2 4306   2.869   5.828   0.725
 1449TIP3   OH2 4307   2.687   5.437   0.876
 1449TIP3    H1 4308   2.692   5.524   0.921
 1449TIP3    H2 4309   2.593   5.416   0.890
 1450TIP3   OH2 4310   2.729   6.047   0.861
 1450TIP3    H1 4311   2.694   6.051   0.770
 1450TIP3    H2 4312   2.649   6.023   0.913
 1451TIP3   OH2 4313   2.486   5.229  -0.067
 1451TIP3    H1 4314   2.419   5.296  -0.089
 1451TIP3    H2 4315   2.435   5.159  -0.027
 1452TIP3   OH2 4316   2.307   5.580   0.809
 1452TIP3    H1 4317   2.240   5.560   0.741
 1452TIP3    H2 4318   2.342   5.491   0.831
 1453TIP3   OH2 4319   2.162   5.772   0.447
 1453TIP3    H1 4320   2.256   5.765   0.426
 1453TIP3    H2 4321   2.160   5.852   0.501
 1454TIP3   OH2 4322   4.037   6.213   0.527
 1454TIP3    H1 4323   4.023   6.117   0.533
 1454TIP3    H2 4324   3.947   6.246   0.548
 1455TIP3   OH2 4325   3.134   6.008   0.635
 1455TIP3    H1 4326   3.132   6.102   0.663
 1455TIP3    H2 4327   3.062   5.970   0.689
 1456TIP3   OH2 4328   2.299   5.945  -0.018
 1456TIP3    H1 4329   2.380   5.958   0.034
 1456TIP3    H2 4330   2.231   5.963   0.050
 1457TIP3   OH2 4331   3.909   5.347   0.781
 1457TIP3    H1 4332   3.831   5.363   0.725
 1457TIP3    H2 4333   3.926   5.252   0.765
 1458TIP3   OH2 4334   2.513   5.760   0.796
 1458TIP3    H1 4335   2.560   5.746   0.881
 1458TIP3    H2 4336   2.438   5.697   0.804
 1459TIP3   OH2 4337   2.912   4.587   0.582
 1459TIP3    H1 4338   2.823   4.556   0.554
 1459TIP3    H2 4339   2.886   4.667   0.631
 1460TIP3   OH2 4340   3.447   4.699   0.776
 1460TIP3    H1 4341   3.515   4.674   0.841
 1460TIP3    H2 4342   3.363   4.682   0.825
 1461TIP3   OH2 4343   3.679   5.129   0.691
 1461TIP3    H1 4344   3.633   5.126   0.778
 1461TIP3    H2 4345   3.660   5.219   0.659
 1462TIP3   OH2 4346   2.843   5.101   0.600
 1462TIP3    H1 4347   2.794   5.125   0.682
 1462TIP3    H2 4348   2.829   5.183   0.546
 1463TIP3   OH2 4349   2.725   4.986   0.118
 1463TIP3    H1 4350   2.632   4.962   0.140
 1463TIP3    H2 4351   2.736   4.934   0.035
 1464TIP3   OH2 4352   3.392   5.350   0.925
 1464TIP3    H1 4353   3.373   5.278   0.989
 1464TIP3    H2 4354   3.485   5.369   0.948
 1465TIP3   OH2 4355   3.384   5.102   0.087
 1465TIP3    H1 4356   3.367   5.151   0.005
 1465TIP3    H2 4357   3.390   5.012   0.051
 1466TIP3   OH2 4358   2.662   5.130   0.809
 1466TIP3    H1 4359   2.694   5.193   0.875
 1466TIP3    H2 4360   2.651   5.049   0.861
 1467TIP3   OH2 4361   2.257   4.653   0.386
 1467TIP3    H1 4362   2.330   4.684   0.443
 1467TIP3    H2 4363   2.302   4.617   0.308
 1468TIP3   OH2 4364   2.216   4.635  -0.095
 1468TIP3    H1 4365   2.287   4.674  -0.147
 1468TIP3    H2 4366   2.160   4.712  -0.073
 1469TIP3   OH2 4367   3.372   5.351   0.501
 1469TIP3    H1 4368   3.409   5.278   0.445
 1469TIP3    H2 4369   3.349   5.300   0.581
 1470TIP3   OH2 4370   3.056   4.799   0.202
 1470TIP3    H1 4371   2.971   4.806   0.251
 1470TIP3    H2 4372   3.120   4.821   0.271
 1471TIP3   OH2 4373   2.491   4.865   0.183
 1471TIP3    H1 4374   2.396   4.874   0.155
 1471TIP3    H2 4375   2.512   4.772   0.163
 1472TIP3   OH2 4376   2.751   4.852  -0.117
 1472TIP3    H1 4377   2.848   4.835  -0.116
 1472TIP3    H2 4378   2.745   4.923  -0.184
 1473TIP3   OH2 4379   3.548   4.883   0.373
 1473TIP3    H1 4380   3.521   4.897   0.467
 1473TIP3    H2 4381   3.478   4.822   0.344
 1474TIP3   OH2 4382   3.721   6.576   0.597
 1474TIP3    H1 4383   3.711   6.618   0.511
 1474TIP3    H2 4384   3.804   6.617   0.631
 1475TIP3   OH2 4385   2.669   5.684   1.024
 1475TIP3    H1 4386   2.754   5.712   1.065
 1475TIP3    H2 4387   2.610   5.690   1.101
 1476TIP3   OH2 4388   3.140   5.137   0.271
 1476TIP3    H1 4389   3.220   5.104   0.226
 1476TIP3    H2 4390   3.149   5.099   0.360
 1477TIP3   OH2 4391   2.661   4.625   0.153
 1477TIP3    H1 4392   2.626   4.547   0.200
 1477TIP3    H2 4393   2.702   4.585   0.074
 1478TIP3   OH2 4394   3.114   5.037   0.561
 1478TIP3    H1 4395   3.025   5.074   0.578
 1478TIP3    H2 4396   3.173   5.096   0.611
 1479TIP3   OH2 4397   3.753   5.661   0.289
 1479TIP3    H1 4398   3.763   5.683   0.195
 1479TIP3    H2 4399   3.666   5.616   0.286
 1480TIP3   OH2 4400   3.240   5.740   0.657
 1480TIP3    H1 4401   3.283   5.729   0.743
 1480TIP3    H2 4402   3.212   5.833   0.659
 1481TIP3   OH2 4403   2.540   5.453   0.350
 1481TIP3    H1 4404   2.580   5.419   0.267
 1481TIP3    H2 4405   2.573   5.389   0.416
 1482TIP3   OH2 4406   2.423   5.365   0.947
 1482TIP3    H1 4407   2.438   5.349   1.043
 1482TIP3    H2 4408   2.351   5.303   0.928
 1483TIP3   OH2 4409   3.151   5.481   0.967
 1483TIP3    H1 4410   3.094   5.422   0.917
 1483TIP3    H2 4411   3.240   5.449   0.939
 1484TIP3   OH2 4412   3.410   5.999   0.553
 1484TIP3    H1 4413   3.313   6.006   0.561
 1484TIP3    H2 4414   3.437   6.051   0.632
 1485TIP3   OH2 4415   4.039   5.929   0.540
 1485TIP3    H1 4416   3.940   5.926   0.540
 1485TIP3    H2 4417   4.055   5.897   0.449
 1486TIP3   OH2 4418   3.519   5.523   0.239
 1486TIP3    H1 4419   3.423   5.513   0.230
 1486TIP3    H2 4420   3.551   5.444   0.190
 1487TIP3   OH2 4421   2.808   5.542  -0.017
 1487TIP3    H1 4422   2.743   5.613  -0.025
 1487TIP3    H2 4423   2.759   5.474   0.033
 1488TIP3   OH2 4424   2.913   6.091   0.427
 1488TIP3    H1 4425   2.948   6.165   0.373
 1488TIP3    H2 4426   2.994   6.061   0.471
 1489TIP3   OH2 4427   3.308   5.709   0.391
 1489TIP3    H1 4428   3.291   5.713   0.488
 1489TIP3    H2 4429   3.399   5.677   0.390
 1490TIP3   OH2 4430   3.548   6.271   0.453
 1490TIP3    H1 4431   3.484   6.198   0.458
 1490TIP3    H2 4432   3.528   6.305   0.365
 1491TIP3   OH2 4433   2.634   4.873   0.954
 1491TIP3    H1 4434   2.538   4.877   0.967
 1491TIP3    H2 4435   2.662   4.815   1.027
 1492TIP3   OH2 4436   2.349   5.958   0.589
 1492TIP3    H1 4437   2.405   5.885   0.620
 1492TIP3    H2 4438   2.383   6.032   0.642
 1493TIP3   OH2 4439   3.476   4.933   0.632
 1493TIP3    H1 4440   3.551   4.979   0.674
 1493TIP3    H2 4441   3.462   4.856   0.690
 1494TIP3   OH2 4442   3.015   4.814  -0.074
 1494TIP3    H1 4443   3.041   4.905  -0.099
 1494TIP3    H2 4444   3.039   4.812   0.022
 1495TIP3   OH2 4445   3.311   5.187   0.712
 1495TIP3    H1 4446   3.333   5.243   0.789
 1495TIP3    H2 4447   3.367   5.109   0.726
 1496TIP3   OH2 4448   3.184   4.596   0.050
 1496TIP3    H1 4449   3.149   4.650   0.125
 1496TIP3    H2 4450   3.254   4.656   0.022
 1497TIP3   OH2 4451   2.681   4.591  -0.179
 1497TIP3    H1 4452   2.699   4.684  -0.155
 1497TIP3    H2 4453   2.772   4.562  -0.201
 1498TIP3   OH2 4454   3.947   5.085   0.696
 1498TIP3    H1 4455   3.849   5.081   0.699
 1498TIP3    H2 4456   3.964   5.049   0.608
 1499TIP3   OH2 4457   3.593   5.287   0.115
 1499TIP3    H1 4458   3.529   5.215   0.104
 1499TIP3    H2 4459   3.674   5.239   0.139
 1500TIP3   OH2 4460   2.647   4.506   0.556
 1500TIP3    H1 4461   2.616   4.471   0.470
 1500TIP3    H2 4462   2.637   4.428   0.614
 1501TIP3   OH2 4463   2.226   5.685  -0.011
 1501TIP3    H1 4464   2.162   5.719   0.053
 1501TIP3    H2 4465   2.255   5.769  -0.051
 1502TIP3   OH2 4466   2.344   6.268   1.009
 1502TIP3    H1 4467   2.430   6.269   1.057
 1502TIP3    H2 4468   2.325   6.173   1.007
 1503TIP3   OH2 4469   2.820   6.231   1.054
 1503TIP3    H1 4470   2.915   6.217   1.063
 1503TIP3    H2 4471   2.800   6.170   0.980
 1504TIP3   OH2 4472   3.465   6.135   0.786
 1504TIP3    H1 4473   3.455   6.067   0.856
 1504TIP3    H2 4474   3.542   6.187   0.817
 1505TIP3   OH2 4475   2.460   5.658   1.225
 1505TIP3    H1 4476   2.488   5.566   1.208
 1505TIP3    H2 4477   2.380   5.664   1.168
 1506TIP3   OH2 4478   3.077   5.757   0.985
 1506TIP3    H1 4479   3.042   5.779   0.896
 1506TIP3    H2 4480   3.111   5.666   0.973
 1507TIP3   OH2 4481   3.565   5.764   0.587
 1507TIP3    H1 4482   3.646   5.803   0.548
 1507TIP3    H2 4483   3.503   5.839   0.574
 1508TIP3   OH2 4484   2.595   5.412   1.191
 1508TIP3    H1 4485   2.669   5.357   1.164
 1508TIP3    H2 4486   2.622   5.441   1.281
 1509TIP3   OH2 4487   2.925   5.289   0.850
 1509TIP3    H1 4488   2.850   5.351   0.851
 1509TIP3    H2 4489   2.978   5.323   0.774
 1510TIP3   OH2 4490   3.442   5.691   0.985
 1510TIP3    H1 4491   3.527   5.673   0.943
 1510TIP3    H2 4492   3.442   5.628   1.059
 1511TIP3   OH2 4493   3.049   5.081   0.980
 1511TIP3    H1 4494   3.051   5.001   0.923
 1511TIP3    H2 4495   3.006   5.147   0.921
 1512TIP3   OH2 4496   3.053   4.866   0.786
 1512TIP3    H1 4497   3.081   4.908   0.703
 1512TIP3    H2 4498   2.959   4.844   0.767
 1513TIP3   OH2 4499   3.078   5.398   0.657
 1513TIP3    H1 4500   3.165   5.412   0.618
 1513TIP3    H2 4501   3.024   5.467   0.613
 1514TIP3   OH2 4502   3.661   5.368   1.039
 1514TIP3    H1 4503   3.714   5.288   1.052
 1514TIP3    H2 4504   3.727   5.430   1.005
 1515TIP3   OH2 4505   3.702   5.619   0.770
 1515TIP3    H1 4506   3.644   5.674   0.713
 1515TIP3    H2 4507   3.791   5.643   0.733
 1516TIP3   OH2 4508   2.924   5.192   1.210
 1516TIP3    H1 4509   2.859   5.120   1.224
 1516TIP3    H2 4510   2.961   5.168   1.123
 1517TIP3   OH2 4511   3.184   4.628   0.853
 1517TIP3    H1 4512   3.135   4.710   0.831
 1517TIP3    H2 4513   3.115   4.560   0.843
 1518TIP3   OH2 4514   3.312   5.133   1.070
 1518TIP3    H1 4515   3.303   5.121   1.166
 1518TIP3    H2 4516   3.222   5.109   1.042
 1519TIP3   OH2 4517   3.548   5.079   0.922
 1519TIP3    H1 4518   3.475   5.085   0.987
 1519TIP3    H2 4519   3.624   5.052   0.978
 1520TIP3   OH2 4520   3.774   5.022   1.073
 1520TIP3    H1 4521   3.789   4.927   1.092
 1520TIP3    H2 4522   3.773   5.062   1.163
 1521TIP3   OH2 4523   2.768   4.970   1.264
 1521TIP3    H1 4524   2.773   4.879   1.229
 1521TIP3    H2 4525   2.806   4.958   1.353
 1522TIP3   OH2 4526   3.279   4.638   1.111
 1522TIP3    H1 4527   3.346   4.568   1.105
 1522TIP3    H2 4528   3.239   4.633   1.021
 1523TIP3   OH2 4529   3.345   4.854   1.271
 1523TIP3    H1 4530   3.324   4.783   1.206
 1523TIP3    H2 4531   3.267   4.912   1.264
 1524TIP3   OH2 4532   2.109   5.930   0.183
 1524TIP3    H1 4533   2.075   5.862   0.243
 1524TIP3    H2 4534   2.156   5.987   0.246
 1525TIP3   OH2 4535   3.897   6.024   0.842
 1525TIP3    H1 4536   3.826   6.035   0.909
 1525TIP3    H2 4537   3.940   6.112   0.845
 1526TIP3   OH2 4538   3.694   6.041   0.284
 1526TIP3    H1 4539   3.674   6.125   0.328
 1526TIP3    H2 4540   3.627   6.040   0.215
 1527TIP3   OH2 4541   2.284   5.335   0.563
 1527TIP3    H1 4542   2.281   5.305   0.470
 1527TIP3    H2 4543   2.381   5.337   0.578
 1528TIP3   OH2 4544   3.946   5.686   0.668
 1528TIP3    H1 4545   4.018   5.619   0.662
 1528TIP3    H2 4546   3.975   5.753   0.604
 1529TIP3   OH2 4547   4.123   5.485   0.694
 1529TIP3    H1 4548   4.052   5.431   0.736
 1529TIP3    H2 4549   4.200   5.425   0.705
 1530TIP3   OH2 4550   3.827   5.156   0.192
 1530TIP3    H1 4551   3.902   5.201   0.149
 1530TIP3    H2 4552   3.837   5.190   0.284
 1531TIP3   OH2 4553   3.874   5.287   0.432
 1531TIP3    H1 4554   3.799   5.323   0.483
 1531TIP3    H2 4555   3.909   5.368   0.390
 1532TIP3   OH2 4556   2.502   5.025   1.237
 1532TIP3    H1 4557   2.600   5.015   1.236
 1532TIP3    H2 4558   2.476   4.938   1.273
 1533TIP3   OH2 4559   4.334   4.885   0.990
 1533TIP3    H1 4560   4.396   4.822   0.948
 1533TIP3    H2 4561   4.306   4.940   0.914
 1534TIP3   OH2 4562   2.462   4.713   0.559
 1534TIP3    H1 4563   2.523   4.639   0.571
 1534TIP3    H2 4564   2.524   4.788   0.556
 1535TIP3   OH2 4565   2.265   4.987   0.636
 1535TIP3    H1 4566   2.315   4.986   0.552
 1535TIP3    H2 4567   2.291   5.073   0.672
 1536TIP3   OH2 4568   4.205   5.024   0.797
 1536TIP3    H1 4569   4.121   5.069   0.820
 1536TIP3    H2 4570   4.171   4.954   0.737
 1537TIP3   OH2 4571   2.249   4.492   0.134
 1537TIP3    H1 4572   2.159   4.487   0.168
 1537TIP3    H2 4573   2.239   4.551   0.057
 1538TIP3   OH2 4574   2.469   4.572   0.951
 1538TIP3    H1 4575   2.419   4.566   1.033
 1538TIP3    H2 4576   2.402   4.610   0.891
 1539TIP3   OH2 4577   2.510   5.994   1.026
 1539TIP3    H1 4578   2.416   5.971   1.014
 1539TIP3    H2 4579   2.520   5.996   1.122
 1540TIP3   OH2 4580   2.689   6.028   0.576
 1540TIP3    H1 4581   2.642   6.105   0.537
 1540TIP3    H2 4582   2.776   6.043   0.533
 1541TIP3   OH2 4583   3.128   6.276   0.713
 1541TIP3    H1 4584   3.171   6.275   0.801
 1541TIP3    H2 4585   3.193   6.331   0.664
 1542TIP3   OH2 4586   3.305   6.441   0.592
 1542TIP3    H1 4587   3.363   6.384   0.538
 1542TIP3    H2 4588   3.370   6.490   0.647
 1543TIP3   OH2 4589   4.104   4.789   0.675
 1543TIP3    H1 4590   4.014   4.782   0.639
 1543TIP3    H2 4591   4.137   4.696   0.663
 1544TIP3   OH2 4592   2.360   6.283   0.605
 1544TIP3    H1 4593   2.272   6.317   0.578
 1544TIP3    H2 4594   2.373   6.334   0.686
 1545TIP3   OH2 4595   2.599   6.261   0.465
 1545TIP3    H1 4596   2.512   6.275   0.508
 1545TIP3    H2 4597   2.582   6.297   0.376
 1546TIP3   OH2 4598   3.001   6.294   0.263
 1546TIP3    H1 4599   2.927   6.308   0.200
 1546TIP3    H2 4600   3.016   6.384   0.298
 1547TIP3   OH2 4601   3.252   6.263   0.367
 1547TIP3    H1 4602   3.163   6.258   0.328
 1547TIP3    H2 4603   3.308   6.260   0.288
 1548TIP3   OH2 4604   2.270   6.081   0.350
 1548TIP3    H1 4605   2.300   6.058   0.441
 1548TIP3    H2 4606   2.345   6.041   0.299
 1549TIP3   OH2 4607   2.467   5.962   0.207
 1549TIP3    H1 4608   2.485   5.877   0.252
 1549TIP3    H2 4609   2.557   5.999   0.200
 1550TIP3   OH2 4610   2.728   6.049   0.214
 1550TIP3    H1 4611   2.765   5.965   0.182
 1550TIP3    H2 4612   2.784   6.065   0.292
 1551TIP3   OH2 4613   3.321   4.704   0.299
 1551TIP3    H1 4614   3.272   4.636   0.349
 1551TIP3    H2 4615   3.388   4.651   0.253
 1552TIP3   OH2 4616   3.836   4.619   0.209
 1552TIP3    H1 4617   3.859   4.684   0.141
 1552TIP3    H2 4618   3.740   4.611   0.196
 1553TIP3   OH2 4619   2.558   4.413   0.306
 1553TIP3    H1 4620   2.466   4.379   0.311
 1553TIP3    H2 4621   2.607   4.329   0.303
 1554TIP3   OH2 4622   2.324   4.285  -0.049
 1554TIP3    H1 4623   2.373   4.340  -0.114
 1554TIP3    H2 4624   2.312   4.349   0.024
 1555TIP3   OH2 4625   2.999   4.439   0.194
 1555TIP3    H1 4626   3.062   4.485   0.136
 1555TIP3    H2 4627   3.020   4.479   0.280
 1556TIP3   OH2 4628   3.548   4.579   0.159
 1556TIP3    H1 4629   3.550   4.520   0.081
 1556TIP3    H2 4630   3.535   4.510   0.228
 1557TIP3   OH2 4631   2.456   4.453  -0.236
 1557TIP3    H1 4632   2.497   4.385  -0.292
 1557TIP3    H2 4633   2.536   4.505  -0.212
 1558TIP3   OH2 4634   2.954   4.568  -0.174
 1558TIP3    H1 4635   3.018   4.517  -0.123
 1558TIP3    H2 4636   2.983   4.659  -0.155
 1559TIP3   OH2 4637   2.766   4.695   1.198
 1559TIP3    H1 4638   2.730   4.625   1.255
 1559TIP3    H2 4639   2.860   4.694   1.227
 1560TIP3   OH2 4640   3.015   4.691   1.318
 1560TIP3    H1 4641   3.102   4.667   1.281
 1560TIP3    H2 4642   3.003   4.621   1.386
 1561TIP3   OH2 4643   3.842   4.752   1.106
 1561TIP3    H1 4644   3.860   4.721   1.197
 1561TIP3    H2 4645   3.931   4.749   1.065
 1562TIP3   OH2 4646   3.780   6.309   0.594
 1562TIP3    H1 4647   3.692   6.280   0.562
 1562TIP3    H2 4648   3.764   6.405   0.604
 1563TIP3   OH2 4649   4.562   4.990   0.249
 1563TIP3    H1 4650   4.569   5.067   0.189
 1563TIP3    H2 4651   4.517   5.032   0.325
 1564TIP3   OH2 4652   4.466   5.619   0.434
 1564TIP3    H1 4653   4.493   5.712   0.445
 1564TIP3    H2 4654   4.369   5.631   0.427
 1565TIP3   OH2 4655   4.066   5.806   0.294
 1565TIP3    H1 4656   4.111   5.793   0.209
 1565TIP3    H2 4657   4.116   5.742   0.349
 1566TIP3   OH2 4658   5.187   5.637   0.471
 1566TIP3    H1 4659   5.180   5.561   0.533
 1566TIP3    H2 4660   5.273   5.676   0.500
 1567TIP3   OH2 4661   4.422   5.383   0.294
 1567TIP3    H1 4662   4.455   5.462   0.341
 1567TIP3    H2 4663   4.458   5.312   0.349
 1568TIP3   OH2 4664   4.476   5.896   0.521
 1568TIP3    H1 4665   4.521   5.976   0.489
 1568TIP3    H2 4666   4.406   5.933   0.576
 1569TIP3   OH2 4667   4.191   5.634   0.464
 1569TIP3    H1 4668   4.218   5.613   0.557
 1569TIP3    H2 4669   4.143   5.553   0.440
 1570TIP3   OH2 4670   4.940   5.767   0.498
 1570TIP3    H1 4671   4.911   5.676   0.476
 1570TIP3    H2 4672   5.034   5.762   0.473
 1571TIP3   OH2 4673   4.438   5.126   0.456
 1571TIP3    H1 4674   4.346   5.148   0.476
 1571TIP3    H2 4675   4.464   5.070   0.532
 1572TIP3   OH2 4676   4.131   6.499   0.526
 1572TIP3    H1 4677   4.225   6.505   0.550
 1572TIP3    H2 4678   4.116   6.403   0.520
 1573TIP3   OH2 4679   4.263   5.931   0.704
 1573TIP3    H1 4680   4.284   5.836   0.706
 1573TIP3    H2 4681   4.179   5.932   0.653
 1574TIP3   OH2 4682   4.372   5.652   0.699
 1574TIP3    H1 4683   4.446   5.635   0.637
 1574TIP3    H2 4684   4.417   5.691   0.776
 1575TIP3   OH2 4685   4.803   5.321   0.471
 1575TIP3    H1 4686   4.795   5.234   0.431
 1575TIP3    H2 4687   4.797   5.379   0.393
 1576TIP3   OH2 4688   5.436   5.652   0.568
 1576TIP3    H1 4689   5.482   5.568   0.580
 1576TIP3    H2 4690   5.505   5.696   0.516
 1577TIP3   OH2 4691   4.728   5.446   0.702
 1577TIP3    H1 4692   4.650   5.389   0.719
 1577TIP3    H2 4693   4.752   5.416   0.612
 1578TIP3   OH2 4694   4.982   4.885   0.354
 1578TIP3    H1 4695   4.969   4.969   0.307
 1578TIP3    H2 4696   4.903   4.833   0.333
 1579TIP3   OH2 4697   5.129   5.396   0.579
 1579TIP3    H1 4698   5.124   5.373   0.674
 1579TIP3    H2 4699   5.036   5.386   0.555
 1580TIP3   OH2 4700   5.343   5.264   0.436
 1580TIP3    H1 4701   5.272   5.264   0.502
 1580TIP3    H2 4702   5.419   5.232   0.487
 1581TIP3   OH2 4703   5.606   5.291   0.557
 1581TIP3    H1 4704   5.608   5.196   0.585
 1581TIP3    H2 4705   5.583   5.335   0.641
 1582TIP3   OH2 4706   4.557   5.229   0.755
 1582TIP3    H1 4707   4.571   5.141   0.716
 1582TIP3    H2 4708   4.598   5.217   0.843
 1583TIP3   OH2 4709   5.074   4.895   0.609
 1583TIP3    H1 4710   5.140   4.823   0.605
 1583TIP3    H2 4711   5.046   4.897   0.515
 1584TIP3   OH2 4712   5.144   5.114   0.755
 1584TIP3    H1 4713   5.124   5.039   0.695
 1584TIP3    H2 4714   5.062   5.167   0.749
 1585TIP3   OH2 4715   4.292   5.270   0.704
 1585TIP3    H1 4716   4.389   5.274   0.713
 1585TIP3    H2 4717   4.273   5.188   0.755
 1586TIP3   OH2 4718   4.262   4.823   0.440
 1586TIP3    H1 4719   4.219   4.821   0.527
 1586TIP3    H2 4720   4.193   4.863   0.385
 1587TIP3   OH2 4721   4.305   6.240   0.542
 1587TIP3    H1 4722   4.213   6.213   0.520
 1587TIP3    H2 4723   4.309   6.217   0.636
 1588TIP3   OH2 4724   4.562   4.949   0.684
 1588TIP3    H1 4725   4.528   4.879   0.742
 1588TIP3    H2 4726   4.657   4.949   0.710
 1589TIP3   OH2 4727   4.813   4.949   0.803
 1589TIP3    H1 4728   4.896   4.925   0.757
 1589TIP3    H2 4729   4.806   4.877   0.868
 1590TIP3   OH2 4730   5.632   5.036   0.626
 1590TIP3    H1 4731   5.651   4.986   0.708
 1590TIP3    H2 4732   5.668   4.980   0.557
 1591TIP3   OH2 4733   1.995   6.693   0.661
 1591TIP3    H1 4734   1.956   6.726   0.577
 1591TIP3    H2 4735   2.006   6.778   0.709
 1592TIP3   OH2 4736   1.742   6.912   0.893
 1592TIP3    H1 4737   1.663   6.888   0.945
 1592TIP3    H2 4738   1.791   6.828   0.896
 1593TIP3   OH2 4739   1.288   6.200   0.920
 1593TIP3    H1 4740   1.360   6.214   0.984
 1593TIP3    H2 4741   1.222   6.264   0.948
 1594TIP3   OH2 4742   1.774   6.634   0.847
 1594TIP3    H1 4743   1.685   6.634   0.809
 1594TIP3    H2 4744   1.828   6.642   0.768
 1595TIP3   OH2 4745   1.574   6.918   1.124
 1595TIP3    H1 4746   1.546   6.830   1.151
 1595TIP3    H2 4747   1.587   6.960   1.211
 1596TIP3   OH2 4748   1.401   6.581   1.117
 1596TIP3    H1 4749   1.346   6.593   1.196
 1596TIP3    H2 4750   1.489   6.567   1.155
 1597TIP3   OH2 4751   1.649   6.579   1.234
 1597TIP3    H1 4752   1.655   6.483   1.256
 1597TIP3    H2 4753   1.638   6.621   1.322
 1598TIP3   OH2 4754   1.120   6.199   1.247
 1598TIP3    H1 4755   1.186   6.126   1.243
 1598TIP3    H2 4756   1.062   6.179   1.173
 1599TIP3   OH2 4757   1.213   6.404   1.408
 1599TIP3    H1 4758   1.184   6.333   1.346
 1599TIP3    H2 4759   1.130   6.455   1.420
 1600TIP3   OH2 4760   2.177   6.444   1.140
 1600TIP3    H1 4761   2.237   6.381   1.096
 1600TIP3    H2 4762   2.144   6.497   1.064
 1601TIP3   OH2 4763   2.041   6.582   0.950
 1601TIP3    H1 4764   1.955   6.618   0.978
 1601TIP3    H2 4765   2.012   6.520   0.881
 1602TIP3   OH2 4766   1.951   6.342   0.826
 1602TIP3    H1 4767   1.859   6.322   0.802
 1602TIP3    H2 4768   1.992   6.253   0.816
 1603TIP3   OH2 4769   0.867   6.271   1.488
 1603TIP3    H1 4770   0.933   6.227   1.433
 1603TIP3    H2 4771   0.833   6.196   1.541
 1604TIP3   OH2 4772   1.682   6.307   1.256
 1604TIP3    H1 4773   1.700   6.278   1.349
 1604TIP3    H2 4774   1.771   6.304   1.216
 1605TIP3   OH2 4775   2.433   6.600   0.407
 1605TIP3    H1 4776   2.383   6.629   0.327
 1605TIP3    H2 4777   2.371   6.627   0.478
 1606TIP3   OH2 4778   2.320   6.682   0.177
 1606TIP3    H1 4779   2.326   6.777   0.158
 1606TIP3    H2 4780   2.309   6.647   0.087
 1607TIP3   OH2 4781   2.772   6.309   0.122
 1607TIP3    H1 4782   2.736   6.221   0.144
 1607TIP3    H2 4783   2.692   6.364   0.129
 1608TIP3   OH2 4784   2.526   6.405   0.242
 1608TIP3    H1 4785   2.435   6.375   0.224
 1608TIP3    H2 4786   2.508   6.482   0.300
 1609TIP3   OH2 4787   3.079   6.501   0.431
 1609TIP3    H1 4788   3.151   6.462   0.485
 1609TIP3    H2 4789   2.998   6.471   0.476
 1610TIP3   OH2 4790   3.356   6.947   0.353
 1610TIP3    H1 4791   3.300   6.934   0.432
 1610TIP3    H2 4792   3.349   7.043   0.341
 1611TIP3   OH2 4793   2.320   6.968   0.498
 1611TIP3    H1 4794   2.334   6.952   0.591
 1611TIP3    H2 4795   2.289   6.882   0.467
 1612TIP3   OH2 4796   2.666   6.882   0.263
 1612TIP3    H1 4797   2.602   6.927   0.204
 1612TIP3    H2 4798   2.746   6.931   0.239
 1613TIP3   OH2 4799   2.265   6.680   0.605
 1613TIP3    H1 4800   2.168   6.680   0.621
 1613TIP3    H2 4801   2.297   6.626   0.678
 1614TIP3   OH2 4802   3.114   6.725   0.293
 1614TIP3    H1 4803   3.186   6.767   0.341
 1614TIP3    H2 4804   3.107   6.639   0.342
 1615TIP3   OH2 4805   2.919   6.998   0.407
 1615TIP3    H1 4806   2.956   6.979   0.494
 1615TIP3    H2 4807   2.969   6.939   0.348
 1616TIP3   OH2 4808   2.272   6.314   0.197
 1616TIP3    H1 4809   2.271   6.280   0.105
 1616TIP3    H2 4810   2.267   6.233   0.250
 1617TIP3   OH2 4811   2.690   6.858   0.628
 1617TIP3    H1 4812   2.705   6.773   0.581
 1617TIP3    H2 4813   2.642   6.907   0.560
 1618TIP3   OH2 4814   2.693   6.668   0.427
 1618TIP3    H1 4815   2.683   6.745   0.368
 1618TIP3    H2 4816   2.599   6.636   0.428
 1619TIP3   OH2 4817   3.342   7.183   0.592
 1619TIP3    H1 4818   3.313   7.093   0.610
 1619TIP3    H2 4819   3.403   7.198   0.666
 1620TIP3   OH2 4820   2.557   7.006   0.831
 1620TIP3    H1 4821   2.493   6.939   0.863
 1620TIP3    H2 4822   2.599   6.958   0.757
 1621TIP3   OH2 4823   2.821   6.431   0.498
 1621TIP3    H1 4824   2.774   6.511   0.468
 1621TIP3    H2 4825   2.754   6.361   0.483
 1622TIP3   OH2 4826   2.947   6.947   0.702
 1622TIP3    H1 4827   2.945   6.926   0.797
 1622TIP3    H2 4828   2.859   6.913   0.676
 1623TIP3   OH2 4829   3.189   6.907   0.563
 1623TIP3    H1 4830   3.110   6.909   0.622
 1623TIP3    H2 4831   3.254   6.861   0.621
 1624TIP3   OH2 4832   3.409   6.833   0.706
 1624TIP3    H1 4833   3.429   6.739   0.729
 1624TIP3    H2 4834   3.411   6.877   0.794
 1625TIP3   OH2 4835   2.404   6.778   0.890
 1625TIP3    H1 4836   2.411   6.684   0.864
 1625TIP3    H2 4837   2.435   6.775   0.982
 1626TIP3   OH2 4838   2.915   6.453   0.753
 1626TIP3    H1 4839   2.984   6.384   0.747
 1626TIP3    H2 4840   2.875   6.445   0.664
 1627TIP3   OH2 4841   2.983   6.672   0.905
 1627TIP3    H1 4842   2.963   6.598   0.844
 1627TIP3    H2 4843   2.902   6.727   0.900
 1628TIP3   OH2 4844   2.135   6.834   0.883
 1628TIP3    H1 4845   2.233   6.822   0.880
 1628TIP3    H2 4846   2.107   6.745   0.912
 1629TIP3   OH2 4847   3.977   6.689   0.642
 1629TIP3    H1 4848   4.032   6.623   0.595
 1629TIP3    H2 4849   3.944   6.744   0.568
 1630TIP3   OH2 4850   3.837   6.864   0.486
 1630TIP3    H1 4851   3.744   6.890   0.489
 1630TIP3    H2 4852   3.835   6.798   0.413
 1631TIP3   OH2 4853   2.105   6.386   0.588
 1631TIP3    H1 4854   2.054   6.384   0.671
 1631TIP3    H2 4855   2.059   6.457   0.540
 1632TIP3   OH2 4856   2.404   6.502   0.835
 1632TIP3    H1 4857   2.368   6.434   0.895
 1632TIP3    H2 4858   2.498   6.503   0.863
 1633TIP3   OH2 4859   2.653   6.504   0.955
 1633TIP3    H1 4860   2.739   6.482   0.915
 1633TIP3    H2 4861   2.644   6.433   1.022
 1634TIP3   OH2 4862   3.488   6.573   0.750
 1634TIP3    H1 4863   3.504   6.539   0.841
 1634TIP3    H2 4864   3.576   6.563   0.709
 1635TIP3   OH2 4865   1.427   0.214   3.838
 1635TIP3    H1 4866   1.434   0.146   3.907
 1635TIP3    H2 4867   1.459   0.293   3.885
 1636TIP3   OH2 4868   1.074   0.674   3.846
 1636TIP3    H1 4869   1.127   0.605   3.801
 1636TIP3    H2 4870   1.072   0.642   3.937
 1637TIP3   OH2 4871   2.052  -0.348   4.396
 1637TIP3    H1 4872   1.995  -0.288   4.345
 1637TIP3    H2 4873   2.109  -0.286   4.445
 1638TIP3   OH2 4874   1.500   0.454   3.997
 1638TIP3    H1 4875   1.411   0.447   4.037
 1638TIP3    H2 4876   1.494   0.542   3.954
 1639TIP3   OH2 4877   1.210   0.497   3.685
 1639TIP3    H1 4878   1.258   0.416   3.657
 1639TIP3    H2 4879   1.268   0.564   3.642
 1640TIP3   OH2 4880   1.345   0.280   3.583
 1640TIP3    H1 4881   1.323   0.196   3.542
 1640TIP3    H2 4882   1.384   0.251   3.668
 1641TIP3   OH2 4883   1.728   0.370   4.343
 1641TIP3    H1 4884   1.720   0.291   4.286
 1641TIP3    H2 4885   1.713   0.443   4.280
 1642TIP3   OH2 4886   1.926   0.004   4.191
 1642TIP3    H1 4887   1.843   0.056   4.197
 1642TIP3    H2 4888   1.955   0.026   4.101
 1643TIP3   OH2 4889   1.625  -0.100   4.490
 1643TIP3    H1 4890   1.609  -0.021   4.545
 1643TIP3    H2 4891   1.535  -0.127   4.466
 1644TIP3   OH2 4892   1.258   0.452   4.116
 1644TIP3    H1 4893   1.247   0.532   4.170
 1644TIP3    H2 4894   1.246   0.379   4.181
 1645TIP3   OH2 4895   0.937   0.422   3.638
 1645TIP3    H1 4896   1.025   0.432   3.678
 1645TIP3    H2 4897   0.879   0.470   3.697
 1646TIP3   OH2 4898   1.965   0.712   4.387
 1646TIP3    H1 4899   1.966   0.616   4.404
 1646TIP3    H2 4900   1.883   0.737   4.435
 1647TIP3   OH2 4901   1.078   0.507   4.524
 1647TIP3    H1 4902   1.080   0.601   4.550
 1647TIP3    H2 4903   1.019   0.470   4.591
 1648TIP3   OH2 4904   1.074   0.593   3.413
 1648TIP3    H1 4905   1.002   0.558   3.467
 1648TIP3    H2 4906   1.148   0.540   3.445
 1649TIP3   OH2 4907   1.856  -0.134   4.653
 1649TIP3    H1 4908   1.768  -0.130   4.611
 1649TIP3    H2 4909   1.862  -0.226   4.685
 1650TIP3   OH2 4910   1.658   1.063   4.490
 1650TIP3    H1 4911   1.658   1.086   4.396
 1650TIP3    H2 4912   1.738   1.110   4.522
 1651TIP3   OH2 4913   1.695   0.153   4.179
 1651TIP3    H1 4914   1.721   0.203   4.098
 1651TIP3    H2 4915   1.611   0.110   4.151
 1652TIP3   OH2 4916   1.222   0.230   4.539
 1652TIP3    H1 4917   1.253   0.180   4.617
 1652TIP3    H2 4918   1.169   0.301   4.578
 1653TIP3   OH2 4919   1.353   0.495   4.439
 1653TIP3    H1 4920   1.257   0.492   4.455
 1653TIP3    H2 4921   1.383   0.545   4.517
 1654TIP3   OH2 4922   1.979   0.424   4.431
 1654TIP3    H1 4923   1.881   0.419   4.424
 1654TIP3    H2 4924   2.004   0.393   4.342
 1655TIP3   OH2 4925   1.493   0.366   3.275
 1655TIP3    H1 4926   1.478   0.325   3.362
 1655TIP3    H2 4927   1.535   0.294   3.228
 1656TIP3   OH2 4928   1.466   0.015   4.095
 1656TIP3    H1 4929   1.381  -0.011   4.133
 1656TIP3    H2 4930   1.495  -0.068   4.051
 1657TIP3   OH2 4931   0.890   0.545   4.305
 1657TIP3    H1 4932   0.904   0.631   4.262
 1657TIP3    H2 4933   0.949   0.550   4.382
 1658TIP3   OH2 4934   1.270   0.215   4.274
 1658TIP3    H1 4935   1.259   0.235   4.370
 1658TIP3    H2 4936   1.364   0.195   4.270
 1659TIP3   OH2 4937   1.489   0.751   4.329
 1659TIP3    H1 4938   1.410   0.694   4.322
 1659TIP3    H2 4939   1.474   0.815   4.256
 1660TIP3   OH2 4940   1.544   0.594   2.996
 1660TIP3    H1 4941   1.598   0.648   2.936
 1660TIP3    H2 4942   1.472   0.657   3.019
 1661TIP3   OH2 4943   1.800  -0.448   4.514
 1661TIP3    H1 4944   1.723  -0.414   4.467
 1661TIP3    H2 4945   1.873  -0.410   4.463
 1662TIP3   OH2 4946   1.533  -0.233   3.981
 1662TIP3    H1 4947   1.477  -0.310   3.999
 1662TIP3    H2 4948   1.619  -0.265   4.018
 1663TIP3   OH2 4949   1.511   0.726   3.922
 1663TIP3    H1 4950   1.468   0.773   3.847
 1663TIP3    H2 4951   1.605   0.745   3.901
 1664TIP3   OH2 4952   1.409   0.625   4.674
 1664TIP3    H1 4953   1.393   0.563   4.748
 1664TIP3    H2 4954   1.484   0.678   4.706
 1665TIP3   OH2 4955   1.514   0.250   4.470
 1665TIP3    H1 4956   1.591   0.299   4.434
 1665TIP3    H2 4957   1.446   0.319   4.470
 1666TIP3   OH2 4958   1.426   0.237   4.914
 1666TIP3    H1 4959   1.500   0.216   4.856
 1666TIP3    H2 4960   1.441   0.169   4.984
 1667TIP3   OH2 4961   1.646   0.120   4.671
 1667TIP3    H1 4962   1.585   0.166   4.609
 1667TIP3    H2 4963   1.733   0.138   4.627
 1668TIP3   OH2 4964   1.763   0.820   3.880
 1668TIP3    H1 4965   1.793   0.846   3.969
 1668TIP3    H2 4966   1.832   0.858   3.822
 1669TIP3   OH2 4967   1.796   0.836   4.161
 1669TIP3    H1 4968   1.749   0.751   4.156
 1669TIP3    H2 4969   1.868   0.811   4.221
 1670TIP3   OH2 4970   1.837   0.515   4.732
 1670TIP3    H1 4971   1.766   0.523   4.799
 1670TIP3    H2 4972   1.881   0.602   4.738
 1671TIP3   OH2 4973   1.672   0.067   3.390
 1671TIP3    H1 4974   1.752   0.097   3.342
 1671TIP3    H2 4975   1.706  -0.008   3.441
 1672TIP3   OH2 4976   1.794  -0.119   3.555
 1672TIP3    H1 4977   1.726  -0.158   3.614
 1672TIP3    H2 4978   1.853  -0.073   3.618
 1673TIP3   OH2 4979   1.836   0.286   3.985
 1673TIP3    H1 4980   1.891   0.219   3.941
 1673TIP3    H2 4981   1.834   0.359   3.921
 1674TIP3   OH2 4982   1.668   0.589   4.182
 1674TIP3    H1 4983   1.597   0.628   4.236
 1674TIP3    H2 4984   1.618   0.541   4.113
 1675TIP3   OH2 4985   1.622  -0.256   3.716
 1675TIP3    H1 4986   1.607  -0.351   3.720
 1675TIP3    H2 4987   1.586  -0.226   3.802
 1676TIP3   OH2 4988   1.887   0.182   4.554
 1676TIP3    H1 4989   1.958   0.116   4.545
 1676TIP3    H2 4990   1.918   0.254   4.496
 1677TIP3   OH2 4991   2.077  -0.007   4.570
 1677TIP3    H1 4992   1.999  -0.054   4.608
 1677TIP3    H2 4993   2.147  -0.072   4.591
 1678TIP3   OH2 4994   1.756  -0.341   4.095
 1678TIP3    H1 4995   1.842  -0.318   4.053
 1678TIP3    H2 4996   1.771  -0.300   4.183
 1679TIP3   OH2 4997   1.817  -0.209   4.324
 1679TIP3    H1 4998   1.751  -0.166   4.383
 1679TIP3    H2 4999   1.858  -0.130   4.282
 1680TIP3   OH2 5000   1.359   0.675   3.542
 1680TIP3    H1 5001   1.403   0.673   3.454
 1680TIP3    H2 5002   1.402   0.750   3.585
 1681TIP3   OH2 5003   1.072   0.767   4.603
 1681TIP3    H1 5004   1.112   0.765   4.693
 1681TIP3    H2 5005   1.138   0.820   4.554
 1682TIP3   OH2 5006   1.252   0.918   4.465
 1682TIP3    H1 5007   1.324   0.866   4.425
 1682TIP3    H2 5008   1.303   0.974   4.528
 1683TIP3   OH2 5009   0.598   0.750   4.284
 1683TIP3    H1 5010   0.567   0.727   4.375
 1683TIP3    H2 5011   0.524   0.800   4.245
 1684TIP3   OH2 5012   0.971   0.789   4.144
 1684TIP3    H1 5013   0.901   0.806   4.079
 1684TIP3    H2 5014   0.979   0.876   4.187
 1685TIP3   OH2 5015   1.235   0.722   4.200
 1685TIP3    H1 5016   1.140   0.739   4.182
 1685TIP3    H2 5017   1.277   0.798   4.158
 1686TIP3   OH2 5018   1.446   0.917   4.115
 1686TIP3    H1 5019   1.428   1.000   4.065
 1686TIP3    H2 5020   1.469   0.855   4.042
 1687TIP3   OH2 5021   0.707   0.585   4.079
 1687TIP3    H1 5022   0.670   0.497   4.087
 1687TIP3    H2 5023   0.691   0.620   4.169
 1688TIP3   OH2 5024   1.492   0.649   3.300
 1688TIP3    H1 5025   1.494   0.551   3.293
 1688TIP3    H2 5026   1.444   0.673   3.220
 1689TIP3   OH2 5027   1.721   0.795   4.489
 1689TIP3    H1 5028   1.641   0.762   4.442
 1689TIP3    H2 5029   1.698   0.889   4.497
 1690TIP3   OH2 5030   2.989   0.162   3.253
 1690TIP3    H1 5031   2.965   0.256   3.242
 1690TIP3    H2 5032   2.906   0.119   3.228
 1691TIP3   OH2 5033   2.961   0.170   3.627
 1691TIP3    H1 5034   2.998   0.159   3.718
 1691TIP3    H2 5035   2.932   0.078   3.612
 1692TIP3   OH2 5036   2.282   0.074   3.998
 1692TIP3    H1 5037   2.309   0.004   4.061
 1692TIP3    H2 5038   2.365   0.122   3.990
 1693TIP3   OH2 5039   3.227   0.465   3.325
 1693TIP3    H1 5040   3.221   0.394   3.392
 1693TIP3    H2 5041   3.259   0.539   3.379
 1694TIP3   OH2 5042   2.255   0.470   3.727
 1694TIP3    H1 5043   2.247   0.372   3.728
 1694TIP3    H2 5044   2.352   0.480   3.726
 1695TIP3   OH2 5045   1.962  -0.331   3.507
 1695TIP3    H1 5046   1.918  -0.244   3.521
 1695TIP3    H2 5047   1.886  -0.389   3.512
 1696TIP3   OH2 5048   2.023  -0.032   3.686
 1696TIP3    H1 5049   2.073  -0.107   3.725
 1696TIP3    H2 5050   2.086   0.005   3.624
 1697TIP3   OH2 5051   2.880   0.930   3.338
 1697TIP3    H1 5052   2.924   0.860   3.287
 1697TIP3    H2 5053   2.876   0.890   3.426
 1698TIP3   OH2 5054   2.787   0.391   3.686
 1698TIP3    H1 5055   2.829   0.312   3.646
 1698TIP3    H2 5056   2.869   0.439   3.711
 1699TIP3   OH2 5057   3.215  -0.090   3.723
 1699TIP3    H1 5058   3.243  -0.180   3.751
 1699TIP3    H2 5059   3.172  -0.110   3.638
 1700TIP3   OH2 5060   2.531  -0.401   3.707
 1700TIP3    H1 5061   2.531  -0.318   3.656
 1700TIP3    H2 5062   2.501  -0.462   3.638
 1701TIP3   OH2 5063   3.246  -0.311   3.318
 1701TIP3    H1 5064   3.322  -0.365   3.343
 1701TIP3    H2 5065   3.257  -0.306   3.222
 1702TIP3   OH2 5066   2.173  -0.232   3.791
 1702TIP3    H1 5067   2.247  -0.254   3.851
 1702TIP3    H2 5068   2.188  -0.296   3.720
 1703TIP3   OH2 5069   2.609  -0.039   3.584
 1703TIP3    H1 5070   2.704  -0.060   3.595
 1703TIP3    H2 5071   2.575  -0.123   3.547
 1704TIP3   OH2 5072   3.869  -0.076   3.853
 1704TIP3    H1 5073   3.803  -0.014   3.817
 1704TIP3    H2 5074   3.901  -0.030   3.931
 1705TIP3   OH2 5075   2.880   0.390   3.123
 1705TIP3    H1 5076   2.833   0.369   3.041
 1705TIP3    H2 5077   2.834   0.472   3.151
 1706TIP3   OH2 5078   2.636   0.311   3.911
 1706TIP3    H1 5079   2.577   0.378   3.951
 1706TIP3    H2 5080   2.685   0.363   3.845
 1707TIP3   OH2 5081   2.394  -0.330   3.926
 1707TIP3    H1 5082   2.451  -0.264   3.969
 1707TIP3    H2 5083   2.447  -0.349   3.846
 1708TIP3   OH2 5084   2.464   0.506   4.012
 1708TIP3    H1 5085   2.440   0.594   3.976
 1708TIP3    H2 5086   2.386   0.489   4.068
 1709TIP3   OH2 5087   1.876   0.198   3.252
 1709TIP3    H1 5088   1.824   0.232   3.178
 1709TIP3    H2 5089   1.908   0.281   3.292
 1710TIP3   OH2 5090   3.298   0.714   3.487
 1710TIP3    H1 5091   3.210   0.701   3.527
 1710TIP3    H2 5092   3.287   0.800   3.444
 1711TIP3   OH2 5093   2.999   0.757   3.158
 1711TIP3    H1 5094   3.050   0.674   3.142
 1711TIP3    H2 5095   3.062   0.822   3.118
 1712TIP3   OH2 5096   3.146   0.542   3.072
 1712TIP3    H1 5097   3.098   0.464   3.039
 1712TIP3    H2 5098   3.182   0.507   3.157
 1713TIP3   OH2 5099   3.545   0.625   3.834
 1713TIP3    H1 5100   3.496   0.543   3.813
 1713TIP3    H2 5101   3.509   0.687   3.768
 1714TIP3   OH2 5102   2.812   0.014   3.086
 1714TIP3    H1 5103   2.733   0.068   3.064
 1714TIP3    H2 5104   2.861   0.014   3.002
 1715TIP3   OH2 5105   2.793  -0.196   2.804
 1715TIP3    H1 5106   2.861  -0.143   2.849
 1715TIP3    H2 5107   2.851  -0.253   2.749
 1716TIP3   OH2 5108   3.731   0.259   3.679
 1716TIP3    H1 5109   3.645   0.308   3.683
 1716TIP3    H2 5110   3.755   0.280   3.586
 1717TIP3   OH2 5111   3.168   0.101   3.058
 1717TIP3    H1 5112   3.111   0.123   3.136
 1717TIP3    H2 5113   3.252   0.079   3.103
 1718TIP3   OH2 5114   2.397   0.098   3.476
 1718TIP3    H1 5115   2.361   0.037   3.408
 1718TIP3    H2 5116   2.475   0.049   3.510
 1719TIP3   OH2 5117   2.530   0.512   3.625
 1719TIP3    H1 5118   2.510   0.467   3.542
 1719TIP3    H2 5119   2.619   0.476   3.646
 1720TIP3   OH2 5120   2.529   0.072   3.828
 1720TIP3    H1 5121   2.567   0.049   3.741
 1720TIP3    H2 5122   2.575   0.156   3.850
 1721TIP3   OH2 5123   3.057   0.707   3.608
 1721TIP3    H1 5124   3.056   0.782   3.671
 1721TIP3    H2 5125   3.043   0.630   3.667
 1722TIP3   OH2 5126   2.670   0.636   4.153
 1722TIP3    H1 5127   2.606   0.691   4.202
 1722TIP3    H2 5128   2.610   0.574   4.108
 1723TIP3   OH2 5129   3.005  -0.038   2.888
 1723TIP3    H1 5130   3.064   0.023   2.938
 1723TIP3    H2 5131   3.032  -0.017   2.795
 1724TIP3   OH2 5132   2.428   0.187   4.255
 1724TIP3    H1 5133   2.432   0.272   4.303
 1724TIP3    H2 5134   2.334   0.164   4.268
 1725TIP3   OH2 5135   2.748   0.637   3.160
 1725TIP3    H1 5136   2.829   0.687   3.175
 1725TIP3    H2 5137   2.688   0.703   3.122
 1726TIP3   OH2 5138   2.461   0.798   4.243
 1726TIP3    H1 5139   2.427   0.793   4.152
 1726TIP3    H2 5140   2.382   0.774   4.297
 1727TIP3   OH2 5141   2.266  -0.062   3.273
 1727TIP3    H1 5142   2.197  -0.017   3.220
 1727TIP3    H2 5143   2.216  -0.135   3.312
 1728TIP3   OH2 5144   3.320   0.565   2.482
 1728TIP3    H1 5145   3.328   0.662   2.468
 1728TIP3    H2 5146   3.413   0.536   2.470
 1729TIP3   OH2 5147   2.044   0.325   4.188
 1729TIP3    H1 5148   1.981   0.299   4.119
 1729TIP3    H2 5149   2.085   0.240   4.214
 1730TIP3   OH2 5150   1.899   0.517   3.820
 1730TIP3    H1 5151   1.995   0.507   3.811
 1730TIP3    H2 5152   1.893   0.594   3.878
 1731TIP3   OH2 5153   3.759   0.971   3.877
 1731TIP3    H1 5154   3.763   0.873   3.885
 1731TIP3    H2 5155   3.672   0.988   3.919
 1732TIP3   OH2 5156   2.865   0.757   4.007
 1732TIP3    H1 5157   2.863   0.847   4.044
 1732TIP3    H2 5158   2.797   0.712   4.062
 1733TIP3   OH2 5159   2.629   0.883   2.964
 1733TIP3    H1 5160   2.584   0.866   2.879
 1733TIP3    H2 5161   2.597   0.972   2.988
 1734TIP3   OH2 5162   2.067   0.732   3.350
 1734TIP3    H1 5163   2.115   0.724   3.435
 1734TIP3    H2 5164   2.017   0.648   3.350
 1735TIP3   OH2 5165   2.830   0.784   2.603
 1735TIP3    H1 5166   2.889   0.715   2.567
 1735TIP3    H2 5167   2.866   0.794   2.694
 1736TIP3   OH2 5168   2.881   0.832   2.874
 1736TIP3    H1 5169   2.793   0.841   2.916
 1736TIP3    H2 5170   2.932   0.792   2.946
 1737TIP3   OH2 5171   3.657   0.128   4.162
 1737TIP3    H1 5172   3.577   0.147   4.111
 1737TIP3    H2 5173   3.667   0.032   4.151
 1738TIP3   OH2 5174   2.247   0.511   4.179
 1738TIP3    H1 5175   2.299   0.491   4.259
 1738TIP3    H2 5176   2.174   0.445   4.186
 1739TIP3   OH2 5177   3.423  -0.106   4.098
 1739TIP3    H1 5178   3.410  -0.096   4.195
 1739TIP3    H2 5179   3.355  -0.048   4.061
 1740TIP3   OH2 5180   3.086   0.013   2.638
 1740TIP3    H1 5181   3.051  -0.022   2.553
 1740TIP3    H2 5182   3.166   0.058   2.607
 1741TIP3   OH2 5183   2.587  -0.138   3.989
 1741TIP3    H1 5184   2.535  -0.109   4.066
 1741TIP3    H2 5185   2.570  -0.063   3.927
 1742TIP3   OH2 5186   2.466  -0.255   3.489
 1742TIP3    H1 5187   2.376  -0.286   3.512
 1742TIP3    H2 5188   2.482  -0.305   3.406
 1743TIP3   OH2 5189   2.957  -0.178   3.219
 1743TIP3    H1 5190   2.904  -0.107   3.177
 1743TIP3    H2 5191   3.012  -0.209   3.144
 1744TIP3   OH2 5192   3.137   0.099   4.297
 1744TIP3    H1 5193   3.106   0.039   4.368
 1744TIP3    H2 5194   3.226   0.123   4.330
 1745TIP3   OH2 5195   3.106  -0.131   3.467
 1745TIP3    H1 5196   3.041  -0.096   3.403
 1745TIP3    H2 5197   3.154  -0.194   3.408
 1746TIP3   OH2 5198   2.388  -0.111   4.174
 1746TIP3    H1 5199   2.417  -0.063   4.253
 1746TIP3    H2 5200   2.394  -0.205   4.204
 1747TIP3   OH2 5201   3.052   0.084   3.862
 1747TIP3    H1 5202   3.121   0.031   3.817
 1747TIP3    H2 5203   3.089   0.088   3.951
 1748TIP3   OH2 5204   2.760  -0.418   3.532
 1748TIP3    H1 5205   2.683  -0.434   3.588
 1748TIP3    H2 5206   2.829  -0.406   3.601
 1749TIP3   OH2 5207   2.225  -0.377   3.554
 1749TIP3    H1 5208   2.131  -0.358   3.531
 1749TIP3    H2 5209   2.221  -0.474   3.561
 1750TIP3   OH2 5210   2.513  -0.379   3.231
 1750TIP3    H1 5211   2.611  -0.373   3.238
 1750TIP3    H2 5212   2.498  -0.332   3.148
 1751TIP3   OH2 5213   3.451   1.319   3.974
 1751TIP3    H1 5214   3.444   1.334   3.877
 1751TIP3    H2 5215   3.523   1.379   3.997
 1752TIP3   OH2 5216   2.410   0.434   4.396
 1752TIP3    H1 5217   2.491   0.461   4.444
 1752TIP3    H2 5218   2.347   0.427   4.471
 1753TIP3   OH2 5219   2.867  -0.108   3.645
 1753TIP3    H1 5220   2.936  -0.156   3.597
 1753TIP3    H2 5221   2.874  -0.148   3.733
 1754TIP3   OH2 5222   2.849  -0.216   3.960
 1754TIP3    H1 5223   2.758  -0.181   3.969
 1754TIP3    H2 5224   2.903  -0.144   3.999
 1755TIP3   OH2 5225   2.585   0.171   3.035
 1755TIP3    H1 5226   2.506   0.114   3.024
 1755TIP3    H2 5227   2.571   0.205   3.127
 1756TIP3   OH2 5228   3.500   0.394   3.667
 1756TIP3    H1 5229   3.504   0.454   3.591
 1756TIP3    H2 5230   3.405   0.370   3.671
 1757TIP3   OH2 5231   3.013  -0.499   2.887
 1757TIP3    H1 5232   2.917  -0.494   2.891
 1757TIP3    H2 5233   3.039  -0.406   2.902
 1758TIP3   OH2 5234   2.941   0.477   4.055
 1758TIP3    H1 5235   3.028   0.457   4.092
 1758TIP3    H2 5236   2.941   0.574   4.047
 1759TIP3   OH2 5237   3.124  -0.265   2.992
 1759TIP3    H1 5238   3.218  -0.245   3.009
 1759TIP3    H2 5239   3.094  -0.185   2.944
 1760TIP3   OH2 5240   2.276   0.192   3.710
 1760TIP3    H1 5241   2.319   0.163   3.627
 1760TIP3    H2 5242   2.322   0.136   3.775
 1761TIP3   OH2 5243   2.730   0.318   2.855
 1761TIP3    H1 5244   2.683   0.405   2.861
 1761TIP3    H2 5245   2.677   0.264   2.917
 1762TIP3   OH2 5246   2.163   0.117   4.325
 1762TIP3    H1 5247   2.184   0.105   4.420
 1762TIP3    H2 5248   2.093   0.050   4.313
 1763TIP3   OH2 5249   2.892   0.224   4.346
 1763TIP3    H1 5250   2.829   0.176   4.289
 1763TIP3    H2 5251   2.977   0.195   4.308
 1764TIP3   OH2 5252   3.139   0.804   3.906
 1764TIP3    H1 5253   3.053   0.764   3.921
 1764TIP3    H2 5254   3.170   0.819   3.997
 1765TIP3   OH2 5255   3.555  -0.178   2.837
 1765TIP3    H1 5256   3.492  -0.212   2.769
 1765TIP3    H2 5257   3.558  -0.086   2.804
 1766TIP3   OH2 5258   3.790   0.694   3.913
 1766TIP3    H1 5259   3.692   0.679   3.909
 1766TIP3    H2 5260   3.814   0.653   3.827
 1767TIP3   OH2 5261   3.256   0.639   2.747
 1767TIP3    H1 5262   3.232   0.570   2.810
 1767TIP3    H2 5263   3.270   0.590   2.664
 1768TIP3   OH2 5264   3.247   0.281   3.550
 1768TIP3    H1 5265   3.165   0.255   3.594
 1768TIP3    H2 5266   3.284   0.195   3.524
 1769TIP3   OH2 5267   2.381   0.496   3.335
 1769TIP3    H1 5268   2.378   0.578   3.283
 1769TIP3    H2 5269   2.287   0.477   3.347
 1770TIP3   OH2 5270   2.516   0.261   3.278
 1770TIP3    H1 5271   2.483   0.350   3.299
 1770TIP3    H2 5272   2.485   0.211   3.356
 1771TIP3   OH2 5273   2.651   0.840   3.807
 1771TIP3    H1 5274   2.697   0.909   3.757
 1771TIP3    H2 5275   2.724   0.799   3.856
 1772TIP3   OH2 5276   2.298   0.738   3.190
 1772TIP3    H1 5277   2.213   0.746   3.238
 1772TIP3    H2 5278   2.330   0.831   3.194
 1773TIP3   OH2 5279   3.038   0.479   3.772
 1773TIP3    H1 5280   3.022   0.462   3.866
 1773TIP3    H2 5281   3.126   0.436   3.766
 1774TIP3   OH2 5282   3.012   0.367   2.650
 1774TIP3    H1 5283   3.069   0.340   2.726
 1774TIP3    H2 5284   2.925   0.341   2.684
 1775TIP3   OH2 5285   3.290   1.016   3.826
 1775TIP3    H1 5286   3.222   0.945   3.836
 1775TIP3    H2 5287   3.259   1.063   3.746
 1776TIP3   OH2 5288   3.352   0.840   2.468
 1776TIP3    H1 5289   3.391   0.912   2.415
 1776TIP3    H2 5290   3.272   0.886   2.501
 1777TIP3   OH2 5291   3.175   0.298   2.861
 1777TIP3    H1 5292   3.163   0.235   2.935
 1777TIP3    H2 5293   3.272   0.296   2.852
 1778TIP3   OH2 5294   2.088   0.702   3.966
 1778TIP3    H1 5295   2.141   0.625   3.993
 1778TIP3    H2 5296   2.118   0.767   4.031
 1779TIP3   OH2 5297   2.375   0.361   2.650
 1779TIP3    H1 5298   2.400   0.270   2.630
 1779TIP3    H2 5299   2.349   0.349   2.743
 1780TIP3   OH2 5300   2.325   0.364   2.925
 1780TIP3    H1 5301   2.395   0.333   2.984
 1780TIP3    H2 5302   2.335   0.462   2.932
 1781TIP3   OH2 5303   2.058   0.045   3.122
 1781TIP3    H1 5304   1.996   0.090   3.183
 1781TIP3    H2 5305   2.077   0.121   3.063
 1782TIP3   OH2 5306   2.591   0.551   2.866
 1782TIP3    H1 5307   2.506   0.578   2.906
 1782TIP3    H2 5308   2.610   0.629   2.811
 1783TIP3   OH2 5309   2.778  -0.378   3.268
 1783TIP3    H1 5310   2.843  -0.304   3.259
 1783TIP3    H2 5311   2.773  -0.386   3.367
 1784TIP3   OH2 5312   3.037  -0.066   4.104
 1784TIP3    H1 5313   3.073  -0.005   4.171
 1784TIP3    H2 5314   3.075  -0.152   4.128
 1785TIP3   OH2 5315   2.339   0.634   2.938
 1785TIP3    H1 5316   2.306   0.703   2.877
 1785TIP3    H2 5317   2.319   0.674   3.026
 1786TIP3   OH2 5318   3.640  -0.206   3.968
 1786TIP3    H1 5319   3.556  -0.168   3.997
 1786TIP3    H2 5320   3.668  -0.143   3.900
 1787TIP3   OH2 5321   3.344   0.024   3.456
 1787TIP3    H1 5322   3.264  -0.025   3.482
 1787TIP3    H2 5323   3.413  -0.021   3.510
 1788TIP3   OH2 5324   2.063   0.277   2.967
 1788TIP3    H1 5325   2.150   0.316   2.945
 1788TIP3    H2 5326   2.031   0.247   2.880
 1789TIP3   OH2 5327   3.305   0.986   3.409
 1789TIP3    H1 5328   3.264   1.034   3.334
 1789TIP3    H2 5329   3.400   1.003   3.388
 1790TIP3   OH2 5330   1.925   0.476   3.316
 1790TIP3    H1 5331   1.850   0.504   3.370
 1790TIP3    H2 5332   1.898   0.507   3.227
 1791TIP3   OH2 5333   2.080   1.013   4.386
 1791TIP3    H1 5334   2.165   1.010   4.434
 1791TIP3    H2 5335   2.056   0.918   4.386
 1792TIP3   OH2 5336   2.563   0.980   4.426
 1792TIP3    H1 5337   2.654   0.951   4.438
 1792TIP3    H2 5338   2.534   0.918   4.356
 1793TIP3   OH2 5339   2.546   0.555   2.560
 1793TIP3    H1 5340   2.489   0.485   2.602
 1793TIP3    H2 5341   2.622   0.501   2.532
 1794TIP3   OH2 5342   3.197   0.883   4.171
 1794TIP3    H1 5343   3.185   0.810   4.236
 1794TIP3    H2 5344   3.277   0.926   4.203
 1795TIP3   OH2 5345   2.976   0.590   2.471
 1795TIP3    H1 5346   3.022   0.529   2.532
 1795TIP3    H2 5347   3.033   0.590   2.392
 1796TIP3   OH2 5348   2.210   0.419   4.588
 1796TIP3    H1 5349   2.226   0.324   4.601
 1796TIP3    H2 5350   2.122   0.418   4.543
 1797TIP3   OH2 5351   2.300   0.106   2.750
 1797TIP3    H1 5352   2.304   0.092   2.846
 1797TIP3    H2 5353   2.209   0.079   2.729
 1798TIP3   OH2 5354   2.814   0.501   4.361
 1798TIP3    H1 5355   2.792   0.520   4.268
 1798TIP3    H2 5356   2.852   0.411   4.353
 1799TIP3   OH2 5357   2.684   0.265   2.589
 1799TIP3    H1 5358   2.695   0.279   2.685
 1799TIP3    H2 5359   2.696   0.167   2.585
 1800TIP3   OH2 5360   2.341   0.153   4.566
 1800TIP3    H1 5361   2.421   0.099   4.551
 1800TIP3    H2 5362   2.357   0.184   4.657
 1801TIP3   OH2 5363   2.371  -0.008   3.012
 1801TIP3    H1 5364   2.356  -0.041   3.102
 1801TIP3    H2 5365   2.428  -0.078   2.973
 1802TIP3   OH2 5366   2.663   0.042   4.234
 1802TIP3    H1 5367   2.584   0.101   4.232
 1802TIP3    H2 5368   2.714   0.074   4.156
 1803TIP3   OH2 5369   2.531  -0.197   2.895
 1803TIP3    H1 5370   2.502  -0.266   2.833
 1803TIP3    H2 5371   2.626  -0.190   2.870
 1804TIP3   OH2 5372   3.187   0.442   4.366
 1804TIP3    H1 5373   3.253   0.409   4.304
 1804TIP3    H2 5374   3.183   0.372   4.433
 1805TIP3   OH2 5375   3.318   0.093   2.503
 1805TIP3    H1 5376   3.294   0.050   2.419
 1805TIP3    H2 5377   3.285   0.184   2.484
 1806TIP3   OH2 5378   2.785  -0.177   4.330
 1806TIP3    H1 5379   2.818  -0.198   4.242
 1806TIP3    H2 5380   2.734  -0.096   4.308
 1807TIP3   OH2 5381   2.817   0.144   4.041
 1807TIP3    H1 5382   2.896   0.133   3.986
 1807TIP3    H2 5383   2.770   0.216   3.994
 1808TIP3   OH2 5384   3.386   0.126   4.410
 1808TIP3    H1 5385   3.421   0.035   4.412
 1808TIP3    H2 5386   3.458   0.176   4.370
 1809TIP3   OH2 5387   3.447   0.369   4.183
 1809TIP3    H1 5388   3.383   0.359   4.108
 1809TIP3    H2 5389   3.525   0.399   4.131
 1810TIP3   OH2 5390   2.622  -0.046   4.574
 1810TIP3    H1 5391   2.638  -0.131   4.617
 1810TIP3    H2 5392   2.682  -0.051   4.499
 1811TIP3   OH2 5393   3.023  -0.083   4.460
 1811TIP3    H1 5394   3.042  -0.139   4.536
 1811TIP3    H2 5395   2.941  -0.122   4.425
 1812TIP3   OH2 5396   2.303   0.832   2.749
 1812TIP3    H1 5397   2.399   0.823   2.731
 1812TIP3    H2 5398   2.276   0.880   2.669
 1813TIP3   OH2 5399   1.699   0.823   3.378
 1813TIP3    H1 5400   1.631   0.762   3.343
 1813TIP3    H2 5401   1.742   0.766   3.446
 1814TIP3   OH2 5402   1.831   0.674   3.568
 1814TIP3    H1 5403   1.822   0.599   3.629
 1814TIP3    H2 5404   1.884   0.734   3.623
 1815TIP3   OH2 5405   3.558   1.080   3.366
 1815TIP3    H1 5406   3.590   1.105   3.454
 1815TIP3    H2 5407   3.629   1.112   3.307
 1816TIP3   OH2 5408   3.590   1.093   3.649
 1816TIP3    H1 5409   3.538   1.010   3.644
 1816TIP3    H2 5410   3.665   1.061   3.701
 1817TIP3   OH2 5411   3.637   0.771   4.223
 1817TIP3    H1 5412   3.561   0.773   4.285
 1817TIP3    H2 5413   3.678   0.857   4.239
 1818TIP3   OH2 5414   3.453   0.282   2.840
 1818TIP3    H1 5415   3.521   0.347   2.812
 1818TIP3    H2 5416   3.496   0.245   2.921
 1819TIP3   OH2 5417   3.580   0.151   3.043
 1819TIP3    H1 5418   3.514   0.111   3.105
 1819TIP3    H2 5419   3.646   0.190   3.105
 1820TIP3   OH2 5420   3.640   0.551   3.476
 1820TIP3    H1 5421   3.687   0.478   3.431
 1820TIP3    H2 5422   3.628   0.616   3.404
 1821TIP3   OH2 5423   3.462   0.848   3.668
 1821TIP3    H1 5424   3.387   0.877   3.723
 1821TIP3    H2 5425   3.416   0.795   3.599
 1822TIP3   OH2 5426   3.521   0.060   2.689
 1822TIP3    H1 5427   3.448   0.059   2.623
 1822TIP3    H2 5428   3.491   0.134   2.745
 1823TIP3   OH2 5429   3.379  -0.238   2.640
 1823TIP3    H1 5430   3.329  -0.207   2.564
 1823TIP3    H2 5431   3.350  -0.331   2.647
 1824TIP3   OH2 5432   3.395   0.012   3.189
 1824TIP3    H1 5433   3.395  -0.085   3.183
 1824TIP3    H2 5434   3.381   0.026   3.286
 1825TIP3   OH2 5435   2.017   0.082   3.940
 1825TIP3    H1 5436   2.016   0.051   3.847
 1825TIP3    H2 5437   2.114   0.087   3.956
 1826TIP3   OH2 5438   3.687   0.437   4.050
 1826TIP3    H1 5439   3.760   0.376   4.031
 1826TIP3    H2 5440   3.683   0.492   3.970
 1827TIP3   OH2 5441   3.877   0.243   4.058
 1827TIP3    H1 5442   3.799   0.204   4.103
 1827TIP3    H2 5443   3.945   0.176   4.082
 1828TIP3   OH2 5444   3.392  -0.264   3.075
 1828TIP3    H1 5445   3.433  -0.350   3.102
 1828TIP3    H2 5446   3.453  -0.235   3.006
 1829TIP3   OH2 5447   3.557  -0.091   3.591
 1829TIP3    H1 5448   3.640  -0.062   3.546
 1829TIP3    H2 5449   3.566  -0.044   3.676
 1830TIP3   OH2 5450   3.608   0.060   3.819
 1830TIP3    H1 5451   3.523   0.103   3.835
 1830TIP3    H2 5452   3.655   0.131   3.772
 1831TIP3   OH2 5453   2.233  -0.235   4.591
 1831TIP3    H1 5454   2.320  -0.200   4.611
 1831TIP3    H2 5455   2.235  -0.321   4.640
 1832TIP3   OH2 5456   2.000  -0.261   4.013
 1832TIP3    H1 5457   2.052  -0.282   3.934
 1832TIP3    H2 5458   2.040  -0.177   4.039
 1833TIP3   OH2 5459   3.144   0.944   3.022
 1833TIP3    H1 5460   3.194   0.929   2.939
 1833TIP3    H2 5461   3.202   1.005   3.069
 1834TIP3   OH2 5462   2.243   0.751   4.412
 1834TIP3    H1 5463   2.154   0.718   4.394
 1834TIP3    H2 5464   2.258   0.720   4.502
 1835TIP3   OH2 5465   2.422   0.778   3.956
 1835TIP3    H1 5466   2.378   0.855   3.915
 1835TIP3    H2 5467   2.510   0.788   3.915
 1836TIP3   OH2 5468   2.866   1.025   4.097
 1836TIP3    H1 5469   2.911   1.021   4.184
 1836TIP3    H2 5470   2.933   1.071   4.043
 1837TIP3   OH2 5471   3.044   1.174   3.951
 1837TIP3    H1 5472   3.109   1.117   3.907
 1837TIP3    H2 5473   3.101   1.227   4.010
 1838TIP3   OH2 5474   2.099   1.039   3.975
 1838TIP3    H1 5475   2.009   1.074   3.956
 1838TIP3    H2 5476   2.106   1.057   4.069
 1839TIP3   OH2 5477   2.337   1.015   3.838
 1839TIP3    H1 5478   2.250   1.027   3.881
 1839TIP3    H2 5479   2.318   1.043   3.747
 1840TIP3   OH2 5480   2.761   1.042   3.635
 1840TIP3    H1 5481   2.691   1.061   3.570
 1840TIP3    H2 5482   2.773   1.129   3.678
 1841TIP3   OH2 5483   3.031   0.989   3.684
 1841TIP3    H1 5484   2.936   1.000   3.662
 1841TIP3    H2 5485   3.072   1.064   3.638
 1842TIP3   OH2 5486   3.240   1.174   3.601
 1842TIP3    H1 5487   3.226   1.256   3.548
 1842TIP3    H2 5488   3.266   1.110   3.531
 1843TIP3   OH2 5489   2.012   0.826   3.726
 1843TIP3    H1 5490   2.039   0.800   3.816
 1843TIP3    H2 5491   2.083   0.782   3.674
 1844TIP3   OH2 5492   2.206   0.699   3.582
 1844TIP3    H1 5493   2.221   0.614   3.631
 1844TIP3    H2 5494   2.298   0.733   3.578
 1845TIP3   OH2 5495   2.473   0.792   3.586
 1845TIP3    H1 5496   2.504   0.700   3.574
 1845TIP3    H2 5497   2.520   0.813   3.669
 1846TIP3   OH2 5498   1.797   0.591   3.106
 1846TIP3    H1 5499   1.708   0.560   3.080
 1846TIP3    H2 5500   1.784   0.687   3.102
 1847TIP3   OH2 5501   2.571   0.789   2.697
 1847TIP3    H1 5502   2.660   0.811   2.663
 1847TIP3    H2 5503   2.551   0.713   2.638
 1848TIP3   OH2 5504   3.289   0.906   2.791
 1848TIP3    H1 5505   3.282   0.808   2.780
 1848TIP3    H2 5506   3.245   0.937   2.709
 1849TIP3   OH2 5507   1.909   0.648   2.776
 1849TIP3    H1 5508   1.900   0.645   2.872
 1849TIP3    H2 5509   1.993   0.602   2.758
 1850TIP3   OH2 5510   3.516   1.050   3.984
 1850TIP3    H1 5511   3.441   1.015   3.932
 1850TIP3    H2 5512   3.492   1.145   3.984
 1851TIP3   OH2 5513   4.765   0.408   2.736
 1851TIP3    H1 5514   4.770   0.503   2.712
 1851TIP3    H2 5515   4.682   0.411   2.784
 1852TIP3   OH2 5516   4.780   0.416   3.123
 1852TIP3    H1 5517   4.817   0.407   3.213
 1852TIP3    H2 5518   4.739   0.329   3.111
 1853TIP3   OH2 5519   4.080   0.328   3.482
 1853TIP3    H1 5520   4.106   0.256   3.544
 1853TIP3    H2 5521   4.160   0.382   3.484
 1854TIP3   OH2 5522   5.023   0.716   2.811
 1854TIP3    H1 5523   5.018   0.655   2.886
 1854TIP3    H2 5524   5.050   0.799   2.854
 1855TIP3   OH2 5525   4.053   0.728   3.216
 1855TIP3    H1 5526   4.044   0.631   3.217
 1855TIP3    H2 5527   4.149   0.737   3.208
 1856TIP3   OH2 5528   3.755  -0.066   2.999
 1856TIP3    H1 5529   3.712   0.018   3.021
 1856TIP3    H2 5530   3.679  -0.118   2.969
 1857TIP3   OH2 5531   3.816   0.221   3.167
 1857TIP3    H1 5532   3.866   0.147   3.209
 1857TIP3    H2 5533   3.883   0.257   3.107
 1858TIP3   OH2 5534   4.682   1.192   2.830
 1858TIP3    H1 5535   4.720   1.122   2.772
 1858TIP3    H2 5536   4.670   1.142   2.912
 1859TIP3   OH2 5537   4.581   0.648   3.173
 1859TIP3    H1 5538   4.621   0.571   3.131
 1859TIP3    H2 5539   4.663   0.695   3.199
 1860TIP3   OH2 5540   4.996   0.163   3.210
 1860TIP3    H1 5541   5.027   0.074   3.240
 1860TIP3    H2 5542   4.958   0.141   3.123
 1861TIP3   OH2 5543   4.328  -0.143   3.196
 1861TIP3    H1 5544   4.325  -0.063   3.140
 1861TIP3    H2 5545   4.297  -0.209   3.131
 1862TIP3   OH2 5546   5.040  -0.054   2.801
 1862TIP3    H1 5547   5.108  -0.117   2.829
 1862TIP3    H2 5548   5.057  -0.050   2.705
 1863TIP3   OH2 5549   3.971   0.028   3.277
 1863TIP3    H1 5550   4.043   0.004   3.338
 1863TIP3    H2 5551   3.981  -0.043   3.211
 1864TIP3   OH2 5552   4.409   0.217   3.065
 1864TIP3    H1 5553   4.502   0.191   3.084
 1864TIP3    H2 5554   4.370   0.133   3.034
 1865TIP3   OH2 5555   5.675   0.186   3.335
 1865TIP3    H1 5556   5.598   0.237   3.305
 1865TIP3    H2 5557   5.690   0.221   3.424
 1866TIP3   OH2 5558   4.668   0.642   2.619
 1866TIP3    H1 5559   4.656   0.654   2.524
 1866TIP3    H2 5560   4.629   0.726   2.651
 1867TIP3   OH2 5561   4.434   0.569   3.399
 1867TIP3    H1 5562   4.372   0.635   3.438
 1867TIP3    H2 5563   4.474   0.620   3.326
 1868TIP3   OH2 5564   4.192  -0.069   3.414
 1868TIP3    H1 5565   4.252  -0.005   3.456
 1868TIP3    H2 5566   4.242  -0.091   3.333
 1869TIP3   OH2 5567   4.261   0.762   3.499
 1869TIP3    H1 5568   4.235   0.848   3.460
 1869TIP3    H2 5569   4.182   0.746   3.555
 1870TIP3   OH2 5570   3.658   0.451   2.733
 1870TIP3    H1 5571   3.615   0.482   2.652
 1870TIP3    H2 5572   3.689   0.535   2.772
 1871TIP3   OH2 5573   5.096   0.968   2.972
 1871TIP3    H1 5574   5.006   0.959   3.012
 1871TIP3    H2 5575   5.086   1.054   2.927
 1872TIP3   OH2 5576   4.800   1.012   2.660
 1872TIP3    H1 5577   4.846   0.932   2.626
 1872TIP3    H2 5578   4.840   1.079   2.599
 1873TIP3   OH2 5579   4.941   0.795   2.557
 1873TIP3    H1 5580   4.923   0.715   2.506
 1873TIP3    H2 5581   4.974   0.760   2.642
 1874TIP3   OH2 5582   5.322   0.880   3.318
 1874TIP3    H1 5583   5.310   0.803   3.258
 1874TIP3    H2 5584   5.304   0.955   3.257
 1875TIP3   OH2 5585   5.517   0.518   3.166
 1875TIP3    H1 5586   5.433   0.570   3.169
 1875TIP3    H2 5587   5.546   0.538   3.075
 1876TIP3   OH2 5588   4.962   0.353   2.547
 1876TIP3    H1 5589   4.908   0.377   2.625
 1876TIP3    H2 5590   5.049   0.333   2.588
 1877TIP3   OH2 5591   5.193   0.399   3.461
 1877TIP3    H1 5592   5.190   0.482   3.513
 1877TIP3    H2 5593   5.107   0.403   3.416
 1878TIP3   OH2 5594   4.192   0.355   2.966
 1878TIP3    H1 5595   4.151   0.297   2.899
 1878TIP3    H2 5596   4.269   0.302   2.995
 1879TIP3   OH2 5597   4.322   0.763   3.113
 1879TIP3    H1 5598   4.303   0.726   3.026
 1879TIP3    H2 5599   4.412   0.729   3.131
 1880TIP3   OH2 5600   4.333   0.327   3.315
 1880TIP3    H1 5601   4.365   0.308   3.224
 1880TIP3    H2 5602   4.373   0.414   3.335
 1881TIP3   OH2 5603   4.856   0.962   3.096
 1881TIP3    H1 5604   4.842   1.044   3.148
 1881TIP3    H2 5605   4.838   0.891   3.161
 1882TIP3   OH2 5606   4.468   0.883   3.641
 1882TIP3    H1 5607   4.407   0.944   3.688
 1882TIP3    H2 5608   4.403   0.829   3.592
 1883TIP3   OH2 5609   4.786   0.221   2.379
 1883TIP3    H1 5610   4.846   0.283   2.424
 1883TIP3    H2 5611   4.811   0.237   2.285
 1884TIP3   OH2 5612   4.222   0.446   3.740
 1884TIP3    H1 5613   4.224   0.530   3.789
 1884TIP3    H2 5614   4.129   0.420   3.754
 1885TIP3   OH2 5615   4.548   0.894   2.638
 1885TIP3    H1 5616   4.628   0.946   2.656
 1885TIP3    H2 5617   4.514   0.944   2.562
 1886TIP3   OH2 5618   4.260   1.051   3.728
 1886TIP3    H1 5619   4.228   1.051   3.636
 1886TIP3    H2 5620   4.179   1.029   3.779
 1887TIP3   OH2 5621   4.061   0.203   2.771
 1887TIP3    H1 5622   3.995   0.241   2.711
 1887TIP3    H2 5623   4.025   0.116   2.790
 1888TIP3   OH2 5624   5.115   0.823   1.973
 1888TIP3    H1 5625   5.124   0.915   1.941
 1888TIP3    H2 5626   5.206   0.789   1.958
 1889TIP3   OH2 5627   3.845   0.583   3.672
 1889TIP3    H1 5628   3.769   0.563   3.612
 1889TIP3    H2 5629   3.878   0.494   3.695
 1890TIP3   OH2 5630   3.695   0.780   3.297
 1890TIP3    H1 5631   3.790   0.765   3.296
 1890TIP3    H2 5632   3.687   0.850   3.363
 1891TIP3   OH2 5633   5.560   1.226   3.365
 1891TIP3    H1 5634   5.558   1.129   3.379
 1891TIP3    H2 5635   5.477   1.252   3.410
 1892TIP3   OH2 5636   4.665   1.011   3.499
 1892TIP3    H1 5637   4.663   1.104   3.531
 1892TIP3    H2 5638   4.593   0.971   3.552
 1893TIP3   OH2 5639   3.861   0.990   2.837
 1893TIP3    H1 5640   3.912   0.981   2.920
 1893TIP3    H2 5641   3.807   0.909   2.841
 1894TIP3   OH2 5642   5.447   0.378   3.636
 1894TIP3    H1 5643   5.364   0.375   3.587
 1894TIP3    H2 5644   5.468   0.284   3.650
 1895TIP3   OH2 5645   4.044   0.769   3.667
 1895TIP3    H1 5646   4.095   0.745   3.747
 1895TIP3    H2 5647   3.971   0.703   3.669
 1896TIP3   OH2 5648   5.223   0.145   3.583
 1896TIP3    H1 5649   5.205   0.158   3.678
 1896TIP3    H2 5650   5.187   0.226   3.543
 1897TIP3   OH2 5651   4.873   0.258   2.121
 1897TIP3    H1 5652   4.841   0.234   2.032
 1897TIP3    H2 5653   4.955   0.305   2.099
 1898TIP3   OH2 5654   4.388   0.120   3.479
 1898TIP3    H1 5655   4.330   0.145   3.555
 1898TIP3    H2 5656   4.368   0.193   3.417
 1899TIP3   OH2 5657   4.261   0.002   2.979
 1899TIP3    H1 5658   4.170  -0.027   3.002
 1899TIP3    H2 5659   4.275  -0.052   2.898
 1900TIP3   OH2 5660   4.752   0.093   2.688
 1900TIP3    H1 5661   4.764   0.186   2.663
 1900TIP3    H2 5662   4.813   0.047   2.627
 1901TIP3   OH2 5663   4.927   0.356   3.781
 1901TIP3    H1 5664   4.899   0.295   3.853
 1901TIP3    H2 5665   5.018   0.378   3.810
 1902TIP3   OH2 5666   4.906   0.126   2.950
 1902TIP3    H1 5667   4.841   0.159   2.887
 1902TIP3    H2 5668   4.955   0.062   2.894
 1903TIP3   OH2 5669   4.187   0.144   3.661
 1903TIP3    H1 5670   4.207   0.190   3.744
 1903TIP3    H2 5671   4.190   0.050   3.688
 1904TIP3   OH2 5672   3.808  -0.305   2.807
 1904TIP3    H1 5673   3.834  -0.277   2.717
 1904TIP3    H2 5674   3.741  -0.238   2.827
 1905TIP3   OH2 5675   4.917   0.363   3.367
 1905TIP3    H1 5676   4.952   0.292   3.308
 1905TIP3    H2 5677   4.890   0.308   3.443
 1906TIP3   OH2 5678   4.556  -0.152   3.011
 1906TIP3    H1 5679   4.480  -0.181   3.062
 1906TIP3    H2 5680   4.623  -0.145   3.082
 1907TIP3   OH2 5681   4.019  -0.121   3.037
 1907TIP3    H1 5682   3.925  -0.100   3.018
 1907TIP3    H2 5683   4.015  -0.218   3.046
 1908TIP3   OH2 5684   4.291  -0.133   2.730
 1908TIP3    H1 5685   4.386  -0.114   2.718
 1908TIP3    H2 5686   4.251  -0.112   2.643
 1909TIP3   OH2 5687   4.150  -0.090   2.484
 1909TIP3    H1 5688   4.068  -0.131   2.512
 1909TIP3    H2 5689   4.144  -0.107   2.389
 1910TIP3   OH2 5690   5.251   1.575   3.463
 1910TIP3    H1 5691   5.248   1.601   3.369
 1910TIP3    H2 5692   5.329   1.624   3.495
 1911TIP3   OH2 5693   4.206   0.690   3.885
 1911TIP3    H1 5694   4.287   0.716   3.934
 1911TIP3    H2 5695   4.143   0.682   3.960
 1912TIP3   OH2 5696   4.668   0.150   3.141
 1912TIP3    H1 5697   4.730   0.095   3.092
 1912TIP3    H2 5698   4.664   0.101   3.225
 1913TIP3   OH2 5699   4.646   0.045   3.439
 1913TIP3    H1 5700   4.554   0.075   3.454
 1913TIP3    H2 5701   4.699   0.114   3.483
 1914TIP3   OH2 5702   5.284   0.663   3.152
 1914TIP3    H1 5703   5.308   0.714   3.072
 1914TIP3    H2 5704   5.198   0.622   3.126
 1915TIP3   OH2 5705   4.818  -0.229   2.366
 1915TIP3    H1 5706   4.724  -0.238   2.389
 1915TIP3    H2 5707   4.838  -0.138   2.396
 1916TIP3   OH2 5708   4.781   0.745   3.521
 1916TIP3    H1 5709   4.811   0.724   3.610
 1916TIP3    H2 5710   4.746   0.835   3.529
 1917TIP3   OH2 5711   4.918  -0.001   2.483
 1917TIP3    H1 5712   5.014   0.016   2.493
 1917TIP3    H2 5713   4.889   0.078   2.433
 1918TIP3   OH2 5714   4.074   0.451   3.199
 1918TIP3    H1 5715   4.115   0.419   3.116
 1918TIP3    H2 5716   4.111   0.390   3.265
 1919TIP3   OH2 5717   4.508   0.589   2.346
 1919TIP3    H1 5718   4.519   0.685   2.333
 1919TIP3    H2 5719   4.442   0.588   2.416
 1920TIP3   OH2 5720   3.959   0.370   3.812
 1920TIP3    H1 5721   3.974   0.352   3.908
 1920TIP3    H2 5722   3.888   0.307   3.791
 1921TIP3   OH2 5723   4.685   0.485   3.830
 1921TIP3    H1 5724   4.623   0.426   3.784
 1921TIP3    H2 5725   4.771   0.450   3.799
 1922TIP3   OH2 5726   4.943   1.002   3.419
 1922TIP3    H1 5727   4.847   1.003   3.431
 1922TIP3    H2 5728   4.972   1.056   3.496
 1923TIP3   OH2 5729   5.359   0.073   2.320
 1923TIP3    H1 5730   5.288   0.043   2.259
 1923TIP3    H2 5731   5.365   0.164   2.284
 1924TIP3   OH2 5732   5.572   0.936   3.406
 1924TIP3    H1 5733   5.474   0.931   3.397
 1924TIP3    H2 5734   5.598   0.905   3.316
 1925TIP3   OH2 5735   5.066   0.896   2.236
 1925TIP3    H1 5736   5.025   0.829   2.292
 1925TIP3    H2 5737   5.074   0.852   2.150
 1926TIP3   OH2 5738   5.048   0.528   3.067
 1926TIP3    H1 5739   4.957   0.500   3.084
 1926TIP3    H2 5740   5.085   0.447   3.026
 1927TIP3   OH2 5741   4.180   0.749   2.819
 1927TIP3    H1 5742   4.181   0.833   2.769
 1927TIP3    H2 5743   4.085   0.740   2.836
 1928TIP3   OH2 5744   3.747   0.058   2.532
 1928TIP3    H1 5745   3.787   0.145   2.552
 1928TIP3    H2 5746   3.667   0.062   2.589
 1929TIP3   OH2 5747   4.319   0.510   2.764
 1929TIP3    H1 5748   4.288   0.601   2.780
 1929TIP3    H2 5749   4.279   0.464   2.840
 1930TIP3   OH2 5750   4.446   1.096   3.294
 1930TIP3    H1 5751   4.488   1.169   3.242
 1930TIP3    H2 5752   4.523   1.061   3.341
 1931TIP3   OH2 5753   4.101   0.990   2.682
 1931TIP3    H1 5754   4.013   1.004   2.723
 1931TIP3    H2 5755   4.134   1.083   2.679
 1932TIP3   OH2 5756   4.833   0.727   3.253
 1932TIP3    H1 5757   4.823   0.727   3.351
 1932TIP3    H2 5758   4.917   0.680   3.243
 1933TIP3   OH2 5759   4.813   0.616   2.138
 1933TIP3    H1 5760   4.863   0.592   2.219
 1933TIP3    H2 5761   4.722   0.605   2.166
 1934TIP3   OH2 5762   5.082   1.263   3.302
 1934TIP3    H1 5763   5.002   1.208   3.294
 1934TIP3    H2 5764   5.068   1.329   3.230
 1935TIP3   OH2 5765   5.147   1.110   1.944
 1935TIP3    H1 5766   5.202   1.189   1.925
 1935TIP3    H2 5767   5.067   1.150   1.980
 1936TIP3   OH2 5768   4.968   0.559   2.360
 1936TIP3    H1 5769   4.964   0.487   2.426
 1936TIP3    H2 5770   5.065   0.558   2.340
 1937TIP3   OH2 5771   3.883   0.958   3.453
 1937TIP3    H1 5772   3.934   0.881   3.482
 1937TIP3    H2 5773   3.919   1.026   3.512
 1938TIP3   OH2 5774   4.174   0.602   2.138
 1938TIP3    H1 5775   4.187   0.511   2.108
 1938TIP3    H2 5776   4.162   0.591   2.234
 1939TIP3   OH2 5777   4.157   0.604   2.416
 1939TIP3    H1 5778   4.170   0.603   2.512
 1939TIP3    H2 5779   4.136   0.699   2.404
 1940TIP3   OH2 5780   3.856   0.304   2.606
 1940TIP3    H1 5781   3.792   0.345   2.668
 1940TIP3    H2 5782   3.864   0.378   2.542
 1941TIP3   OH2 5783   4.560  -0.104   2.744
 1941TIP3    H1 5784   4.634  -0.040   2.741
 1941TIP3    H2 5785   4.558  -0.127   2.840
 1942TIP3   OH2 5786   4.846   0.196   3.572
 1942TIP3    H1 5787   4.873   0.251   3.648
 1942TIP3    H2 5788   4.871   0.106   3.603
 1943TIP3   OH2 5789   4.095   0.865   2.421
 1943TIP3    H1 5790   4.094   0.937   2.355
 1943TIP3    H2 5791   4.111   0.915   2.503
 1944TIP3   OH2 5792   5.439   0.051   3.444
 1944TIP3    H1 5793   5.356   0.077   3.487
 1944TIP3    H2 5794   5.451   0.123   3.380
 1945TIP3   OH2 5795   5.137   0.289   2.947
 1945TIP3    H1 5796   5.061   0.233   2.971
 1945TIP3    H2 5797   5.210   0.243   2.995
 1946TIP3   OH2 5798   3.847   0.515   2.421
 1946TIP3    H1 5799   3.893   0.600   2.420
 1946TIP3    H2 5800   3.895   0.468   2.349
 1947TIP3   OH2 5801   3.784  -0.214   2.544
 1947TIP3    H1 5802   3.791  -0.117   2.541
 1947TIP3    H2 5803   3.696  -0.225   2.503
 1948TIP3   OH2 5804   5.104   1.240   2.896
 1948TIP3    H1 5805   5.060   1.286   2.821
 1948TIP3    H2 5806   5.198   1.259   2.874
 1949TIP3   OH2 5807   3.717   0.721   2.801
 1949TIP3    H1 5808   3.650   0.754   2.862
 1949TIP3    H2 5809   3.690   0.765   2.717
 1950TIP3   OH2 5810   3.873   1.258   3.887
 1950TIP3    H1 5811   3.964   1.247   3.922
 1950TIP3    H2 5812   3.850   1.164   3.870
 1951TIP3   OH2 5813   4.345   1.234   3.918
 1951TIP3    H1 5814   4.440   1.221   3.931
 1951TIP3    H2 5815   4.328   1.171   3.845
 1952TIP3   OH2 5816   4.325   0.807   2.031
 1952TIP3    H1 5817   4.277   0.736   2.078
 1952TIP3    H2 5818   4.417   0.777   2.037
 1953TIP3   OH2 5819   4.995   1.139   3.654
 1953TIP3    H1 5820   4.987   1.069   3.723
 1953TIP3    H2 5821   5.073   1.189   3.684
 1954TIP3   OH2 5822   4.761   0.848   1.951
 1954TIP3    H1 5823   4.820   0.812   2.018
 1954TIP3    H2 5824   4.816   0.848   1.870
 1955TIP3   OH2 5825   4.009   0.674   4.078
 1955TIP3    H1 5826   4.021   0.578   4.087
 1955TIP3    H2 5827   3.923   0.678   4.030
 1956TIP3   OH2 5828   3.972   0.335   2.258
 1956TIP3    H1 5829   4.009   0.273   2.322
 1956TIP3    H2 5830   4.044   0.338   2.190
 1957TIP3   OH2 5831   4.611   0.759   3.850
 1957TIP3    H1 5832   4.572   0.776   3.763
 1957TIP3    H2 5833   4.643   0.667   3.842
 1958TIP3   OH2 5834   4.497   0.520   2.077
 1958TIP3    H1 5835   4.493   0.539   2.173
 1958TIP3    H2 5836   4.491   0.423   2.076
 1959TIP3   OH2 5837   5.105   0.768   3.453
 1959TIP3    H1 5838   5.181   0.812   3.411
 1959TIP3    H2 5839   5.036   0.836   3.440
 1960TIP3   OH2 5840   4.140   0.407   4.055
 1960TIP3    H1 5841   4.220   0.357   4.034
 1960TIP3    H2 5842   4.161   0.441   4.144
 1961TIP3   OH2 5843   4.460   0.307   3.725
 1961TIP3    H1 5844   4.377   0.359   3.719
 1961TIP3    H2 5845   4.507   0.335   3.643
 1962TIP3   OH2 5846   4.978   0.695   3.853
 1962TIP3    H1 5847   5.057   0.666   3.805
 1962TIP3    H2 5848   4.973   0.630   3.925
 1963TIP3   OH2 5849   5.112   0.348   2.000
 1963TIP3    H1 5850   5.096   0.306   1.913
 1963TIP3    H2 5851   5.080   0.439   1.978
 1964TIP3   OH2 5852   4.581   0.088   3.822
 1964TIP3    H1 5853   4.601   0.050   3.736
 1964TIP3    H2 5854   4.533   0.169   3.794
 1965TIP3   OH2 5855   4.612   0.402   3.523
 1965TIP3    H1 5856   4.697   0.415   3.480
 1965TIP3    H2 5857   4.556   0.469   3.479
 1966TIP3   OH2 5858   5.177   0.384   3.884
 1966TIP3    H1 5859   5.207   0.298   3.918
 1966TIP3    H2 5860   5.260   0.429   3.866
 1967TIP3   OH2 5861   5.235   0.626   3.642
 1967TIP3    H1 5862   5.177   0.679   3.582
 1967TIP3    H2 5863   5.323   0.645   3.603
 1968TIP3   OH2 5864   4.417   0.207   4.065
 1968TIP3    H1 5865   4.438   0.118   4.100
 1968TIP3    H2 5866   4.473   0.209   3.987
 1969TIP3   OH2 5867   4.818   0.176   3.950
 1969TIP3    H1 5868   4.847   0.110   4.014
 1969TIP3    H2 5869   4.735   0.136   3.917
 1970TIP3   OH2 5870   4.113   1.070   2.232
 1970TIP3    H1 5871   4.210   1.076   2.236
 1970TIP3    H2 5872   4.094   1.125   2.153
 1971TIP3   OH2 5873   3.578   0.467   2.450
 1971TIP3    H1 5874   3.674   0.488   2.439
 1971TIP3    H2 5875   3.574   0.377   2.411
 1972TIP3   OH2 5876   3.493   1.079   2.868
 1972TIP3    H1 5877   3.428   1.016   2.830
 1972TIP3    H2 5878   3.538   1.020   2.933
 1973TIP3   OH2 5879   3.629   0.927   3.054
 1973TIP3    H1 5880   3.620   0.855   3.118
 1973TIP3    H2 5881   3.682   0.990   3.107
 1974TIP3   OH2 5882   5.358   1.329   2.853
 1974TIP3    H1 5883   5.383   1.362   2.941
 1974TIP3    H2 5884   5.421   1.375   2.795
 1975TIP3   OH2 5885   5.385   1.350   3.135
 1975TIP3    H1 5886   5.342   1.262   3.131
 1975TIP3    H2 5887   5.461   1.328   3.191
 1976TIP3   OH2 5888   5.433   1.026   3.709
 1976TIP3    H1 5889   5.360   1.035   3.774
 1976TIP3    H2 5890   5.474   1.114   3.712
 1977TIP3   OH2 5891   5.245   0.539   2.329
 1977TIP3    H1 5892   5.310   0.604   2.296
 1977TIP3    H2 5893   5.293   0.502   2.406
 1978TIP3   OH2 5894   5.377   0.406   2.531
 1978TIP3    H1 5895   5.311   0.368   2.593
 1978TIP3    H2 5896   5.443   0.446   2.591
 1979TIP3   OH2 5897   5.430   0.800   2.964
 1979TIP3    H1 5898   5.483   0.733   2.916
 1979TIP3    H2 5899   5.426   0.873   2.899
 1980TIP3   OH2 5900   5.261   1.099   3.159
 1980TIP3    H1 5901   5.190   1.142   3.209
 1980TIP3    H2 5902   5.212   1.054   3.087
 1981TIP3   OH2 5903   5.315   0.315   2.181
 1981TIP3    H1 5904   5.244   0.314   2.113
 1981TIP3    H2 5905   5.284   0.392   2.234
 1982TIP3   OH2 5906   5.165   0.017   2.141
 1982TIP3    H1 5907   5.144   0.054   2.054
 1982TIP3    H2 5908   5.149  -0.078   2.127
 1983TIP3   OH2 5909   5.189   0.268   2.679
 1983TIP3    H1 5910   5.196   0.172   2.672
 1983TIP3    H2 5911   5.178   0.282   2.776
 1984TIP3   OH2 5912   3.814   0.336   3.424
 1984TIP3    H1 5913   3.812   0.306   3.331
 1984TIP3    H2 5914   3.911   0.342   3.439
 1985TIP3   OH2 5915   5.478   0.692   3.533
 1985TIP3    H1 5916   5.552   0.628   3.522
 1985TIP3    H2 5917   5.503   0.763   3.471
 1986TIP3   OH2 5918   5.669   0.502   3.548
 1986TIP3    H1 5919   5.590   0.457   3.585
 1986TIP3    H2 5920   5.738   0.436   3.571
 1987TIP3   OH2 5921   5.188  -0.008   2.559
 1987TIP3    H1 5922   5.228  -0.093   2.586
 1987TIP3    H2 5923   5.249   0.021   2.489
 1988TIP3   OH2 5924   5.349   0.170   3.071
 1988TIP3    H1 5925   5.434   0.196   3.028
 1988TIP3    H2 5926   5.363   0.210   3.159
 1989TIP3   OH2 5927   5.414   0.303   3.304
 1989TIP3    H1 5928   5.335   0.340   3.349
 1989TIP3    H2 5929   5.449   0.382   3.258
 1990TIP3   OH2 5930   4.037   0.030   4.109
 1990TIP3    H1 5931   4.132   0.037   4.091
 1990TIP3    H2 5932   4.031  -0.066   4.132
 1991TIP3   OH2 5933   3.794  -0.002   3.498
 1991TIP3    H1 5934   3.848  -0.024   3.420
 1991TIP3    H2 5935   3.836   0.079   3.528
 1992TIP3   OH2 5936   4.934   1.198   2.508
 1992TIP3    H1 5937   4.985   1.182   2.427
 1992TIP3    H2 5938   4.992   1.258   2.558
 1993TIP3   OH2 5939   4.040   1.011   3.898
 1993TIP3    H1 5940   3.953   0.971   3.877
 1993TIP3    H2 5941   4.059   0.971   3.984
 1994TIP3   OH2 5942   4.220   1.035   3.444
 1994TIP3    H1 5943   4.173   1.111   3.402
 1994TIP3    H2 5944   4.306   1.047   3.399
 1995TIP3   OH2 5945   4.663   1.279   3.581
 1995TIP3    H1 5946   4.706   1.278   3.669
 1995TIP3    H2 5947   4.729   1.329   3.529
 1996TIP3   OH2 5948   4.842   1.430   3.441
 1996TIP3    H1 5949   4.913   1.380   3.396
 1996TIP3    H2 5950   4.895   1.487   3.501
 1997TIP3   OH2 5951   3.894   1.292   3.464
 1997TIP3    H1 5952   3.805   1.326   3.440
 1997TIP3    H2 5953   3.903   1.327   3.553
 1998TIP3   OH2 5954   4.133   1.269   3.325
 1998TIP3    H1 5955   4.045   1.282   3.367
 1998TIP3    H2 5956   4.116   1.299   3.234
 1999TIP3   OH2 5957   4.556   1.296   3.126
 1999TIP3    H1 5958   4.492   1.315   3.055
 1999TIP3    H2 5959   4.570   1.384   3.164
 2000TIP3   OH2 5960   4.827   1.235   3.176
 2000TIP3    H1 5961   4.733   1.252   3.154
 2000TIP3    H2 5962   4.871   1.308   3.130
 2001TIP3   OH2 5963   5.034   1.427   3.089
 2001TIP3    H1 5964   5.020   1.512   3.040
 2001TIP3    H2 5965   5.060   1.367   3.016
 2002TIP3   OH2 5966   3.807   1.084   3.212
 2002TIP3    H1 5967   3.835   1.056   3.302
 2002TIP3    H2 5968   3.877   1.039   3.160
 2003TIP3   OH2 5969   4.000   0.955   3.069
 2003TIP3    H1 5970   4.017   0.872   3.119
 2003TIP3    H2 5971   4.091   0.992   3.064
 2004TIP3   OH2 5972   4.266   1.050   3.074
 2004TIP3    H1 5973   4.300   0.961   3.057
 2004TIP3    H2 5974   4.314   1.071   3.157
 2005TIP3   OH2 5975   3.595   0.856   2.603
 2005TIP3    H1 5976   3.509   0.825   2.569
 2005TIP3    H2 5977   3.587   0.950   2.581
 2006TIP3   OH2 5978   5.089   1.163   2.276
 2006TIP3    H1 5979   5.086   1.064   2.273
 2006TIP3    H2 5980   5.040   1.183   2.196
 2007TIP3   OH2 5981   3.670   0.877   2.241
 2007TIP3    H1 5982   3.677   0.908   2.333
 2007TIP3    H2 5983   3.759   0.838   2.225
 2008TIP3   OH2 5984   5.312   1.307   3.464
 2008TIP3    H1 5985   5.234   1.276   3.414
 2008TIP3    H2 5986   5.293   1.403   3.469
 2009TIP3   OH2 5987   6.577   0.676   2.230
 2009TIP3    H1 5988   6.552   0.769   2.214
 2009TIP3    H2 5989   6.496   0.631   2.201
 2010TIP3   OH2 5990   6.575   0.682   2.611
 2010TIP3    H1 5991   6.611   0.663   2.700
 2010TIP3    H2 5992   6.537   0.596   2.587
 2011TIP3   OH2 5993   5.875   0.585   2.970
 2011TIP3    H1 5994   5.903   0.514   3.032
 2011TIP3    H2 5995   5.956   0.638   2.968
 2012TIP3   OH2 5996   6.823   0.975   2.293
 2012TIP3    H1 5997   6.807   0.910   2.362
 2012TIP3    H2 5998   6.852   1.052   2.344
 2013TIP3   OH2 5999   5.849   0.984   2.701
 2013TIP3    H1 6000   5.840   0.886   2.703
 2013TIP3    H2 6001   5.945   0.993   2.697
 2014TIP3   OH2 6002   5.550   0.186   2.487
 2014TIP3    H1 6003   5.505   0.270   2.508
 2014TIP3    H2 6004   5.479   0.137   2.444
 2015TIP3   OH2 6005   5.611   0.478   2.656
 2015TIP3    H1 6006   5.663   0.405   2.696
 2015TIP3    H2 6007   5.675   0.515   2.594
 2016TIP3   OH2 6008   6.469   1.443   2.310
 2016TIP3    H1 6009   6.516   1.373   2.261
 2016TIP3    H2 6010   6.464   1.406   2.399
 2017TIP3   OH2 6011   6.377   0.905   2.660
 2017TIP3    H1 6012   6.417   0.827   2.617
 2017TIP3    H2 6013   6.459   0.952   2.684
 2018TIP3   OH2 6014   6.788   0.420   2.703
 2018TIP3    H1 6015   6.815   0.329   2.729
 2018TIP3    H2 6016   6.761   0.407   2.610
 2019TIP3   OH2 6017   6.128   0.111   2.684
 2019TIP3    H1 6018   6.120   0.194   2.633
 2019TIP3    H2 6019   6.092   0.048   2.619
 2020TIP3   OH2 6020   5.768   0.286   2.763
 2020TIP3    H1 6021   5.840   0.260   2.824
 2020TIP3    H2 6022   5.775   0.212   2.699
 2021TIP3   OH2 6023   6.204   0.479   2.557
 2021TIP3    H1 6024   6.298   0.454   2.572
 2021TIP3    H2 6025   6.164   0.394   2.529
 2022TIP3   OH2 6026   6.474   0.901   2.115
 2022TIP3    H1 6027   6.448   0.888   2.022
 2022TIP3    H2 6028   6.428   0.985   2.135
 2023TIP3   OH2 6029   6.231   0.825   2.886
 2023TIP3    H1 6030   6.169   0.891   2.924
 2023TIP3    H2 6031   6.271   0.876   2.812
 2024TIP3   OH2 6032   5.989   0.187   2.901
 2024TIP3    H1 6033   6.049   0.251   2.943
 2024TIP3    H2 6034   6.041   0.165   2.821
 2025TIP3   OH2 6035   6.059   1.019   2.984
 2025TIP3    H1 6036   6.033   1.106   2.947
 2025TIP3    H2 6037   5.980   1.002   3.040
 2026TIP3   OH2 6038   5.450   0.704   2.225
 2026TIP3    H1 6039   5.413   0.724   2.136
 2026TIP3    H2 6040   5.480   0.792   2.254
 2027TIP3   OH2 6041   6.898   1.224   2.469
 2027TIP3    H1 6042   6.808   1.216   2.506
 2027TIP3    H2 6043   6.889   1.306   2.417
 2028TIP3   OH2 6044   6.590   1.269   2.137
 2028TIP3    H1 6045   6.641   1.187   2.116
 2028TIP3    H2 6046   6.651   1.335   2.097
 2029TIP3   OH2 6047   6.730   1.055   2.043
 2029TIP3    H1 6048   6.715   0.974   1.992
 2029TIP3    H2 6049   6.767   1.018   2.127
 2030TIP3   OH2 6050   7.119   1.131   2.810
 2030TIP3    H1 6051   7.108   1.059   2.744
 2030TIP3    H2 6052   7.109   1.211   2.756
 2031TIP3   OH2 6053   6.411   0.522   2.060
 2031TIP3    H1 6054   6.330   0.576   2.055
 2031TIP3    H2 6055   6.452   0.542   1.974
 2032TIP3   OH2 6056   6.761   0.614   2.041
 2032TIP3    H1 6057   6.695   0.640   2.108
 2032TIP3    H2 6058   6.833   0.583   2.097
 2033TIP3   OH2 6059   6.975   0.645   2.956
 2033TIP3    H1 6060   6.976   0.736   2.988
 2033TIP3    H2 6061   6.897   0.646   2.897
 2034TIP3   OH2 6062   5.987   0.610   2.449
 2034TIP3    H1 6063   5.951   0.550   2.380
 2034TIP3    H2 6064   6.066   0.561   2.480
 2035TIP3   OH2 6065   6.120   1.023   2.599
 2035TIP3    H1 6066   6.098   0.983   2.514
 2035TIP3    H2 6067   6.209   0.987   2.616
 2036TIP3   OH2 6068   6.127   0.583   2.804
 2036TIP3    H1 6069   6.159   0.564   2.713
 2036TIP3    H2 6070   6.169   0.670   2.823
 2037TIP3   OH2 6071   6.651   1.220   2.580
 2037TIP3    H1 6072   6.639   1.300   2.633
 2037TIP3    H2 6073   6.636   1.148   2.644
 2038TIP3   OH2 6074   6.264   1.137   3.130
 2038TIP3    H1 6075   6.203   1.200   3.175
 2038TIP3    H2 6076   6.199   1.084   3.079
 2039TIP3   OH2 6077   6.020   0.701   3.228
 2039TIP3    H1 6078   6.022   0.787   3.276
 2039TIP3    H2 6079   5.926   0.677   3.240
 2040TIP3   OH2 6080   6.337   1.154   2.119
 2040TIP3    H1 6081   6.421   1.199   2.146
 2040TIP3    H2 6082   6.279   1.229   2.107
 2041TIP3   OH2 6083   6.058   1.305   3.216
 2041TIP3    H1 6084   6.022   1.308   3.125
 2041TIP3    H2 6085   5.979   1.284   3.269
 2042TIP3   OH2 6086   5.863   0.449   2.238
 2042TIP3    H1 6087   5.792   0.499   2.193
 2042TIP3    H2 6088   5.814   0.372   2.270
 2043TIP3   OH2 6089   5.636   0.838   3.162
 2043TIP3    H1 6090   5.571   0.815   3.093
 2043TIP3    H2 6091   5.675   0.750   3.185
 2044TIP3   OH2 6092   5.491   1.029   2.796
 2044TIP3    H1 6093   5.587   1.025   2.786
 2044TIP3    H2 6094   5.480   1.109   2.849
 2045TIP3   OH2 6095   6.461   1.266   2.987
 2045TIP3    H1 6096   6.460   1.359   3.018
 2045TIP3    H2 6097   6.389   1.227   3.041
 2046TIP3   OH2 6098   6.220   1.396   1.937
 2046TIP3    H1 6099   6.180   1.387   1.849
 2046TIP3    H2 6100   6.191   1.486   1.965
 2047TIP3   OH2 6101   5.660   1.246   2.322
 2047TIP3    H1 6102   5.707   1.237   2.408
 2047TIP3    H2 6103   5.608   1.163   2.321
 2048TIP3   OH2 6104   6.420   1.302   1.583
 2048TIP3    H1 6105   6.486   1.241   1.541
 2048TIP3    H2 6106   6.455   1.308   1.675
 2049TIP3   OH2 6107   6.474   1.346   1.850
 2049TIP3    H1 6108   6.386   1.357   1.891
 2049TIP3    H2 6109   6.524   1.306   1.924
 2050TIP3   OH2 6110   5.841   1.020   3.149
 2050TIP3    H1 6111   5.890   1.005   3.232
 2050TIP3    H2 6112   5.767   0.957   3.157
 2051TIP3   OH2 6113   7.010   0.389   3.063
 2051TIP3    H1 6114   7.017   0.423   3.153
 2051TIP3    H2 6115   7.001   0.472   3.012
 2052TIP3   OH2 6116   6.187   0.375   2.966
 2052TIP3    H1 6117   6.129   0.399   3.041
 2052TIP3    H2 6118   6.166   0.449   2.904
 2053TIP3   OH2 6119   6.052   0.265   2.478
 2053TIP3    H1 6120   5.961   0.235   2.500
 2053TIP3    H2 6121   6.068   0.213   2.397
 2054TIP3   OH2 6122   6.554   0.332   2.197
 2054TIP3    H1 6123   6.496   0.404   2.165
 2054TIP3    H2 6124   6.606   0.316   2.117
 2055TIP3   OH2 6125   6.725   0.614   3.272
 2055TIP3    H1 6126   6.694   0.551   3.341
 2055TIP3    H2 6127   6.816   0.631   3.302
 2056TIP3   OH2 6128   6.715   0.381   2.439
 2056TIP3    H1 6129   6.657   0.403   2.363
 2056TIP3    H2 6130   6.741   0.290   2.418
 2057TIP3   OH2 6131   5.985   0.401   3.147
 2057TIP3    H1 6132   6.001   0.447   3.230
 2057TIP3    H2 6133   5.986   0.307   3.175
 2058TIP3   OH2 6134   5.611  -0.072   2.274
 2058TIP3    H1 6135   5.644  -0.029   2.192
 2058TIP3    H2 6136   5.545  -0.007   2.300
 2059TIP3   OH2 6137   6.699   0.621   2.852
 2059TIP3    H1 6138   6.740   0.551   2.795
 2059TIP3    H2 6139   6.678   0.566   2.931
 2060TIP3   OH2 6140   6.351   0.099   2.506
 2060TIP3    H1 6141   6.274   0.081   2.563
 2060TIP3    H2 6142   6.421   0.105   2.574
 2061TIP3   OH2 6143   5.814   0.134   2.525
 2061TIP3    H1 6144   5.719   0.156   2.507
 2061TIP3    H2 6145   5.807   0.038   2.533
 2062TIP3   OH2 6146   6.097   0.143   2.231
 2062TIP3    H1 6147   6.190   0.168   2.215
 2062TIP3    H2 6148   6.047   0.202   2.172
 2063TIP3   OH2 6149   5.916   0.180   1.993
 2063TIP3    H1 6150   5.825   0.153   2.015
 2063TIP3    H2 6151   5.918   0.157   1.899
 2064TIP3   OH2 6152   7.038   1.830   2.962
 2064TIP3    H1 6153   7.025   1.857   2.869
 2064TIP3    H2 6154   7.110   1.889   2.991
 2065TIP3   OH2 6155   6.003   0.944   3.372
 2065TIP3    H1 6156   6.083   0.974   3.420
 2065TIP3    H2 6157   5.938   0.943   3.445
 2066TIP3   OH2 6158   6.460   0.405   2.628
 2066TIP3    H1 6159   6.529   0.354   2.583
 2066TIP3    H2 6160   6.461   0.363   2.716
 2067TIP3   OH2 6161   6.445   0.300   2.914
 2067TIP3    H1 6162   6.353   0.329   2.935
 2067TIP3    H2 6163   6.498   0.364   2.967
 2068TIP3   OH2 6164   6.191   0.682   2.020
 2068TIP3    H1 6165   6.114   0.624   2.001
 2068TIP3    H2 6166   6.165   0.717   2.111
 2069TIP3   OH2 6167   7.076   0.929   2.631
 2069TIP3    H1 6168   7.099   0.931   2.538
 2069TIP3    H2 6169   6.992   0.879   2.628
 2070TIP3   OH2 6170   6.583   1.004   3.007
 2070TIP3    H1 6171   6.598   0.981   3.099
 2070TIP3    H2 6172   6.541   1.092   3.013
 2071TIP3   OH2 6173   5.871   0.706   2.685
 2071TIP3    H1 6174   5.910   0.675   2.601
 2071TIP3    H2 6175   5.909   0.645   2.750
 2072TIP3   OH2 6176   6.352   0.857   1.884
 2072TIP3    H1 6177   6.307   0.935   1.853
 2072TIP3    H2 6178   6.283   0.801   1.915
 2073TIP3   OH2 6179   5.756   0.626   3.299
 2073TIP3    H1 6180   5.773   0.611   3.394
 2073TIP3    H2 6181   5.685   0.561   3.282
 2074TIP3   OH2 6182   6.480   0.741   3.318
 2074TIP3    H1 6183   6.415   0.684   3.271
 2074TIP3    H2 6184   6.564   0.706   3.283
 2075TIP3   OH2 6185   6.740   1.263   2.902
 2075TIP3    H1 6186   6.644   1.259   2.915
 2075TIP3    H2 6187   6.767   1.313   2.981
 2076TIP3   OH2 6188   6.830   1.151   1.724
 2076TIP3    H1 6189   6.822   1.080   1.788
 2076TIP3    H2 6190   6.884   1.110   1.654
 2077TIP3   OH2 6191   6.841   0.789   2.566
 2077TIP3    H1 6192   6.749   0.760   2.572
 2077TIP3    H2 6193   6.881   0.711   2.520
 2078TIP3   OH2 6194   5.974   1.010   2.308
 2078TIP3    H1 6195   5.969   1.095   2.259
 2078TIP3    H2 6196   5.880   0.992   2.322
 2079TIP3   OH2 6197   5.532   0.333   2.015
 2079TIP3    H1 6198   5.574   0.419   2.031
 2079TIP3    H2 6199   5.454   0.338   2.075
 2080TIP3   OH2 6200   6.108   0.776   2.260
 2080TIP3    H1 6201   6.072   0.865   2.277
 2080TIP3    H2 6202   6.070   0.726   2.335
 2081TIP3   OH2 6203   6.243   1.353   2.780
 2081TIP3    H1 6204   6.284   1.427   2.730
 2081TIP3    H2 6205   6.319   1.317   2.828
 2082TIP3   OH2 6206   5.899   1.249   2.170
 2082TIP3    H1 6207   5.810   1.258   2.211
 2082TIP3    H2 6208   5.927   1.342   2.167
 2083TIP3   OH2 6209   6.630   0.986   2.738
 2083TIP3    H1 6210   6.622   0.985   2.837
 2083TIP3    H2 6211   6.709   0.932   2.725
 2084TIP3   OH2 6212   6.608   0.919   1.632
 2084TIP3    H1 6213   6.662   0.873   1.705
 2084TIP3    H2 6214   6.535   0.947   1.680
 2085TIP3   OH2 6215   6.882   1.518   2.787
 2085TIP3    H1 6216   6.802   1.461   2.783
 2085TIP3    H2 6217   6.862   1.582   2.715
 2086TIP3   OH2 6218   6.919   1.339   1.470
 2086TIP3    H1 6219   6.977   1.362   1.543
 2086TIP3    H2 6220   6.839   1.391   1.489
 2087TIP3   OH2 6221   6.765   0.827   1.855
 2087TIP3    H1 6222   6.743   0.748   1.909
 2087TIP3    H2 6223   6.839   0.792   1.803
 2088TIP3   OH2 6224   5.681   1.214   2.939
 2088TIP3    H1 6225   5.735   1.141   2.973
 2088TIP3    H2 6226   5.707   1.286   2.998
 2089TIP3   OH2 6227   5.960   0.880   1.624
 2089TIP3    H1 6228   5.995   0.800   1.588
 2089TIP3    H2 6229   5.952   0.860   1.720
 2090TIP3   OH2 6230   5.925   0.866   1.892
 2090TIP3    H1 6231   5.984   0.853   1.966
 2090TIP3    H2 6232   5.906   0.965   1.898
 2091TIP3   OH2 6233   5.656   0.568   2.101
 2091TIP3    H1 6234   5.587   0.609   2.157
 2091TIP3    H2 6235   5.662   0.636   2.031
 2092TIP3   OH2 6236   6.156   1.079   1.892
 2092TIP3    H1 6237   6.166   1.103   1.764
 2092TIP3    H2 6238   6.185   1.141   1.964
 2093TIP3   OH2 6239   6.375   0.128   2.244
 2093TIP3    H1 6240   6.438   0.202   2.230
 2093TIP3    H2 6241   6.363   0.131   2.342
 2094TIP3   OH2 6242   6.639   0.453   3.060
 2094TIP3    H1 6243   6.668   0.510   3.134
 2094TIP3    H2 6244   6.677   0.366   3.084
 2095TIP3   OH2 6245   5.840   1.131   1.909
 2095TIP3    H1 6246   5.857   1.200   1.843
 2095TIP3    H2 6247   5.875   1.176   1.990
 2096TIP3   OH2 6248   6.934   0.564   2.445
 2096TIP3    H1 6249   6.865   0.495   2.448
 2096TIP3    H2 6250   7.015   0.517   2.469
 2097TIP3   OH2 6251   5.645   0.770   1.910
 2097TIP3    H1 6252   5.705   0.848   1.909
 2097TIP3    H2 6253   5.685   0.717   1.838
 2098TIP3   OH2 6254   5.637   0.086   2.053
 2098TIP3    H1 6255   5.601   0.177   2.043
 2098TIP3    H2 6256   5.590   0.041   1.980
 2099TIP3   OH2 6257   6.894   1.491   2.387
 2099TIP3    H1 6258   6.856   1.540   2.310
 2099TIP3    H2 6259   6.990   1.505   2.370
 2100TIP3   OH2 6260   5.518   0.984   2.290
 2100TIP3    H1 6261   5.445   1.012   2.346
 2100TIP3    H2 6262   5.490   1.023   2.203
 2101TIP3   OH2 6263   5.672   1.525   3.362
 2101TIP3    H1 6264   5.758   1.526   3.409
 2101TIP3    H2 6265   5.652   1.430   3.361
 2102TIP3   OH2 6266   6.152   1.487   3.409
 2102TIP3    H1 6267   6.247   1.472   3.412
 2102TIP3    H2 6268   6.126   1.428   3.335
 2103TIP3   OH2 6269   6.110   1.097   1.537
 2103TIP3    H1 6270   6.049   1.035   1.582
 2103TIP3    H2 6271   6.190   1.041   1.527
 2104TIP3   OH2 6272   6.792   1.395   3.139
 2104TIP3    H1 6273   6.783   1.326   3.208
 2104TIP3    H2 6274   6.865   1.450   3.173
 2105TIP3   OH2 6275   6.582   1.127   1.456
 2105TIP3    H1 6276   6.607   1.051   1.512
 2105TIP3    H2 6277   6.646   1.121   1.382
 2106TIP3   OH2 6278   5.802   0.929   3.562
 2106TIP3    H1 6279   5.816   0.833   3.569
 2106TIP3    H2 6280   5.715   0.933   3.517
 2107TIP3   OH2 6281   5.775   0.584   1.756
 2107TIP3    H1 6282   5.839   0.556   1.823
 2107TIP3    H2 6283   5.826   0.584   1.675
 2108TIP3   OH2 6284   6.410   1.016   3.335
 2108TIP3    H1 6285   6.366   1.035   3.250
 2108TIP3    H2 6286   6.438   0.923   3.326
 2109TIP3   OH2 6287   6.187   0.669   1.713
 2109TIP3    H1 6288   6.270   0.631   1.787
 2109TIP3    H2 6289   6.265   0.636   1.640
 2110TIP3   OH2 6290   6.905   1.024   2.948
 2110TIP3    H1 6291   6.979   1.068   2.901
 2110TIP3    H2 6292   6.832   1.086   2.929
 2111TIP3   OH2 6293   5.934   0.662   3.543
 2111TIP3    H1 6294   6.015   0.614   3.521
 2111TIP3    H2 6295   5.955   0.697   3.631
 2112TIP3   OH2 6296   5.994   0.485   1.982
 2112TIP3    H1 6297   5.947   0.468   2.065
 2112TIP3    H2 6298   6.021   0.394   1.957
 2113TIP3   OH2 6299   6.258   0.564   3.211
 2113TIP3    H1 6300   6.174   0.615   3.207
 2113TIP3    H2 6301   6.303   0.594   3.129
 2114TIP3   OH2 6302   6.776   0.954   3.343
 2114TIP3    H1 6303   6.846   0.920   3.286
 2114TIP3    H2 6304   6.766   0.884   3.410
 2115TIP3   OH2 6305   6.381   0.348   3.310
 2115TIP3    H1 6306   6.397   0.307   3.224
 2115TIP3    H2 6307   6.330   0.427   3.281
 2116TIP3   OH2 6308   6.410   0.662   3.012
 2116TIP3    H1 6309   6.493   0.670   2.964
 2116TIP3    H2 6310   6.353   0.727   2.965
 2117TIP3   OH2 6311   6.979   0.635   3.388
 2117TIP3    H1 6312   7.016   0.544   3.381
 2117TIP3    H2 6313   7.052   0.688   3.354
 2118TIP3   OH2 6314   7.045   0.890   3.134
 2118TIP3    H1 6315   6.980   0.941   3.080
 2118TIP3    H2 6316   7.119   0.888   3.073
 2119TIP3   OH2 6317   6.215   0.464   3.553
 2119TIP3    H1 6318   6.235   0.376   3.589
 2119TIP3    H2 6319   6.271   0.463   3.475
 2120TIP3   OH2 6320   6.616   0.430   3.437
 2120TIP3    H1 6321   6.636   0.363   3.504
 2120TIP3    H2 6322   6.533   0.397   3.399
 2121TIP3   OH2 6323   5.894   1.343   1.730
 2121TIP3    H1 6324   5.991   1.344   1.714
 2121TIP3    H2 6325   5.865   1.382   1.646
 2122TIP3   OH2 6326   5.377   0.719   1.959
 2122TIP3    H1 6327   5.464   0.749   1.926
 2122TIP3    H2 6328   5.365   0.637   1.905
 2123TIP3   OH2 6329   5.290   1.337   2.354
 2123TIP3    H1 6330   5.224   1.274   2.318
 2123TIP3    H2 6331   5.336   1.280   2.420
 2124TIP3   OH2 6332   5.424   1.188   2.541
 2124TIP3    H1 6333   5.413   1.114   2.602
 2124TIP3    H2 6334   5.477   1.248   2.596
 2125TIP3   OH2 6335   7.141   1.594   2.358
 2125TIP3    H1 6336   7.185   1.655   2.419
 2125TIP3    H2 6337   7.151   1.639   2.272
 2126TIP3   OH2 6338   7.155   1.633   2.651
 2126TIP3    H1 6339   7.115   1.550   2.619
 2126TIP3    H2 6340   7.219   1.598   2.714
 2127TIP3   OH2 6341   7.238   1.266   3.215
 2127TIP3    H1 6342   7.162   1.291   3.271
 2127TIP3    H2 6343   7.249   1.342   3.157
 2128TIP3   OH2 6344   7.073   1.361   2.646
 2128TIP3    H1 6345   6.999   1.396   2.700
 2128TIP3    H2 6346   7.023   1.314   2.575
 2129TIP3   OH2 6347   5.610   0.593   2.913
 2129TIP3    H1 6348   5.607   0.562   2.820
 2129TIP3    H2 6349   5.707   0.598   2.928
 2130TIP3   OH2 6350   5.832   0.290   3.599
 2130TIP3    H1 6351   5.925   0.294   3.577
 2130TIP3    H2 6352   5.824   0.194   3.622
 2131TIP3   OH2 6353   5.588   0.255   2.982
 2131TIP3    H1 6354   5.643   0.231   2.906
 2131TIP3    H2 6355   5.635   0.333   3.015
 2132TIP3   OH2 6356   6.732   1.454   1.999
 2132TIP3    H1 6357   6.784   1.439   1.918
 2132TIP3    H2 6358   6.788   1.518   2.047
 2133TIP3   OH2 6359   5.839   1.256   3.382
 2133TIP3    H1 6360   5.746   1.231   3.364
 2133TIP3    H2 6361   5.846   1.240   3.476
 2134TIP3   OH2 6362   6.016   1.290   2.929
 2134TIP3    H1 6363   5.968   1.366   2.890
 2134TIP3    H2 6364   6.102   1.305   2.884
 2135TIP3   OH2 6365   6.460   1.533   3.066
 2135TIP3    H1 6366   6.501   1.536   3.155
 2135TIP3    H2 6367   6.525   1.585   3.014
 2136TIP3   OH2 6368   6.638   1.686   2.927
 2136TIP3    H1 6369   6.710   1.636   2.885
 2136TIP3    H2 6370   6.689   1.743   2.989
 2137TIP3   OH2 6371   5.692   1.546   2.954
 2137TIP3    H1 6372   5.602   1.579   2.931
 2137TIP3    H2 6373   5.704   1.589   3.039
 2138TIP3   OH2 6374   5.928   1.525   2.811
 2138TIP3    H1 6375   5.841   1.538   2.855
 2138TIP3    H2 6376   5.910   1.558   2.721
 2139TIP3   OH2 6377   6.354   1.553   2.609
 2139TIP3    H1 6378   6.285   1.573   2.543
 2139TIP3    H2 6379   6.366   1.640   2.651
 2140TIP3   OH2 6380   6.623   1.492   2.661
 2140TIP3    H1 6381   6.529   1.510   2.642
 2140TIP3    H2 6382   6.666   1.567   2.618
 2141TIP3   OH2 6383   6.827   1.684   2.574
 2141TIP3    H1 6384   6.813   1.766   2.522
 2141TIP3    H2 6385   6.853   1.621   2.503
 2142TIP3   OH2 6386   5.604   1.340   2.698
 2142TIP3    H1 6387   5.630   1.314   2.789
 2142TIP3    H2 6388   5.676   1.296   2.647
 2143TIP3   OH2 6389   5.798   1.211   2.555
 2143TIP3    H1 6390   5.813   1.128   2.605
 2143TIP3    H2 6391   5.889   1.248   2.550
 2144TIP3   OH2 6392   6.065   1.306   2.559
 2144TIP3    H1 6393   6.096   1.214   2.548
 2144TIP3    H2 6394   6.109   1.328   2.642
 2145TIP3   OH2 6395   5.391   1.110   2.089
 2145TIP3    H1 6396   5.311   1.070   2.053
 2145TIP3    H2 6397   5.373   1.204   2.074
 2146TIP3   OH2 6398   6.163   1.344   1.661
 2146TIP3    H1 6399   6.252   1.344   1.632
 2146TIP3    H2 6400   6.133   1.256   1.618
 2147TIP3   OH2 6401   6.878   1.412   1.765
 2147TIP3    H1 6402   6.860   1.315   1.757
 2147TIP3    H2 6403   6.821   1.447   1.694
 2148TIP3   OH2 6404   5.475   1.146   1.733
 2148TIP3    H1 6405   5.482   1.152   1.829
 2148TIP3    H2 6406   5.559   1.102   1.709
 2149TIP3   OH2 6407   7.096   1.561   2.968
 2149TIP3    H1 6408   7.027   1.530   2.906
 2149TIP3    H2 6409   7.080   1.658   2.967
 2150TIP3   OH2 6410   7.031   1.628   1.821
 2150TIP3    H1 6411   6.976   1.551   1.798
 2150TIP3    H2 6412   7.118   1.587   1.835
 2151TIP3   OH2 6413   0.830   1.728   3.411
 2151TIP3    H1 6414   0.797   1.817   3.386
 2151TIP3    H2 6415   0.760   1.673   3.371
 2152TIP3   OH2 6416   0.827   1.728   3.792
 2152TIP3    H1 6417   0.860   1.691   3.877
 2152TIP3    H2 6418   0.789   1.649   3.750
 2153TIP3   OH2 6419   0.131   1.619   4.148
 2153TIP3    H1 6420   0.159   1.551   4.213
 2153TIP3    H2 6421   0.204   1.681   4.152
 2154TIP3   OH2 6422   1.069   2.026   3.470
 2154TIP3    H1 6423   1.055   1.951   3.529
 2154TIP3    H2 6424   1.103   2.095   3.529
 2155TIP3   OH2 6425   0.099   2.030   3.880
 2155TIP3    H1 6426   0.089   1.932   3.881
 2155TIP3    H2 6427   0.196   2.037   3.873
 2156TIP3   OH2 6428  -0.118   1.528   3.835
 2156TIP3    H1 6429  -0.075   1.445   3.862
 2156TIP3    H2 6430  -0.071   1.552   3.755
 2157TIP3   OH2 6431   0.723   2.489   3.489
 2157TIP3    H1 6432   0.768   2.423   3.432
 2157TIP3    H2 6433   0.705   2.437   3.568
 2158TIP3   OH2 6434   0.626   1.950   3.836
 2158TIP3    H1 6435   0.660   1.870   3.792
 2158TIP3    H2 6436   0.712   1.992   3.858
 2159TIP3   OH2 6437   1.639   1.271   3.834
 2159TIP3    H1 6438   1.670   1.354   3.874
 2159TIP3    H2 6439   1.662   1.285   3.741
 2160TIP3   OH2 6440   1.040   1.453   3.868
 2160TIP3    H1 6441   1.078   1.366   3.890
 2160TIP3    H2 6442   1.005   1.435   3.778
 2161TIP3   OH2 6443   0.367   1.106   3.842
 2161TIP3    H1 6444   0.349   1.162   3.764
 2161TIP3    H2 6445   0.325   1.022   3.818
 2162TIP3   OH2 6446   1.071   1.206   3.456
 2162TIP3    H1 6447   1.142   1.186   3.521
 2162TIP3    H2 6448   1.125   1.237   3.382
 2163TIP3   OH2 6449   0.012   1.298   3.929
 2163TIP3    H1 6450   0.095   1.283   3.980
 2163TIP3    H2 6451   0.011   1.220   3.872
 2164TIP3   OH2 6452   0.451   1.505   3.732
 2164TIP3    H1 6453   0.546   1.486   3.748
 2164TIP3    H2 6454   0.418   1.416   3.707
 2165TIP3   OH2 6455   1.716   1.482   4.003
 2165TIP3    H1 6456   1.631   1.525   3.980
 2165TIP3    H2 6457   1.709   1.482   4.099
 2166TIP3   OH2 6458   0.374   1.088   4.271
 2166TIP3    H1 6459   0.313   1.134   4.210
 2166TIP3    H2 6460   0.321   1.081   4.352
 2167TIP3   OH2 6461   0.720   1.947   3.279
 2167TIP3    H1 6462   0.674   1.922   3.198
 2167TIP3    H2 6463   0.675   2.031   3.301
 2168TIP3   OH2 6464   0.480   1.871   4.062
 2168TIP3    H1 6465   0.416   1.934   4.101
 2168TIP3    H2 6466   0.515   1.922   3.987
 2169TIP3   OH2 6467   1.282   1.204   3.627
 2169TIP3    H1 6468   1.267   1.151   3.706
 2169TIP3    H2 6469   1.332   1.280   3.661
 2170TIP3   OH2 6470   0.237   1.208   4.064
 2170TIP3    H1 6471   0.302   1.280   4.081
 2170TIP3    H2 6472   0.282   1.163   3.988
 2171TIP3   OH2 6473   0.306   2.062   4.164
 2171TIP3    H1 6474   0.280   2.148   4.124
 2171TIP3    H2 6475   0.227   2.046   4.220
 2172TIP3   OH2 6476   1.141   2.271   3.641
 2172TIP3    H1 6477   1.052   2.266   3.682
 2172TIP3    H2 6478   1.133   2.352   3.588
 2173TIP3   OH2 6479   1.431   1.175   4.003
 2173TIP3    H1 6480   1.342   1.195   3.969
 2173TIP3    H2 6481   1.489   1.204   3.930
 2174TIP3   OH2 6482   0.731   0.833   3.975
 2174TIP3    H1 6483   0.727   0.738   4.002
 2174TIP3    H2 6484   0.648   0.865   4.017
 2175TIP3   OH2 6485   0.846   2.316   3.318
 2175TIP3    H1 6486   0.892   2.232   3.295
 2175TIP3    H2 6487   0.908   2.379   3.273
 2176TIP3   OH2 6488   0.984   2.101   3.219
 2176TIP3    H1 6489   0.946   2.022   3.178
 2176TIP3    H2 6490   1.021   2.064   3.302
 2177TIP3   OH2 6491   1.365   2.183   3.978
 2177TIP3    H1 6492   1.355   2.100   3.926
 2177TIP3    H2 6493   1.362   2.251   3.908
 2178TIP3   OH2 6494   0.670   1.579   3.240
 2178TIP3    H1 6495   0.585   1.623   3.223
 2178TIP3    H2 6496   0.700   1.558   3.150
 2179TIP3   OH2 6497   0.628   1.368   2.988
 2179TIP3    H1 6498   0.717   1.394   3.017
 2179TIP3    H2 6499   0.639   1.279   2.953
 2180TIP3   OH2 6500   1.563   1.824   3.829
 2180TIP3    H1 6501   1.477   1.872   3.832
 2180TIP3    H2 6502   1.590   1.843   3.736
 2181TIP3   OH2 6503   1.007   1.662   3.211
 2181TIP3    H1 6504   0.952   1.683   3.290
 2181TIP3    H2 6505   1.090   1.633   3.254
 2182TIP3   OH2 6506   1.241   1.698   4.121
 2182TIP3    H1 6507   1.234   1.779   4.174
 2182TIP3    H2 6508   1.154   1.698   4.077
 2183TIP3   OH2 6509   0.245   1.661   3.632
 2183TIP3    H1 6510   0.191   1.602   3.575
 2183TIP3    H2 6511   0.320   1.603   3.658
 2184TIP3   OH2 6512   0.370   2.069   3.774
 2184TIP3    H1 6513   0.342   2.032   3.689
 2184TIP3    H2 6514   0.457   2.029   3.787
 2185TIP3   OH2 6515   0.384   1.623   3.982
 2185TIP3    H1 6516   0.412   1.603   3.890
 2185TIP3    H2 6517   0.421   1.712   3.998
 2186TIP3   OH2 6518   0.901   2.270   3.774
 2186TIP3    H1 6519   0.846   2.311   3.841
 2186TIP3    H2 6520   0.900   2.177   3.806
 2187TIP3   OH2 6521   0.513   2.184   4.300
 2187TIP3    H1 6522   0.452   2.244   4.349
 2187TIP3    H2 6523   0.447   2.131   4.251
 2188TIP3   OH2 6524   0.858   1.517   3.032
 2188TIP3    H1 6525   0.909   1.581   3.087
 2188TIP3    H2 6526   0.882   1.547   2.941
 2189TIP3   OH2 6527   0.263   1.737   4.404
 2189TIP3    H1 6528   0.269   1.824   4.449
 2189TIP3    H2 6529   0.167   1.720   4.412
 2190TIP3   OH2 6530   0.591   2.193   3.310
 2190TIP3    H1 6531   0.666   2.252   3.325
 2190TIP3    H2 6532   0.525   2.251   3.269
 2191TIP3   OH2 6533   0.310   2.352   4.393
 2191TIP3    H1 6534   0.270   2.354   4.304
 2191TIP3    H2 6535   0.232   2.331   4.450
 2192TIP3   OH2 6536   1.345   0.765   3.068
 2192TIP3    H1 6537   1.268   0.774   3.128
 2192TIP3    H2 6538   1.363   0.859   3.048
 2193TIP3   OH2 6539   0.085   1.503   3.461
 2193TIP3    H1 6540   0.078   1.555   3.380
 2193TIP3    H2 6541   0.054   1.417   3.429
 2194TIP3   OH2 6542   1.163   2.124   2.636
 2194TIP3    H1 6543   1.171   2.220   2.619
 2194TIP3    H2 6544   1.255   2.094   2.621
 2195TIP3   OH2 6545  -0.095   1.875   4.329
 2195TIP3    H1 6546  -0.165   1.845   4.270
 2195TIP3    H2 6547  -0.073   1.794   4.378
 2196TIP3   OH2 6548  -0.261   2.086   3.963
 2196TIP3    H1 6549  -0.169   2.058   3.954
 2196TIP3    H2 6550  -0.254   2.149   4.036
 2197TIP3   OH2 6551   1.603   2.526   4.028
 2197TIP3    H1 6552   1.604   2.429   4.041
 2197TIP3    H2 6553   1.519   2.550   4.072
 2198TIP3   OH2 6554   0.699   2.318   4.152
 2198TIP3    H1 6555   0.711   2.405   4.194
 2198TIP3    H2 6556   0.632   2.276   4.210
 2199TIP3   OH2 6557   0.474   2.443   3.112
 2199TIP3    H1 6558   0.419   2.425   3.034
 2199TIP3    H2 6559   0.439   2.528   3.143
 2200TIP3   OH2 6560  -0.087   2.295   3.497
 2200TIP3    H1 6561  -0.046   2.285   3.586
 2200TIP3    H2 6562  -0.137   2.210   3.493
 2201TIP3   OH2 6563   0.674   2.343   2.752
 2201TIP3    H1 6564   0.733   2.273   2.717
 2201TIP3    H2 6565   0.707   2.353   2.844
 2202TIP3   OH2 6566   0.724   2.391   3.021
 2202TIP3    H1 6567   0.634   2.403   3.059
 2202TIP3    H2 6568   0.769   2.345   3.094
 2203TIP3   OH2 6569   1.496   1.661   4.297
 2203TIP3    H1 6570   1.410   1.667   4.252
 2203TIP3    H2 6571   1.513   1.565   4.291
 2204TIP3   OH2 6572   0.090   2.072   4.332
 2204TIP3    H1 6573   0.142   2.046   4.411
 2204TIP3    H2 6574   0.018   2.004   4.332
 2205TIP3   OH2 6575   0.466   0.903   4.084
 2205TIP3    H1 6576   0.392   0.894   4.023
 2205TIP3    H2 6577   0.440   0.981   4.136
 2206TIP3   OH2 6578   1.025   1.007   4.307
 2206TIP3    H1 6579   1.093   0.976   4.370
 2206TIP3    H2 6580   0.941   0.985   4.354
 2207TIP3   OH2 6581   1.266   1.436   4.230
 2207TIP3    H1 6582   1.212   1.428   4.312
 2207TIP3    H2 6583   1.234   1.519   4.192
 2208TIP3   OH2 6584   0.925   1.584   2.782
 2208TIP3    H1 6585   0.912   1.522   2.709
 2208TIP3    H2 6586   1.013   1.621   2.759
 2209TIP3   OH2 6587   0.418   1.401   4.133
 2209TIP3    H1 6588   0.371   1.426   4.215
 2209TIP3    H2 6589   0.405   1.482   4.078
 2210TIP3   OH2 6590   0.308   1.273   3.631
 2210TIP3    H1 6591   0.215   1.275   3.607
 2210TIP3    H2 6592   0.350   1.259   3.545
 2211TIP3   OH2 6593   0.803   1.380   3.378
 2211TIP3    H1 6594   0.750   1.450   3.332
 2211TIP3    H2 6595   0.857   1.346   3.304
 2212TIP3   OH2 6596   0.971   1.655   4.459
 2212TIP3    H1 6597   0.947   1.582   4.520
 2212TIP3    H2 6598   1.065   1.666   4.481
 2213TIP3   OH2 6599   0.954   1.407   3.610
 2213TIP3    H1 6600   0.891   1.429   3.537
 2213TIP3    H2 6601   0.990   1.325   3.570
 2214TIP3   OH2 6602   0.235   1.439   4.343
 2214TIP3    H1 6603   0.275   1.505   4.402
 2214TIP3    H2 6604   0.186   1.384   4.406
 2215TIP3   OH2 6605   0.966   1.651   4.034
 2215TIP3    H1 6606   0.998   1.579   3.975
 2215TIP3    H2 6607   0.936   1.597   4.110
 2216TIP3   OH2 6608   0.639   1.123   3.705
 2216TIP3    H1 6609   0.560   1.101   3.758
 2216TIP3    H2 6610   0.710   1.106   3.769
 2217TIP3   OH2 6611   1.122   1.188   3.909
 2217TIP3    H1 6612   1.088   1.200   4.000
 2217TIP3    H2 6613   1.057   1.124   3.875
 2218TIP3   OH2 6614   1.293   2.875   4.124
 2218TIP3    H1 6615   1.290   2.903   4.030
 2218TIP3    H2 6616   1.366   2.931   4.157
 2219TIP3   OH2 6617   0.254   1.984   4.548
 2219TIP3    H1 6618   0.333   2.015   4.597
 2219TIP3    H2 6619   0.187   1.983   4.619
 2220TIP3   OH2 6620   0.715   1.445   3.806
 2220TIP3    H1 6621   0.780   1.398   3.751
 2220TIP3    H2 6622   0.720   1.396   3.890
 2221TIP3   OH2 6623   0.692   1.340   4.090
 2221TIP3    H1 6624   0.602   1.374   4.108
 2221TIP3    H2 6625   0.749   1.399   4.143
 2222TIP3   OH2 6626   0.442   1.726   3.195
 2222TIP3    H1 6627   0.354   1.693   3.175
 2222TIP3    H2 6628   0.425   1.767   3.283
 2223TIP3   OH2 6629   1.327   1.966   3.817
 2223TIP3    H1 6630   1.351   2.014   3.735
 2223TIP3    H2 6631   1.244   1.919   3.791
 2224TIP3   OH2 6632   0.882   1.054   3.064
 2224TIP3    H1 6633   0.788   1.055   3.046
 2224TIP3    H2 6634   0.903   1.148   3.084
 2225TIP3   OH2 6635   0.849   2.064   4.181
 2225TIP3    H1 6636   0.855   2.013   4.263
 2225TIP3    H2 6637   0.781   2.129   4.202
 2226TIP3   OH2 6638   0.961   1.298   3.160
 2226TIP3    H1 6639   1.057   1.298   3.175
 2226TIP3    H2 6640   0.947   1.378   3.105
 2227TIP3   OH2 6641   0.128   1.756   3.867
 2227TIP3    H1 6642   0.163   1.724   3.782
 2227TIP3    H2 6643   0.156   1.687   3.929
 2228TIP3   OH2 6644   0.569   1.878   3.001
 2228TIP3    H1 6645   0.523   1.965   3.010
 2228TIP3    H2 6646   0.520   1.824   3.067
 2229TIP3   OH2 6647  -0.003   1.663   4.485
 2229TIP3    H1 6648   0.036   1.664   4.574
 2229TIP3    H2 6649  -0.069   1.593   4.492
 2230TIP3   OH2 6650   0.729   1.789   4.490
 2230TIP3    H1 6651   0.669   1.724   4.451
 2230TIP3    H2 6652   0.816   1.750   4.466
 2231TIP3   OH2 6653   0.983   2.344   4.063
 2231TIP3    H1 6654   0.899   2.300   4.085
 2231TIP3    H2 6655   1.009   2.377   4.152
 2232TIP3   OH2 6656   1.408   1.387   3.002
 2232TIP3    H1 6657   1.343   1.342   2.941
 2232TIP3    H2 6658   1.404   1.475   2.960
 2233TIP3   OH2 6659   1.617   2.240   4.068
 2233TIP3    H1 6660   1.519   2.231   4.062
 2233TIP3    H2 6661   1.643   2.207   3.979
 2234TIP3   OH2 6662   1.099   2.195   2.899
 2234TIP3    H1 6663   1.073   2.124   2.959
 2234TIP3    H2 6664   1.113   2.149   2.814
 2235TIP3   OH2 6665   1.094   1.827   3.735
 2235TIP3    H1 6666   1.001   1.799   3.748
 2235TIP3    H2 6667   1.129   1.747   3.691
 2236TIP3   OH2 6668   0.221   2.056   3.490
 2236TIP3    H1 6669   0.215   2.136   3.435
 2236TIP3    H2 6670   0.127   2.033   3.499
 2237TIP3   OH2 6671   0.359   1.823   3.432
 2237TIP3    H1 6672   0.322   1.911   3.449
 2237TIP3    H2 6673   0.325   1.772   3.508
 2238TIP3   OH2 6674   0.490   2.394   3.958
 2238TIP3    H1 6675   0.527   2.476   3.923
 2238TIP3    H2 6676   0.564   2.359   4.011
 2239TIP3   OH2 6677   0.144   2.289   3.342
 2239TIP3    H1 6678   0.058   2.300   3.387
 2239TIP3    H2 6679   0.176   2.382   3.341
 2240TIP3   OH2 6680   0.887   2.032   3.912
 2240TIP3    H1 6681   0.876   2.031   4.010
 2240TIP3    H2 6682   0.955   1.963   3.900
 2241TIP3   OH2 6683   0.855   1.927   2.802
 2241TIP3    H1 6684   0.914   1.899   2.876
 2241TIP3    H2 6685   0.769   1.905   2.842
 2242TIP3   OH2 6686   1.080   2.587   3.984
 2242TIP3    H1 6687   1.064   2.490   3.989
 2242TIP3    H2 6688   1.116   2.603   3.895
 2243TIP3   OH2 6689   1.194   2.399   2.618
 2243TIP3    H1 6690   1.224   2.468   2.558
 2243TIP3    H2 6691   1.114   2.444   2.655
 2244TIP3   OH2 6692   1.015   1.860   3.015
 2244TIP3    H1 6693   1.004   1.794   3.087
 2244TIP3    H2 6694   1.112   1.855   3.003
 2245TIP3   OH2 6695  -0.070   2.256   4.118
 2245TIP3    H1 6696  -0.014   2.186   4.154
 2245TIP3    H2 6697  -0.049   2.330   4.177
 2246TIP3   OH2 6698   0.212   1.897   3.035
 2246TIP3    H1 6699   0.182   1.872   3.123
 2246TIP3    H2 6700   0.187   1.992   3.035
 2247TIP3   OH2 6701   1.049   1.244   4.170
 2247TIP3    H1 6702   1.132   1.275   4.209
 2247TIP3    H2 6703   1.033   1.161   4.220
 2248TIP3   OH2 6704   0.935   0.987   3.332
 2248TIP3    H1 6705   0.917   1.009   3.238
 2248TIP3    H2 6706   0.965   1.072   3.368
 2249TIP3   OH2 6707   0.437   2.116   3.006
 2249TIP3    H1 6708   0.350   2.122   3.051
 2249TIP3    H2 6709   0.443   2.204   2.966
 2250TIP3   OH2 6710   0.612   1.183   3.427
 2250TIP3    H1 6711   0.685   1.246   3.418
 2250TIP3    H2 6712   0.617   1.159   3.521
 2251TIP3   OH2 6713   0.890   1.490   4.240
 2251TIP3    H1 6714   0.911   1.539   4.322
 2251TIP3    H2 6715   0.941   1.408   4.250
 2252TIP3   OH2 6716   0.795   0.910   3.570
 2252TIP3    H1 6717   0.747   0.993   3.584
 2252TIP3    H2 6718   0.833   0.923   3.481
 2253TIP3   OH2 6719   0.181   2.178   3.086
 2253TIP3    H1 6720   0.152   2.253   3.029
 2253TIP3    H2 6721   0.160   2.214   3.174
 2254TIP3   OH2 6722   1.531   1.391   4.213
 2254TIP3    H1 6723   1.434   1.395   4.230
 2254TIP3    H2 6724   1.531   1.332   4.137
 2255TIP3   OH2 6725   1.179   1.587   3.611
 2255TIP3    H1 6726   1.103   1.526   3.620
 2255TIP3    H2 6727   1.250   1.537   3.658
 2256TIP3   OH2 6728   1.147   2.545   3.566
 2256TIP3    H1 6729   1.104   2.591   3.489
 2256TIP3    H2 6730   1.241   2.562   3.543
 2257TIP3   OH2 6731  -0.212   2.051   3.483
 2257TIP3    H1 6732  -0.297   2.064   3.527
 2257TIP3    H2 6733  -0.241   2.051   3.390
 2258TIP3   OH2 6734  -0.044   2.578   4.499
 2258TIP3    H1 6735   0.025   2.584   4.568
 2258TIP3    H2 6736  -0.104   2.513   4.536
 2259TIP3   OH2 6737   0.406   2.535   4.581
 2259TIP3    H1 6738   0.496   2.503   4.591
 2259TIP3    H2 6739   0.373   2.475   4.510
 2260TIP3   OH2 6740   0.372   2.108   2.708
 2260TIP3    H1 6741   0.349   2.057   2.786
 2260TIP3    H2 6742   0.445   2.056   2.670
 2261TIP3   OH2 6743   1.048   2.435   4.312
 2261TIP3    H1 6744   1.032   2.366   4.381
 2261TIP3    H2 6745   1.120   2.487   4.351
 2262TIP3   OH2 6746   0.820   2.147   2.626
 2262TIP3    H1 6747   0.859   2.081   2.686
 2262TIP3    H2 6748   0.886   2.151   2.554
 2263TIP3   OH2 6749   0.046   1.962   4.734
 2263TIP3    H1 6750   0.072   1.869   4.743
 2263TIP3    H2 6751  -0.048   1.953   4.716
 2264TIP3   OH2 6752   0.660   2.063   4.511
 2264TIP3    H1 6753   0.612   2.074   4.427
 2264TIP3    H2 6754   0.690   1.969   4.506
 2265TIP3   OH2 6755   0.517   1.826   2.740
 2265TIP3    H1 6756   0.541   1.842   2.835
 2265TIP3    H2 6757   0.544   1.733   2.729
 2266TIP3   OH2 6758   1.155   2.061   4.122
 2266TIP3    H1 6759   1.221   2.115   4.075
 2266TIP3    H2 6760   1.073   2.110   4.107
 2267TIP3   OH2 6761   0.158   1.698   4.723
 2267TIP3    H1 6762   0.236   1.643   4.703
 2267TIP3    H2 6763   0.182   1.728   4.813
 2268TIP3   OH2 6764   0.505   1.593   4.380
 2268TIP3    H1 6765   0.429   1.654   4.383
 2268TIP3    H2 6766   0.557   1.630   4.305
 2269TIP3   OH2 6767   1.027   1.999   4.516
 2269TIP3    H1 6768   1.103   1.962   4.471
 2269TIP3    H2 6769   1.014   1.935   4.588
 2270TIP3   OH2 6770   1.161   1.663   2.670
 2270TIP3    H1 6771   1.148   1.603   2.593
 2270TIP3    H2 6772   1.121   1.746   2.636
 2271TIP3   OH2 6773   0.628   1.381   4.508
 2271TIP3    H1 6774   0.631   1.302   4.450
 2271TIP3    H2 6775   0.583   1.447   4.451
 2272TIP3   OH2 6776   0.632   1.170   4.316
 2272TIP3    H1 6777   0.662   1.208   4.231
 2272TIP3    H2 6778   0.540   1.144   4.296
 2273TIP3   OH2 6779   0.658   1.708   4.191
 2273TIP3    H1 6780   0.738   1.706   4.138
 2273TIP3    H2 6781   0.600   1.770   4.141
 2274TIP3   OH2 6782   1.237   1.669   4.567
 2274TIP3    H1 6783   1.279   1.586   4.595
 2274TIP3    H2 6784   1.312   1.719   4.534
 2275TIP3   OH2 6785   1.285   1.925   4.312
 2275TIP3    H1 6786   1.226   1.976   4.252
 2275TIP3    H2 6787   1.372   1.942   4.269
 2276TIP3   OH2 6788   0.500   1.503   4.728
 2276TIP3    H1 6789   0.434   1.435   4.753
 2276TIP3    H2 6790   0.541   1.462   4.650
 2277TIP3   OH2 6791   0.770   0.935   4.387
 2277TIP3    H1 6792   0.716   1.013   4.364
 2277TIP3    H2 6793   0.716   0.862   4.352
 2278TIP3   OH2 6794   0.887   1.439   4.600
 2278TIP3    H1 6795   0.882   1.423   4.696
 2278TIP3    H2 6796   0.797   1.412   4.575
 2279TIP3   OH2 6797   1.127   1.386   4.456
 2279TIP3    H1 6798   1.053   1.386   4.519
 2279TIP3    H2 6799   1.202   1.354   4.511
 2280TIP3   OH2 6800   1.363   1.325   4.600
 2280TIP3    H1 6801   1.372   1.230   4.620
 2280TIP3    H2 6802   1.354   1.366   4.689
 2281TIP3   OH2 6803   0.354   1.278   4.784
 2281TIP3    H1 6804   0.365   1.186   4.759
 2281TIP3    H2 6805   0.392   1.278   4.874
 2282TIP3   OH2 6806   0.856   0.938   4.647
 2282TIP3    H1 6807   0.926   0.871   4.635
 2282TIP3    H2 6808   0.813   0.934   4.560
 2283TIP3   OH2 6809   0.930   1.166   4.786
 2283TIP3    H1 6810   0.904   1.090   4.729
 2283TIP3    H2 6811   0.847   1.218   4.792
 2284TIP3   OH2 6812   0.144   2.391   2.913
 2284TIP3    H1 6813   0.232   2.401   2.872
 2284TIP3    H2 6814   0.089   2.369   2.836
 2285TIP3   OH2 6815  -0.456   2.358   3.502
 2285TIP3    H1 6816  -0.550   2.353   3.523
 2285TIP3    H2 6817  -0.415   2.319   3.583
 2286TIP3   OH2 6818  -0.337   2.245   3.724
 2286TIP3    H1 6819  -0.340   2.168   3.783
 2286TIP3    H2 6820  -0.280   2.304   3.777
 2287TIP3   OH2 6821   1.402   2.629   3.519
 2287TIP3    H1 6822   1.430   2.668   3.603
 2287TIP3    H2 6823   1.460   2.673   3.455
 2288TIP3   OH2 6824   1.426   2.653   3.802
 2288TIP3    H1 6825   1.388   2.563   3.791
 2288TIP3    H2 6826   1.505   2.631   3.853
 2289TIP3   OH2 6827   1.477   2.334   4.372
 2289TIP3    H1 6828   1.404   2.335   4.437
 2289TIP3    H2 6829   1.518   2.421   4.385
 2290TIP3   OH2 6830   1.292   1.843   2.994
 2290TIP3    H1 6831   1.361   1.905   2.962
 2290TIP3    H2 6832   1.337   1.804   3.072
 2291TIP3   OH2 6833   1.421   1.710   3.197
 2291TIP3    H1 6834   1.354   1.665   3.254
 2291TIP3    H2 6835   1.484   1.746   3.262
 2292TIP3   OH2 6836   1.475   2.102   3.627
 2292TIP3    H1 6837   1.528   2.032   3.581
 2292TIP3    H2 6838   1.473   2.173   3.560
 2293TIP3   OH2 6839   1.309   2.402   3.814
 2293TIP3    H1 6840   1.233   2.401   3.872
 2293TIP3    H2 6841   1.273   2.353   3.737
 2294TIP3   OH2 6842   1.365   1.617   2.848
 2294TIP3    H1 6843   1.295   1.613   2.779
 2294TIP3    H2 6844   1.331   1.693   2.899
 2295TIP3   OH2 6845   1.245   1.295   2.818
 2295TIP3    H1 6846   1.239   1.334   2.728
 2295TIP3    H2 6847   1.212   1.203   2.803
 2296TIP3   OH2 6848   1.235   1.565   3.341
 2296TIP3    H1 6849   1.242   1.468   3.333
 2296TIP3    H2 6850   1.221   1.576   3.438
 2297TIP3   OH2 6851  -0.138   1.610   4.097
 2297TIP3    H1 6852  -0.142   1.608   3.999
 2297TIP3    H2 6853  -0.043   1.630   4.110
 2298TIP3   OH2 6854   1.528   1.990   4.197
 2298TIP3    H1 6855   1.598   1.922   4.189
 2298TIP3    H2 6856   1.555   2.055   4.131
 2299TIP3   OH2 6857   1.715   1.796   4.215
 2299TIP3    H1 6858   1.637   1.747   4.250
 2299TIP3    H2 6859   1.785   1.729   4.233
 2300TIP3   OH2 6860   1.170   1.036   2.804
 2300TIP3    H1 6861   1.253   0.997   2.837
 2300TIP3    H2 6862   1.102   0.981   2.847
 2301TIP3   OH2 6863   1.235   1.281   3.236
 2301TIP3    H1 6864   1.273   1.191   3.250
 2301TIP3    H2 6865   1.294   1.313   3.166
 2302TIP3   OH2 6866   1.392   1.455   3.730
 2302TIP3    H1 6867   1.478   1.481   3.690
 2302TIP3    H2 6868   1.406   1.489   3.821
 2303TIP3   OH2 6869   1.464   1.599   3.961
 2303TIP3    H1 6870   1.386   1.630   4.011
 2303TIP3    H2 6871   1.495   1.681   3.918
 2304TIP3   OH2 6872   1.911   1.192   4.516
 2304TIP3    H1 6873   1.972   1.125   4.479
 2304TIP3    H2 6874   1.887   1.244   4.437
 2305TIP3   OH2 6875   1.342   1.027   3.269
 2305TIP3    H1 6876   1.388   1.014   3.355
 2305TIP3    H2 6877   1.276   0.955   3.273
 2306TIP3   OH2 6878  -0.130   1.350   4.167
 2306TIP3    H1 6879  -0.085   1.320   4.086
 2306TIP3    H2 6880  -0.128   1.447   4.153
 2307TIP3   OH2 6881   1.787   1.333   4.316
 2307TIP3    H1 6882   1.701   1.371   4.344
 2307TIP3    H2 6883   1.755   1.257   4.263
 2308TIP3   OH2 6884   1.435   0.975   2.887
 2308TIP3    H1 6885   1.501   0.905   2.874
 2308TIP3    H2 6886   1.492   1.053   2.900
 2309TIP3   OH2 6887   0.990   2.496   3.176
 2309TIP3    H1 6888   1.036   2.482   3.090
 2309TIP3    H2 6889   1.041   2.569   3.213
 2310TIP3   OH2 6890   0.099   2.294   4.565
 2310TIP3    H1 6891   0.028   2.236   4.534
 2310TIP3    H2 6892   0.093   2.286   4.661
 2311TIP3   OH2 6893   0.264   2.332   4.108
 2311TIP3    H1 6894   0.211   2.405   4.070
 2311TIP3    H2 6895   0.347   2.349   4.060
 2312TIP3   OH2 6896   0.745   2.594   4.239
 2312TIP3    H1 6897   0.733   2.570   4.333
 2312TIP3    H2 6898   0.829   2.642   4.248
 2313TIP3   OH2 6899   1.684   1.091   4.203
 2313TIP3    H1 6900   1.593   1.079   4.171
 2313TIP3    H2 6901   1.718   0.999   4.195
 2314TIP3   OH2 6902  -0.044   2.588   4.137
 2314TIP3    H1 6903  -0.129   2.610   4.097
 2314TIP3    H2 6904  -0.054   2.619   4.228
 2315TIP3   OH2 6905   0.186   2.572   3.986
 2315TIP3    H1 6906   0.102   2.584   4.036
 2315TIP3    H2 6907   0.160   2.604   3.897
 2316TIP3   OH2 6908   0.621   2.635   3.815
 2316TIP3    H1 6909   0.578   2.612   3.730
 2316TIP3    H2 6910   0.551   2.691   3.853
 2317TIP3   OH2 6911   1.046   2.726   3.750
 2317TIP3    H1 6912   1.054   2.814   3.705
 2317TIP3    H2 6913   1.085   2.668   3.680
 2318TIP3   OH2 6914  -0.149   2.384   3.879
 2318TIP3    H1 6915  -0.127   2.351   3.968
 2318TIP3    H2 6916  -0.079   2.338   3.827
 2319TIP3   OH2 6917   0.045   2.257   3.735
 2319TIP3    H1 6918   0.060   2.173   3.784
 2319TIP3    H2 6919   0.136   2.292   3.725
 2320TIP3   OH2 6920   0.315   2.350   3.731
 2320TIP3    H1 6921   0.344   2.257   3.719
 2320TIP3    H2 6922   0.352   2.368   3.819
 2321TIP3   OH2 6923   0.894   1.018   3.837
 2321TIP3    H1 6924   0.843   0.950   3.885
 2321TIP3    H2 6925   0.928   0.968   3.762
 2322TIP3   OH2 6926   1.415   0.890   3.728
 2322TIP3    H1 6927   1.447   0.942   3.652
 2322TIP3    H2 6928   1.317   0.899   3.720
 2323TIP3   OH2 6929   1.505   0.988   3.489
 2323TIP3    H1 6930   1.580   0.937   3.451
 2323TIP3    H2 6931   1.538   1.080   3.475
 2324TIP3   OH2 6932   0.575   0.795   3.719
 2324TIP3    H1 6933   0.645   0.813   3.654
 2324TIP3    H2 6934   0.625   0.785   3.801
 2325TIP3   OH2 6935   1.142   0.892   3.697
 2325TIP3    H1 6936   1.110   0.861   3.611
 2325TIP3    H2 6937   1.114   0.819   3.756
 2326TIP3   OH2 6938   1.158   0.814   3.264
 2326TIP3    H1 6939   1.071   0.857   3.269
 2326TIP3    H2 6940   1.137   0.731   3.312
 2327TIP3   OH2 6941  -0.370   2.139   3.279
 2327TIP3    H1 6942  -0.434   2.141   3.204
 2327TIP3    H2 6943  -0.360   2.233   3.296
 2328TIP3   OH2 6944   0.413   2.346   2.843
 2328TIP3    H1 6945   0.502   2.366   2.807
 2328TIP3    H2 6946   0.385   2.275   2.781
 2329TIP3   OH2 6947   1.129   2.461   2.940
 2329TIP3    H1 6948   1.121   2.363   2.929
 2329TIP3    H2 6949   1.083   2.492   2.860
 2330TIP3   OH2 6950   0.656   1.044   4.899
 2330TIP3    H1 6951   0.701   0.995   4.829
 2330TIP3    H2 6952   0.662   0.983   4.975
 2331TIP3   OH2 6953   1.419   1.054   4.637
 2331TIP3    H1 6954   1.436   1.023   4.728
 2331TIP3    H2 6955   1.508   1.049   4.597
 2332TIP3   OH2 6956   1.353   2.608   4.131
 2332TIP3    H1 6957   1.266   2.579   4.100
 2332TIP3    H2 6958   1.340   2.705   4.130
 2333TIP3   OH2 6959   2.623   1.980   2.895
 2333TIP3    H1 6960   2.593   2.071   2.874
 2333TIP3    H2 6961   2.549   1.929   2.859
 2334TIP3   OH2 6962   2.620   1.983   3.278
 2334TIP3    H1 6963   2.655   1.951   3.363
 2334TIP3    H2 6964   2.583   1.902   3.240
 2335TIP3   OH2 6965   1.921   1.877   3.643
 2335TIP3    H1 6966   1.951   1.807   3.703
 2335TIP3    H2 6967   2.004   1.922   3.624
 2336TIP3   OH2 6968   2.866   2.284   2.957
 2336TIP3    H1 6969   2.852   2.211   3.020
 2336TIP3    H2 6970   2.898   2.355   3.015
 2337TIP3   OH2 6971   1.894   2.286   3.367
 2337TIP3    H1 6972   1.885   2.188   3.367
 2337TIP3    H2 6973   1.990   2.295   3.358
 2338TIP3   OH2 6974   1.604   1.492   3.154
 2338TIP3    H1 6975   1.553   1.573   3.167
 2338TIP3    H2 6976   1.536   1.436   3.112
 2339TIP3   OH2 6977   1.660   1.776   3.325
 2339TIP3    H1 6978   1.708   1.697   3.359
 2339TIP3    H2 6979   1.714   1.800   3.249
 2340TIP3   OH2 6980   2.515   2.744   2.976
 2340TIP3    H1 6981   2.559   2.674   2.921
 2340TIP3    H2 6982   2.513   2.700   3.062
 2341TIP3   OH2 6983   2.421   2.207   3.325
 2341TIP3    H1 6984   2.458   2.129   3.282
 2341TIP3    H2 6985   2.505   2.252   3.347
 2342TIP3   OH2 6986   3.434   1.526   3.320
 2342TIP3    H1 6987   3.466   1.609   3.361
 2342TIP3    H2 6988   3.461   1.539   3.227
 2343TIP3   OH2 6989   2.833   1.708   3.356
 2343TIP3    H1 6990   2.876   1.623   3.376
 2343TIP3    H2 6991   2.803   1.691   3.264
 2344TIP3   OH2 6992   2.171   1.367   3.321
 2344TIP3    H1 6993   2.152   1.439   3.257
 2344TIP3    H2 6994   2.124   1.293   3.276
 2345TIP3   OH2 6995   2.866   1.460   2.942
 2345TIP3    H1 6996   2.937   1.443   3.008
 2345TIP3    H2 6997   2.920   1.493   2.868
 2346TIP3   OH2 6998   1.806   1.568   3.427
 2346TIP3    H1 6999   1.889   1.548   3.475
 2346TIP3    H2 7000   1.818   1.512   3.348
 2347TIP3   OH2 7001   2.245   1.766   3.226
 2347TIP3    H1 7002   2.339   1.742   3.236
 2347TIP3    H2 7003   2.207   1.682   3.191
 2348TIP3   OH2 7004   3.510   1.735   3.490
 2348TIP3    H1 7005   3.426   1.779   3.469
 2348TIP3    H2 7006   3.520   1.759   3.583
 2349TIP3   OH2 7007   2.169   1.352   3.756
 2349TIP3    H1 7008   2.108   1.386   3.688
 2349TIP3    H2 7009   2.117   1.366   3.837
 2350TIP3   OH2 7010   2.511   2.199   2.766
 2350TIP3    H1 7011   2.474   2.182   2.678
 2350TIP3    H2 7012   2.466   2.283   2.790
 2351TIP3   OH2 7013   2.276   2.126   3.549
 2351TIP3    H1 7014   2.215   2.193   3.586
 2351TIP3    H2 7015   2.318   2.175   3.475
 2352TIP3   OH2 7016   3.073   1.462   3.115
 2352TIP3    H1 7017   3.072   1.408   3.195
 2352TIP3    H2 7018   3.130   1.537   3.142
 2353TIP3   OH2 7019   2.040   1.465   3.539
 2353TIP3    H1 7020   2.104   1.536   3.563
 2353TIP3    H2 7021   2.087   1.424   3.464
 2354TIP3   OH2 7022   2.104   2.321   3.651
 2354TIP3    H1 7023   2.077   2.406   3.610
 2354TIP3    H2 7024   2.024   2.303   3.705
 2355TIP3   OH2 7025   1.497   2.009   2.883
 2355TIP3    H1 7026   1.455   2.036   2.799
 2355TIP3    H2 7027   1.528   2.095   2.919
 2356TIP3   OH2 7028   2.936   2.527   3.127
 2356TIP3    H1 7029   2.846   2.518   3.164
 2356TIP3    H2 7030   2.928   2.612   3.079
 2357TIP3   OH2 7031   3.227   1.431   3.488
 2357TIP3    H1 7032   3.140   1.455   3.453
 2357TIP3    H2 7033   3.287   1.461   3.416
 2358TIP3   OH2 7034   2.522   1.068   3.467
 2358TIP3    H1 7035   2.512   0.973   3.488
 2358TIP3    H2 7036   2.445   1.105   3.516
 2359TIP3   OH2 7037   2.635   2.572   2.796
 2359TIP3    H1 7038   2.683   2.489   2.778
 2359TIP3    H2 7039   2.699   2.636   2.757
 2360TIP3   OH2 7040   2.777   2.358   2.707
 2360TIP3    H1 7041   2.753   2.277   2.659
 2360TIP3    H2 7042   2.814   2.321   2.790
 2361TIP3   OH2 7043   3.168   2.438   3.470
 2361TIP3    H1 7044   3.156   2.360   3.411
 2361TIP3    H2 7045   3.152   2.512   3.408
 2362TIP3   OH2 7046   2.456   1.834   2.726
 2362TIP3    H1 7047   2.376   1.885   2.701
 2362TIP3    H2 7048   2.502   1.827   2.640
 2363TIP3   OH2 7049   2.413   1.615   2.443
 2363TIP3    H1 7050   2.481   1.669   2.487
 2363TIP3    H2 7051   2.471   1.553   2.394
 2364TIP3   OH2 7052   3.360   2.080   3.316
 2364TIP3    H1 7053   3.275   2.130   3.319
 2364TIP3    H2 7054   3.388   2.100   3.224
 2365TIP3   OH2 7055   2.802   1.916   2.696
 2365TIP3    H1 7056   2.748   1.938   2.776
 2365TIP3    H2 7057   2.886   1.889   2.738
 2366TIP3   OH2 7058   3.036   1.953   3.610
 2366TIP3    H1 7059   3.032   2.037   3.660
 2366TIP3    H2 7060   2.950   1.956   3.563
 2367TIP3   OH2 7061   2.034   1.913   3.115
 2367TIP3    H1 7062   1.991   1.855   3.048
 2367TIP3    H2 7063   2.110   1.858   3.144
 2368TIP3   OH2 7064   2.164   2.325   3.262
 2368TIP3    H1 7065   2.142   2.285   3.177
 2368TIP3    H2 7066   2.253   2.289   3.280
 2369TIP3   OH2 7067   2.166   1.883   3.471
 2369TIP3    H1 7068   2.199   1.856   3.382
 2369TIP3    H2 7069   2.213   1.968   3.486
 2370TIP3   OH2 7070   2.693   2.523   3.245
 2370TIP3    H1 7071   2.684   2.600   3.303
 2370TIP3    H2 7072   2.680   2.447   3.306
 2371TIP3   OH2 7073   2.309   2.441   3.794
 2371TIP3    H1 7074   2.247   2.502   3.838
 2371TIP3    H2 7075   2.246   2.386   3.743
 2372TIP3   OH2 7076   2.639   1.775   2.522
 2372TIP3    H1 7077   2.700   1.833   2.573
 2372TIP3    H2 7078   2.667   1.796   2.430
 2373TIP3   OH2 7079   2.064   1.996   3.896
 2373TIP3    H1 7080   2.065   2.084   3.939
 2373TIP3    H2 7081   1.969   1.974   3.901
 2374TIP3   OH2 7082   2.383   2.455   2.804
 2374TIP3    H1 7083   2.467   2.503   2.812
 2374TIP3    H2 7084   2.328   2.516   2.753
 2375TIP3   OH2 7085   2.102   2.608   3.879
 2375TIP3    H1 7086   2.068   2.609   3.788
 2375TIP3    H2 7087   2.022   2.586   3.931
 2376TIP3   OH2 7088   3.158   1.013   2.571
 2376TIP3    H1 7089   3.077   1.035   2.621
 2376TIP3    H2 7090   3.173   1.095   2.520
 2377TIP3   OH2 7091   1.898   1.756   2.923
 2377TIP3    H1 7092   1.832   1.798   2.864
 2377TIP3    H2 7093   1.864   1.666   2.929
 2378TIP3   OH2 7094   2.958   2.380   2.122
 2378TIP3    H1 7095   2.967   2.476   2.104
 2378TIP3    H2 7096   3.050   2.349   2.108
 2379TIP3   OH2 7097   1.680   2.139   3.826
 2379TIP3    H1 7098   1.616   2.116   3.755
 2379TIP3    H2 7099   1.719   2.052   3.849
 2380TIP3   OH2 7100   1.535   2.331   3.461
 2380TIP3    H1 7101   1.630   2.321   3.446
 2380TIP3    H2 7102   1.531   2.413   3.512
 2381TIP3   OH2 7103   3.396   2.802   3.508
 2381TIP3    H1 7104   3.415   2.707   3.521
 2381TIP3    H2 7105   3.313   2.811   3.560
 2382TIP3   OH2 7106   2.505   2.569   3.649
 2382TIP3    H1 7107   2.503   2.662   3.681
 2382TIP3    H2 7108   2.434   2.529   3.704
 2383TIP3   OH2 7109   2.258   2.693   2.604
 2383TIP3    H1 7110   2.223   2.674   2.515
 2383TIP3    H2 7111   2.238   2.787   2.617
 2384TIP3   OH2 7112   1.716   2.561   2.982
 2384TIP3    H1 7113   1.750   2.545   3.072
 2384TIP3    H2 7114   1.640   2.501   2.980
 2385TIP3   OH2 7115   2.467   2.598   2.241
 2385TIP3    H1 7116   2.526   2.529   2.203
 2385TIP3    H2 7117   2.504   2.607   2.332
 2386TIP3   OH2 7118   2.515   2.649   2.513
 2386TIP3    H1 7119   2.428   2.651   2.559
 2386TIP3    H2 7120   2.570   2.607   2.581
 2387TIP3   OH2 7121   3.293   1.916   3.785
 2387TIP3    H1 7122   3.210   1.925   3.737
 2387TIP3    H2 7123   3.309   1.820   3.776
 2388TIP3   OH2 7124   1.883   2.324   3.814
 2388TIP3    H1 7125   1.934   2.303   3.894
 2388TIP3    H2 7126   1.810   2.258   3.820
 2389TIP3   OH2 7127   2.285   1.145   3.598
 2389TIP3    H1 7128   2.196   1.114   3.570
 2389TIP3    H2 7129   2.259   1.226   3.646
 2390TIP3   OH2 7130   2.820   1.262   3.793
 2390TIP3    H1 7131   2.891   1.229   3.853
 2390TIP3    H2 7132   2.738   1.238   3.841
 2391TIP3   OH2 7133   3.063   1.691   3.713
 2391TIP3    H1 7134   3.009   1.686   3.795
 2391TIP3    H2 7135   3.035   1.776   3.675
 2392TIP3   OH2 7136   2.719   1.823   2.269
 2392TIP3    H1 7137   2.683   1.796   2.183
 2392TIP3    H2 7138   2.804   1.863   2.241
 2393TIP3   OH2 7139   2.427   1.194   2.569
 2393TIP3    H1 7140   2.396   1.190   2.662
 2393TIP3    H2 7141   2.392   1.110   2.535
 2394TIP3   OH2 7142   2.218   1.661   3.619
 2394TIP3    H1 7143   2.166   1.681   3.699
 2394TIP3    H2 7144   2.202   1.742   3.565
 2395TIP3   OH2 7145   2.101   1.548   3.131
 2395TIP3    H1 7146   2.008   1.520   3.149
 2395TIP3    H2 7147   2.114   1.507   3.043
 2396TIP3   OH2 7148   2.593   1.633   2.860
 2396TIP3    H1 7149   2.541   1.704   2.815
 2396TIP3    H2 7150   2.648   1.600   2.786
 2397TIP3   OH2 7151   2.764   1.914   3.949
 2397TIP3    H1 7152   2.745   1.839   4.009
 2397TIP3    H2 7153   2.858   1.928   3.967
 2398TIP3   OH2 7154   2.748   1.661   3.097
 2398TIP3    H1 7155   2.687   1.687   3.025
 2398TIP3    H2 7156   2.785   1.580   3.055
 2399TIP3   OH2 7157   2.035   1.689   3.825
 2399TIP3    H1 7158   2.066   1.749   3.894
 2399TIP3    H2 7159   2.023   1.605   3.874
 2400TIP3   OH2 7160   2.085   1.165   2.535
 2400TIP3    H1 7161   2.078   1.162   2.632
 2400TIP3    H2 7162   2.008   1.221   2.513
 2401TIP3   OH2 7163   1.631   1.211   3.405
 2401TIP3    H1 7164   1.706   1.243   3.460
 2401TIP3    H2 7165   1.674   1.178   3.325
 2402TIP3   OH2 7166   1.599   1.193   2.926
 2402TIP3    H1 7167   1.643   1.227   2.846
 2402TIP3    H2 7168   1.541   1.269   2.946
 2403TIP3   OH2 7169   2.759   1.906   3.521
 2403TIP3    H1 7170   2.792   1.835   3.461
 2403TIP3    H2 7171   2.730   1.852   3.597
 2404TIP3   OH2 7172   2.430   1.374   3.193
 2404TIP3    H1 7173   2.349   1.369   3.247
 2404TIP3    H2 7174   2.500   1.362   3.259
 2405TIP3   OH2 7175   1.864   1.424   3.201
 2405TIP3    H1 7176   1.769   1.432   3.174
 2405TIP3    H2 7177   1.887   1.332   3.177
 2406TIP3   OH2 7178   2.131   1.421   2.890
 2406TIP3    H1 7179   2.225   1.434   2.869
 2406TIP3    H2 7180   2.085   1.443   2.806
 2407TIP3   OH2 7181   2.920   1.447   3.398
 2407TIP3    H1 7182   2.883   1.458   3.488
 2407TIP3    H2 7183   2.858   1.384   3.359
 2408TIP3   OH2 7184   1.975   1.458   2.668
 2408TIP3    H1 7185   1.905   1.411   2.620
 2408TIP3    H2 7186   2.027   1.494   2.593
 2409TIP3   OH2 7187   3.087   3.136   3.608
 2409TIP3    H1 7188   3.082   3.151   3.512
 2409TIP3    H2 7189   3.168   3.185   3.629
 2410TIP3   OH2 7190   2.043   2.246   4.031
 2410TIP3    H1 7191   2.123   2.278   4.078
 2410TIP3    H2 7192   1.980   2.241   4.106
 2411TIP3   OH2 7193   2.511   1.698   3.291
 2411TIP3    H1 7194   2.582   1.658   3.238
 2411TIP3    H2 7195   2.519   1.652   3.376
 2412TIP3   OH2 7196   2.033   1.185   3.169
 2412TIP3    H1 7197   1.999   1.106   3.217
 2412TIP3    H2 7198   2.086   1.144   3.099
 2413TIP3   OH2 7199   2.489   1.594   3.578
 2413TIP3    H1 7200   2.399   1.629   3.592
 2413TIP3    H2 7201   2.546   1.655   3.628
 2414TIP3   OH2 7202   2.221   1.987   2.673
 2414TIP3    H1 7203   2.152   1.918   2.663
 2414TIP3    H2 7204   2.204   2.019   2.765
 2415TIP3   OH2 7205   3.124   2.222   3.304
 2415TIP3    H1 7206   3.148   2.272   3.223
 2415TIP3    H2 7207   3.040   2.178   3.278
 2416TIP3   OH2 7208   2.683   1.294   2.542
 2416TIP3    H1 7209   2.586   1.279   2.546
 2416TIP3    H2 7210   2.691   1.389   2.561
 2417TIP3   OH2 7211   2.624   2.303   3.670
 2417TIP3    H1 7212   2.654   2.279   3.758
 2417TIP3    H2 7213   2.587   2.392   3.681
 2418TIP3   OH2 7214   2.752   1.546   2.642
 2418TIP3    H1 7215   2.848   1.550   2.656
 2418TIP3    H2 7216   2.735   1.624   2.587
 2419TIP3   OH2 7217   1.919   2.011   3.349
 2419TIP3    H1 7218   1.954   1.981   3.263
 2419TIP3    H2 7219   1.958   1.946   3.409
 2420TIP3   OH2 7220   2.371   2.134   2.497
 2420TIP3    H1 7221   2.323   2.220   2.503
 2420TIP3    H2 7222   2.316   2.079   2.557
 2421TIP3   OH2 7223   1.795   1.927   3.963
 2421TIP3    H1 7224   1.807   1.907   4.058
 2421TIP3    H2 7225   1.727   1.862   3.938
 2422TIP3   OH2 7226   2.515   2.043   3.989
 2422TIP3    H1 7227   2.466   1.983   3.930
 2422TIP3    H2 7228   2.606   2.010   3.976
 2423TIP3   OH2 7229   2.784   2.568   3.565
 2423TIP3    H1 7230   2.688   2.561   3.580
 2423TIP3    H2 7231   2.811   2.617   3.645
 2424TIP3   OH2 7232   3.192   1.636   2.478
 2424TIP3    H1 7233   3.130   1.592   2.415
 2424TIP3    H2 7234   3.191   1.725   2.436
 2425TIP3   OH2 7235   3.423   2.502   3.554
 2425TIP3    H1 7236   3.325   2.495   3.550
 2425TIP3    H2 7237   3.446   2.467   3.466
 2426TIP3   OH2 7238   2.893   2.453   2.385
 2426TIP3    H1 7239   2.871   2.379   2.443
 2426TIP3    H2 7240   2.908   2.409   2.299
 2427TIP3   OH2 7241   2.890   2.083   3.223
 2427TIP3    H1 7242   2.797   2.058   3.234
 2427TIP3    H2 7243   2.925   2.003   3.178
 2428TIP3   OH2 7244   2.018   2.312   2.981
 2428TIP3    H1 7245   2.017   2.385   2.918
 2428TIP3    H2 7246   1.924   2.287   2.983
 2429TIP3   OH2 7247   1.586   1.614   2.686
 2429TIP3    H1 7248   1.629   1.700   2.707
 2429TIP3    H2 7249   1.508   1.617   2.745
 2430TIP3   OH2 7250   2.154   2.076   2.919
 2430TIP3    H1 7251   2.121   2.165   2.942
 2430TIP3    H2 7252   2.120   2.023   2.993
 2431TIP3   OH2 7253   2.287   2.655   3.444
 2431TIP3    H1 7254   2.330   2.726   3.393
 2431TIP3    H2 7255   2.363   2.616   3.490
 2432TIP3   OH2 7256   1.932   2.550   2.818
 2432TIP3    H1 7257   1.850   2.551   2.873
 2432TIP3    H2 7258   1.976   2.631   2.847
 2433TIP3   OH2 7259   2.676   2.289   3.401
 2433TIP3    H1 7260   2.666   2.285   3.499
 2433TIP3    H2 7261   2.753   2.232   3.387
 2434TIP3   OH2 7262   2.651   2.184   2.287
 2434TIP3    H1 7263   2.704   2.158   2.365
 2434TIP3    H2 7264   2.564   2.151   2.313
 2435TIP3   OH2 7265   2.922   2.824   3.455
 2435TIP3    H1 7266   2.844   2.765   3.448
 2435TIP3    H2 7267   2.906   2.886   3.380
 2436TIP3   OH2 7268   2.990   2.655   2.105
 2436TIP3    H1 7269   3.027   2.727   2.051
 2436TIP3    H2 7270   2.909   2.701   2.138
 2437TIP3   OH2 7271   2.008   1.435   3.973
 2437TIP3    H1 7272   1.910   1.436   3.982
 2437TIP3    H2 7273   2.033   1.370   4.040
 2438TIP3   OH2 7274   2.811   2.121   2.507
 2438TIP3    H1 7275   2.800   2.051   2.574
 2438TIP3    H2 7276   2.908   2.114   2.491
 2439TIP3   OH2 7277   1.724   2.516   3.605
 2439TIP3    H1 7278   1.777   2.439   3.632
 2439TIP3    H2 7279   1.760   2.584   3.664
 2440TIP3   OH2 7280   2.013   2.163   2.287
 2440TIP3    H1 7281   2.029   2.073   2.254
 2440TIP3    H2 7282   1.993   2.146   2.381
 2441TIP3   OH2 7283   1.959   2.166   2.561
 2441TIP3    H1 7284   2.037   2.136   2.611
 2441TIP3    H2 7285   1.968   2.263   2.566
 2442TIP3   OH2 7286   1.697   1.861   2.761
 2442TIP3    H1 7287   1.630   1.905   2.817
 2442TIP3    H2 7288   1.711   1.929   2.693
 2443TIP3   OH2 7289   2.843   1.502   3.659
 2443TIP3    H1 7290   2.929   1.532   3.691
 2443TIP3    H2 7291   2.830   1.418   3.710
 2444TIP3   OH2 7292   2.725   1.248   2.820
 2444TIP3    H1 7293   2.713   1.268   2.726
 2444TIP3    H2 7294   2.765   1.330   2.855
 2445TIP3   OH2 7295   2.230   2.364   2.510
 2445TIP3    H1 7296   2.142   2.392   2.541
 2445TIP3    H2 7297   2.243   2.425   2.436
 2446TIP3   OH2 7298   2.413   1.429   2.921
 2446TIP3    H1 7299   2.479   1.500   2.903
 2446TIP3    H2 7300   2.420   1.421   3.019
 2447TIP3   OH2 7301   2.684   1.746   3.728
 2447TIP3    H1 7302   2.710   1.796   3.808
 2447TIP3    H2 7303   2.739   1.665   3.735
 2448TIP3   OH2 7304   2.559   1.153   3.022
 2448TIP3    H1 7305   2.558   1.229   3.083
 2448TIP3    H2 7306   2.619   1.187   2.952
 2449TIP3   OH2 7307   1.973   2.439   2.570
 2449TIP3    H1 7308   1.941   2.509   2.509
 2449TIP3    H2 7309   1.955   2.479   2.658
 2450TIP3   OH2 7310   2.071   1.154   2.811
 2450TIP3    H1 7311   2.070   1.244   2.850
 2450TIP3    H2 7312   2.167   1.134   2.820
 2451TIP3   OH2 7313   3.331   1.646   3.710
 2451TIP3    H1 7314   3.233   1.646   3.718
 2451TIP3    H2 7315   3.339   1.597   3.627
 2452TIP3   OH2 7316   2.975   1.843   3.098
 2452TIP3    H1 7317   2.900   1.781   3.108
 2452TIP3    H2 7318   3.048   1.795   3.145
 2453TIP3   OH2 7319   1.689   2.069   2.564
 2453TIP3    H1 7320   1.761   2.134   2.575
 2453TIP3    H2 7321   1.733   2.010   2.499
 2454TIP3   OH2 7322   1.628   1.343   2.700
 2454TIP3    H1 7323   1.632   1.441   2.703
 2454TIP3    H2 7324   1.553   1.328   2.640
 2455TIP3   OH2 7325   2.943   2.799   3.046
 2455TIP3    H1 7326   2.901   2.847   2.972
 2455TIP3    H2 7327   3.038   2.817   3.026
 2456TIP3   OH2 7328   2.019   1.066   3.573
 2456TIP3    H1 7329   1.990   1.030   3.487
 2456TIP3    H2 7330   2.011   0.988   3.632
 2457TIP3   OH2 7331   1.559   2.281   2.951
 2457TIP3    H1 7332   1.492   2.315   3.011
 2457TIP3    H2 7333   1.533   2.324   2.867
 2458TIP3   OH2 7334   1.715   2.825   4.030
 2458TIP3    H1 7335   1.804   2.823   4.073
 2458TIP3    H2 7336   1.697   2.730   4.024
 2459TIP3   OH2 7337   2.197   2.789   4.070
 2459TIP3    H1 7338   2.292   2.770   4.075
 2459TIP3    H2 7339   2.171   2.730   3.997
 2460TIP3   OH2 7340   2.181   2.365   2.202
 2460TIP3    H1 7341   2.125   2.291   2.235
 2460TIP3    H2 7342   2.256   2.316   2.164
 2461TIP3   OH2 7343   2.834   2.698   3.806
 2461TIP3    H1 7344   2.826   2.626   3.873
 2461TIP3    H2 7345   2.914   2.746   3.835
 2462TIP3   OH2 7346   2.615   2.407   2.110
 2462TIP3    H1 7347   2.658   2.342   2.168
 2462TIP3    H2 7348   2.670   2.404   2.030
 2463TIP3   OH2 7349   1.846   2.232   4.226
 2463TIP3    H1 7350   1.866   2.137   4.228
 2463TIP3    H2 7351   1.759   2.234   4.180
 2464TIP3   OH2 7352   1.826   1.884   2.423
 2464TIP3    H1 7353   1.883   1.847   2.493
 2464TIP3    H2 7354   1.891   1.886   2.349
 2465TIP3   OH2 7355   2.451   2.316   4.001
 2465TIP3    H1 7356   2.416   2.336   3.912
 2465TIP3    H2 7357   2.483   2.224   3.992
 2466TIP3   OH2 7358   2.333   2.082   2.228
 2466TIP3    H1 7359   2.339   2.091   2.325
 2466TIP3    H2 7360   2.336   1.984   2.219
 2467TIP3   OH2 7361   2.948   2.328   3.607
 2467TIP3    H1 7362   3.024   2.370   3.563
 2467TIP3    H2 7363   2.878   2.393   3.588
 2468TIP3   OH2 7364   1.967   1.977   4.209
 2468TIP3    H1 7365   2.009   1.892   4.193
 2468TIP3    H2 7366   1.993   1.998   4.301
 2469TIP3   OH2 7367   2.033   1.786   2.642
 2469TIP3    H1 7368   2.006   1.741   2.723
 2469TIP3    H2 7369   2.071   1.712   2.589
 2470TIP3   OH2 7370   2.301   1.850   3.872
 2470TIP3    H1 7371   2.222   1.909   3.870
 2470TIP3    H2 7372   2.353   1.884   3.795
 2471TIP3   OH2 7373   2.132   1.581   2.479
 2471TIP3    H1 7374   2.107   1.583   2.385
 2471TIP3    H2 7375   2.230   1.582   2.473
 2472TIP3   OH2 7376   2.818   2.253   4.006
 2472TIP3    H1 7377   2.896   2.223   3.958
 2472TIP3    H2 7378   2.813   2.187   4.078
 2473TIP3   OH2 7379   2.953   1.911   2.147
 2473TIP3    H1 7380   2.935   1.864   2.063
 2473TIP3    H2 7381   2.919   2.000   2.122
 2474TIP3   OH2 7382   2.421   1.636   3.999
 2474TIP3    H1 7383   2.425   1.557   3.942
 2474TIP3    H2 7384   2.382   1.702   3.938
 2475TIP3   OH2 7385   2.426   1.431   3.807
 2475TIP3    H1 7386   2.456   1.466   3.722
 2475TIP3    H2 7387   2.333   1.405   3.786
 2476TIP3   OH2 7388   2.452   1.961   3.681
 2476TIP3    H1 7389   2.536   1.965   3.634
 2476TIP3    H2 7390   2.398   2.026   3.632
 2477TIP3   OH2 7391   3.034   1.927   4.056
 2477TIP3    H1 7392   3.079   1.842   4.068
 2477TIP3    H2 7393   3.105   1.983   4.022
 2478TIP3   OH2 7394   3.078   2.183   3.794
 2478TIP3    H1 7395   3.020   2.236   3.734
 2478TIP3    H2 7396   3.166   2.202   3.754
 2479TIP3   OH2 7397   2.281   1.755   4.201
 2479TIP3    H1 7398   2.224   1.678   4.225
 2479TIP3    H2 7399   2.328   1.717   4.123
 2480TIP3   OH2 7400   2.559   1.189   3.870
 2480TIP3    H1 7401   2.507   1.269   3.848
 2480TIP3    H2 7402   2.492   1.118   3.859
 2481TIP3   OH2 7403   2.686   1.691   4.086
 2481TIP3    H1 7404   2.676   1.681   4.182
 2481TIP3    H2 7405   2.596   1.668   4.056
 2482TIP3   OH2 7406   2.926   1.647   3.942
 2482TIP3    H1 7407   2.851   1.643   4.004
 2482TIP3    H2 7408   3.000   1.613   3.996
 2483TIP3   OH2 7409   3.156   1.584   4.090
 2483TIP3    H1 7410   3.166   1.488   4.106
 2483TIP3    H2 7411   3.149   1.620   4.181
 2484TIP3   OH2 7412   2.151   1.532   4.278
 2484TIP3    H1 7413   2.147   1.441   4.242
 2484TIP3    H2 7414   2.186   1.513   4.368
 2485TIP3   OH2 7415   2.654   1.203   4.127
 2485TIP3    H1 7416   2.721   1.131   4.125
 2485TIP3    H2 7417   2.615   1.193   4.038
 2486TIP3   OH2 7418   2.716   1.417   4.285
 2486TIP3    H1 7419   2.702   1.341   4.224
 2486TIP3    H2 7420   2.639   1.472   4.266
 2487TIP3   OH2 7421   1.941   2.658   2.398
 2487TIP3    H1 7422   2.035   2.640   2.375
 2487TIP3    H2 7423   1.911   2.693   2.311
 2488TIP3   OH2 7424   1.420   2.024   2.602
 2488TIP3    H1 7425   1.515   2.045   2.586
 2488TIP3    H2 7426   1.413   1.935   2.564
 2489TIP3   OH2 7427   1.325   2.636   3.023
 2489TIP3    H1 7428   1.263   2.571   2.984
 2489TIP3    H2 7429   1.378   2.579   3.083
 2490TIP3   OH2 7430   1.475   2.488   3.202
 2490TIP3    H1 7431   1.458   2.413   3.261
 2490TIP3    H2 7432   1.523   2.547   3.263
 2491TIP3   OH2 7433   3.195   2.893   3.003
 2491TIP3    H1 7434   3.230   2.920   3.090
 2491TIP3    H2 7435   3.264   2.925   2.943
 2492TIP3   OH2 7436   3.228   2.907   3.287
 2492TIP3    H1 7437   3.184   2.819   3.281
 2492TIP3    H2 7438   3.303   2.883   3.345
 2493TIP3   OH2 7439   3.271   2.587   3.859
 2493TIP3    H1 7440   3.199   2.595   3.925
 2493TIP3    H2 7441   3.312   2.675   3.861
 2494TIP3   OH2 7442   3.088   2.099   2.479
 2494TIP3    H1 7443   3.156   2.161   2.447
 2494TIP3    H2 7444   3.133   2.060   2.557
 2495TIP3   OH2 7445   3.216   1.967   2.683
 2495TIP3    H1 7446   3.151   1.923   2.742
 2495TIP3    H2 7447   3.282   2.001   2.746
 2496TIP3   OH2 7448   3.273   2.358   3.115
 2496TIP3    H1 7449   3.325   2.289   3.068
 2496TIP3    H2 7450   3.269   2.430   3.049
 2497TIP3   OH2 7451   3.103   2.658   3.309
 2497TIP3    H1 7452   3.030   2.697   3.360
 2497TIP3    H2 7453   3.055   2.609   3.238
 2498TIP3   OH2 7454   3.155   1.874   2.329
 2498TIP3    H1 7455   3.084   1.874   2.260
 2498TIP3    H2 7456   3.125   1.949   2.383
 2499TIP3   OH2 7457   3.023   1.549   2.284
 2499TIP3    H1 7458   2.986   1.580   2.200
 2499TIP3    H2 7459   3.000   1.453   2.279
 2500TIP3   OH2 7460   3.030   1.822   2.828
 2500TIP3    H1 7461   3.039   1.726   2.819
 2500TIP3    H2 7462   3.017   1.833   2.925
 2501TIP3   OH2 7463   1.656   1.898   3.575
 2501TIP3    H1 7464   1.654   1.864   3.483
 2501TIP3    H2 7465   1.753   1.899   3.592
 2502TIP3   OH2 7466   3.323   2.246   3.684
 2502TIP3    H1 7467   3.396   2.181   3.675
 2502TIP3    H2 7468   3.348   2.314   3.619
 2503TIP3   OH2 7469   3.515   2.053   3.705
 2503TIP3    H1 7470   3.435   2.006   3.738
 2503TIP3    H2 7471   3.581   1.982   3.716
 2504TIP3   OH2 7472   2.968   1.284   2.275
 2504TIP3    H1 7473   3.045   1.248   2.324
 2504TIP3    H2 7474   2.898   1.218   2.290
 2505TIP3   OH2 7475   3.029   1.539   2.722
 2505TIP3    H1 7476   3.068   1.449   2.738
 2505TIP3    H2 7477   3.087   1.569   2.650
 2506TIP3   OH2 7478   3.188   1.713   3.218
 2506TIP3    H1 7479   3.274   1.738   3.176
 2506TIP3    H2 7480   3.204   1.747   3.308
 2507TIP3   OH2 7481   3.260   1.857   3.450
 2507TIP3    H1 7482   3.181   1.890   3.496
 2507TIP3    H2 7483   3.293   1.938   3.405
 2508TIP3   OH2 7484   1.885   1.590   4.264
 2508TIP3    H1 7485   1.980   1.572   4.255
 2508TIP3    H2 7486   1.853   1.501   4.290
 2509TIP3   OH2 7487   3.729   1.438   4.028
 2509TIP3    H1 7488   3.783   1.371   3.980
 2509TIP3    H2 7489   3.689   1.485   3.951
 2510TIP3   OH2 7490   3.134   1.289   2.762
 2510TIP3    H1 7491   3.185   1.272   2.844
 2510TIP3    H2 7492   3.075   1.211   2.760
 2511TIP3   OH2 7493   1.835   1.275   3.582
 2511TIP3    H1 7494   1.895   1.198   3.590
 2511TIP3    H2 7495   1.900   1.347   3.573
 2512TIP3   OH2 7496   1.639   1.548   3.652
 2512TIP3    H1 7497   1.686   1.539   3.567
 2512TIP3    H2 7498   1.675   1.632   3.684
 2513TIP3   OH2 7499   3.582   1.573   3.832
 2513TIP3    H1 7500   3.497   1.621   3.841
 2513TIP3    H2 7501   3.557   1.509   3.763
 2514TIP3   OH2 7502   3.218   1.220   2.394
 2514TIP3    H1 7503   3.256   1.149   2.339
 2514TIP3    H2 7504   3.285   1.291   2.388
 2515TIP3   OH2 7505   1.623   1.051   3.155
 2515TIP3    H1 7506   1.531   1.049   3.187
 2515TIP3    H2 7507   1.617   1.111   3.078
 2516TIP3   OH2 7508   2.781   2.758   2.661
 2516TIP3    H1 7509   2.829   2.740   2.576
 2516TIP3    H2 7510   2.841   2.821   2.703
 2517TIP3   OH2 7511   1.844   1.138   3.971
 2517TIP3    H1 7512   1.791   1.125   4.052
 2517TIP3    H2 7513   1.776   1.170   3.909
 2518TIP3   OH2 7514   1.882   2.562   4.047
 2518TIP3    H1 7515   1.793   2.531   4.026
 2518TIP3    H2 7516   1.891   2.537   4.140
 2519TIP3   OH2 7517   2.060   2.594   3.594
 2519TIP3    H1 7518   2.014   2.669   3.553
 2519TIP3    H2 7519   2.147   2.605   3.550
 2520TIP3   OH2 7520   2.505   2.836   3.731
 2520TIP3    H1 7521   2.548   2.834   3.819
 2520TIP3    H2 7522   2.571   2.886   3.679
 2521TIP3   OH2 7523   2.684   2.988   3.591
 2521TIP3    H1 7524   2.753   2.937   3.546
 2521TIP3    H2 7525   2.737   3.044   3.651
 2522TIP3   OH2 7526   3.477   1.345   3.690
 2522TIP3    H1 7527   3.387   1.333   3.656
 2522TIP3    H2 7528   3.512   1.253   3.680
 2523TIP3   OH2 7529   1.737   2.850   3.615
 2523TIP3    H1 7530   1.646   2.881   3.593
 2523TIP3    H2 7531   1.748   2.889   3.703
 2524TIP3   OH2 7532   1.974   2.827   3.475
 2524TIP3    H1 7533   1.887   2.840   3.519
 2524TIP3    H2 7534   1.955   2.859   3.385
 2525TIP3   OH2 7535   2.397   2.855   3.274
 2525TIP3    H1 7536   2.333   2.875   3.203
 2525TIP3    H2 7537   2.410   2.942   3.315
 2526TIP3   OH2 7538   2.667   2.796   3.327
 2526TIP3    H1 7539   2.574   2.812   3.304
 2526TIP3    H2 7540   2.712   2.868   3.280
 2527TIP3   OH2 7541   2.874   2.987   3.237
 2527TIP3    H1 7542   2.860   3.070   3.188
 2527TIP3    H2 7543   2.902   2.926   3.166
 2528TIP3   OH2 7544   1.650   2.641   3.366
 2528TIP3    H1 7545   1.676   2.614   3.457
 2528TIP3    H2 7546   1.721   2.595   3.315
 2529TIP3   OH2 7547   1.841   2.514   3.221
 2529TIP3    H1 7548   1.856   2.428   3.267
 2529TIP3    H2 7549   1.933   2.547   3.215
 2530TIP3   OH2 7550   2.111   2.608   3.220
 2530TIP3    H1 7551   2.141   2.516   3.208
 2530TIP3    H2 7552   2.156   2.627   3.305
 2531TIP3   OH2 7553   2.679   1.262   3.305
 2531TIP3    H1 7554   2.639   1.191   3.359
 2531TIP3    H2 7555   2.756   1.216   3.265
 2532TIP3   OH2 7556   3.205   1.149   3.215
 2532TIP3    H1 7557   3.242   1.197   3.137
 2532TIP3    H2 7558   3.110   1.162   3.204
 2533TIP3   OH2 7559   3.301   1.245   2.977
 2533TIP3    H1 7560   3.374   1.192   2.938
 2533TIP3    H2 7561   3.336   1.336   2.962
 2534TIP3   OH2 7562   1.933   0.972   3.324
 2534TIP3    H1 7563   1.840   0.939   3.329
 2534TIP3    H2 7564   1.981   0.887   3.322
 2535TIP3   OH2 7565   1.697   0.851   2.965
 2535TIP3    H1 7566   1.749   0.899   2.898
 2535TIP3    H2 7567   1.691   0.916   3.038
 2536TIP3   OH2 7568   2.375   1.007   3.207
 2536TIP3    H1 7569   2.433   1.053   3.145
 2536TIP3    H2 7570   2.405   1.042   3.292
 2537TIP3   OH2 7571   2.921   1.151   3.190
 2537TIP3    H1 7572   2.924   1.110   3.102
 2537TIP3    H2 7573   2.909   1.072   3.247
 2538TIP3   OH2 7574   2.953   1.074   2.752
 2538TIP3    H1 7575   2.865   1.115   2.764
 2538TIP3    H2 7576   2.940   0.989   2.799
 2539TIP3   OH2 7577   1.438   2.416   2.752
 2539TIP3    H1 7578   1.353   2.380   2.719
 2539TIP3    H2 7579   1.424   2.510   2.731
 2540TIP3   OH2 7580   1.839   1.002   2.737
 2540TIP3    H1 7581   1.885   0.935   2.684
 2540TIP3    H2 7582   1.914   1.055   2.770
 2541TIP3   OH2 7583   2.348   1.178   2.835
 2541TIP3    H1 7584   2.408   1.130   2.895
 2541TIP3    H2 7585   2.372   1.270   2.860
 2542TIP3   OH2 7586   2.207   2.604   2.335
 2542TIP3    H1 7587   2.296   2.625   2.300
 2542TIP3    H2 7588   2.185   2.529   2.276
 2543TIP3   OH2 7589   2.925   2.719   2.429
 2543TIP3    H1 7590   2.918   2.621   2.417
 2543TIP3    H2 7591   2.882   2.750   2.346
 2544TIP3   OH2 7592   2.141   1.263   4.222
 2544TIP3    H1 7593   2.103   1.187   4.271
 2544TIP3    H2 7594   2.235   1.255   4.247
 2545TIP3   OH2 7595   2.395   1.254   4.337
 2545TIP3    H1 7596   2.476   1.218   4.297
 2545TIP3    H2 7597   2.378   1.186   4.406
 2546TIP3   OH2 7598   1.515   2.442   2.390
 2546TIP3    H1 7599   1.511   2.455   2.485
 2546TIP3    H2 7600   1.600   2.395   2.378
 2547TIP3   OH2 7601   3.215   1.313   4.123
 2547TIP3    H1 7602   3.232   1.279   4.214
 2547TIP3    H2 7603   3.302   1.302   4.081
 2548TIP3   OH2 7604   3.148   2.865   3.620
 2548TIP3    H1 7605   3.073   2.831   3.566
 2548TIP3    H2 7606   3.127   2.961   3.619
 2549TIP3   OH2 7607   4.421   2.237   2.379
 2549TIP3    H1 7608   4.391   2.328   2.361
 2549TIP3    H2 7609   4.344   2.187   2.348
 2550TIP3   OH2 7610   4.415   2.237   2.764
 2550TIP3    H1 7611   4.451   2.213   2.851
 2550TIP3    H2 7612   4.378   2.152   2.734
 2551TIP3   OH2 7613   3.716   2.131   3.129
 2551TIP3    H1 7614   3.746   2.062   3.191
 2551TIP3    H2 7615   3.800   2.175   3.109
 2552TIP3   OH2 7616   4.662   2.541   2.445
 2552TIP3    H1 7617   4.649   2.470   2.510
 2552TIP3    H2 7618   4.695   2.614   2.501
 2553TIP3   OH2 7619   3.691   2.542   2.856
 2553TIP3    H1 7620   3.683   2.444   2.856
 2553TIP3    H2 7621   3.788   2.551   2.843
 2554TIP3   OH2 7622   3.395   1.744   2.636
 2554TIP3    H1 7623   3.346   1.827   2.650
 2554TIP3    H2 7624   3.326   1.689   2.596
 2555TIP3   OH2 7625   3.455   2.031   2.811
 2555TIP3    H1 7626   3.503   1.953   2.845
 2555TIP3    H2 7627   3.513   2.059   2.739
 2556TIP3   OH2 7628   4.319   3.008   2.462
 2556TIP3    H1 7629   4.359   2.935   2.410
 2556TIP3    H2 7630   4.308   2.967   2.549
 2557TIP3   OH2 7631   4.217   2.463   2.812
 2557TIP3    H1 7632   4.257   2.385   2.770
 2557TIP3    H2 7633   4.300   2.509   2.836
 2558TIP3   OH2 7634   5.231   1.783   2.809
 2558TIP3    H1 7635   5.260   1.865   2.854
 2558TIP3    H2 7636   5.254   1.804   2.716
 2559TIP3   OH2 7637   4.631   1.965   2.842
 2559TIP3    H1 7638   4.672   1.879   2.863
 2559TIP3    H2 7639   4.598   1.947   2.752
 2560TIP3   OH2 7640   3.966   1.623   2.808
 2560TIP3    H1 7641   3.949   1.695   2.745
 2560TIP3    H2 7642   3.921   1.549   2.763
 2561TIP3   OH2 7643   4.663   1.719   2.430
 2561TIP3    H1 7644   4.733   1.699   2.497
 2561TIP3    H2 7645   4.718   1.752   2.357
 2562TIP3   OH2 7646   3.602   1.824   2.914
 2562TIP3    H1 7647   3.685   1.805   2.961
 2562TIP3    H2 7648   3.615   1.769   2.834
 2563TIP3   OH2 7649   4.041   2.022   2.713
 2563TIP3    H1 7650   4.136   1.999   2.723
 2563TIP3    H2 7651   4.003   1.938   2.678
 2564TIP3   OH2 7652   5.304   1.989   2.980
 2564TIP3    H1 7653   5.220   2.037   2.961
 2564TIP3    H2 7654   5.325   2.024   3.068
 2565TIP3   OH2 7655   3.965   1.608   3.242
 2565TIP3    H1 7656   3.905   1.643   3.174
 2565TIP3    H2 7657   3.912   1.625   3.323
 2566TIP3   OH2 7658   4.310   2.459   2.249
 2566TIP3    H1 7659   4.267   2.439   2.165
 2566TIP3    H2 7660   4.264   2.541   2.276
 2567TIP3   OH2 7661   4.071   2.383   3.036
 2567TIP3    H1 7662   4.011   2.451   3.073
 2567TIP3    H2 7663   4.116   2.432   2.964
 2568TIP3   OH2 7664   4.874   1.719   2.600
 2568TIP3    H1 7665   4.861   1.666   2.680
 2568TIP3    H2 7666   4.924   1.796   2.634
 2569TIP3   OH2 7667   3.835   1.722   3.026
 2569TIP3    H1 7668   3.899   1.793   3.050
 2569TIP3    H2 7669   3.883   1.681   2.950
 2570TIP3   OH2 7670   3.895   2.579   3.135
 2570TIP3    H1 7671   3.875   2.664   3.092
 2570TIP3    H2 7672   3.812   2.566   3.185
 2571TIP3   OH2 7673   3.291   2.266   2.370
 2571TIP3    H1 7674   3.253   2.293   2.285
 2571TIP3    H2 7675   3.324   2.350   2.406
 2572TIP3   OH2 7676   4.729   2.781   2.609
 2572TIP3    H1 7677   4.639   2.772   2.648
 2572TIP3    H2 7678   4.722   2.869   2.566
 2573TIP3   OH2 7679   5.024   1.682   2.974
 2573TIP3    H1 7680   4.937   1.710   2.942
 2573TIP3    H2 7681   5.084   1.715   2.904
 2574TIP3   OH2 7682   4.320   1.326   2.955
 2574TIP3    H1 7683   4.306   1.230   2.970
 2574TIP3    H2 7684   4.242   1.362   3.002
 2575TIP3   OH2 7685   4.431   2.831   2.279
 2575TIP3    H1 7686   4.481   2.747   2.264
 2575TIP3    H2 7687   4.497   2.895   2.244
 2576TIP3   OH2 7688   4.576   2.615   2.194
 2576TIP3    H1 7689   4.539   2.535   2.155
 2576TIP3    H2 7690   4.613   2.580   2.278
 2577TIP3   OH2 7691   4.955   2.694   2.954
 2577TIP3    H1 7692   4.948   2.617   2.894
 2577TIP3    H2 7693   4.946   2.770   2.893
 2578TIP3   OH2 7694   4.250   2.089   2.212
 2578TIP3    H1 7695   4.170   2.141   2.190
 2578TIP3    H2 7696   4.296   2.085   2.126
 2579TIP3   OH2 7697   4.207   1.875   1.929
 2579TIP3    H1 7698   4.275   1.925   1.976
 2579TIP3    H2 7699   4.263   1.810   1.881
 2580TIP3   OH2 7700   5.153   2.328   2.797
 2580TIP3    H1 7701   5.071   2.382   2.804
 2580TIP3    H2 7702   5.184   2.356   2.709
 2581TIP3   OH2 7703   4.600   2.172   2.183
 2581TIP3    H1 7704   4.544   2.194   2.261
 2581TIP3    H2 7705   4.683   2.147   2.228
 2582TIP3   OH2 7706   4.833   2.209   3.098
 2582TIP3    H1 7707   4.833   2.291   3.151
 2582TIP3    H2 7708   4.748   2.219   3.051
 2583TIP3   OH2 7709   3.831   2.170   2.602
 2583TIP3    H1 7710   3.788   2.111   2.535
 2583TIP3    H2 7711   3.906   2.115   2.632
 2584TIP3   OH2 7712   3.958   2.577   2.752
 2584TIP3    H1 7713   3.940   2.540   2.664
 2584TIP3    H2 7714   4.048   2.543   2.769
 2585TIP3   OH2 7715   3.960   2.141   2.957
 2585TIP3    H1 7716   3.996   2.114   2.869
 2585TIP3    H2 7717   4.009   2.225   2.974
 2586TIP3   OH2 7718   4.488   2.776   2.730
 2586TIP3    H1 7719   4.477   2.857   2.783
 2586TIP3    H2 7720   4.475   2.704   2.795
 2587TIP3   OH2 7721   4.109   2.696   3.274
 2587TIP3    H1 7722   4.050   2.756   3.324
 2587TIP3    H2 7723   4.044   2.642   3.225
 2588TIP3   OH2 7724   4.438   2.031   2.010
 2588TIP3    H1 7725   4.496   2.092   2.061
 2588TIP3    H2 7726   4.466   2.051   1.917
 2589TIP3   OH2 7727   3.857   2.257   3.375
 2589TIP3    H1 7728   3.865   2.299   3.461
 2589TIP3    H2 7729   3.764   2.228   3.376
 2590TIP3   OH2 7730   4.181   2.709   2.287
 2590TIP3    H1 7731   4.263   2.760   2.298
 2590TIP3    H2 7732   4.122   2.771   2.243
 2591TIP3   OH2 7733   3.899   2.864   3.353
 2591TIP3    H1 7734   3.880   2.866   3.257
 2591TIP3    H2 7735   3.811   2.859   3.391
 2592TIP3   OH2 7736   4.943   1.285   2.053
 2592TIP3    H1 7737   4.862   1.259   2.102
 2592TIP3    H2 7738   4.964   1.368   2.099
 2593TIP3   OH2 7739   3.695   2.013   2.409
 2593TIP3    H1 7740   3.628   2.054   2.350
 2593TIP3    H2 7741   3.663   1.923   2.415
 2594TIP3   OH2 7742   4.754   2.636   1.607
 2594TIP3    H1 7743   4.763   2.733   1.591
 2594TIP3    H2 7744   4.846   2.607   1.594
 2595TIP3   OH2 7745   3.480   2.397   3.308
 2595TIP3    H1 7746   3.412   2.375   3.240
 2595TIP3    H2 7747   3.516   2.310   3.331
 2596TIP3   OH2 7748   3.331   2.588   2.945
 2596TIP3    H1 7749   3.426   2.577   2.931
 2596TIP3    H2 7750   3.329   2.667   3.001
 2597TIP3   OH2 7751   5.205   3.034   2.997
 2597TIP3    H1 7752   5.204   2.942   3.029
 2597TIP3    H2 7753   5.121   3.067   3.037
 2598TIP3   OH2 7754   4.301   2.830   3.132
 2598TIP3    H1 7755   4.300   2.922   3.167
 2598TIP3    H2 7756   4.234   2.787   3.188
 2599TIP3   OH2 7757   4.064   2.954   2.087
 2599TIP3    H1 7758   4.018   2.935   2.004
 2599TIP3    H2 7759   4.029   3.042   2.112
 2600TIP3   OH2 7760   3.500   2.803   2.473
 2600TIP3    H1 7761   3.548   2.794   2.558
 2600TIP3    H2 7762   3.449   2.721   2.473
 2601TIP3   OH2 7763   4.265   2.856   1.728
 2601TIP3    H1 7764   4.323   2.786   1.690
 2601TIP3    H2 7765   4.300   2.864   1.819
 2602TIP3   OH2 7766   4.317   2.904   2.000
 2602TIP3    H1 7767   4.227   2.914   2.038
 2602TIP3    H2 7768   4.362   2.857   2.071
 2603TIP3   OH2 7769   5.086   2.168   3.279
 2603TIP3    H1 7770   5.005   2.182   3.228
 2603TIP3    H2 7771   5.101   2.072   3.266
 2604TIP3   OH2 7772   3.680   2.580   3.309
 2604TIP3    H1 7773   3.735   2.531   3.370
 2604TIP3    H2 7774   3.600   2.525   3.307
 2605TIP3   OH2 7775   4.082   1.400   3.087
 2605TIP3    H1 7776   3.993   1.370   3.057
 2605TIP3    H2 7777   4.056   1.483   3.132
 2606TIP3   OH2 7778   4.617   1.517   3.280
 2606TIP3    H1 7779   4.686   1.488   3.343
 2606TIP3    H2 7780   4.534   1.496   3.327
 2607TIP3   OH2 7781   4.852   1.945   3.196
 2607TIP3    H1 7782   4.803   1.943   3.281
 2607TIP3    H2 7783   4.832   2.034   3.162
 2608TIP3   OH2 7784   4.519   2.072   1.755
 2608TIP3    H1 7785   4.481   2.049   1.668
 2608TIP3    H2 7786   4.597   2.124   1.728
 2609TIP3   OH2 7787   4.230   1.452   2.057
 2609TIP3    H1 7788   4.198   1.447   2.149
 2609TIP3    H2 7789   4.193   1.369   2.023
 2610TIP3   OH2 7790   4.012   1.918   3.104
 2610TIP3    H1 7791   3.965   1.942   3.186
 2610TIP3    H2 7792   3.997   1.999   3.049
 2611TIP3   OH2 7793   3.896   1.805   2.619
 2611TIP3    H1 7794   3.804   1.776   2.636
 2611TIP3    H2 7795   3.911   1.764   2.530
 2612TIP3   OH2 7796   4.389   1.891   2.347
 2612TIP3    H1 7797   4.336   1.961   2.304
 2612TIP3    H2 7798   4.442   1.856   2.273
 2613TIP3   OH2 7799   4.563   2.166   3.430
 2613TIP3    H1 7800   4.544   2.093   3.493
 2613TIP3    H2 7801   4.656   2.185   3.452
 2614TIP3   OH2 7802   4.544   1.918   2.584
 2614TIP3    H1 7803   4.482   1.945   2.513
 2614TIP3    H2 7804   4.579   1.836   2.542
 2615TIP3   OH2 7805   3.829   1.946   3.315
 2615TIP3    H1 7806   3.879   1.998   3.379
 2615TIP3    H2 7807   3.819   1.861   3.361
 2616TIP3   OH2 7808   3.882   1.424   2.021
 2616TIP3    H1 7809   3.876   1.422   2.119
 2616TIP3    H2 7810   3.803   1.476   1.998
 2617TIP3   OH2 7811   3.426   1.468   2.895
 2617TIP3    H1 7812   3.503   1.500   2.946
 2617TIP3    H2 7813   3.464   1.436   2.812
 2618TIP3   OH2 7814   3.397   1.448   2.414
 2618TIP3    H1 7815   3.443   1.484   2.335
 2618TIP3    H2 7816   3.336   1.522   2.431
 2619TIP3   OH2 7817   4.549   2.163   3.006
 2619TIP3    H1 7818   4.585   2.092   2.947
 2619TIP3    H2 7819   4.524   2.109   3.084
 2620TIP3   OH2 7820   4.227   1.644   2.684
 2620TIP3    H1 7821   4.145   1.628   2.734
 2620TIP3    H2 7822   4.296   1.623   2.749
 2621TIP3   OH2 7823   3.659   1.680   2.688
 2621TIP3    H1 7824   3.565   1.686   2.659
 2621TIP3    H2 7825   3.684   1.589   2.663
 2622TIP3   OH2 7826   3.926   1.679   2.377
 2622TIP3    H1 7827   4.021   1.688   2.357
 2622TIP3    H2 7828   3.882   1.699   2.292
 2623TIP3   OH2 7829   4.714   1.702   2.881
 2623TIP3    H1 7830   4.681   1.714   2.972
 2623TIP3    H2 7831   4.649   1.638   2.846
 2624TIP3   OH2 7832   3.769   1.715   2.154
 2624TIP3    H1 7833   3.699   1.668   2.106
 2624TIP3    H2 7834   3.822   1.749   2.079
 2625TIP3   OH2 7835   4.883   3.408   3.107
 2625TIP3    H1 7836   4.925   3.425   3.021
 2625TIP3    H2 7837   4.941   3.457   3.169
 2626TIP3   OH2 7838   4.308   1.957   2.777
 2626TIP3    H1 7839   4.376   1.913   2.724
 2626TIP3    H2 7840   4.315   1.910   2.862
 2627TIP3   OH2 7841   3.830   1.442   2.654
 2627TIP3    H1 7842   3.796   1.363   2.701
 2627TIP3    H2 7843   3.887   1.402   2.586
 2628TIP3   OH2 7844   4.285   1.850   3.068
 2628TIP3    H1 7845   4.196   1.888   3.080
 2628TIP3    H2 7846   4.343   1.912   3.116
 2629TIP3   OH2 7847   4.019   2.242   2.160
 2629TIP3    H1 7848   3.948   2.175   2.150
 2629TIP3    H2 7849   4.000   2.275   2.251
 2630TIP3   OH2 7850   4.922   2.477   2.789
 2630TIP3    H1 7851   4.946   2.528   2.708
 2630TIP3    H2 7852   4.837   2.436   2.763
 2631TIP3   OH2 7853   4.479   1.558   2.014
 2631TIP3    H1 7854   4.385   1.531   2.030
 2631TIP3    H2 7855   4.483   1.649   2.049
 2632TIP3   OH2 7856   4.411   2.554   3.162
 2632TIP3    H1 7857   4.459   2.538   3.244
 2632TIP3    H2 7858   4.387   2.647   3.168
 2633TIP3   OH2 7859   4.547   1.803   2.129
 2633TIP3    H1 7860   4.643   1.811   2.148
 2633TIP3    H2 7861   4.528   1.885   2.079
 2634TIP3   OH2 7862   3.713   2.265   2.835
 2634TIP3    H1 7863   3.750   2.238   2.749
 2634TIP3    H2 7864   3.758   2.204   2.895
 2635TIP3   OH2 7865   4.166   2.390   1.983
 2635TIP3    H1 7866   4.118   2.476   1.988
 2635TIP3    H2 7867   4.111   2.335   2.043
 2636TIP3   OH2 7868   3.594   2.184   3.449
 2636TIP3    H1 7869   3.604   2.166   3.545
 2636TIP3    H2 7870   3.525   2.119   3.424
 2637TIP3   OH2 7871   4.323   2.296   3.470
 2637TIP3    H1 7872   4.268   2.239   3.413
 2637TIP3    H2 7873   4.413   2.265   3.444
 2638TIP3   OH2 7874   4.577   2.816   3.058
 2638TIP3    H1 7875   4.481   2.822   3.071
 2638TIP3    H2 7876   4.611   2.870   3.133
 2639TIP3   OH2 7877   4.980   1.891   1.965
 2639TIP3    H1 7878   4.924   1.843   1.902
 2639TIP3    H2 7879   4.979   1.981   1.924
 2640TIP3   OH2 7880   5.207   2.741   3.049
 2640TIP3    H1 7881   5.109   2.744   3.040
 2640TIP3    H2 7882   5.232   2.717   2.957
 2641TIP3   OH2 7883   4.689   2.710   1.871
 2641TIP3    H1 7884   4.666   2.637   1.931
 2641TIP3    H2 7885   4.704   2.664   1.786
 2642TIP3   OH2 7886   4.686   2.341   2.706
 2642TIP3    H1 7887   4.592   2.316   2.720
 2642TIP3    H2 7888   4.720   2.260   2.663
 2643TIP3   OH2 7889   3.815   2.569   2.465
 2643TIP3    H1 7890   3.814   2.649   2.409
 2643TIP3    H2 7891   3.721   2.547   2.468
 2644TIP3   OH2 7892   3.379   1.871   2.166
 2644TIP3    H1 7893   3.424   1.955   2.187
 2644TIP3    H2 7894   3.302   1.875   2.227
 2645TIP3   OH2 7895   3.950   2.333   2.405
 2645TIP3    H1 7896   3.917   2.422   2.426
 2645TIP3    H2 7897   3.917   2.281   2.480
 2646TIP3   OH2 7898   4.084   2.909   2.932
 2646TIP3    H1 7899   4.127   2.982   2.883
 2646TIP3    H2 7900   4.161   2.873   2.981
 2647TIP3   OH2 7901   3.733   2.807   2.313
 2647TIP3    H1 7902   3.648   2.817   2.360
 2647TIP3    H2 7903   3.766   2.900   2.316
 2648TIP3   OH2 7904   4.470   2.544   2.891
 2648TIP3    H1 7905   4.459   2.540   2.989
 2648TIP3    H2 7906   4.553   2.495   2.879
 2649TIP3   OH2 7907   4.446   2.438   1.773
 2649TIP3    H1 7908   4.499   2.413   1.852
 2649TIP3    H2 7909   4.358   2.410   1.802
 2650TIP3   OH2 7910   4.706   3.078   2.944
 2650TIP3    H1 7911   4.628   3.021   2.928
 2650TIP3    H2 7912   4.697   3.144   2.873
 2651TIP3   OH2 7913   4.786   2.912   1.592
 2651TIP3    H1 7914   4.825   2.984   1.539
 2651TIP3    H2 7915   4.705   2.958   1.624
 2652TIP3   OH2 7916   3.804   1.692   3.457
 2652TIP3    H1 7917   3.707   1.691   3.468
 2652TIP3    H2 7918   3.833   1.630   3.526
 2653TIP3   OH2 7919   4.608   2.372   1.989
 2653TIP3    H1 7920   4.597   2.307   2.061
 2653TIP3    H2 7921   4.705   2.368   1.977
 2654TIP3   OH2 7922   3.517   2.775   3.087
 2654TIP3    H1 7923   3.572   2.699   3.112
 2654TIP3    H2 7924   3.551   2.843   3.147
 2655TIP3   OH2 7925   3.811   2.419   1.773
 2655TIP3    H1 7926   3.826   2.327   1.744
 2655TIP3    H2 7927   3.791   2.406   1.868
 2656TIP3   OH2 7928   3.756   2.424   2.046
 2656TIP3    H1 7929   3.831   2.395   2.099
 2656TIP3    H2 7930   3.762   2.521   2.053
 2657TIP3   OH2 7931   3.492   2.116   2.247
 2657TIP3    H1 7932   3.426   2.161   2.304
 2657TIP3    H2 7933   3.506   2.185   2.180
 2658TIP3   OH2 7934   4.641   1.755   3.141
 2658TIP3    H1 7935   4.723   1.793   3.177
 2658TIP3    H2 7936   4.630   1.674   3.195
 2659TIP3   OH2 7937   4.520   1.509   2.308
 2659TIP3    H1 7938   4.508   1.530   2.215
 2659TIP3    H2 7939   4.557   1.592   2.346
 2660TIP3   OH2 7940   4.024   2.620   1.994
 2660TIP3    H1 7941   3.937   2.647   2.030
 2660TIP3    H2 7942   4.038   2.690   1.928
 2661TIP3   OH2 7943   4.207   1.687   2.409
 2661TIP3    H1 7944   4.274   1.757   2.392
 2661TIP3    H2 7945   4.214   1.678   2.507
 2662TIP3   OH2 7946   4.480   2.002   3.216
 2662TIP3    H1 7947   4.507   2.055   3.294
 2662TIP3    H2 7948   4.536   1.923   3.225
 2663TIP3   OH2 7949   4.346   1.423   2.523
 2663TIP3    H1 7950   4.356   1.507   2.569
 2663TIP3    H2 7951   4.414   1.430   2.453
 2664TIP3   OH2 7952   3.769   2.697   2.061
 2664TIP3    H1 7953   3.738   2.766   1.998
 2664TIP3    H2 7954   3.752   2.740   2.148
 2665TIP3   OH2 7955   3.868   1.411   2.298
 2665TIP3    H1 7956   3.867   1.500   2.337
 2665TIP3    H2 7957   3.964   1.390   2.306
 2666TIP3   OH2 7958   5.120   1.902   3.198
 2666TIP3    H1 7959   5.022   1.899   3.202
 2666TIP3    H2 7960   5.134   1.864   3.110
 2667TIP3   OH2 7961   4.772   2.098   2.584
 2667TIP3    H1 7962   4.696   2.038   2.597
 2667TIP3    H2 7963   4.844   2.052   2.632
 2668TIP3   OH2 7964   3.485   2.325   2.052
 2668TIP3    H1 7965   3.555   2.393   2.061
 2668TIP3    H2 7966   3.529   2.268   1.986
 2669TIP3   OH2 7967   3.427   1.601   2.190
 2669TIP3    H1 7968   3.426   1.698   2.184
 2669TIP3    H2 7969   3.351   1.577   2.136
 2670TIP3   OH2 7970   4.739   3.056   2.531
 2670TIP3    H1 7971   4.700   3.109   2.460
 2670TIP3    H2 7972   4.835   3.074   2.516
 2671TIP3   OH2 7973   3.814   1.323   3.061
 2671TIP3    H1 7974   3.786   1.288   2.973
 2671TIP3    H2 7975   3.806   1.244   3.118
 2672TIP3   OH2 7976   3.357   2.543   2.440
 2672TIP3    H1 7977   3.284   2.572   2.495
 2672TIP3    H2 7978   3.331   2.582   2.354
 2673TIP3   OH2 7979   3.520   3.070   3.517
 2673TIP3    H1 7980   3.600   3.072   3.573
 2673TIP3    H2 7981   3.494   2.976   3.518
 2674TIP3   OH2 7982   3.986   3.046   3.556
 2674TIP3    H1 7983   4.081   3.041   3.578
 2674TIP3    H2 7984   3.982   2.987   3.478
 2675TIP3   OH2 7985   3.976   2.622   1.685
 2675TIP3    H1 7986   3.920   2.549   1.722
 2675TIP3    H2 7987   4.051   2.570   1.651
 2676TIP3   OH2 7988   4.638   2.948   3.296
 2676TIP3    H1 7989   4.623   2.877   3.363
 2676TIP3    H2 7990   4.725   2.983   3.324
 2677TIP3   OH2 7991   4.411   2.663   1.597
 2677TIP3    H1 7992   4.456   2.599   1.655
 2677TIP3    H2 7993   4.466   2.661   1.516
 2678TIP3   OH2 7994   3.620   2.139   1.907
 2678TIP3    H1 7995   3.675   2.104   1.979
 2678TIP3    H2 7996   3.686   2.143   1.835
 2679TIP3   OH2 7997   4.235   2.567   3.493
 2679TIP3    H1 7998   4.216   2.591   3.401
 2679TIP3    H2 7999   4.279   2.480   3.483
 2680TIP3   OH2 8000   4.130   2.338   1.714
 2680TIP3    H1 8001   4.134   2.349   1.811
 2680TIP3    H2 8002   4.132   2.240   1.707
 2681TIP3   OH2 8003   4.739   2.584   3.089
 2681TIP3    H1 8004   4.819   2.623   3.049
 2681TIP3    H2 8005   4.676   2.657   3.075
 2682TIP3   OH2 8006   3.794   2.249   3.674
 2682TIP3    H1 8007   3.841   2.166   3.664
 2682TIP3    H2 8008   3.782   2.252   3.771
 2683TIP3   OH2 8009   3.829   2.043   2.128
 2683TIP3    H1 8010   3.803   1.998   2.210
 2683TIP3    H2 8011   3.866   1.968   2.076
 2684TIP3   OH2 8012   4.091   2.101   3.349
 2684TIP3    H1 8013   4.020   2.167   3.344
 2684TIP3    H2 8014   4.151   2.132   3.277
 2685TIP3   OH2 8015   3.928   1.839   1.968
 2685TIP3    H1 8016   3.904   1.842   1.873
 2685TIP3    H2 8017   4.026   1.840   1.962
 2686TIP3   OH2 8018   4.612   2.507   3.487
 2686TIP3    H1 8019   4.699   2.494   3.448
 2686TIP3    H2 8020   4.613   2.444   3.561
 2687TIP3   OH2 8021   4.752   2.167   1.631
 2687TIP3    H1 8022   4.730   2.123   1.546
 2687TIP3    H2 8023   4.719   2.257   1.610
 2688TIP3   OH2 8024   4.217   1.894   3.484
 2688TIP3    H1 8025   4.223   1.815   3.427
 2688TIP3    H2 8026   4.177   1.960   3.423
 2689TIP3   OH2 8027   4.223   1.683   3.292
 2689TIP3    H1 8028   4.253   1.723   3.208
 2689TIP3    H2 8029   4.130   1.660   3.270
 2690TIP3   OH2 8030   4.248   2.214   3.164
 2690TIP3    H1 8031   4.335   2.222   3.122
 2690TIP3    H2 8032   4.196   2.283   3.118
 2691TIP3   OH2 8033   4.831   2.185   3.543
 2691TIP3    H1 8034   4.884   2.104   3.552
 2691TIP3    H2 8035   4.896   2.249   3.512
 2692TIP3   OH2 8036   4.872   2.434   3.273
 2692TIP3    H1 8037   4.814   2.490   3.216
 2692TIP3    H2 8038   4.960   2.458   3.236
 2693TIP3   OH2 8039   4.087   2.011   3.707
 2693TIP3    H1 8040   4.026   1.937   3.724
 2693TIP3    H2 8041   4.129   1.982   3.624
 2694TIP3   OH2 8042   4.355   1.445   3.359
 2694TIP3    H1 8043   4.306   1.526   3.334
 2694TIP3    H2 8044   4.288   1.376   3.345
 2695TIP3   OH2 8045   4.482   1.948   3.574
 2695TIP3    H1 8046   4.474   1.937   3.670
 2695TIP3    H2 8047   4.392   1.923   3.546
 2696TIP3   OH2 8048   4.720   1.898   3.427
 2696TIP3    H1 8049   4.646   1.900   3.491
 2696TIP3    H2 8050   4.795   1.869   3.482
 2697TIP3   OH2 8051   4.945   1.839   3.578
 2697TIP3    H1 8052   4.960   1.743   3.595
 2697TIP3    H2 8053   4.944   1.877   3.668
 2698TIP3   OH2 8054   3.934   1.789   3.764
 2698TIP3    H1 8055   3.943   1.698   3.729
 2698TIP3    H2 8056   3.979   1.777   3.851
 2699TIP3   OH2 8057   4.446   1.453   3.617
 2699TIP3    H1 8058   4.515   1.384   3.611
 2699TIP3    H2 8059   4.409   1.449   3.527
 2700TIP3   OH2 8060   4.514   1.669   3.776
 2700TIP3    H1 8061   4.494   1.598   3.710
 2700TIP3    H2 8062   4.436   1.728   3.767
 2701TIP3   OH2 8063   3.737   2.900   1.874
 2701TIP3    H1 8064   3.832   2.893   1.855
 2701TIP3    H2 8065   3.708   2.949   1.795
 2702TIP3   OH2 8066   3.216   2.280   2.090
 2702TIP3    H1 8067   3.311   2.302   2.074
 2702TIP3    H2 8068   3.210   2.191   2.050
 2703TIP3   OH2 8069   3.129   2.893   2.504
 2703TIP3    H1 8070   3.064   2.830   2.465
 2703TIP3    H2 8071   3.175   2.836   2.569
 2704TIP3   OH2 8072   3.264   2.744   2.691
 2704TIP3    H1 8073   3.256   2.669   2.752
 2704TIP3    H2 8074   3.319   2.804   2.745
 2705TIP3   OH2 8075   4.987   3.155   2.487
 2705TIP3    H1 8076   5.016   3.175   2.579
 2705TIP3    H2 8077   5.062   3.189   2.436
 2706TIP3   OH2 8078   5.025   3.159   2.763
 2706TIP3    H1 8079   4.987   3.069   2.773
 2706TIP3    H2 8080   5.095   3.154   2.831
 2707TIP3   OH2 8081   5.062   2.837   3.348
 2707TIP3    H1 8082   4.989   2.858   3.409
 2707TIP3    H2 8083   5.105   2.925   3.338
 2708TIP3   OH2 8084   4.887   2.351   1.963
 2708TIP3    H1 8085   4.953   2.417   1.934
 2708TIP3    H2 8086   4.931   2.316   2.044
 2709TIP3   OH2 8087   5.013   2.221   2.168
 2709TIP3    H1 8088   4.948   2.180   2.230
 2709TIP3    H2 8089   5.080   2.258   2.229
 2710TIP3   OH2 8090   5.064   2.613   2.596
 2710TIP3    H1 8091   5.121   2.548   2.550
 2710TIP3    H2 8092   5.063   2.687   2.533
 2711TIP3   OH2 8093   4.898   2.914   2.795
 2711TIP3    H1 8094   4.831   2.950   2.856
 2711TIP3    H2 8095   4.844   2.865   2.729
 2712TIP3   OH2 8096   4.946   2.123   1.815
 2712TIP3    H1 8097   4.878   2.136   1.744
 2712TIP3    H2 8098   4.924   2.200   1.872
 2713TIP3   OH2 8099   4.816   1.758   1.753
 2713TIP3    H1 8100   4.831   1.848   1.722
 2713TIP3    H2 8101   4.740   1.733   1.697
 2714TIP3   OH2 8102   4.827   2.078   2.317
 2714TIP3    H1 8103   4.834   1.982   2.314
 2714TIP3    H2 8104   4.812   2.095   2.412
 2715TIP3   OH2 8105   3.452   2.152   3.062
 2715TIP3    H1 8106   3.451   2.119   2.970
 2715TIP3    H2 8107   3.549   2.154   3.078
 2716TIP3   OH2 8108   5.115   2.502   3.170
 2716TIP3    H1 8109   5.188   2.438   3.162
 2716TIP3    H2 8110   5.147   2.577   3.116
 2717TIP3   OH2 8111   5.299   2.306   3.183
 2717TIP3    H1 8112   5.227   2.256   3.228
 2717TIP3    H2 8113   5.374   2.245   3.199
 2718TIP3   OH2 8114   4.825   1.791   2.211
 2718TIP3    H1 8115   4.864   1.702   2.223
 2718TIP3    H2 8116   4.886   1.828   2.145
 2719TIP3   OH2 8117   4.984   1.968   2.704
 2719TIP3    H1 8118   5.070   1.993   2.664
 2719TIP3    H2 8119   4.998   2.004   2.794
 2720TIP3   OH2 8120   5.054   2.111   2.936
 2720TIP3    H1 8121   4.977   2.146   2.985
 2720TIP3    H2 8122   5.087   2.192   2.891
 2721TIP3   OH2 8123   3.668   1.834   3.742
 2721TIP3    H1 8124   3.766   1.830   3.739
 2721TIP3    H2 8125   3.649   1.748   3.784
 2722TIP3   OH2 8126   5.506   1.703   3.493
 2722TIP3    H1 8127   5.566   1.638   3.450
 2722TIP3    H2 8128   5.476   1.756   3.416
 2723TIP3   OH2 8129   4.931   1.527   2.236
 2723TIP3    H1 8130   4.980   1.524   2.321
 2723TIP3    H2 8131   4.860   1.463   2.254
 2724TIP3   OH2 8132   3.631   1.532   3.072
 2724TIP3    H1 8133   3.691   1.455   3.078
 2724TIP3    H2 8134   3.695   1.604   3.060
 2725TIP3   OH2 8135   3.434   1.806   3.139
 2725TIP3    H1 8136   3.482   1.794   3.054
 2725TIP3    H2 8137   3.472   1.889   3.170
 2726TIP3   OH2 8138   5.376   1.841   3.299
 2726TIP3    H1 8139   5.292   1.885   3.322
 2726TIP3    H2 8140   5.343   1.771   3.240
 2727TIP3   OH2 8141   3.419   1.311   2.645
 2727TIP3    H1 8142   3.324   1.304   2.666
 2727TIP3    H2 8143   3.417   1.367   2.564
 2728TIP3   OH2 8144   4.587   3.022   2.153
 2728TIP3    H1 8145   4.613   2.993   2.064
 2728TIP3    H2 8146   4.663   3.076   2.175
 2729TIP3   OH2 8147   3.640   1.395   3.459
 2729TIP3    H1 8148   3.585   1.381   3.538
 2729TIP3    H2 8149   3.574   1.425   3.395
 2730TIP3   OH2 8150   3.857   2.851   3.078
 2730TIP3    H1 8151   3.812   2.928   3.036
 2730TIP3    H2 8152   3.945   2.863   3.034
 2731TIP3   OH2 8153   4.302   3.096   3.216
 2731TIP3    H1 8154   4.345   3.093   3.305
 2731TIP3    H2 8155   4.370   3.146   3.166
 2732TIP3   OH2 8156   4.488   3.245   3.078
 2732TIP3    H1 8157   4.561   3.191   3.044
 2732TIP3    H2 8158   4.537   3.301   3.142
 2733TIP3   OH2 8159   5.275   1.605   3.176
 2733TIP3    H1 8160   5.185   1.598   3.141
 2733TIP3    H2 8161   5.307   1.512   3.166
 2734TIP3   OH2 8162   3.530   3.105   3.105
 2734TIP3    H1 8163   3.442   3.141   3.080
 2734TIP3    H2 8164   3.540   3.145   3.192
 2735TIP3   OH2 8165   3.768   3.082   2.961
 2735TIP3    H1 8166   3.681   3.096   3.004
 2735TIP3    H2 8167   3.751   3.114   2.870
 2736TIP3   OH2 8168   4.193   3.112   2.760
 2736TIP3    H1 8169   4.124   3.133   2.695
 2736TIP3    H2 8170   4.208   3.199   2.803
 2737TIP3   OH2 8171   4.461   3.046   2.807
 2737TIP3    H1 8172   4.367   3.066   2.789
 2737TIP3    H2 8173   4.505   3.127   2.775
 2738TIP3   OH2 8174   4.667   3.237   2.722
 2738TIP3    H1 8175   4.687   3.313   2.668
 2738TIP3    H2 8176   4.696   3.164   2.664
 2739TIP3   OH2 8177   3.442   2.897   2.848
 2739TIP3    H1 8178   3.471   2.872   2.939
 2739TIP3    H2 8179   3.515   2.854   2.797
 2740TIP3   OH2 8180   3.638   2.770   2.707
 2740TIP3    H1 8181   3.656   2.686   2.755
 2740TIP3    H2 8182   3.729   2.806   2.701
 2741TIP3   OH2 8183   3.905   2.864   2.710
 2741TIP3    H1 8184   3.937   2.773   2.695
 2741TIP3    H2 8185   3.953   2.884   2.792
 2742TIP3   OH2 8186   4.480   1.522   2.798
 2742TIP3    H1 8187   4.435   1.452   2.848
 2742TIP3    H2 8188   4.547   1.473   2.747
 2743TIP3   OH2 8189   5.004   1.401   2.700
 2743TIP3    H1 8190   5.036   1.454   2.623
 2743TIP3    H2 8191   4.907   1.412   2.692
 2744TIP3   OH2 8192   5.094   1.503   2.458
 2744TIP3    H1 8193   5.170   1.450   2.425
 2744TIP3    H2 8194   5.131   1.594   2.447
 2745TIP3   OH2 8195   3.728   1.230   2.812
 2745TIP3    H1 8196   3.636   1.197   2.814
 2745TIP3    H2 8197   3.777   1.145   2.808
 2746TIP3   OH2 8198   3.516   1.099   2.459
 2746TIP3    H1 8199   3.547   1.155   2.386
 2746TIP3    H2 8200   3.490   1.165   2.526
 2747TIP3   OH2 8201   4.171   1.265   2.691
 2747TIP3    H1 8202   4.229   1.304   2.622
 2747TIP3    H2 8203   4.211   1.302   2.771
 2748TIP3   OH2 8204   4.722   1.406   2.670
 2748TIP3    H1 8205   4.713   1.361   2.585
 2748TIP3    H2 8206   4.708   1.331   2.732
 2749TIP3   OH2 8207   4.735   1.312   2.243
 2749TIP3    H1 8208   4.650   1.357   2.254
 2749TIP3    H2 8209   4.710   1.226   2.283
 2750TIP3   OH2 8210   3.231   2.672   2.240
 2750TIP3    H1 8211   3.147   2.638   2.206
 2750TIP3    H2 8212   3.222   2.766   2.216
 2751TIP3   OH2 8213   3.634   1.256   2.224
 2751TIP3    H1 8214   3.681   1.194   2.165
 2751TIP3    H2 8215   3.708   1.310   2.258
 2752TIP3   OH2 8216   4.147   1.431   2.320
 2752TIP3    H1 8217   4.208   1.375   2.372
 2752TIP3    H2 8218   4.174   1.519   2.354
 2753TIP3   OH2 8219   4.005   2.858   1.821
 2753TIP3    H1 8220   4.093   2.880   1.785
 2753TIP3    H2 8221   3.982   2.784   1.761
 2754TIP3   OH2 8222   4.718   2.975   1.916
 2754TIP3    H1 8223   4.713   2.878   1.903
 2754TIP3    H2 8224   4.678   3.007   1.833
 2755TIP3   OH2 8225   3.937   1.514   3.704
 2755TIP3    H1 8226   3.902   1.442   3.758
 2755TIP3    H2 8227   4.032   1.511   3.729
 2756TIP3   OH2 8228   4.190   1.501   3.819
 2756TIP3    H1 8229   4.274   1.489   3.772
 2756TIP3    H2 8230   4.192   1.425   3.880
 2757TIP3   OH2 8231   3.309   2.696   1.877
 2757TIP3    H1 8232   3.312   2.719   1.971
 2757TIP3    H2 8233   3.397   2.653   1.863
 2758TIP3   OH2 8234   5.012   1.568   3.610
 2758TIP3    H1 8235   5.031   1.537   3.701
 2758TIP3    H2 8236   5.101   1.564   3.568
 2759TIP3   OH2 8237   4.959   3.126   3.068
 2759TIP3    H1 8238   4.867   3.103   3.048
 2759TIP3    H2 8239   4.949   3.200   3.130
 2760TIP3   OH2 8240   6.217   2.494   1.866
 2760TIP3    H1 8241   6.188   2.585   1.847
 2760TIP3    H2 8242   6.140   2.444   1.835
 2761TIP3   OH2 8243   6.217   2.492   2.249
 2761TIP3    H1 8244   6.249   2.468   2.338
 2761TIP3    H2 8245   6.174   2.410   2.220
 2762TIP3   OH2 8246   5.513   2.388   2.614
 2762TIP3    H1 8247   5.543   2.319   2.676
 2762TIP3    H2 8248   5.589   2.448   2.617
 2763TIP3   OH2 8249   6.461   2.796   1.930
 2763TIP3    H1 8250   6.442   2.727   1.995
 2763TIP3    H2 8251   6.487   2.871   1.987
 2764TIP3   OH2 8252   5.482   2.796   2.333
 2764TIP3    H1 8253   5.476   2.699   2.337
 2764TIP3    H2 8254   5.579   2.808   2.339
 2765TIP3   OH2 8255   5.194   1.999   2.120
 2765TIP3    H1 8256   5.152   2.084   2.139
 2765TIP3    H2 8257   5.117   1.948   2.089
 2766TIP3   OH2 8258   5.250   2.286   2.294
 2766TIP3    H1 8259   5.300   2.210   2.331
 2766TIP3    H2 8260   5.316   2.325   2.234
 2767TIP3   OH2 8261   6.108   3.259   1.946
 2767TIP3    H1 8262   6.154   3.186   1.900
 2767TIP3    H2 8263   6.098   3.223   2.036
 2768TIP3   OH2 8264   6.014   2.720   2.296
 2768TIP3    H1 8265   6.054   2.643   2.252
 2768TIP3    H2 8266   6.097   2.766   2.322
 2769TIP3   OH2 8267   7.011   2.044   2.299
 2769TIP3    H1 8268   7.047   2.129   2.334
 2769TIP3    H2 8269   7.025   2.056   2.204
 2770TIP3   OH2 8270   6.427   2.220   2.329
 2770TIP3    H1 8271   6.470   2.135   2.349
 2770TIP3    H2 8272   6.396   2.203   2.238
 2771TIP3   OH2 8273   5.765   1.879   2.294
 2771TIP3    H1 8274   5.746   1.952   2.232
 2771TIP3    H2 8275   5.716   1.807   2.250
 2772TIP3   OH2 8276   6.457   1.971   1.914
 2772TIP3    H1 8277   6.527   1.958   1.982
 2772TIP3    H2 8278   6.511   2.007   1.841
 2773TIP3   OH2 8279   5.398   2.083   2.400
 2773TIP3    H1 8280   5.480   2.065   2.450
 2773TIP3    H2 8281   5.414   2.026   2.322
 2774TIP3   OH2 8282   5.839   2.279   2.193
 2774TIP3    H1 8283   5.933   2.254   2.207
 2774TIP3    H2 8284   5.801   2.195   2.162
 2775TIP3   OH2 8285   7.094   2.256   2.453
 2775TIP3    H1 8286   7.007   2.300   2.444
 2775TIP3    H2 8287   7.112   2.269   2.547
 2776TIP3   OH2 8288   5.761   1.863   2.729
 2776TIP3    H1 8289   5.701   1.901   2.662
 2776TIP3    H2 8290   5.709   1.880   2.810
 2777TIP3   OH2 8291   6.110   2.717   1.735
 2777TIP3    H1 8292   6.064   2.696   1.653
 2777TIP3    H2 8293   6.064   2.800   1.761
 2778TIP3   OH2 8294   5.868   2.639   2.523
 2778TIP3    H1 8295   5.806   2.704   2.562
 2778TIP3    H2 8296   5.910   2.691   2.452
 2779TIP3   OH2 8297   6.660   1.982   2.091
 2779TIP3    H1 8298   6.656   1.925   2.169
 2779TIP3    H2 8299   6.712   2.058   2.123
 2780TIP3   OH2 8300   5.631   1.978   2.513
 2780TIP3    H1 8301   5.692   2.051   2.538
 2780TIP3    H2 8302   5.681   1.938   2.439
 2781TIP3   OH2 8303   5.694   2.832   2.618
 2781TIP3    H1 8304   5.670   2.921   2.585
 2781TIP3    H2 8305   5.616   2.815   2.675
 2782TIP3   OH2 8306   5.088   2.523   1.858
 2782TIP3    H1 8307   5.050   2.553   1.773
 2782TIP3    H2 8308   5.122   2.607   1.895
 2783TIP3   OH2 8309   6.530   3.039   2.096
 2783TIP3    H1 8310   6.441   3.029   2.138
 2783TIP3    H2 8311   6.519   3.126   2.053
 2784TIP3   OH2 8312   6.815   1.938   2.463
 2784TIP3    H1 8313   6.727   1.965   2.432
 2784TIP3    H2 8314   6.873   1.974   2.392
 2785TIP3   OH2 8315   6.116   1.581   2.443
 2785TIP3    H1 8316   6.100   1.487   2.461
 2785TIP3    H2 8317   6.039   1.621   2.490
 2786TIP3   OH2 8318   6.232   3.084   1.772
 2786TIP3    H1 8319   6.282   3.001   1.752
 2786TIP3    H2 8320   6.293   3.149   1.731
 2787TIP3   OH2 8321   6.376   2.870   1.678
 2787TIP3    H1 8322   6.330   2.792   1.644
 2787TIP3    H2 8323   6.413   2.835   1.763
 2788TIP3   OH2 8324   6.757   2.952   2.440
 2788TIP3    H1 8325   6.741   2.873   2.383
 2788TIP3    H2 8326   6.736   3.025   2.379
 2789TIP3   OH2 8327   6.047   2.345   1.699
 2789TIP3    H1 8328   5.967   2.397   1.677
 2789TIP3    H2 8329   6.092   2.341   1.613
 2790TIP3   OH2 8330   6.005   2.130   1.415
 2790TIP3    H1 8331   6.072   2.182   1.462
 2790TIP3    H2 8332   6.062   2.067   1.367
 2791TIP3   OH2 8333   6.953   2.596   2.291
 2791TIP3    H1 8334   6.868   2.644   2.297
 2791TIP3    H2 8335   6.972   2.606   2.195
 2792TIP3   OH2 8336   6.396   2.429   1.669
 2792TIP3    H1 8337   6.340   2.451   1.747
 2792TIP3    H2 8338   6.479   2.403   1.713
 2793TIP3   OH2 8339   6.628   2.467   2.583
 2793TIP3    H1 8340   6.626   2.548   2.637
 2793TIP3    H2 8341   6.540   2.473   2.539
 2794TIP3   OH2 8342   5.628   2.425   2.088
 2794TIP3    H1 8343   5.587   2.367   2.020
 2794TIP3    H2 8344   5.704   2.372   2.117
 2795TIP3   OH2 8345   5.759   2.840   2.234
 2795TIP3    H1 8346   5.737   2.795   2.151
 2795TIP3    H2 8347   5.848   2.804   2.254
 2796TIP3   OH2 8348   5.763   2.397   2.440
 2796TIP3    H1 8349   5.798   2.375   2.351
 2796TIP3    H2 8350   5.807   2.482   2.461
 2797TIP3   OH2 8351   6.291   3.033   2.219
 2797TIP3    H1 8352   6.276   3.114   2.271
 2797TIP3    H2 8353   6.272   2.961   2.283
 2798TIP3   OH2 8354   5.901   2.954   2.761
 2798TIP3    H1 8355   5.842   3.014   2.812
 2798TIP3    H2 8356   5.833   2.900   2.714
 2799TIP3   OH2 8357   6.234   2.287   1.497
 2799TIP3    H1 8358   6.293   2.347   1.547
 2799TIP3    H2 8359   6.260   2.308   1.404
 2800TIP3   OH2 8360   5.655   2.509   2.866
 2800TIP3    H1 8361   5.662   2.597   2.909
 2800TIP3    H2 8362   5.561   2.490   2.881
 2801TIP3   OH2 8363   5.979   2.964   1.771
 2801TIP3    H1 8364   6.057   3.018   1.788
 2801TIP3    H2 8365   5.917   3.027   1.732
 2802TIP3   OH2 8366   5.695   3.119   2.854
 2802TIP3    H1 8367   5.655   3.121   2.766
 2802TIP3    H2 8368   5.618   3.095   2.911
 2803TIP3   OH2 8369   6.749   1.540   1.556
 2803TIP3    H1 8370   6.663   1.558   1.600
 2803TIP3    H2 8371   6.762   1.623   1.507
 2804TIP3   OH2 8372   5.494   2.268   1.891
 2804TIP3    H1 8373   5.426   2.312   1.835
 2804TIP3    H2 8374   5.455   2.181   1.905
 2805TIP3   OH2 8375   6.547   2.897   1.091
 2805TIP3    H1 8376   6.557   2.993   1.072
 2805TIP3    H2 8377   6.639   2.865   1.081
 2806TIP3   OH2 8378   5.271   2.651   2.801
 2806TIP3    H1 8379   5.209   2.625   2.731
 2806TIP3    H2 8380   5.312   2.565   2.827
 2807TIP3   OH2 8381   5.130   2.847   2.430
 2807TIP3    H1 8382   5.226   2.836   2.422
 2807TIP3    H2 8383   5.126   2.921   2.493
 2808TIP3   OH2 8384   6.992   3.296   2.487
 2808TIP3    H1 8385   6.990   3.200   2.504
 2808TIP3    H2 8386   6.909   3.323   2.533
 2809TIP3   OH2 8387   6.097   3.082   2.620
 2809TIP3    H1 8388   6.097   3.174   2.656
 2809TIP3    H2 8389   6.026   3.041   2.675
 2810TIP3   OH2 8390   5.860   3.212   1.574
 2810TIP3    H1 8391   5.812   3.195   1.491
 2810TIP3    H2 8392   5.827   3.300   1.600
 2811TIP3   OH2 8393   5.296   3.059   1.960
 2811TIP3    H1 8394   5.346   3.052   2.045
 2811TIP3    H2 8395   5.243   2.978   1.964
 2812TIP3   OH2 8396   6.060   3.112   1.216
 2812TIP3    H1 8397   6.121   3.043   1.182
 2812TIP3    H2 8398   6.093   3.122   1.308
 2813TIP3   OH2 8399   6.111   3.160   1.484
 2813TIP3    H1 8400   6.022   3.170   1.524
 2813TIP3    H2 8401   6.160   3.119   1.557
 2814TIP3   OH2 8402   6.889   2.429   2.757
 2814TIP3    H1 8403   6.801   2.445   2.720
 2814TIP3    H2 8404   6.897   2.332   2.748
 2815TIP3   OH2 8405   5.479   2.831   2.783
 2815TIP3    H1 8406   5.525   2.826   2.869
 2815TIP3    H2 8407   5.403   2.771   2.797
 2816TIP3   OH2 8408   5.878   1.658   2.573
 2816TIP3    H1 8409   5.789   1.628   2.545
 2816TIP3    H2 8410   5.853   1.740   2.620
 2817TIP3   OH2 8411   6.412   1.772   2.766
 2817TIP3    H1 8412   6.480   1.746   2.831
 2817TIP3    H2 8413   6.328   1.754   2.814
 2818TIP3   OH2 8414   6.650   2.205   2.687
 2818TIP3    H1 8415   6.598   2.200   2.771
 2818TIP3    H2 8416   6.624   2.292   2.651
 2819TIP3   OH2 8417   6.312   2.334   1.242
 2819TIP3    H1 8418   6.275   2.308   1.156
 2819TIP3    H2 8419   6.395   2.378   1.215
 2820TIP3   OH2 8420   6.031   1.724   1.558
 2820TIP3    H1 8421   5.994   1.721   1.648
 2820TIP3    H2 8422   5.994   1.640   1.523
 2821TIP3   OH2 8423   5.808   2.174   2.590
 2821TIP3    H1 8424   5.761   2.197   2.672
 2821TIP3    H2 8425   5.793   2.256   2.537
 2822TIP3   OH2 8426   5.694   2.060   2.104
 2822TIP3    H1 8427   5.602   2.034   2.123
 2822TIP3    H2 8428   5.707   2.019   2.016
 2823TIP3   OH2 8429   6.185   2.146   1.833
 2823TIP3    H1 8430   6.133   2.217   1.789
 2823TIP3    H2 8431   6.239   2.113   1.759
 2824TIP3   OH2 8432   6.357   2.420   2.913
 2824TIP3    H1 8433   6.338   2.350   2.979
 2824TIP3    H2 8434   6.445   2.449   2.942
 2825TIP3   OH2 8435   6.341   2.174   2.071
 2825TIP3    H1 8436   6.279   2.202   2.000
 2825TIP3    H2 8437   6.375   2.093   2.027
 2826TIP3   OH2 8438   5.627   2.203   2.799
 2826TIP3    H1 8439   5.657   2.268   2.864
 2826TIP3    H2 8440   5.619   2.122   2.853
 2827TIP3   OH2 8441   5.676   1.685   1.512
 2827TIP3    H1 8442   5.667   1.684   1.609
 2827TIP3    H2 8443   5.597   1.735   1.485
 2828TIP3   OH2 8444   5.227   1.722   2.372
 2828TIP3    H1 8445   5.293   1.759   2.435
 2828TIP3    H2 8446   5.283   1.691   2.300
 2829TIP3   OH2 8447   5.185   1.707   1.901
 2829TIP3    H1 8448   5.235   1.737   1.823
 2829TIP3    H2 8449   5.135   1.788   1.920
 2830TIP3   OH2 8450   6.351   2.420   2.493
 2830TIP3    H1 8451   6.385   2.347   2.435
 2830TIP3    H2 8452   6.322   2.368   2.570
 2831TIP3   OH2 8453   6.022   1.882   2.165
 2831TIP3    H1 8454   5.940   1.881   2.219
 2831TIP3    H2 8455   6.091   1.880   2.234
 2832TIP3   OH2 8456   5.456   1.938   2.174
 2832TIP3    H1 8457   5.362   1.944   2.145
 2832TIP3    H2 8458   5.481   1.847   2.150
 2833TIP3   OH2 8459   5.723   1.934   1.862
 2833TIP3    H1 8460   5.817   1.947   1.842
 2833TIP3    H2 8461   5.677   1.956   1.778
 2834TIP3   OH2 8462   6.515   1.956   2.368
 2834TIP3    H1 8463   6.482   1.970   2.460
 2834TIP3    H2 8464   6.447   1.898   2.332
 2835TIP3   OH2 8465   5.565   1.969   1.639
 2835TIP3    H1 8466   5.496   1.923   1.588
 2835TIP3    H2 8467   5.619   2.006   1.566
 2836TIP3   OH2 8468   6.684   3.646   2.587
 2836TIP3    H1 8469   6.681   3.671   2.493
 2836TIP3    H2 8470   6.760   3.698   2.620
 2837TIP3   OH2 8471   5.645   2.754   3.009
 2837TIP3    H1 8472   5.724   2.785   3.058
 2837TIP3    H2 8473   5.578   2.760   3.080
 2838TIP3   OH2 8474   6.103   2.210   2.263
 2838TIP3    H1 8475   6.177   2.172   2.215
 2838TIP3    H2 8476   6.111   2.168   2.351
 2839TIP3   OH2 8477   5.624   1.698   2.142
 2839TIP3    H1 8478   5.591   1.619   2.189
 2839TIP3    H2 8479   5.677   1.659   2.072
 2840TIP3   OH2 8480   6.080   2.109   2.554
 2840TIP3    H1 8481   5.991   2.146   2.567
 2840TIP3    H2 8482   6.138   2.170   2.603
 2841TIP3   OH2 8483   5.816   2.498   1.647
 2841TIP3    H1 8484   5.744   2.432   1.636
 2841TIP3    H2 8485   5.798   2.531   1.738
 2842TIP3   OH2 8486   6.716   2.732   2.278
 2842TIP3    H1 8487   6.736   2.786   2.198
 2842TIP3    H2 8488   6.631   2.689   2.253
 2843TIP3   OH2 8489   6.281   1.810   1.510
 2843TIP3    H1 8490   6.185   1.791   1.521
 2843TIP3    H2 8491   6.287   1.905   1.534
 2844TIP3   OH2 8492   6.220   2.817   2.646
 2844TIP3    H1 8493   6.248   2.795   2.736
 2844TIP3    H2 8494   6.176   2.903   2.658
 2845TIP3   OH2 8495   6.345   2.059   1.616
 2845TIP3    H1 8496   6.441   2.065   1.630
 2845TIP3    H2 8497   6.326   2.139   1.562
 2846TIP3   OH2 8498   5.506   2.516   2.323
 2846TIP3    H1 8499   5.548   2.489   2.239
 2846TIP3    H2 8500   5.553   2.460   2.388
 2847TIP3   OH2 8501   5.962   2.647   1.469
 2847TIP3    H1 8502   5.914   2.733   1.474
 2847TIP3    H2 8503   5.907   2.592   1.530
 2848TIP3   OH2 8504   5.392   2.441   2.937
 2848TIP3    H1 8505   5.416   2.431   3.032
 2848TIP3    H2 8506   5.323   2.373   2.928
 2849TIP3   OH2 8507   6.118   2.556   2.956
 2849TIP3    H1 8508   6.060   2.494   2.910
 2849TIP3    H2 8509   6.207   2.524   2.929
 2850TIP3   OH2 8510   6.376   3.080   2.539
 2850TIP3    H1 8511   6.280   3.075   2.554
 2850TIP3    H2 8512   6.405   3.125   2.621
 2851TIP3   OH2 8513   6.791   2.143   1.451
 2851TIP3    H1 8514   6.729   2.102   1.386
 2851TIP3    H2 8515   6.788   2.234   1.414
 2852TIP3   OH2 8516   7.006   3.005   2.529
 2852TIP3    H1 8517   6.908   3.000   2.520
 2852TIP3    H2 8518   7.033   2.976   2.439
 2853TIP3   OH2 8519   6.491   2.967   1.360
 2853TIP3    H1 8520   6.459   2.900   1.422
 2853TIP3    H2 8521   6.497   2.919   1.276
 2854TIP3   OH2 8522   6.484   2.596   2.194
 2854TIP3    H1 8523   6.390   2.573   2.209
 2854TIP3    H2 8524   6.516   2.515   2.149
 2855TIP3   OH2 8525   5.611   2.823   1.945
 2855TIP3    H1 8526   5.609   2.905   1.892
 2855TIP3    H2 8527   5.517   2.808   1.962
 2856TIP3   OH2 8528   5.175   2.130   1.652
 2856TIP3    H1 8529   5.221   2.214   1.673
 2856TIP3    H2 8530   5.099   2.134   1.713
 2857TIP3   OH2 8531   5.748   2.588   1.891
 2857TIP3    H1 8532   5.712   2.677   1.909
 2857TIP3    H2 8533   5.713   2.538   1.967
 2858TIP3   OH2 8534   5.880   3.167   2.417
 2858TIP3    H1 8535   5.923   3.241   2.369
 2858TIP3    H2 8536   5.954   3.131   2.468
 2859TIP3   OH2 8537   5.528   3.064   1.799
 2859TIP3    H1 8538   5.444   3.073   1.847
 2859TIP3    H2 8539   5.562   3.156   1.803
 2860TIP3   OH2 8540   6.267   2.800   2.378
 2860TIP3    H1 8541   6.255   2.801   2.476
 2860TIP3    H2 8542   6.348   2.748   2.369
 2861TIP3   OH2 8543   6.243   2.699   1.259
 2861TIP3    H1 8544   6.296   2.672   1.337
 2861TIP3    H2 8545   6.155   2.668   1.286
 2862TIP3   OH2 8546   6.517   3.332   2.426
 2862TIP3    H1 8547   6.438   3.275   2.423
 2862TIP3    H2 8548   6.498   3.396   2.354
 2863TIP3   OH2 8549   6.586   3.180   1.073
 2863TIP3    H1 8550   6.631   3.263   1.047
 2863TIP3    H2 8551   6.502   3.217   1.106
 2864TIP3   OH2 8552   5.602   1.944   2.945
 2864TIP3    H1 8553   5.506   1.949   2.960
 2864TIP3    H2 8554   5.631   1.888   3.019
 2865TIP3   OH2 8555   6.402   2.627   1.473
 2865TIP3    H1 8556   6.391   2.563   1.545
 2865TIP3    H2 8557   6.500   2.625   1.462
 2866TIP3   OH2 8558   5.316   3.028   2.578
 2866TIP3    H1 8559   5.374   2.960   2.617
 2866TIP3    H2 8560   5.333   3.102   2.637
 2867TIP3   OH2 8561   5.608   2.676   1.260
 2867TIP3    H1 8562   5.622   2.584   1.231
 2867TIP3    H2 8563   5.589   2.664   1.355
 2868TIP3   OH2 8564   5.552   2.680   1.532
 2868TIP3    H1 8565   5.626   2.653   1.589
 2868TIP3    H2 8566   5.557   2.778   1.539
 2869TIP3   OH2 8567   5.287   2.372   1.735
 2869TIP3    H1 8568   5.222   2.418   1.792
 2869TIP3    H2 8569   5.303   2.441   1.667
 2870TIP3   OH2 8570   6.442   2.007   2.626
 2870TIP3    H1 8571   6.516   2.049   2.671
 2870TIP3    H2 8572   6.425   1.927   2.680
 2871TIP3   OH2 8573   6.318   1.760   1.793
 2871TIP3    H1 8574   6.305   1.782   1.699
 2871TIP3    H2 8575   6.357   1.843   1.829
 2872TIP3   OH2 8576   5.819   2.877   1.480
 2872TIP3    H1 8577   5.733   2.902   1.517
 2872TIP3    H2 8578   5.834   2.950   1.418
 2873TIP3   OH2 8579   6.006   1.943   1.896
 2873TIP3    H1 8580   6.071   2.014   1.878
 2873TIP3    H2 8581   6.013   1.935   1.993
 2874TIP3   OH2 8582   6.277   2.259   2.700
 2874TIP3    H1 8583   6.298   2.316   2.777
 2874TIP3    H2 8584   6.331   2.180   2.719
 2875TIP3   OH2 8585   6.154   1.665   1.997
 2875TIP3    H1 8586   6.147   1.743   2.056
 2875TIP3    H2 8587   6.212   1.701   1.926
 2876TIP3   OH2 8588   5.564   2.952   1.548
 2876TIP3    H1 8589   5.533   3.022   1.486
 2876TIP3    H2 8590   5.548   2.995   1.635
 2877TIP3   OH2 8591   5.662   1.667   1.786
 2877TIP3    H1 8592   5.663   1.758   1.824
 2877TIP3    H2 8593   5.757   1.646   1.793
 2878TIP3   OH2 8594   6.914   2.161   2.675
 2878TIP3    H1 8595   6.817   2.161   2.690
 2878TIP3    H2 8596   6.917   2.115   2.590
 2879TIP3   OH2 8597   6.567   2.353   2.070
 2879TIP3    H1 8598   6.489   2.295   2.081
 2879TIP3    H2 8599   6.636   2.305   2.120
 2880TIP3   OH2 8600   5.281   2.581   1.540
 2880TIP3    H1 8601   5.348   2.651   1.549
 2880TIP3    H2 8602   5.326   2.526   1.472
 2881TIP3   OH2 8603   5.219   1.860   1.679
 2881TIP3    H1 8604   5.229   1.956   1.672
 2881TIP3    H2 8605   5.151   1.843   1.612
 2882TIP3   OH2 8606   6.536   3.310   2.019
 2882TIP3    H1 8607   6.493   3.356   1.943
 2882TIP3    H2 8608   6.630   3.329   1.998
 2883TIP3   OH2 8609   5.612   1.579   2.546
 2883TIP3    H1 8610   5.582   1.543   2.460
 2883TIP3    H2 8611   5.603   1.501   2.605
 2884TIP3   OH2 8612   5.151   2.794   1.926
 2884TIP3    H1 8613   5.082   2.825   1.985
 2884TIP3    H2 8614   5.125   2.836   1.841
 2885TIP3   OH2 8615   5.320   3.333   2.969
 2885TIP3    H1 8616   5.392   3.347   3.034
 2885TIP3    H2 8617   5.284   3.249   3.000
 2886TIP3   OH2 8618   5.795   3.306   3.038
 2886TIP3    H1 8619   5.886   3.276   3.052
 2886TIP3    H2 8620   5.766   3.244   2.968
 2887TIP3   OH2 8621   5.773   2.878   1.172
 2887TIP3    H1 8622   5.716   2.807   1.209
 2887TIP3    H2 8623   5.847   2.825   1.138
 2888TIP3   OH2 8624   6.434   3.197   2.782
 2888TIP3    H1 8625   6.422   3.135   2.857
 2888TIP3    H2 8626   6.506   3.255   2.813
 2889TIP3   OH2 8627   6.210   2.919   1.088
 2889TIP3    H1 8628   6.246   2.850   1.147
 2889TIP3    H2 8629   6.266   2.910   1.008
 2890TIP3   OH2 8630   5.441   2.746   3.199
 2890TIP3    H1 8631   5.453   2.650   3.207
 2890TIP3    H2 8632   5.352   2.751   3.158
 2891TIP3   OH2 8633   5.416   2.395   1.394
 2891TIP3    H1 8634   5.474   2.363   1.466
 2891TIP3    H2 8635   5.482   2.400   1.321
 2892TIP3   OH2 8636   6.048   2.832   2.972
 2892TIP3    H1 8637   6.005   2.847   2.886
 2892TIP3    H2 8638   6.080   2.740   2.965
 2893TIP3   OH2 8639   5.928   2.595   1.200
 2893TIP3    H1 8640   5.930   2.606   1.297
 2893TIP3    H2 8641   5.929   2.497   1.194
 2894TIP3   OH2 8642   6.539   2.837   2.577
 2894TIP3    H1 8643   6.612   2.887   2.536
 2894TIP3    H2 8644   6.466   2.900   2.568
 2895TIP3   OH2 8645   5.560   2.472   3.181
 2895TIP3    H1 8646   5.642   2.427   3.159
 2895TIP3    H2 8647   5.583   2.512   3.268
 2896TIP3   OH2 8648   5.623   2.300   1.614
 2896TIP3    H1 8649   5.598   2.258   1.698
 2896TIP3    H2 8650   5.661   2.225   1.564
 2897TIP3   OH2 8651   5.891   2.360   2.840
 2897TIP3    H1 8652   5.816   2.423   2.844
 2897TIP3    H2 8653   5.944   2.396   2.765
 2898TIP3   OH2 8654   5.725   2.094   1.455
 2898TIP3    H1 8655   5.701   2.099   1.361
 2898TIP3    H2 8656   5.823   2.095   1.449
 2899TIP3   OH2 8657   6.403   2.761   2.962
 2899TIP3    H1 8658   6.498   2.751   2.948
 2899TIP3    H2 8659   6.393   2.724   3.051
 2900TIP3   OH2 8660   6.546   2.423   1.119
 2900TIP3    H1 8661   6.524   2.378   1.036
 2900TIP3    H2 8662   6.512   2.513   1.098
 2901TIP3   OH2 8663   6.018   2.152   2.968
 2901TIP3    H1 8664   6.017   2.073   2.910
 2901TIP3    H2 8665   5.973   2.219   2.911
 2902TIP3   OH2 8666   6.020   1.937   2.775
 2902TIP3    H1 8667   6.047   1.981   2.693
 2902TIP3    H2 8668   5.926   1.916   2.757
 2903TIP3   OH2 8669   6.044   2.470   2.648
 2903TIP3    H1 8670   6.130   2.486   2.607
 2903TIP3    H2 8671   5.988   2.538   2.604
 2904TIP3   OH2 8672   6.626   2.440   3.029
 2904TIP3    H1 8673   6.681   2.362   3.044
 2904TIP3    H2 8674   6.692   2.508   3.004
 2905TIP3   OH2 8675   6.673   2.688   2.759
 2905TIP3    H1 8676   6.610   2.742   2.706
 2905TIP3    H2 8677   6.758   2.715   2.718
 2906TIP3   OH2 8678   5.891   2.263   3.197
 2906TIP3    H1 8679   5.824   2.193   3.213
 2906TIP3    H2 8680   5.927   2.236   3.111
 2907TIP3   OH2 8681   6.151   1.700   2.844
 2907TIP3    H1 8682   6.102   1.782   2.821
 2907TIP3    H2 8683   6.082   1.632   2.833
 2908TIP3   OH2 8684   6.280   2.203   3.060
 2908TIP3    H1 8685   6.267   2.196   3.156
 2908TIP3    H2 8686   6.189   2.180   3.030
 2909TIP3   OH2 8687   6.514   2.146   2.912
 2909TIP3    H1 8688   6.440   2.157   2.975
 2909TIP3    H2 8689   6.588   2.123   2.971
 2910TIP3   OH2 8690   6.753   2.096   3.062
 2910TIP3    H1 8691   6.757   2.001   3.083
 2910TIP3    H2 8692   6.742   2.137   3.151
 2911TIP3   OH2 8693   5.732   2.042   3.253
 2911TIP3    H1 8694   5.740   1.951   3.221
 2911TIP3    H2 8695   5.769   2.033   3.343
 2912TIP3   OH2 8696   6.246   1.710   3.102
 2912TIP3    H1 8697   6.312   1.639   3.094
 2912TIP3    H2 8698   6.205   1.706   3.012
 2913TIP3   OH2 8699   6.311   1.926   3.262
 2913TIP3    H1 8700   6.290   1.856   3.196
 2913TIP3    H2 8701   6.233   1.985   3.255
 2914TIP3   OH2 8702   5.532   3.155   1.361
 2914TIP3    H1 8703   5.627   3.149   1.341
 2914TIP3    H2 8704   5.503   3.205   1.282
 2915TIP3   OH2 8705   5.012   2.537   1.576
 2915TIP3    H1 8706   5.107   2.559   1.561
 2915TIP3    H2 8707   5.007   2.448   1.536
 2916TIP3   OH2 8708   4.921   3.149   1.996
 2916TIP3    H1 8709   4.860   3.084   1.955
 2916TIP3    H2 8710   4.971   3.091   2.059
 2917TIP3   OH2 8711   5.061   2.999   2.179
 2917TIP3    H1 8712   5.057   2.926   2.243
 2917TIP3    H2 8713   5.115   3.062   2.231
 2918TIP3   OH2 8714   6.790   3.397   1.979
 2918TIP3    H1 8715   6.812   3.431   2.067
 2918TIP3    H2 8716   6.852   3.446   1.922
 2919TIP3   OH2 8717   6.820   3.419   2.257
 2919TIP3    H1 8718   6.773   3.333   2.255
 2919TIP3    H2 8719   6.891   3.398   2.319
 2920TIP3   OH2 8720   6.866   3.096   2.831
 2920TIP3    H1 8721   6.793   3.104   2.897
 2920TIP3    H2 8722   6.906   3.185   2.836
 2921TIP3   OH2 8723   6.681   2.613   1.452
 2921TIP3    H1 8724   6.749   2.677   1.425
 2921TIP3    H2 8725   6.723   2.573   1.532
 2922TIP3   OH2 8726   6.804   2.481   1.656
 2922TIP3    H1 8727   6.738   2.436   1.715
 2922TIP3    H2 8728   6.865   2.522   1.720
 2923TIP3   OH2 8729   6.862   2.880   2.094
 2923TIP3    H1 8730   6.906   2.805   2.048
 2923TIP3    H2 8731   6.852   2.946   2.024
 2924TIP3   OH2 8732   6.694   3.172   2.281
 2924TIP3    H1 8733   6.624   3.213   2.334
 2924TIP3    H2 8734   6.643   3.125   2.212
 2925TIP3   OH2 8735   6.743   2.385   1.306
 2925TIP3    H1 8736   6.672   2.387   1.238
 2925TIP3    H2 8737   6.715   2.462   1.360
 2926TIP3   OH2 8738   6.624   2.062   1.250
 2926TIP3    H1 8739   6.569   2.095   1.178
 2926TIP3    H2 8740   6.594   1.969   1.253
 2927TIP3   OH2 8741   6.624   2.335   1.801
 2927TIP3    H1 8742   6.630   2.238   1.793
 2927TIP3    H2 8743   6.609   2.347   1.898
 2928TIP3   OH2 8744   5.249   2.410   2.548
 2928TIP3    H1 8745   5.249   2.378   2.455
 2928TIP3    H2 8746   5.346   2.411   2.566
 2929TIP3   OH2 8747   6.916   2.760   2.656
 2929TIP3    H1 8748   6.989   2.695   2.644
 2929TIP3    H2 8749   6.941   2.831   2.595
 2930TIP3   OH2 8750   7.109   2.564   2.670
 2930TIP3    H1 8751   7.030   2.520   2.709
 2930TIP3    H2 8752   7.177   2.496   2.686
 2931TIP3   OH2 8753   6.550   1.802   1.255
 2931TIP3    H1 8754   6.624   1.768   1.308
 2931TIP3    H2 8755   6.480   1.736   1.268
 2932TIP3   OH2 8756   6.622   2.052   1.695
 2932TIP3    H1 8757   6.659   1.962   1.710
 2932TIP3    H2 8758   6.681   2.083   1.624
 2933TIP3   OH2 8759   6.774   2.221   2.195
 2933TIP3    H1 8760   6.854   2.255   2.150
 2933TIP3    H2 8761   6.789   2.259   2.284
 2934TIP3   OH2 8762   6.846   2.371   2.422
 2934TIP3    H1 8763   6.770   2.405   2.473
 2934TIP3    H2 8764   6.879   2.454   2.380
 2935TIP3   OH2 8765   5.465   2.091   3.217
 2935TIP3    H1 8766   5.563   2.089   3.223
 2935TIP3    H2 8767   5.443   2.007   3.262
 2936TIP3   OH2 8768   7.286   1.975   2.971
 2936TIP3    H1 8769   7.328   1.910   2.914
 2936TIP3    H2 8770   7.246   2.035   2.903
 2937TIP3   OH2 8771   6.725   1.801   1.736
 2937TIP3    H1 8772   6.767   1.794   1.824
 2937TIP3    H2 8773   6.665   1.724   1.737
 2938TIP3   OH2 8774   5.426   1.787   2.552
 2938TIP3    H1 8775   5.488   1.712   2.562
 2938TIP3    H2 8776   5.488   1.861   2.546
 2939TIP3   OH2 8777   5.230   2.059   2.625
 2939TIP3    H1 8778   5.282   2.059   2.542
 2939TIP3    H2 8779   5.258   2.142   2.665
 2940TIP3   OH2 8780   7.167   2.112   2.773
 2940TIP3    H1 8781   7.084   2.157   2.800
 2940TIP3    H2 8782   7.128   2.042   2.718
 2941TIP3   OH2 8783   6.805   1.755   1.381
 2941TIP3    H1 8784   6.827   1.682   1.321
 2941TIP3    H2 8785   6.878   1.818   1.364
 2942TIP3   OH2 8786   5.213   1.553   2.120
 2942TIP3    H1 8787   5.129   1.568   2.166
 2942TIP3    H2 8788   5.208   1.617   2.045
 2943TIP3   OH2 8789   6.376   3.266   1.632
 2943TIP3    H1 8790   6.429   3.257   1.551
 2943TIP3    H2 8791   6.424   3.334   1.682
 2944TIP3   OH2 8792   5.435   1.642   2.941
 2944TIP3    H1 8793   5.385   1.639   3.024
 2944TIP3    H2 8794   5.368   1.681   2.881
 2945TIP3   OH2 8795   5.481   3.055   3.018
 2945TIP3    H1 8796   5.385   3.046   3.000
 2945TIP3    H2 8797   5.482   3.058   3.114
 2946TIP3   OH2 8798   5.652   3.101   2.563
 2946TIP3    H1 8799   5.605   3.179   2.527
 2946TIP3    H2 8800   5.739   3.117   2.520
 2947TIP3   OH2 8801   6.099   3.347   2.706
 2947TIP3    H1 8802   6.140   3.347   2.796
 2947TIP3    H2 8803   6.165   3.400   2.656
 2948TIP3   OH2 8804   6.277   3.501   2.563
 2948TIP3    H1 8805   6.349   3.449   2.526
 2948TIP3    H2 8806   6.327   3.559   2.626
 2949TIP3   OH2 8807   7.030   1.868   2.688
 2949TIP3    H1 8808   6.940   1.855   2.655
 2949TIP3    H2 8809   7.068   1.777   2.676
 2950TIP3   OH2 8810   5.330   3.359   2.591
 2950TIP3    H1 8811   5.240   3.394   2.573
 2950TIP3    H2 8812   5.346   3.396   2.679
 2951TIP3   OH2 8813   5.565   3.339   2.449
 2951TIP3    H1 8814   5.479   3.352   2.495
 2951TIP3    H2 8815   5.545   3.373   2.360
 2952TIP3   OH2 8816   5.993   3.369   2.244
 2952TIP3    H1 8817   5.921   3.389   2.182
 2952TIP3    H2 8818   6.003   3.456   2.289
 2953TIP3   OH2 8819   6.261   3.306   2.295
 2953TIP3    H1 8820   6.166   3.324   2.277
 2953TIP3    H2 8821   6.302   3.386   2.258
 2954TIP3   OH2 8822   6.470   3.500   2.213
 2954TIP3    H1 8823   6.454   3.584   2.164
 2954TIP3    H2 8824   6.493   3.438   2.140
 2955TIP3   OH2 8825   5.239   3.153   2.335
 2955TIP3    H1 8826   5.267   3.130   2.426
 2955TIP3    H2 8827   5.312   3.109   2.285
 2956TIP3   OH2 8828   5.435   3.026   2.192
 2956TIP3    H1 8829   5.450   2.942   2.241
 2956TIP3    H2 8830   5.526   3.062   2.189
 2957TIP3   OH2 8831   5.701   3.119   2.196
 2957TIP3    H1 8832   5.733   3.027   2.188
 2957TIP3    H2 8833   5.746   3.143   2.280
 2958TIP3   OH2 8834   6.275   1.777   2.281
 2958TIP3    H1 8835   6.233   1.707   2.334
 2958TIP3    H2 8836   6.350   1.730   2.239
 2959TIP3   OH2 8837   6.799   1.654   2.192
 2959TIP3    H1 8838   6.833   1.714   2.121
 2959TIP3    H2 8839   6.703   1.671   2.186
 2960TIP3   OH2 8840   6.873   1.788   1.968
 2960TIP3    H1 8841   6.942   1.734   1.922
 2960TIP3    H2 8842   6.911   1.878   1.954
 2961TIP3   OH2 8843   5.523   1.485   2.298
 2961TIP3    H1 8844   5.432   1.450   2.303
 2961TIP3    H2 8845   5.574   1.401   2.294
 2962TIP3   OH2 8846   5.291   1.355   1.942
 2962TIP3    H1 8847   5.336   1.405   1.872
 2962TIP3    H2 8848   5.279   1.423   2.011
 2963TIP3   OH2 8849   5.969   1.518   2.181
 2963TIP3    H1 8850   6.024   1.567   2.118
 2963TIP3    H2 8851   5.994   1.559   2.265
 2964TIP3   OH2 8852   6.516   1.664   2.163
 2964TIP3    H1 8853   6.517   1.627   2.075
 2964TIP3    H2 8854   6.500   1.584   2.219
 2965TIP3   OH2 8855   6.541   1.589   1.731
 2965TIP3    H1 8856   6.453   1.632   1.741
 2965TIP3    H2 8857   6.525   1.503   1.775
 2966TIP3   OH2 8858   5.027   2.929   1.728
 2966TIP3    H1 8859   4.943   2.895   1.693
 2966TIP3    H2 8860   5.019   3.023   1.703
 2967TIP3   OH2 8861   5.430   1.515   1.707
 2967TIP3    H1 8862   5.475   1.449   1.651
 2967TIP3    H2 8863   5.505   1.566   1.742
 2968TIP3   OH2 8864   5.937   1.693   1.815
 2968TIP3    H1 8865   6.000   1.641   1.867
 2968TIP3    H2 8866   5.963   1.784   1.842
 2969TIP3   OH2 8867   5.800   3.114   1.308
 2969TIP3    H1 8868   5.889   3.137   1.274
 2969TIP3    H2 8869   5.778   3.039   1.248
 2970TIP3   OH2 8870   6.524   3.235   1.398
 2970TIP3    H1 8871   6.514   3.136   1.390
 2970TIP3    H2 8872   6.472   3.264   1.321
 2971TIP3   OH2 8873   5.733   1.765   3.187
 2971TIP3    H1 8874   5.696   1.696   3.245
 2971TIP3    H2 8875   5.827   1.765   3.217
 2972TIP3   OH2 8876   5.981   1.763   3.308
 2972TIP3    H1 8877   6.067   1.740   3.270
 2972TIP3    H2 8878   5.970   1.693   3.375
 2973TIP3   OH2 8879   5.105   2.950   1.364
 2973TIP3    H1 8880   5.109   2.976   1.457
 2973TIP3    H2 8881   5.193   2.908   1.349
 2974TIP3   OH2 8882   6.801   1.823   3.100
 2974TIP3    H1 8883   6.820   1.795   3.192
 2974TIP3    H2 8884   6.890   1.819   3.059
 2975TIP3   OH2 8885   6.749   3.378   2.583
 2975TIP3    H1 8886   6.668   3.345   2.539
 2975TIP3    H2 8887   6.726   3.473   2.594
 2976TIP3   OH2 8888   7.291   2.682   2.049
 2976TIP3    H1 8889   7.318   2.597   2.086
 2976TIP3    H2 8890   7.353   2.741   2.092
 2977TIP3   OH2 8891   7.295   3.048   1.823
 2977TIP3    H1 8892   7.244   2.978   1.865
 2977TIP3    H2 8893   7.339   3.090   1.899
 2978TIP3   OH2 8894   6.999   2.278   1.609
 2978TIP3    H1 8895   6.933   2.349   1.618
 2978TIP3    H2 8896   6.943   2.205   1.579
 2979TIP3   OH2 8897   7.042   2.564   1.772
 2979TIP3    H1 8898   7.077   2.478   1.805
 2979TIP3    H2 8899   7.097   2.576   1.694
 2980TIP3   OH2 8900   7.156   2.335   1.853
 2980TIP3    H1 8901   7.243   2.318   1.892
 2980TIP3    H2 8902   7.138   2.255   1.801
 2981TIP3   OH2 8903   6.886   2.784   1.348
 2981TIP3    H1 8904   6.838   2.812   1.268
 2981TIP3    H2 8905   6.913   2.870   1.386
 2982TIP3   OH2 8906   7.404   2.830   2.335
 2982TIP3    H1 8907   7.429   2.904   2.393
 2982TIP3    H2 8908   7.324   2.797   2.381
 2983TIP3   OH2 8909   7.483   3.387   2.354
 2983TIP3    H1 8910   7.461   3.367   2.261
 2983TIP3    H2 8911   7.401   3.362   2.401
 2984TIP3   OH2 8912   7.074   2.910   2.281
 2984TIP3    H1 8913   6.998   2.892   2.222
 2984TIP3    H2 8914   7.104   2.821   2.306
 2985TIP3   OH2 8915   6.923   3.109   1.914
 2985TIP3    H1 8916   7.018   3.120   1.922
 2985TIP3    H2 8917   6.891   3.180   1.971
 2986TIP3   OH2 8918   7.066   3.316   1.462
 2986TIP3    H1 8919   7.114   3.306   1.546
 2986TIP3    H2 8920   7.010   3.236   1.465
 2987TIP3   OH2 8921   7.272   3.101   2.259
 2987TIP3    H1 8922   7.316   3.098   2.345
 2987TIP3    H2 8923   7.205   3.030   2.269
 2988TIP3   OH2 8924   7.017   2.000   1.875
 2988TIP3    H1 8925   7.108   2.019   1.903
 2988TIP3    H2 8926   7.028   1.955   1.788
 2989TIP3   OH2 8927   7.000   1.961   1.384
 2989TIP3    H1 8928   7.034   2.003   1.303
 2989TIP3    H2 8929   6.937   2.031   1.411
 2990TIP3   OH2 8930   7.419   3.044   2.506
 2990TIP3    H1 8931   7.504   3.024   2.550
 2990TIP3    H2 8932   7.358   3.038   2.582
 2991TIP3   OH2 8933   7.183   2.697   2.427
 2991TIP3    H1 8934   7.199   2.670   2.519
 2991TIP3    H2 8935   7.116   2.632   2.399
 2992TIP3   OH2 8936   6.955   2.389   1.136
 2992TIP3    H1 8937   7.003   2.472   1.159
 2992TIP3    H2 8938   6.882   2.392   1.202
 2993TIP3   OH2 8939   7.300   3.364   1.331
 2993TIP3    H1 8940   7.209   3.349   1.365
 2993TIP3    H2 8941   7.312   3.458   1.347
 2994TIP3   OH2 8942   7.127   3.276   2.064
 2994TIP3    H1 8943   7.174   3.217   2.126
 2994TIP3    H2 8944   7.135   3.361   2.109
 2995TIP3   OH2 8945   7.074   2.626   1.219
 2995TIP3    H1 8946   7.009   2.681   1.268
 2995TIP3    H2 8947   7.116   2.692   1.161
 2996TIP3   OH2 8948   7.064   2.886   1.034
 2996TIP3    H1 8949   7.129   2.947   1.074
 2996TIP3    H2 8950   7.123   2.835   0.977
 2997TIP3   OH2 8951   7.001   2.123   1.170
 2997TIP3    H1 8952   7.003   2.220   1.167
 2997TIP3    H2 8953   6.917   2.101   1.129
 2998TIP3   OH2 8954   6.938   3.048   1.417
 2998TIP3    H1 8955   6.861   3.077   1.467
 2998TIP3    H2 8956   6.921   3.088   1.330
 2999TIP3   OH2 8957   7.104   3.593   2.486
 2999TIP3    H1 8958   7.192   3.582   2.527
 2999TIP3    H2 8959   7.075   3.501   2.482
 3000TIP3   OH2 8960   7.227   3.005   2.696
 3000TIP3    H1 8961   7.235   2.912   2.721
 3000TIP3    H2 8962   7.140   3.006   2.650
 3001TIP3   OH2 8963   7.383   2.726   2.663
 3001TIP3    H1 8964   7.390   2.632   2.684
 3001TIP3    H2 8965   7.383   2.765   2.753
 3002TIP3   OH2 8966   6.803   2.798   1.066
 3002TIP3    H1 8967   6.896   2.825   1.051
 3002TIP3    H2 8968   6.800   2.707   1.031
 3003TIP3   OH2 8969   6.726   3.405   1.475
 3003TIP3    H1 8970   6.656   3.345   1.441
 3003TIP3    H2 8971   6.768   3.348   1.543
 3004TIP3   OH2 8972   6.855   3.255   1.667
 3004TIP3    H1 8973   6.842   3.183   1.731
 3004TIP3    H2 8974   6.903   3.318   1.723
 3005TIP3   OH2 8975   7.020   2.669   2.023
 3005TIP3    H1 8976   7.014   2.633   1.933
 3005TIP3    H2 8977   7.118   2.677   2.031
 3006TIP3   OH2 8978   7.290   2.358   2.712
 3006TIP3    H1 8979   7.382   2.353   2.744
 3006TIP3    H2 8980   7.253   2.274   2.743
 3007TIP3   OH2 8981   7.006   2.326   2.096
 3007TIP3    H1 8982   7.049   2.320   2.008
 3007TIP3    H2 8983   7.073   2.377   2.144
 3008TIP3   OH2 8984   6.991   1.862   1.636
 3008TIP3    H1 8985   6.905   1.820   1.656
 3008TIP3    H2 8986   6.980   1.888   1.543
 3009TIP3   OH2 8987   7.189   1.940   2.479
 3009TIP3    H1 8988   7.127   1.912   2.549
 3009TIP3    H2 8989   7.125   1.967   2.409
 3010TIP3   OH2 8990   7.265   3.332   2.515
 3010TIP3    H1 8991   7.173   3.305   2.496
 3010TIP3    H2 8992   7.275   3.302   2.607
 3011TIP3   OH2 8993   7.459   3.347   2.062
 3011TIP3    H1 8994   7.401   3.411   2.015
 3011TIP3    H2 8995   7.544   3.377   2.027
 3012TIP3   OH2 8996   7.119   3.611   2.086
 3012TIP3    H1 8997   7.033   3.649   2.059
 3012TIP3    H2 8998   7.135   3.662   2.167
 3013TIP3   OH2 8999   7.330   3.540   1.913
 3013TIP3    H1 9000   7.261   3.581   1.969
 3013TIP3    H2 9001   7.347   3.612   1.849
 3014TIP3   OH2 9002   7.027   3.418   1.826
 3014TIP3    H1 9003   7.059   3.397   1.915
 3014TIP3    H2 9004   7.098   3.374   1.774
 3015TIP3   OH2 9005   7.219   3.287   1.686
 3015TIP3    H1 9006   7.245   3.198   1.716
 3015TIP3    H2 9007   7.299   3.339   1.703
 3016TIP3   OH2 9008   6.827   3.180   1.210
 3016TIP3    H1 9009   6.743   3.145   1.175
 3016TIP3    H2 9010   6.808   3.274   1.213
 3017TIP3   OH2 9011   6.916   3.217   0.862
 3017TIP3    H1 9012   6.875   3.252   0.941
 3017TIP3    H2 9013   6.968   3.143   0.896
 3018TIP3   OH2 9014   0.466   3.539   3.043
 3018TIP3    H1 9015   0.436   3.630   3.023
 3018TIP3    H2 9016   0.389   3.488   3.011
 3019TIP3   OH2 9017   0.468   3.537   3.423
 3019TIP3    H1 9018   0.496   3.511   3.512
 3019TIP3    H2 9019   0.420   3.458   3.393
 3020TIP3   OH2 9020  -0.200   3.441   3.725
 3020TIP3    H1 9021  -0.221   3.390   3.805
 3020TIP3    H2 9022  -0.127   3.496   3.755
 3021TIP3   OH2 9023   0.710   3.840   3.107
 3021TIP3    H1 9024   0.690   3.772   3.172
 3021TIP3    H2 9025   0.736   3.915   3.163
 3022TIP3   OH2 9026  -0.195   3.820   3.601
 3022TIP3    H1 9027  -0.211   3.726   3.579
 3022TIP3    H2 9028  -0.116   3.840   3.547
 3023TIP3   OH2 9029   0.359   4.304   3.123
 3023TIP3    H1 9030   0.403   4.230   3.077
 3023TIP3    H2 9031   0.343   4.267   3.210
 3024TIP3   OH2 9032   0.263   3.768   3.472
 3024TIP3    H1 9033   0.300   3.691   3.426
 3024TIP3    H2 9034   0.347   3.811   3.498
 3025TIP3   OH2 9035   1.277   3.083   3.475
 3025TIP3    H1 9036   1.306   3.166   3.519
 3025TIP3    H2 9037   1.282   3.108   3.382
 3026TIP3   OH2 9038   0.677   3.261   3.507
 3026TIP3    H1 9039   0.719   3.174   3.519
 3026TIP3    H2 9040   0.642   3.252   3.417
 3027TIP3   OH2 9041   0.026   2.920   3.466
 3027TIP3    H1 9042  -0.004   2.992   3.406
 3027TIP3    H2 9043  -0.018   2.843   3.425
 3028TIP3   OH2 9044   0.708   3.017   3.094
 3028TIP3    H1 9045   0.781   3.000   3.158
 3028TIP3    H2 9046   0.760   3.051   3.019
 3029TIP3   OH2 9047  -0.328   3.136   3.588
 3029TIP3    H1 9048  -0.240   3.101   3.611
 3029TIP3    H2 9049  -0.374   3.056   3.560
 3030TIP3   OH2 9050   0.091   3.326   3.351
 3030TIP3    H1 9051   0.181   3.298   3.376
 3030TIP3    H2 9052   0.048   3.240   3.329
 3031TIP3   OH2 9053   1.347   3.290   3.647
 3031TIP3    H1 9054   1.265   3.341   3.626
 3031TIP3    H2 9055   1.377   3.336   3.727
 3032TIP3   OH2 9056   0.019   2.902   3.905
 3032TIP3    H1 9057  -0.042   2.943   3.840
 3032TIP3    H2 9058  -0.030   2.917   3.988
 3033TIP3   OH2 9059   0.359   3.761   2.912
 3033TIP3    H1 9060   0.311   3.738   2.831
 3033TIP3    H2 9061   0.313   3.844   2.938
 3034TIP3   OH2 9062   0.118   3.684   3.705
 3034TIP3    H1 9063   0.059   3.740   3.760
 3034TIP3    H2 9064   0.152   3.746   3.638
 3035TIP3   OH2 9065   0.918   3.018   3.265
 3035TIP3    H1 9066   0.899   2.973   3.348
 3035TIP3    H2 9067   0.968   3.097   3.296
 3036TIP3   OH2 9068  -0.101   3.019   3.688
 3036TIP3    H1 9069  -0.039   3.092   3.709
 3036TIP3    H2 9070  -0.054   2.976   3.613
 3037TIP3   OH2 9071  -0.066   3.829   3.863
 3037TIP3    H1 9072  -0.078   3.907   3.804
 3037TIP3    H2 9073  -0.158   3.800   3.872
 3038TIP3   OH2 9074   0.776   4.081   3.272
 3038TIP3    H1 9075   0.688   4.070   3.316
 3038TIP3    H2 9076   0.763   4.168   3.230
 3039TIP3   OH2 9077   1.070   2.976   3.638
 3039TIP3    H1 9078   0.983   3.008   3.607
 3039TIP3    H2 9079   1.129   3.012   3.569
 3040TIP3   OH2 9080   0.377   2.623   3.633
 3040TIP3    H1 9081   0.351   2.529   3.641
 3040TIP3    H2 9082   0.297   2.665   3.672
 3041TIP3   OH2 9083   0.482   4.129   2.951
 3041TIP3    H1 9084   0.530   4.046   2.930
 3041TIP3    H2 9085   0.543   4.194   2.908
 3042TIP3   OH2 9086   0.624   3.915   2.856
 3042TIP3    H1 9087   0.580   3.837   2.819
 3042TIP3    H2 9088   0.660   3.879   2.940
 3043TIP3   OH2 9089   1.004   3.996   3.618
 3043TIP3    H1 9090   0.992   3.918   3.559
 3043TIP3    H2 9091   0.986   4.071   3.558
 3044TIP3   OH2 9092   0.298   3.389   2.877
 3044TIP3    H1 9093   0.216   3.440   2.859
 3044TIP3    H2 9094   0.339   3.386   2.789
 3045TIP3   OH2 9095   0.254   3.174   2.591
 3045TIP3    H1 9096   0.320   3.227   2.638
 3045TIP3    H2 9097   0.312   3.112   2.543
 3046TIP3   OH2 9098   1.198   3.629   3.461
 3046TIP3    H1 9099   1.116   3.683   3.467
 3046TIP3    H2 9100   1.230   3.658   3.372
 3047TIP3   OH2 9101   0.644   3.473   2.846
 3047TIP3    H1 9102   0.588   3.496   2.924
 3047TIP3    H2 9103   0.727   3.449   2.891
 3048TIP3   OH2 9104   0.877   3.509   3.762
 3048TIP3    H1 9105   0.876   3.593   3.811
 3048TIP3    H2 9106   0.791   3.514   3.716
 3049TIP3   OH2 9107  -0.122   3.468   3.259
 3049TIP3    H1 9108  -0.160   3.409   3.191
 3049TIP3    H2 9109  -0.044   3.417   3.288
 3050TIP3   OH2 9110   0.002   3.857   3.412
 3050TIP3    H1 9111  -0.006   3.838   3.318
 3050TIP3    H2 9112   0.096   3.836   3.429
 3051TIP3   OH2 9113   0.074   3.431   3.610
 3051TIP3    H1 9114   0.072   3.422   3.513
 3051TIP3    H2 9115   0.089   3.527   3.625
 3052TIP3   OH2 9116   0.539   4.077   3.396
 3052TIP3    H1 9117   0.524   4.159   3.447
 3052TIP3    H2 9118   0.520   4.006   3.461
 3053TIP3   OH2 9119   0.154   3.992   3.943
 3053TIP3    H1 9120   0.104   4.063   3.985
 3053TIP3    H2 9121   0.082   3.934   3.911
 3054TIP3   OH2 9122   0.485   3.328   2.672
 3054TIP3    H1 9123   0.542   3.391   2.723
 3054TIP3    H2 9124   0.511   3.351   2.580
 3055TIP3   OH2 9125  -0.078   3.552   4.043
 3055TIP3    H1 9126  -0.092   3.643   4.070
 3055TIP3    H2 9127  -0.168   3.523   4.020
 3056TIP3   OH2 9128   0.228   4.007   2.952
 3056TIP3    H1 9129   0.305   4.064   2.968
 3056TIP3    H2 9130   0.166   4.067   2.908
 3057TIP3   OH2 9131   0.998   2.570   2.722
 3057TIP3    H1 9132   0.916   2.590   2.771
 3057TIP3    H2 9133   1.013   2.654   2.674
 3058TIP3   OH2 9134  -0.243   3.313   3.056
 3058TIP3    H1 9135  -0.305   3.374   3.015
 3058TIP3    H2 9136  -0.304   3.258   3.106
 3059TIP3   OH2 9137   0.799   3.938   2.272
 3059TIP3    H1 9138   0.807   4.034   2.254
 3059TIP3    H2 9139   0.891   3.908   2.259
 3060TIP3   OH2 9140   1.244   4.343   3.669
 3060TIP3    H1 9141   1.240   4.246   3.681
 3060TIP3    H2 9142   1.159   4.369   3.711
 3061TIP3   OH2 9143   0.348   4.122   3.794
 3061TIP3    H1 9144   0.349   4.215   3.828
 3061TIP3    H2 9145   0.278   4.083   3.851
 3062TIP3   OH2 9146   0.113   4.260   2.748
 3062TIP3    H1 9147   0.047   4.242   2.680
 3062TIP3    H2 9148   0.084   4.346   2.784
 3063TIP3   OH2 9149   0.311   4.187   2.384
 3063TIP3    H1 9150   0.358   4.113   2.337
 3063TIP3    H2 9151   0.348   4.175   2.474
 3064TIP3   OH2 9152   0.360   4.206   2.655
 3064TIP3    H1 9153   0.271   4.214   2.698
 3064TIP3    H2 9154   0.409   4.161   2.725
 3065TIP3   OH2 9155   1.132   3.467   3.942
 3065TIP3    H1 9156   1.051   3.487   3.894
 3065TIP3    H2 9157   1.142   3.371   3.926
 3066TIP3   OH2 9158   0.132   2.702   3.745
 3066TIP3    H1 9159   0.044   2.668   3.718
 3066TIP3    H2 9160   0.102   2.782   3.793
 3067TIP3   OH2 9161   0.893   3.246   3.860
 3067TIP3    H1 9162   0.847   3.247   3.947
 3067TIP3    H2 9163   0.877   3.337   3.827
 3068TIP3   OH2 9164   0.562   3.375   2.418
 3068TIP3    H1 9165   0.525   3.352   2.331
 3068TIP3    H2 9166   0.642   3.424   2.391
 3069TIP3   OH2 9167   0.273   2.749   2.716
 3069TIP3    H1 9168   0.236   2.743   2.806
 3069TIP3    H2 9169   0.232   2.671   2.675
 3070TIP3   OH2 9170   0.074   3.213   3.765
 3070TIP3    H1 9171   0.016   3.233   3.842
 3070TIP3    H2 9172   0.066   3.296   3.711
 3071TIP3   OH2 9173  -0.057   3.101   3.282
 3071TIP3    H1 9174  -0.149   3.074   3.296
 3071TIP3    H2 9175  -0.044   3.066   3.190
 3072TIP3   OH2 9176   0.435   3.191   3.011
 3072TIP3    H1 9177   0.382   3.262   2.968
 3072TIP3    H2 9178   0.487   3.158   2.935
 3073TIP3   OH2 9179   0.606   3.466   4.091
 3073TIP3    H1 9180   0.584   3.398   4.158
 3073TIP3    H2 9181   0.697   3.488   4.118
 3074TIP3   OH2 9182   0.591   3.220   3.248
 3074TIP3    H1 9183   0.529   3.250   3.179
 3074TIP3    H2 9184   0.624   3.139   3.203
 3075TIP3   OH2 9185  -0.103   3.226   3.973
 3075TIP3    H1 9186  -0.106   3.307   4.027
 3075TIP3    H2 9187  -0.124   3.157   4.038
 3076TIP3   OH2 9188  -0.059   2.722   2.694
 3076TIP3    H1 9189  -0.083   2.718   2.789
 3076TIP3    H2 9190  -0.135   2.770   2.655
 3077TIP3   OH2 9191   0.603   3.464   3.669
 3077TIP3    H1 9192   0.636   3.392   3.611
 3077TIP3    H2 9193   0.572   3.412   3.746
 3078TIP3   OH2 9194   0.275   2.923   3.343
 3078TIP3    H1 9195   0.187   2.922   3.386
 3078TIP3    H2 9196   0.333   2.931   3.420
 3079TIP3   OH2 9197  -0.281   2.935   3.329
 3079TIP3    H1 9198  -0.357   2.881   3.306
 3079TIP3    H2 9199  -0.213   2.865   3.339
 3080TIP3   OH2 9200  -0.026   2.980   3.038
 3080TIP3    H1 9201   0.066   2.995   3.010
 3080TIP3    H2 9202  -0.078   3.003   2.957
 3081TIP3   OH2 9203   0.764   2.998   3.540
 3081TIP3    H1 9204   0.739   3.001   3.634
 3081TIP3    H2 9205   0.695   2.939   3.505
 3082TIP3   OH2 9206  -0.187   3.009   2.818
 3082TIP3    H1 9207  -0.256   2.960   2.772
 3082TIP3    H2 9208  -0.136   3.047   2.743
 3083TIP3   OH2 9209   0.933   4.691   3.763
 3083TIP3    H1 9210   0.932   4.716   3.669
 3083TIP3    H2 9211   1.010   4.740   3.796
 3084TIP3   OH2 9212   0.350   3.255   3.441
 3084TIP3    H1 9213   0.424   3.214   3.393
 3084TIP3    H2 9214   0.357   3.215   3.529
 3085TIP3   OH2 9215  -0.104   2.726   3.321
 3085TIP3    H1 9216  -0.151   2.654   3.369
 3085TIP3    H2 9217  -0.081   2.683   3.238
 3086TIP3   OH2 9218   0.337   3.152   3.730
 3086TIP3    H1 9219   0.243   3.182   3.738
 3086TIP3    H2 9220   0.384   3.221   3.781
 3087TIP3   OH2 9221   0.072   3.539   2.827
 3087TIP3    H1 9222  -0.001   3.474   2.813
 3087TIP3    H2 9223   0.050   3.574   2.917
 3088TIP3   OH2 9224   0.967   3.777   3.453
 3088TIP3    H1 9225   0.990   3.829   3.373
 3088TIP3    H2 9226   0.881   3.736   3.428
 3089TIP3   OH2 9227   0.523   2.854   2.687
 3089TIP3    H1 9228   0.427   2.834   2.695
 3089TIP3    H2 9229   0.530   2.948   2.712
 3090TIP3   OH2 9230   0.469   3.862   3.822
 3090TIP3    H1 9231   0.486   3.838   3.914
 3090TIP3    H2 9232   0.428   3.950   3.830
 3091TIP3   OH2 9233   0.592   3.102   2.792
 3091TIP3    H1 9234   0.689   3.110   2.807
 3091TIP3    H2 9235   0.572   3.183   2.740
 3092TIP3   OH2 9236  -0.241   3.567   3.489
 3092TIP3    H1 9237  -0.191   3.523   3.417
 3092TIP3    H2 9238  -0.231   3.503   3.564
 3093TIP3   OH2 9239   0.212   3.689   2.647
 3093TIP3    H1 9240   0.168   3.776   2.654
 3093TIP3    H2 9241   0.156   3.634   2.706
 3094TIP3   OH2 9242   0.364   3.601   4.132
 3094TIP3    H1 9243   0.299   3.537   4.097
 3094TIP3    H2 9244   0.448   3.564   4.098
 3095TIP3   OH2 9245   0.625   4.120   3.715
 3095TIP3    H1 9246   0.529   4.118   3.730
 3095TIP3    H2 9247   0.655   4.171   3.794
 3096TIP3   OH2 9248   1.039   3.193   2.625
 3096TIP3    H1 9249   0.976   3.149   2.563
 3096TIP3    H2 9250   1.033   3.283   2.586
 3097TIP3   OH2 9251   1.255   4.048   3.709
 3097TIP3    H1 9252   1.157   4.046   3.700
 3097TIP3    H2 9253   1.280   4.020   3.618
 3098TIP3   OH2 9254   0.738   4.010   2.537
 3098TIP3    H1 9255   0.708   3.939   2.595
 3098TIP3    H2 9256   0.749   3.965   2.451
 3099TIP3   OH2 9257   0.732   3.640   3.372
 3099TIP3    H1 9258   0.638   3.617   3.386
 3099TIP3    H2 9259   0.764   3.561   3.326
 3100TIP3   OH2 9260  -0.142   3.866   3.121
 3100TIP3    H1 9261  -0.145   3.950   3.071
 3100TIP3    H2 9262  -0.235   3.841   3.121
 3101TIP3   OH2 9263   0.000   3.633   3.069
 3101TIP3    H1 9264  -0.037   3.721   3.087
 3101TIP3    H2 9265  -0.036   3.581   3.143
 3102TIP3   OH2 9266   0.133   4.212   3.595
 3102TIP3    H1 9267   0.169   4.285   3.540
 3102TIP3    H2 9268   0.212   4.185   3.644
 3103TIP3   OH2 9269  -0.227   4.105   2.987
 3103TIP3    H1 9270  -0.317   4.137   2.971
 3103TIP3    H2 9271  -0.179   4.191   2.991
 3104TIP3   OH2 9272   0.516   3.843   3.554
 3104TIP3    H1 9273   0.506   3.845   3.652
 3104TIP3    H2 9274   0.597   3.792   3.544
 3105TIP3   OH2 9275   0.489   3.743   2.436
 3105TIP3    H1 9276   0.543   3.716   2.514
 3105TIP3    H2 9277   0.402   3.711   2.463
 3106TIP3   OH2 9278   0.766   4.377   3.603
 3106TIP3    H1 9279   0.685   4.322   3.596
 3106TIP3    H2 9280   0.750   4.443   3.532
 3107TIP3   OH2 9281   0.830   4.213   2.255
 3107TIP3    H1 9282   0.869   4.282   2.199
 3107TIP3    H2 9283   0.749   4.259   2.283
 3108TIP3   OH2 9284  -0.126   2.942   4.137
 3108TIP3    H1 9285  -0.213   2.899   4.136
 3108TIP3    H2 9286  -0.084   2.901   4.215
 3109TIP3   OH2 9287   0.652   3.673   2.651
 3109TIP3    H1 9288   0.640   3.608   2.723
 3109TIP3    H2 9289   0.749   3.669   2.639
 3110TIP3   OH2 9290  -0.146   3.715   2.425
 3110TIP3    H1 9291  -0.122   3.623   2.404
 3110TIP3    H2 9292  -0.156   3.708   2.523
 3111TIP3   OH2 9293  -0.167   3.722   2.694
 3111TIP3    H1 9294  -0.136   3.684   2.777
 3111TIP3    H2 9295  -0.178   3.817   2.715
 3112TIP3   OH2 9296   0.715   3.017   3.814
 3112TIP3    H1 9297   0.766   3.096   3.836
 3112TIP3    H2 9298   0.638   3.024   3.872
 3113TIP3   OH2 9299   0.570   2.803   2.970
 3113TIP3    H1 9300   0.552   2.825   2.876
 3113TIP3    H2 9301   0.606   2.888   3.004
 3114TIP3   OH2 9302   0.086   3.928   2.659
 3114TIP3    H1 9303  -0.002   3.944   2.699
 3114TIP3    H2 9304   0.077   3.973   2.575
 3115TIP3   OH2 9305   0.262   2.984   3.073
 3115TIP3    H1 9306   0.323   3.060   3.055
 3115TIP3    H2 9307   0.262   2.981   3.170
 3116TIP3   OH2 9308   0.532   3.304   3.880
 3116TIP3    H1 9309   0.531   3.376   3.947
 3116TIP3    H2 9310   0.586   3.239   3.927
 3117TIP3   OH2 9311   0.403   2.716   3.180
 3117TIP3    H1 9312   0.380   2.798   3.226
 3117TIP3    H2 9313   0.462   2.749   3.108
 3118TIP3   OH2 9314  -0.171   3.996   2.726
 3118TIP3    H1 9315  -0.229   4.047   2.666
 3118TIP3    H2 9316  -0.200   4.029   2.813
 3119TIP3   OH2 9317  -0.084   2.712   2.970
 3119TIP3    H1 9318  -0.082   2.804   3.003
 3119TIP3    H2 9319   0.011   2.692   2.971
 3120TIP3   OH2 9320   1.163   3.199   3.864
 3120TIP3    H1 9321   1.065   3.196   3.865
 3120TIP3    H2 9322   1.181   3.179   3.771
 3121TIP3   OH2 9323   0.818   3.397   3.247
 3121TIP3    H1 9324   0.740   3.339   3.258
 3121TIP3    H2 9325   0.887   3.348   3.296
 3122TIP3   OH2 9326  -0.451   2.878   2.739
 3122TIP3    H1 9327  -0.475   2.956   2.791
 3122TIP3    H2 9328  -0.483   2.810   2.803
 3123TIP3   OH2 9329   0.787   4.356   3.203
 3123TIP3    H1 9330   0.749   4.403   3.126
 3123TIP3    H2 9331   0.882   4.359   3.184
 3124TIP3   OH2 9332  -0.130   2.619   3.723
 3124TIP3    H1 9333  -0.169   2.591   3.637
 3124TIP3    H2 9334  -0.151   2.542   3.780
 3125TIP3   OH2 9335   0.102   4.390   4.157
 3125TIP3    H1 9336   0.168   4.335   4.200
 3125TIP3    H2 9337   0.025   4.330   4.155
 3126TIP3   OH2 9338   0.025   3.920   2.361
 3126TIP3    H1 9339  -0.036   3.847   2.388
 3126TIP3    H2 9340   0.097   3.867   2.322
 3127TIP3   OH2 9341   0.682   4.251   3.950
 3127TIP3    H1 9342   0.670   4.184   4.021
 3127TIP3    H2 9343   0.755   4.305   3.985
 3128TIP3   OH2 9344   0.450   3.973   2.265
 3128TIP3    H1 9345   0.493   3.907   2.322
 3128TIP3    H2 9346   0.504   3.970   2.184
 3129TIP3   OH2 9347  -0.334   3.388   2.547
 3129TIP3    H1 9348  -0.295   3.406   2.634
 3129TIP3    H2 9349  -0.259   3.410   2.489
 3130TIP3   OH2 9350   0.314   3.878   4.140
 3130TIP3    H1 9351   0.262   3.892   4.058
 3130TIP3    H2 9352   0.337   3.783   4.136
 3131TIP3   OH2 9353   0.175   3.640   2.378
 3131TIP3    H1 9354   0.178   3.648   2.476
 3131TIP3    H2 9355   0.173   3.542   2.369
 3132TIP3   OH2 9356   0.788   3.881   3.756
 3132TIP3    H1 9357   0.862   3.930   3.713
 3132TIP3    H2 9358   0.716   3.945   3.745
 3133TIP3   OH2 9359  -0.119   3.346   2.798
 3133TIP3    H1 9360  -0.153   3.305   2.880
 3133TIP3    H2 9361  -0.092   3.268   2.745
 3134TIP3   OH2 9362   0.157   3.410   4.023
 3134TIP3    H1 9363   0.077   3.465   4.032
 3134TIP3    H2 9364   0.198   3.446   3.942
 3135TIP3   OH2 9365  -0.029   3.135   2.633
 3135TIP3    H1 9366  -0.057   3.139   2.539
 3135TIP3    H2 9367   0.068   3.141   2.623
 3136TIP3   OH2 9368   0.659   3.810   4.153
 3136TIP3    H1 9369   0.742   3.787   4.111
 3136TIP3    H2 9370   0.654   3.747   4.226
 3137TIP3   OH2 9371   0.796   3.468   2.296
 3137TIP3    H1 9372   0.776   3.424   2.211
 3137TIP3    H2 9373   0.763   3.558   2.275
 3138TIP3   OH2 9374   0.280   3.192   4.128
 3138TIP3    H1 9375   0.266   3.112   4.073
 3138TIP3    H2 9376   0.231   3.261   4.078
 3139TIP3   OH2 9377   0.275   2.975   3.947
 3139TIP3    H1 9378   0.295   3.025   3.865
 3139TIP3    H2 9379   0.181   2.951   3.933
 3140TIP3   OH2 9380   0.303   3.520   3.822
 3140TIP3    H1 9381   0.381   3.535   3.767
 3140TIP3    H2 9382   0.239   3.582   3.782
 3141TIP3   OH2 9383   0.876   3.484   4.204
 3141TIP3    H1 9384   0.935   3.408   4.221
 3141TIP3    H2 9385   0.938   3.551   4.173
 3142TIP3   OH2 9386   0.919   3.735   3.941
 3142TIP3    H1 9387   0.859   3.789   3.884
 3142TIP3    H2 9388   1.006   3.760   3.901
 3143TIP3   OH2 9389   0.173   3.307   4.356
 3143TIP3    H1 9390   0.097   3.252   4.382
 3143TIP3    H2 9391   0.196   3.271   4.268
 3144TIP3   OH2 9392   0.412   2.738   3.998
 3144TIP3    H1 9393   0.364   2.823   3.985
 3144TIP3    H2 9394   0.337   2.675   3.999
 3145TIP3   OH2 9395   0.529   3.248   4.236
 3145TIP3    H1 9396   0.507   3.239   4.331
 3145TIP3    H2 9397   0.441   3.225   4.198
 3146TIP3   OH2 9398   0.755   3.185   4.087
 3146TIP3    H1 9399   0.684   3.200   4.152
 3146TIP3    H2 9400   0.831   3.165   4.145
 3147TIP3   OH2 9401   1.000   3.140   4.238
 3147TIP3    H1 9402   1.003   3.044   4.258
 3147TIP3    H2 9403   0.989   3.180   4.327
 3148TIP3   OH2 9404  -0.006   3.098   4.428
 3148TIP3    H1 9405  -0.021   3.010   4.388
 3148TIP3    H2 9406   0.024   3.072   4.516
 3149TIP3   OH2 9407   0.497   2.758   4.266
 3149TIP3    H1 9408   0.564   2.688   4.257
 3149TIP3    H2 9409   0.459   2.758   4.176
 3150TIP3   OH2 9410   0.562   2.970   4.435
 3150TIP3    H1 9411   0.536   2.902   4.369
 3150TIP3    H2 9412   0.485   3.031   4.434
 3151TIP3   OH2 9413  -0.216   4.212   2.526
 3151TIP3    H1 9414  -0.120   4.197   2.523
 3151TIP3    H2 9415  -0.234   4.224   2.432
 3152TIP3   OH2 9416   1.059   4.467   3.445
 3152TIP3    H1 9417   1.022   4.377   3.437
 3152TIP3    H2 9418   1.146   4.446   3.481
 3153TIP3   OH2 9419   1.114   4.141   4.009
 3153TIP3    H1 9420   1.041   4.151   4.073
 3153TIP3    H2 9421   1.154   4.230   4.011
 3154TIP3   OH2 9422   0.930   3.654   2.629
 3154TIP3    H1 9423   0.997   3.718   2.598
 3154TIP3    H2 9424   0.975   3.616   2.707
 3155TIP3   OH2 9425   1.059   3.520   2.831
 3155TIP3    H1 9426   0.992   3.480   2.890
 3155TIP3    H2 9427   1.123   3.559   2.894
 3156TIP3   OH2 9428   1.112   3.915   3.264
 3156TIP3    H1 9429   1.166   3.852   3.213
 3156TIP3    H2 9430   1.103   3.990   3.203
 3157TIP3   OH2 9431   0.941   4.212   3.458
 3157TIP3    H1 9432   0.872   4.258   3.511
 3157TIP3    H2 9433   0.888   4.165   3.391
 3158TIP3   OH2 9434   0.997   3.430   2.478
 3158TIP3    H1 9435   0.926   3.432   2.410
 3158TIP3    H2 9436   0.967   3.505   2.533
 3159TIP3   OH2 9437   0.871   3.101   2.432
 3159TIP3    H1 9438   0.825   3.144   2.359
 3159TIP3    H2 9439   0.844   3.008   2.421
 3160TIP3   OH2 9440   0.873   3.380   2.978
 3160TIP3    H1 9441   0.877   3.283   2.971
 3160TIP3    H2 9442   0.858   3.393   3.075
 3161TIP3   OH2 9443   1.161   3.804   3.833
 3161TIP3    H1 9444   1.234   3.739   3.823
 3161TIP3    H2 9445   1.188   3.876   3.773
 3162TIP3   OH2 9446   1.344   3.607   3.844
 3162TIP3    H1 9447   1.273   3.557   3.890
 3162TIP3    H2 9448   1.421   3.549   3.862
 3163TIP3   OH2 9449   0.810   2.835   2.417
 3163TIP3    H1 9450   0.879   2.804   2.478
 3163TIP3    H2 9451   0.733   2.779   2.437
 3164TIP3   OH2 9452   0.870   3.095   2.874
 3164TIP3    H1 9453   0.910   3.006   2.889
 3164TIP3    H2 9454   0.927   3.128   2.802
 3165TIP3   OH2 9455   1.031   3.265   3.371
 3165TIP3    H1 9456   1.116   3.293   3.329
 3165TIP3    H2 9457   1.043   3.307   3.458
 3166TIP3   OH2 9458   1.099   3.413   3.601
 3166TIP3    H1 9459   1.021   3.448   3.648
 3166TIP3    H2 9460   1.131   3.494   3.555
 3167TIP3   OH2 9461   1.553   3.006   4.161
 3167TIP3    H1 9462   1.611   2.940   4.117
 3167TIP3    H2 9463   1.519   3.056   4.083
 3168TIP3   OH2 9464   0.980   2.844   2.910
 3168TIP3    H1 9465   1.024   2.829   2.996
 3168TIP3    H2 9466   0.917   2.769   2.908
 3169TIP3   OH2 9467  -0.325   2.827   3.716
 3169TIP3    H1 9468  -0.256   2.760   3.727
 3169TIP3    H2 9469  -0.283   2.907   3.749
 3170TIP3   OH2 9470   1.421   3.141   3.967
 3170TIP3    H1 9471   1.338   3.186   3.993
 3170TIP3    H2 9472   1.385   3.076   3.903
 3171TIP3   OH2 9473   1.062   2.778   2.547
 3171TIP3    H1 9474   1.095   2.707   2.489
 3171TIP3    H2 9475   1.125   2.850   2.531
 3172TIP3   OH2 9476   0.621   4.315   2.806
 3172TIP3    H1 9477   0.673   4.299   2.725
 3172TIP3    H2 9478   0.674   4.380   2.853
 3173TIP3   OH2 9479  -0.051   4.075   3.749
 3173TIP3    H1 9480  -0.082   4.153   3.800
 3173TIP3    H2 9481   0.020   4.116   3.696
 3174TIP3   OH2 9482   0.356   4.381   3.877
 3174TIP3    H1 9483   0.391   4.385   3.969
 3174TIP3    H2 9484   0.421   4.438   3.830
 3175TIP3   OH2 9485   0.527   4.545   3.741
 3175TIP3    H1 9486   0.599   4.495   3.701
 3175TIP3    H2 9487   0.577   4.603   3.803
 3176TIP3   OH2 9488   1.320   2.909   3.839
 3176TIP3    H1 9489   1.233   2.911   3.796
 3176TIP3    H2 9490   1.348   2.816   3.826
 3177TIP3   OH2 9491   0.246   4.410   3.427
 3177TIP3    H1 9492   0.181   4.428   3.356
 3177TIP3    H2 9493   0.255   4.499   3.467
 3178TIP3   OH2 9494   0.512   4.349   3.473
 3178TIP3    H1 9495   0.417   4.367   3.457
 3178TIP3    H2 9496   0.552   4.430   3.437
 3179TIP3   OH2 9497   0.712   4.546   3.392
 3179TIP3    H1 9498   0.700   4.631   3.344
 3179TIP3    H2 9499   0.736   4.484   3.321
 3180TIP3   OH2 9500  -0.005   4.182   3.328
 3180TIP3    H1 9501  -0.032   4.091   3.308
 3180TIP3    H2 9502   0.011   4.175   3.424
 3181TIP3   OH2 9503   0.536   2.824   3.476
 3181TIP3    H1 9504   0.485   2.754   3.521
 3181TIP3    H2 9505   0.588   2.772   3.412
 3182TIP3   OH2 9506   1.050   2.704   3.370
 3182TIP3    H1 9507   1.085   2.755   3.293
 3182TIP3    H2 9508   0.953   2.717   3.359
 3183TIP3   OH2 9509   1.139   2.803   3.132
 3183TIP3    H1 9510   1.212   2.751   3.091
 3183TIP3    H2 9511   1.171   2.895   3.116
 3184TIP3   OH2 9512  -0.225   2.532   3.474
 3184TIP3    H1 9513  -0.318   2.502   3.469
 3184TIP3    H2 9514  -0.179   2.445   3.472
 3185TIP3   OH2 9515  -0.421   2.485   3.156
 3185TIP3    H1 9516  -0.389   2.463   3.067
 3185TIP3    H2 9517  -0.477   2.408   3.174
 3186TIP3   OH2 9518   0.225   2.556   3.353
 3186TIP3    H1 9519   0.281   2.613   3.298
 3186TIP3    H2 9520   0.218   2.606   3.435
 3187TIP3   OH2 9521   0.772   2.709   3.335
 3187TIP3    H1 9522   0.757   2.673   3.247
 3187TIP3    H2 9523   0.754   2.630   3.392
 3188TIP3   OH2 9524   0.794   2.634   2.903
 3188TIP3    H1 9525   0.708   2.677   2.915
 3188TIP3    H2 9526   0.778   2.548   2.947
 3189TIP3   OH2 9527  -0.324   2.570   2.871
 3189TIP3    H1 9528  -0.273   2.493   2.842
 3189TIP3    H2 9529  -0.256   2.622   2.918
 3190TIP3   OH2 9530   0.193   2.736   2.981
 3190TIP3    H1 9531   0.244   2.683   3.043
 3190TIP3    H2 9532   0.219   2.827   3.010
 3191TIP3   OH2 9533   0.048   4.169   2.466
 3191TIP3    H1 9534   0.144   4.165   2.455
 3191TIP3    H2 9535   0.023   4.088   2.415
 3192TIP3   OH2 9536   0.766   4.276   2.576
 3192TIP3    H1 9537   0.759   4.178   2.566
 3192TIP3    H2 9538   0.725   4.305   2.492
 3193TIP3   OH2 9539  -0.022   2.817   4.362
 3193TIP3    H1 9540  -0.060   2.742   4.414
 3193TIP3    H2 9541   0.070   2.813   4.396
 3194TIP3   OH2 9542   0.227   2.808   4.489
 3194TIP3    H1 9543   0.311   2.778   4.450
 3194TIP3    H2 9544   0.209   2.737   4.554
 3195TIP3   OH2 9545   1.049   2.866   4.275
 3195TIP3    H1 9546   1.076   2.838   4.364
 3195TIP3    H2 9547   1.133   2.858   4.224
 3196TIP3   OH2 9548   0.995   4.421   3.766
 3196TIP3    H1 9549   0.917   4.391   3.715
 3196TIP3    H2 9550   0.976   4.518   3.769
 3197TIP3   OH2 9551   2.259   3.792   2.532
 3197TIP3    H1 9552   2.234   3.885   2.513
 3197TIP3    H2 9553   2.181   3.747   2.495
 3198TIP3   OH2 9554   2.272   3.790   2.905
 3198TIP3    H1 9555   2.291   3.768   2.997
 3198TIP3    H2 9556   2.218   3.715   2.875
 3199TIP3   OH2 9557   1.560   3.688   3.277
 3199TIP3    H1 9558   1.592   3.623   3.342
 3199TIP3    H2 9559   1.633   3.752   3.276
 3200TIP3   OH2 9560   2.505   4.095   2.592
 3200TIP3    H1 9561   2.485   4.034   2.664
 3200TIP3    H2 9562   2.529   4.176   2.640
 3201TIP3   OH2 9563   1.524   4.094   3.009
 3201TIP3    H1 9564   1.521   3.996   3.009
 3201TIP3    H2 9565   1.620   4.106   2.988
 3202TIP3   OH2 9566   1.239   3.308   2.788
 3202TIP3    H1 9567   1.189   3.390   2.803
 3202TIP3    H2 9568   1.169   3.253   2.748
 3203TIP3   OH2 9569   1.295   3.591   2.958
 3203TIP3    H1 9570   1.348   3.516   2.993
 3203TIP3    H2 9571   1.359   3.636   2.901
 3204TIP3   OH2 9572   2.061   4.014   2.968
 3204TIP3    H1 9573   2.099   3.950   2.907
 3204TIP3    H2 9574   2.144   4.060   2.995
 3205TIP3   OH2 9575   3.073   3.341   2.957
 3205TIP3    H1 9576   3.104   3.428   2.989
 3205TIP3    H2 9577   3.097   3.348   2.862
 3206TIP3   OH2 9578   2.466   3.517   2.996
 3206TIP3    H1 9579   2.515   3.434   3.011
 3206TIP3    H2 9580   2.439   3.506   2.903
 3207TIP3   OH2 9581   1.793   3.171   2.953
 3207TIP3    H1 9582   1.791   3.245   2.889
 3207TIP3    H2 9583   1.699   3.146   2.953
 3208TIP3   OH2 9584   2.503   3.273   2.579
 3208TIP3    H1 9585   2.575   3.258   2.645
 3208TIP3    H2 9586   2.555   3.308   2.504
 3209TIP3   OH2 9587   1.443   3.383   3.063
 3209TIP3    H1 9588   1.526   3.371   3.113
 3209TIP3    H2 9589   1.453   3.316   2.994
 3210TIP3   OH2 9590   1.886   3.580   2.856
 3210TIP3    H1 9591   1.980   3.555   2.870
 3210TIP3    H2 9592   1.848   3.496   2.824
 3211TIP3   OH2 9593   3.148   3.554   3.132
 3211TIP3    H1 9594   3.089   3.615   3.083
 3211TIP3    H2 9595   3.088   3.533   3.207
 3212TIP3   OH2 9596   1.803   3.162   3.392
 3212TIP3    H1 9597   1.746   3.208   3.328
 3212TIP3    H2 9598   1.754   3.180   3.475
 3213TIP3   OH2 9599   2.157   4.017   2.397
 3213TIP3    H1 9600   2.110   4.005   2.314
 3213TIP3    H2 9601   2.119   4.104   2.424
 3214TIP3   OH2 9602   1.912   3.939   3.189
 3214TIP3    H1 9603   1.851   4.008   3.223
 3214TIP3    H2 9604   1.950   3.983   3.111
 3215TIP3   OH2 9605   2.711   3.276   2.753
 3215TIP3    H1 9606   2.709   3.226   2.835
 3215TIP3    H2 9607   2.765   3.353   2.777
 3216TIP3   OH2 9608   1.680   3.284   3.178
 3216TIP3    H1 9609   1.732   3.362   3.207
 3216TIP3    H2 9610   1.741   3.248   3.111
 3217TIP3   OH2 9611   1.743   4.134   3.287
 3217TIP3    H1 9612   1.718   4.217   3.242
 3217TIP3    H2 9613   1.662   4.122   3.342
 3218TIP3   OH2 9614   1.133   3.822   2.520
 3218TIP3    H1 9615   1.094   3.849   2.435
 3218TIP3    H2 9616   1.164   3.907   2.558
 3219TIP3   OH2 9617   2.584   4.339   2.754
 3219TIP3    H1 9618   2.499   4.329   2.804
 3219TIP3    H2 9619   2.569   4.425   2.710
 3220TIP3   OH2 9620   2.866   3.247   3.128
 3220TIP3    H1 9621   2.778   3.269   3.093
 3220TIP3    H2 9622   2.925   3.277   3.056
 3221TIP3   OH2 9623   2.154   2.877   3.098
 3221TIP3    H1 9624   2.146   2.784   3.128
 3221TIP3    H2 9625   2.081   2.918   3.150
 3222TIP3   OH2 9626   2.290   4.390   2.436
 3222TIP3    H1 9627   2.337   4.309   2.410
 3222TIP3    H2 9628   2.345   4.458   2.394
 3223TIP3   OH2 9629   2.426   4.168   2.337
 3223TIP3    H1 9630   2.368   4.096   2.310
 3223TIP3    H2 9631   2.459   4.136   2.424
 3224TIP3   OH2 9632   2.798   4.251   3.106
 3224TIP3    H1 9633   2.787   4.176   3.043
 3224TIP3    H2 9634   2.778   4.328   3.048
 3225TIP3   OH2 9635   2.090   3.644   2.363
 3225TIP3    H1 9636   2.012   3.700   2.343
 3225TIP3    H2 9637   2.137   3.645   2.278
 3226TIP3   OH2 9638   2.050   3.428   2.081
 3226TIP3    H1 9639   2.116   3.484   2.127
 3226TIP3    H2 9640   2.111   3.368   2.032
 3227TIP3   OH2 9641   2.995   3.888   2.951
 3227TIP3    H1 9642   2.911   3.940   2.953
 3227TIP3    H2 9643   3.027   3.914   2.861
 3228TIP3   OH2 9644   2.438   3.727   2.335
 3228TIP3    H1 9645   2.384   3.753   2.413
 3228TIP3    H2 9646   2.524   3.706   2.378
 3229TIP3   OH2 9647   2.673   3.766   3.244
 3229TIP3    H1 9648   2.670   3.852   3.290
 3229TIP3    H2 9649   2.586   3.769   3.198
 3230TIP3   OH2 9650   1.668   3.722   2.755
 3230TIP3    H1 9651   1.631   3.666   2.683
 3230TIP3    H2 9652   1.749   3.674   2.780
 3231TIP3   OH2 9653   1.783   4.089   2.913
 3231TIP3    H1 9654   1.773   4.110   2.819
 3231TIP3    H2 9655   1.879   4.096   2.925
 3232TIP3   OH2 9656   1.810   3.698   3.103
 3232TIP3    H1 9657   1.842   3.682   3.012
 3232TIP3    H2 9658   1.850   3.786   3.125
 3233TIP3   OH2 9659   2.359   4.331   2.896
 3233TIP3    H1 9660   2.310   4.412   2.918
 3233TIP3    H2 9661   2.317   4.263   2.952
 3234TIP3   OH2 9662   1.944   4.254   3.435
 3234TIP3    H1 9663   1.880   4.317   3.475
 3234TIP3    H2 9664   1.883   4.201   3.380
 3235TIP3   OH2 9665   2.279   3.586   2.160
 3235TIP3    H1 9666   2.337   3.648   2.210
 3235TIP3    H2 9667   2.305   3.608   2.067
 3236TIP3   OH2 9668   1.701   3.805   3.530
 3236TIP3    H1 9669   1.708   3.894   3.572
 3236TIP3    H2 9670   1.606   3.788   3.545
 3237TIP3   OH2 9671   2.031   4.263   2.426
 3237TIP3    H1 9672   2.091   4.314   2.483
 3237TIP3    H2 9673   1.956   4.325   2.423
 3238TIP3   OH2 9674   1.739   4.425   3.518
 3238TIP3    H1 9675   1.707   4.428   3.425
 3238TIP3    H2 9676   1.658   4.398   3.566
 3239TIP3   OH2 9677   2.796   2.828   2.208
 3239TIP3    H1 9678   2.714   2.850   2.258
 3239TIP3    H2 9679   2.811   2.910   2.157
 3240TIP3   OH2 9680   1.537   3.560   2.553
 3240TIP3    H1 9681   1.480   3.619   2.499
 3240TIP3    H2 9682   1.480   3.483   2.562
 3241TIP3   OH2 9683   2.594   4.194   1.754
 3241TIP3    H1 9684   2.602   4.291   1.742
 3241TIP3    H2 9685   2.687   4.165   1.744
 3242TIP3   OH2 9686   1.318   3.953   3.465
 3242TIP3    H1 9687   1.252   3.933   3.395
 3242TIP3    H2 9688   1.356   3.865   3.485
 3243TIP3   OH2 9689   1.185   4.156   3.103
 3243TIP3    H1 9690   1.272   4.128   3.074
 3243TIP3    H2 9691   1.212   4.219   3.173
 3244TIP3   OH2 9692   3.037   4.599   3.153
 3244TIP3    H1 9693   3.034   4.503   3.167
 3244TIP3    H2 9694   2.954   4.626   3.198
 3245TIP3   OH2 9695   2.147   4.379   3.291
 3245TIP3    H1 9696   2.143   4.473   3.318
 3245TIP3    H2 9697   2.071   4.342   3.341
 3246TIP3   OH2 9698   1.900   4.516   2.229
 3246TIP3    H1 9699   1.854   4.505   2.144
 3246TIP3    H2 9700   1.869   4.602   2.261
 3247TIP3   OH2 9701   1.335   4.367   2.620
 3247TIP3    H1 9702   1.388   4.357   2.703
 3247TIP3    H2 9703   1.292   4.280   2.617
 3248TIP3   OH2 9704   2.105   4.414   1.879
 3248TIP3    H1 9705   2.165   4.345   1.844
 3248TIP3    H2 9706   2.137   4.424   1.971
 3249TIP3   OH2 9707   2.154   4.459   2.152
 3249TIP3    H1 9708   2.064   4.469   2.190
 3249TIP3    H2 9709   2.200   4.421   2.228
 3250TIP3   OH2 9710   2.930   3.738   3.448
 3250TIP3    H1 9711   2.856   3.765   3.391
 3250TIP3    H2 9712   2.934   3.643   3.424
 3251TIP3   OH2 9713   1.526   4.134   3.452
 3251TIP3    H1 9714   1.573   4.116   3.535
 3251TIP3    H2 9715   1.448   4.075   3.459
 3252TIP3   OH2 9716   1.921   2.958   3.235
 3252TIP3    H1 9717   1.833   2.927   3.206
 3252TIP3    H2 9718   1.895   3.039   3.285
 3253TIP3   OH2 9719   2.457   3.074   3.431
 3253TIP3    H1 9720   2.527   3.044   3.493
 3253TIP3    H2 9721   2.374   3.053   3.478
 3254TIP3   OH2 9722   2.716   3.511   3.361
 3254TIP3    H1 9723   2.653   3.504   3.436
 3254TIP3    H2 9724   2.682   3.589   3.313
 3255TIP3   OH2 9725   2.355   3.630   1.904
 3255TIP3    H1 9726   2.322   3.607   1.816
 3255TIP3    H2 9727   2.435   3.681   1.882
 3256TIP3   OH2 9728   2.066   3.007   2.209
 3256TIP3    H1 9729   2.029   3.001   2.298
 3256TIP3    H2 9730   2.029   2.925   2.170
 3257TIP3   OH2 9731   1.854   3.478   3.254
 3257TIP3    H1 9732   1.808   3.503   3.337
 3257TIP3    H2 9733   1.840   3.559   3.200
 3258TIP3   OH2 9734   1.740   3.358   2.769
 3258TIP3    H1 9735   1.644   3.352   2.777
 3258TIP3    H2 9736   1.752   3.325   2.677
 3259TIP3   OH2 9737   2.226   3.442   2.494
 3259TIP3    H1 9738   2.177   3.517   2.452
 3259TIP3    H2 9739   2.284   3.415   2.420
 3260TIP3   OH2 9740   2.393   3.722   3.576
 3260TIP3    H1 9741   2.380   3.647   3.638
 3260TIP3    H2 9742   2.486   3.744   3.590
 3261TIP3   OH2 9743   2.383   3.475   2.737
 3261TIP3    H1 9744   2.326   3.510   2.666
 3261TIP3    H2 9745   2.417   3.395   2.690
 3262TIP3   OH2 9746   1.676   3.504   3.465
 3262TIP3    H1 9747   1.700   3.573   3.529
 3262TIP3    H2 9748   1.665   3.426   3.522
 3263TIP3   OH2 9749   1.723   2.984   2.178
 3263TIP3    H1 9750   1.697   2.983   2.270
 3263TIP3    H2 9751   1.650   3.035   2.139
 3264TIP3   OH2 9752   1.259   3.029   3.045
 3264TIP3    H1 9753   1.341   3.055   3.092
 3264TIP3    H2 9754   1.291   2.992   2.961
 3265TIP3   OH2 9755   1.247   3.014   2.566
 3265TIP3    H1 9756   1.282   3.052   2.482
 3265TIP3    H2 9757   1.179   3.082   2.585
 3266TIP3   OH2 9758   2.399   3.719   3.160
 3266TIP3    H1 9759   2.429   3.648   3.099
 3266TIP3    H2 9760   2.364   3.665   3.233
 3267TIP3   OH2 9761   2.065   3.177   2.829
 3267TIP3    H1 9762   1.989   3.180   2.890
 3267TIP3    H2 9763   2.140   3.182   2.891
 3268TIP3   OH2 9764   1.487   3.221   2.832
 3268TIP3    H1 9765   1.399   3.264   2.823
 3268TIP3    H2 9766   1.469   3.143   2.779
 3269TIP3   OH2 9767   1.770   3.230   2.526
 3269TIP3    H1 9768   1.862   3.256   2.506
 3269TIP3    H2 9769   1.721   3.258   2.445
 3270TIP3   OH2 9770   2.563   3.258   3.035
 3270TIP3    H1 9771   2.525   3.272   3.124
 3270TIP3    H2 9772   2.498   3.199   2.994
 3271TIP3   OH2 9773   1.617   3.258   2.305
 3271TIP3    H1 9774   1.543   3.221   2.253
 3271TIP3    H2 9775   1.667   3.302   2.233
 3272TIP3   OH2 9776   2.729   4.947   3.251
 3272TIP3    H1 9777   2.726   4.973   3.157
 3272TIP3    H2 9778   2.808   4.997   3.282
 3273TIP3   OH2 9779   1.688   4.055   3.672
 3273TIP3    H1 9780   1.766   4.088   3.720
 3273TIP3    H2 9781   1.622   4.053   3.744
 3274TIP3   OH2 9782   2.147   3.504   2.922
 3274TIP3    H1 9783   2.227   3.479   2.873
 3274TIP3    H2 9784   2.164   3.467   3.010
 3275TIP3   OH2 9785   2.124   3.405   3.224
 3275TIP3    H1 9786   2.036   3.447   3.232
 3275TIP3    H2 9787   2.183   3.470   3.268
 3276TIP3   OH2 9788   1.863   3.797   2.312
 3276TIP3    H1 9789   1.789   3.735   2.299
 3276TIP3    H2 9790   1.844   3.832   2.402
 3277TIP3   OH2 9791   2.762   4.033   2.941
 3277TIP3    H1 9792   2.786   4.085   2.861
 3277TIP3    H2 9793   2.677   3.992   2.914
 3278TIP3   OH2 9794   2.322   3.107   2.182
 3278TIP3    H1 9795   2.224   3.094   2.181
 3278TIP3    H2 9796   2.332   3.203   2.198
 3279TIP3   OH2 9797   2.258   4.113   3.313
 3279TIP3    H1 9798   2.286   4.104   3.405
 3279TIP3    H2 9799   2.226   4.205   3.310
 3280TIP3   OH2 9800   2.390   3.360   2.278
 3280TIP3    H1 9801   2.486   3.367   2.292
 3280TIP3    H2 9802   2.370   3.440   2.226
 3281TIP3   OH2 9803   1.544   3.809   2.988
 3281TIP3    H1 9804   1.589   3.793   2.903
 3281TIP3    H2 9805   1.601   3.760   3.050
 3282TIP3   OH2 9806   2.007   3.947   2.132
 3282TIP3    H1 9807   1.959   4.033   2.134
 3282TIP3    H2 9808   1.954   3.894   2.195
 3283TIP3   OH2 9809   1.437   3.739   3.601
 3283TIP3    H1 9810   1.457   3.728   3.696
 3283TIP3    H2 9811   1.366   3.675   3.589
 3284TIP3   OH2 9812   2.155   3.857   3.619
 3284TIP3    H1 9813   2.094   3.799   3.570
 3284TIP3    H2 9814   2.242   3.825   3.587
 3285TIP3   OH2 9815   2.426   4.363   3.220
 3285TIP3    H1 9816   2.329   4.373   3.217
 3285TIP3    H2 9817   2.449   4.425   3.291
 3286TIP3   OH2 9818   2.830   3.451   2.114
 3286TIP3    H1 9819   2.769   3.407   2.051
 3286TIP3    H2 9820   2.827   3.541   2.074
 3287TIP3   OH2 9821   3.048   4.301   3.196
 3287TIP3    H1 9822   2.950   4.303   3.182
 3287TIP3    H2 9823   3.076   4.275   3.105
 3288TIP3   OH2 9824   2.535   4.268   2.022
 3288TIP3    H1 9825   2.503   4.203   2.086
 3288TIP3    H2 9826   2.543   4.217   1.940
 3289TIP3   OH2 9827   2.530   3.896   2.863
 3289TIP3    H1 9828   2.436   3.873   2.875
 3289TIP3    H2 9829   2.561   3.818   2.813
 3290TIP3   OH2 9830   1.661   4.121   2.608
 3290TIP3    H1 9831   1.672   4.207   2.564
 3290TIP3    H2 9832   1.566   4.121   2.626
 3291TIP3   OH2 9833   1.224   3.428   2.320
 3291TIP3    H1 9834   1.265   3.515   2.337
 3291TIP3    H2 9835   1.144   3.434   2.377
 3292TIP3   OH2 9836   1.790   3.885   2.556
 3292TIP3    H1 9837   1.761   3.977   2.570
 3292TIP3    H2 9838   1.755   3.843   2.636
 3293TIP3   OH2 9839   1.925   4.469   3.087
 3293TIP3    H1 9840   1.960   4.541   3.031
 3293TIP3    H2 9841   2.007   4.434   3.125
 3294TIP3   OH2 9842   1.573   4.365   2.461
 3294TIP3    H1 9843   1.489   4.380   2.509
 3294TIP3    H2 9844   1.615   4.452   2.470
 3295TIP3   OH2 9845   2.309   4.095   3.044
 3295TIP3    H1 9846   2.302   4.094   3.142
 3295TIP3    H2 9847   2.396   4.057   3.030
 3296TIP3   OH2 9848   2.287   3.995   1.922
 3296TIP3    H1 9849   2.341   3.968   2.000
 3296TIP3    H2 9850   2.198   3.972   1.953
 3297TIP3   OH2 9851   2.558   4.634   3.087
 3297TIP3    H1 9852   2.475   4.584   3.071
 3297TIP3    H2 9853   2.549   4.703   3.017
 3298TIP3   OH2 9854   2.627   4.470   1.742
 3298TIP3    H1 9855   2.665   4.545   1.692
 3298TIP3    H2 9856   2.546   4.514   1.777
 3299TIP3   OH2 9857   1.647   3.241   3.609
 3299TIP3    H1 9858   1.551   3.253   3.625
 3299TIP3    H2 9859   1.673   3.185   3.683
 3300TIP3   OH2 9860   2.448   3.922   2.134
 3300TIP3    H1 9861   2.438   3.862   2.210
 3300TIP3    H2 9862   2.545   3.925   2.126
 3301TIP3   OH2 9863   1.344   4.308   3.264
 3301TIP3    H1 9864   1.423   4.254   3.281
 3301TIP3    H2 9865   1.376   4.398   3.280
 3302TIP3   OH2 9866   1.653   3.977   1.923
 3302TIP3    H1 9867   1.667   3.884   1.896
 3302TIP3    H2 9868   1.635   3.966   2.018
 3303TIP3   OH2 9869   1.598   3.981   2.196
 3303TIP3    H1 9870   1.674   3.960   2.253
 3303TIP3    H2 9871   1.599   4.079   2.200
 3304TIP3   OH2 9872   1.336   3.676   2.399
 3304TIP3    H1 9873   1.269   3.720   2.454
 3304TIP3    H2 9874   1.349   3.744   2.330
 3305TIP3   OH2 9875   2.486   3.312   3.294
 3305TIP3    H1 9876   2.569   3.342   3.333
 3305TIP3    H2 9877   2.468   3.230   3.345
 3306TIP3   OH2 9878   2.357   3.063   2.458
 3306TIP3    H1 9879   2.349   3.083   2.363
 3306TIP3    H2 9880   2.400   3.145   2.492
 3307TIP3   OH2 9881   1.860   4.173   2.138
 3307TIP3    H1 9882   1.777   4.202   2.179
 3307TIP3    H2 9883   1.886   4.254   2.092
 3308TIP3   OH2 9884   2.049   3.242   2.557
 3308TIP3    H1 9885   2.113   3.313   2.534
 3308TIP3    H2 9886   2.061   3.238   2.654
 3309TIP3   OH2 9887   2.318   3.556   3.362
 3309TIP3    H1 9888   2.336   3.613   3.440
 3309TIP3    H2 9889   2.376   3.479   3.378
 3310TIP3   OH2 9890   2.198   2.967   2.659
 3310TIP3    H1 9891   2.198   3.041   2.722
 3310TIP3    H2 9892   2.259   3.003   2.590
 3311TIP3   OH2 9893   1.604   4.252   2.211
 3311TIP3    H1 9894   1.577   4.323   2.149
 3311TIP3    H2 9895   1.591   4.296   2.298
 3312TIP3   OH2 9896   1.715   2.961   2.491
 3312TIP3    H1 9897   1.702   3.058   2.496
 3312TIP3    H2 9898   1.807   2.959   2.455
 3313TIP3   OH2 9899   2.981   3.464   3.331
 3313TIP3    H1 9900   2.885   3.470   3.353
 3313TIP3    H2 9901   2.976   3.390   3.268
 3314TIP3   OH2 9902   2.613   3.653   2.734
 3314TIP3    H1 9903   2.537   3.594   2.746
 3314TIP3    H2 9904   2.685   3.606   2.782
 3315TIP3   OH2 9905   1.326   3.883   2.205
 3315TIP3    H1 9906   1.392   3.953   2.213
 3315TIP3    H2 9907   1.370   3.828   2.136
 3316TIP3   OH2 9908   1.268   3.159   2.338
 3316TIP3    H1 9909   1.269   3.257   2.336
 3316TIP3    H2 9910   1.190   3.140   2.285
 3317TIP3   OH2 9911   2.584   4.613   2.685
 3317TIP3    H1 9912   2.539   4.657   2.609
 3317TIP3    H2 9913   2.677   4.632   2.662
 3318TIP3   OH2 9914   1.657   2.866   3.206
 3318TIP3    H1 9915   1.607   2.818   3.139
 3318TIP3    H2 9916   1.658   2.799   3.278
 3319TIP3   OH2 9917   1.196   4.103   2.596
 3319TIP3    H1 9918   1.106   4.127   2.623
 3319TIP3    H2 9919   1.193   4.137   2.504
 3320TIP3   OH2 9920   1.353   4.640   3.662
 3320TIP3    H1 9921   1.439   4.639   3.709
 3320TIP3    H2 9922   1.331   4.545   3.661
 3321TIP3   OH2 9923   1.834   4.579   3.736
 3321TIP3    H1 9924   1.928   4.594   3.716
 3321TIP3    H2 9925   1.806   4.535   3.653
 3322TIP3   OH2 9926   1.815   4.180   1.830
 3322TIP3    H1 9927   1.760   4.110   1.873
 3322TIP3    H2 9928   1.892   4.127   1.801
 3323TIP3   OH2 9929   2.471   4.511   3.450
 3323TIP3    H1 9930   2.471   4.443   3.521
 3323TIP3    H2 9931   2.550   4.564   3.473
 3324TIP3   OH2 9932   2.253   4.220   1.747
 3324TIP3    H1 9933   2.296   4.157   1.806
 3324TIP3    H2 9934   2.310   4.218   1.667
 3325TIP3   OH2 9935   1.486   4.046   3.864
 3325TIP3    H1 9936   1.502   3.950   3.875
 3325TIP3    H2 9937   1.399   4.048   3.819
 3326TIP3   OH2 9938   1.461   3.696   2.058
 3326TIP3    H1 9939   1.520   3.668   2.130
 3326TIP3    H2 9940   1.526   3.702   1.984
 3327TIP3   OH2 9941   2.088   4.132   3.638
 3327TIP3    H1 9942   2.046   4.152   3.552
 3327TIP3    H2 9943   2.116   4.039   3.625
 3328TIP3   OH2 9944   1.972   3.896   1.863
 3328TIP3    H1 9945   1.975   3.909   1.960
 3328TIP3    H2 9946   1.971   3.798   1.858
 3329TIP3   OH2 9947   2.583   4.140   3.241
 3329TIP3    H1 9948   2.657   4.184   3.196
 3329TIP3    H2 9949   2.514   4.211   3.231
 3330TIP3   OH2 9950   1.610   3.778   3.850
 3330TIP3    H1 9951   1.691   3.731   3.824
 3330TIP3    H2 9952   1.633   3.801   3.942
 3331TIP3   OH2 9953   1.667   3.601   2.277
 3331TIP3    H1 9954   1.641   3.558   2.360
 3331TIP3    H2 9955   1.706   3.527   2.226
 3332TIP3   OH2 9956   1.944   3.660   3.504
 3332TIP3    H1 9957   1.865   3.718   3.510
 3332TIP3    H2 9958   1.991   3.697   3.426
 3333TIP3   OH2 9959   1.770   3.392   2.121
 3333TIP3    H1 9960   1.743   3.400   2.027
 3333TIP3    H2 9961   1.867   3.397   2.113
 3334TIP3   OH2 9962   2.447   4.064   3.632
 3334TIP3    H1 9963   2.530   4.062   3.583
 3334TIP3    H2 9964   2.475   4.042   3.722
 3335TIP3   OH2 9965   2.592   3.724   1.783
 3335TIP3    H1 9966   2.571   3.680   1.698
 3335TIP3    H2 9967   2.559   3.815   1.762
 3336TIP3   OH2 9968   2.069   3.452   3.636
 3336TIP3    H1 9969   2.064   3.376   3.576
 3336TIP3    H2 9970   2.021   3.521   3.584
 3337TIP3   OH2 9971   2.063   3.238   3.442
 3337TIP3    H1 9972   2.091   3.284   3.361
 3337TIP3    H2 9973   1.969   3.217   3.422
 3338TIP3   OH2 9974   2.092   3.775   3.310
 3338TIP3    H1 9975   2.176   3.796   3.266
 3338TIP3    H2 9976   2.032   3.841   3.269
 3339TIP3   OH2 9977   2.713   3.991   3.418
 3339TIP3    H1 9978   2.650   4.044   3.362
 3339TIP3    H2 9979   2.797   4.020   3.376
 3340TIP3   OH2 9980   1.887   3.584   3.823
 3340TIP3    H1 9981   1.853   3.504   3.867
 3340TIP3    H2 9982   1.961   3.549   3.772
 3341TIP3   OH2 9983   2.197   3.003   3.510
 3341TIP3    H1 9984   2.146   3.083   3.486
 3341TIP3    H2 9985   2.129   2.933   3.498
 3342TIP3   OH2 9986   2.326   3.502   3.722
 3342TIP3    H1 9987   2.317   3.520   3.816
 3342TIP3    H2 9988   2.233   3.484   3.695
 3343TIP3   OH2 9989   2.563   3.461   3.581
 3343TIP3    H1 9990   2.482   3.457   3.636
 3343TIP3    H2 9991   2.630   3.433   3.644
 3344TIP3   OH2 9992   2.810   3.410   3.765
 3344TIP3    H1 9993   2.822   3.313   3.759
 3344TIP3    H2 9994   2.747   3.417   3.838
 3345TIP3   OH2 9995   1.777   3.343   3.921
 3345TIP3    H1 9996   1.782   3.255   3.882
 3345TIP3    H2 9997   1.811   3.326   4.011
 3346TIP3   OH2 9998   2.296   3.015   3.766
 3346TIP3    H1 9999   2.361   2.942   3.759
 3346TIP3    H210000   2.254   3.010   3.678
 3347TIP3   OH210001   2.328   3.232   3.930
 3347TIP3    H110002   2.335   3.151   3.874
 3347TIP3    H210003   2.261   3.279   3.880
 3348TIP3   OH210004   1.576   4.454   2.022
 3348TIP3    H110005   1.672   4.448   2.005
 3348TIP3    H210006   1.549   4.507   1.945
 3349TIP3   OH210007   1.058   3.837   2.243
 3349TIP3    H110008   1.152   3.859   2.225
 3349TIP3    H210009   1.050   3.749   2.200
 3350TIP3   OH210010   0.962   4.446   2.665
 3350TIP3    H110011   0.904   4.380   2.618
 3350TIP3    H210012   1.015   4.387   2.722
 3351TIP3   OH210013   1.114   4.330   2.864
 3351TIP3    H110014   1.078   4.245   2.894
 3351TIP3    H210015   1.203   4.324   2.902
 3352TIP3   OH210016   2.838   4.699   2.640
 3352TIP3    H110017   2.861   4.734   2.728
 3352TIP3    H210018   2.897   4.749   2.582
 3353TIP3   OH210019   2.863   4.722   2.922
 3353TIP3    H110020   2.820   4.634   2.918
 3353TIP3    H210021   2.939   4.701   2.978
 3354TIP3   OH210022   2.909   4.398   3.497
 3354TIP3    H110023   2.840   4.410   3.566
 3354TIP3    H210024   2.953   4.485   3.498
 3355TIP3   OH210025   2.727   3.911   2.115
 3355TIP3    H110026   2.793   3.977   2.085
 3355TIP3    H210027   2.772   3.874   2.194
 3356TIP3   OH210028   2.855   3.778   2.318
 3356TIP3    H110029   2.788   3.738   2.378
 3356TIP3    H210030   2.920   3.817   2.381
 3357TIP3   OH210031   2.911   4.172   2.754
 3357TIP3    H110032   2.960   4.108   2.699
 3357TIP3    H210033   2.900   4.247   2.693
 3358TIP3   OH210034   2.738   4.471   2.948
 3358TIP3    H110035   2.665   4.515   2.995
 3358TIP3    H210036   2.691   4.427   2.874
 3359TIP3   OH210037   2.792   3.686   1.965
 3359TIP3    H110038   2.722   3.689   1.897
 3359TIP3    H210039   2.764   3.762   2.020
 3360TIP3   OH210040   2.664   3.360   1.920
 3360TIP3    H110041   2.620   3.399   1.844
 3360TIP3    H210042   2.639   3.266   1.910
 3361TIP3   OH210043   2.669   3.638   2.465
 3361TIP3    H110044   2.676   3.541   2.458
 3361TIP3    H210045   2.654   3.651   2.561
 3362TIP3   OH210046   1.295   3.706   3.213
 3362TIP3    H110047   1.293   3.679   3.119
 3362TIP3    H210048   1.393   3.710   3.228
 3363TIP3   OH210049   2.955   4.056   3.314
 3363TIP3    H110050   3.028   3.994   3.291
 3363TIP3    H210051   2.973   4.131   3.254
 3364TIP3   OH210052   3.145   3.861   3.321
 3364TIP3    H110053   3.089   3.804   3.375
 3364TIP3    H210054   3.229   3.870   3.368
 3365TIP3   OH210055   2.606   3.095   1.907
 3365TIP3    H110056   2.681   3.062   1.960
 3365TIP3    H210057   2.534   3.033   1.927
 3366TIP3   OH210058   2.665   3.353   2.361
 3366TIP3    H110059   2.706   3.264   2.375
 3366TIP3    H210060   2.723   3.386   2.290
 3367TIP3   OH210061   2.826   3.524   2.856
 3367TIP3    H110062   2.912   3.549   2.815
 3367TIP3    H210063   2.840   3.564   2.944
 3368TIP3   OH210064   2.893   3.672   3.084
 3368TIP3    H110065   2.815   3.707   3.132
 3368TIP3    H210066   2.926   3.753   3.040
 3369TIP3   OH210067   1.507   3.386   3.869
 3369TIP3    H110068   1.604   3.394   3.883
 3369TIP3    H210069   1.488   3.305   3.919
 3370TIP3   OH210070   3.341   3.266   3.598
 3370TIP3    H110071   3.366   3.172   3.611
 3370TIP3    H210072   3.424   3.293   3.558
 3371TIP3   OH210073   2.773   3.102   2.399
 3371TIP3    H110074   2.823   3.086   2.481
 3371TIP3    H210075   2.714   3.025   2.397
 3372TIP3   OH210076   1.481   3.084   3.201
 3372TIP3    H110077   1.542   3.012   3.223
 3372TIP3    H210078   1.538   3.163   3.209
 3373TIP3   OH210079   1.279   3.359   3.294
 3373TIP3    H110080   1.325   3.362   3.208
 3373TIP3    H210081   1.296   3.447   3.329
 3374TIP3   OH210082   2.854   3.035   2.032
 3374TIP3    H110083   2.893   2.964   1.976
 3374TIP3    H210084   2.921   3.106   2.025
 3375TIP3   OH210085   1.263   2.882   2.800
 3375TIP3    H110086   1.170   2.863   2.822
 3375TIP3    H210087   1.254   2.933   2.716
 3376TIP3   OH210088   2.418   4.578   2.291
 3376TIP3    H110089   2.471   4.563   2.211
 3376TIP3    H210090   2.474   4.638   2.342
 3377TIP3   OH210091   1.479   2.940   3.604
 3377TIP3    H110092   1.431   2.943   3.688
 3377TIP3    H210093   1.415   2.982   3.543
 3378TIP3   OH210094   1.522   4.368   3.690
 3378TIP3    H110095   1.432   4.346   3.659
 3378TIP3    H210096   1.512   4.352   3.785
 3379TIP3   OH210097   1.699   4.407   3.231
 3379TIP3    H110098   1.653   4.483   3.190
 3379TIP3    H210099   1.785   4.418   3.185
 3380TIP3   OH210100   2.141   4.647   3.368
 3380TIP3    H110101   2.185   4.654   3.455
 3380TIP3    H210102   2.204   4.700   3.313
 3381TIP3   OH210103   2.319   4.801   3.229
 3381TIP3    H110104   2.388   4.754   3.180
 3381TIP3    H210105   2.373   4.858   3.288
 3382TIP3   OH210106   3.109   3.154   3.328
 3382TIP3    H110107   3.021   3.141   3.290
 3382TIP3    H210108   3.149   3.065   3.316
 3383TIP3   OH210109   1.370   4.661   3.252
 3383TIP3    H110110   1.279   4.693   3.234
 3383TIP3    H210111   1.388   4.703   3.337
 3384TIP3   OH210112   1.613   4.643   3.120
 3384TIP3    H110113   1.523   4.655   3.159
 3384TIP3    H210114   1.595   4.666   3.026
 3385TIP3   OH210115   2.040   4.664   2.932
 3385TIP3    H110116   2.006   4.647   2.842
 3385TIP3    H210117   2.031   4.760   2.944
 3386TIP3   OH210118   2.305   4.605   2.966
 3386TIP3    H110119   2.209   4.620   2.954
 3386TIP3    H210120   2.342   4.679   2.914
 3387TIP3   OH210121   2.518   4.802   2.877
 3387TIP3    H110122   2.500   4.886   2.828
 3387TIP3    H210123   2.541   4.741   2.804
 3388TIP3   OH210124   1.463   4.315   2.852
 3388TIP3    H110125   1.478   4.238   2.911
 3388TIP3    H210126   1.552   4.358   2.858
 3389TIP3   OH210127   1.720   4.413   2.873
 3389TIP3    H110128   1.784   4.418   2.798
 3389TIP3    H210129   1.779   4.434   2.947
 3390TIP3   OH210130   2.318   3.076   2.939
 3390TIP3    H110131   2.279   3.004   2.992
 3390TIP3    H210132   2.397   3.033   2.901
 3391TIP3   OH210133   2.842   2.965   2.856
 3391TIP3    H110134   2.880   3.011   2.778
 3391TIP3    H210135   2.747   2.979   2.843
 3392TIP3   OH210136   2.938   3.056   2.617
 3392TIP3    H110137   3.011   3.005   2.576
 3392TIP3    H210138   2.972   3.147   2.601
 3393TIP3   OH210139   1.368   2.658   2.613
 3393TIP3    H110140   1.384   2.713   2.534
 3393TIP3    H210141   1.329   2.722   2.675
 3394TIP3   OH210142   1.992   2.855   2.831
 3394TIP3    H110143   2.073   2.884   2.785
 3394TIP3    H210144   2.021   2.866   2.924
 3395TIP3   OH210145   2.555   2.965   2.827
 3395TIP3    H110146   2.565   2.927   2.738
 3395TIP3    H210147   2.545   2.884   2.882
 3396TIP3   OH210148   2.590   2.889   2.389
 3396TIP3    H110149   2.502   2.929   2.397
 3396TIP3    H210150   2.576   2.804   2.436
 3397TIP3   OH210151   1.067   4.231   2.394
 3397TIP3    H110152   0.984   4.198   2.357
 3397TIP3    H210153   1.062   4.323   2.364
 3398TIP3   OH210154   1.471   2.813   2.374
 3398TIP3    H110155   1.518   2.749   2.315
 3398TIP3    H210156   1.545   2.860   2.414
 3399TIP3   OH210157   1.982   2.986   2.493
 3399TIP3    H110158   2.067   2.951   2.524
 3399TIP3    H210159   2.002   3.083   2.503
 3400TIP3   OH210160   1.843   4.417   1.968
 3400TIP3    H110161   1.933   4.438   1.935
 3400TIP3    H210162   1.823   4.340   1.910
 3401TIP3   OH210163   2.568   4.535   2.063
 3401TIP3    H110164   2.559   4.437   2.054
 3401TIP3    H210165   2.519   4.566   1.985
 3402TIP3   OH210166   1.778   3.066   3.853
 3402TIP3    H110167   1.742   2.997   3.911
 3402TIP3    H210168   1.871   3.067   3.882
 3403TIP3   OH210169   2.028   3.070   3.975
 3403TIP3    H110170   2.112   3.041   3.935
 3403TIP3    H210171   2.013   2.999   4.041
 3404TIP3   OH210172   1.148   4.249   2.028
 3404TIP3    H110173   1.158   4.283   2.118
 3404TIP3    H210174   1.237   4.208   2.012
 3405TIP3   OH210175   2.851   3.133   3.759
 3405TIP3    H110176   2.868   3.098   3.849
 3405TIP3    H210177   2.939   3.124   3.717
 3406TIP3   OH210178   2.789   4.678   3.251
 3406TIP3    H110179   2.711   4.648   3.200
 3406TIP3    H210180   2.771   4.775   3.254
 3407TIP3   OH210181   4.057   4.048   2.018
 3407TIP3    H110182   4.030   4.141   2.001
 3407TIP3    H210183   3.979   4.001   1.984
 3408TIP3   OH210184   4.057   4.049   2.397
 3408TIP3    H110185   4.088   4.031   2.488
 3408TIP3    H210186   4.012   3.966   2.375
 3409TIP3   OH210187   3.356   3.948   2.766
 3409TIP3    H110188   3.388   3.879   2.827
 3409TIP3    H210189   3.435   4.003   2.756
 3410TIP3   OH210190   4.299   4.353   2.083
 3410TIP3    H110191   4.287   4.286   2.151
 3410TIP3    H210192   4.330   4.430   2.134
 3411TIP3   OH210193   3.327   4.355   2.488
 3411TIP3    H110194   3.319   4.258   2.490
 3411TIP3    H210195   3.423   4.365   2.483
 3412TIP3   OH210196   3.034   3.556   2.274
 3412TIP3    H110197   2.988   3.640   2.290
 3412TIP3    H210198   2.962   3.505   2.230
 3413TIP3   OH210199   3.092   3.846   2.447
 3413TIP3    H110200   3.142   3.768   2.481
 3413TIP3    H210201   3.153   3.881   2.381
 3414TIP3   OH210202   3.948   4.815   2.097
 3414TIP3    H110203   3.994   4.744   2.047
 3414TIP3    H210204   3.943   4.777   2.186
 3415TIP3   OH210205   3.855   4.277   2.448
 3415TIP3    H110206   3.896   4.202   2.400
 3415TIP3    H210207   3.938   4.323   2.475
 3416TIP3   OH210208   4.840   3.594   2.444
 3416TIP3    H110209   4.875   3.665   2.503
 3416TIP3    H210210   4.888   3.615   2.362
 3417TIP3   OH210211   4.278   3.769   2.487
 3417TIP3    H110212   4.248   3.696   2.544
 3417TIP3    H210213   4.236   3.751   2.402
 3418TIP3   OH210214   3.605   3.437   2.445
 3418TIP3    H110215   3.587   3.510   2.382
 3418TIP3    H210216   3.558   3.364   2.400
 3419TIP3   OH210217   4.306   3.538   2.066
 3419TIP3    H110218   4.375   3.480   2.100
 3419TIP3    H210219   4.348   3.575   1.986
 3420TIP3   OH210220   3.237   3.638   2.553
 3420TIP3    H110221   3.321   3.621   2.599
 3420TIP3    H210222   3.252   3.583   2.472
 3421TIP3   OH210223   3.679   3.837   2.345
 3421TIP3    H110224   3.773   3.813   2.357
 3421TIP3    H210225   3.641   3.753   2.312
 3422TIP3   OH210226   4.923   3.791   2.630
 3422TIP3    H110227   4.856   3.861   2.613
 3422TIP3    H210228   4.970   3.827   2.708
 3423TIP3   OH210229   3.601   3.423   2.879
 3423TIP3    H110230   3.542   3.459   2.810
 3423TIP3    H210231   3.550   3.445   2.959
 3424TIP3   OH210232   3.947   4.271   1.888
 3424TIP3    H110233   3.905   4.256   1.802
 3424TIP3    H210234   3.905   4.355   1.915
 3425TIP3   OH210235   3.708   4.196   2.674
 3425TIP3    H110236   3.648   4.263   2.712
 3425TIP3    H210237   3.752   4.246   2.602
 3426TIP3   OH210238   3.472   3.536   2.663
 3426TIP3    H110239   3.534   3.608   2.687
 3426TIP3    H210240   3.521   3.496   2.588
 3427TIP3   OH210241   3.536   4.391   2.771
 3427TIP3    H110242   3.511   4.478   2.733
 3427TIP3    H210243   3.456   4.376   2.827
 3428TIP3   OH210244   2.930   4.081   2.008
 3428TIP3    H110245   2.889   4.110   1.925
 3428TIP3    H210246   2.962   4.166   2.045
 3429TIP3   OH210247   4.368   4.597   2.246
 3429TIP3    H110248   4.278   4.588   2.286
 3429TIP3    H210249   4.360   4.684   2.202
 3430TIP3   OH210250   3.956   3.140   2.594
 3430TIP3    H110251   3.943   3.044   2.611
 3430TIP3    H210252   3.878   3.177   2.641
 3431TIP3   OH210253   4.071   4.642   1.921
 3431TIP3    H110254   4.121   4.559   1.901
 3431TIP3    H210255   4.133   4.707   1.881
 3432TIP3   OH210256   4.214   4.427   1.831
 3432TIP3    H110257   4.178   4.347   1.790
 3432TIP3    H210258   4.250   4.392   1.915
 3433TIP3   OH210259   4.592   4.511   2.591
 3433TIP3    H110260   4.585   4.431   2.533
 3433TIP3    H210261   4.580   4.584   2.526
 3434TIP3   OH210262   3.887   3.901   1.850
 3434TIP3    H110263   3.808   3.955   1.829
 3434TIP3    H210264   3.933   3.901   1.764
 3435TIP3   OH210265   3.846   3.688   1.563
 3435TIP3    H110266   3.912   3.741   1.612
 3435TIP3    H210267   3.905   3.625   1.517
 3436TIP3   OH210268   4.789   4.140   2.433
 3436TIP3    H110269   4.709   4.196   2.441
 3436TIP3    H210270   4.822   4.170   2.345
 3437TIP3   OH210271   4.234   3.985   1.820
 3437TIP3    H110272   4.180   4.008   1.899
 3437TIP3    H210273   4.320   3.962   1.862
 3438TIP3   OH210274   4.465   4.022   2.735
 3438TIP3    H110275   4.475   4.098   2.797
 3438TIP3    H210276   4.385   4.049   2.687
 3439TIP3   OH210277   3.467   3.983   2.239
 3439TIP3    H110278   3.426   3.925   2.170
 3439TIP3    H210279   3.544   3.929   2.267
 3440TIP3   OH210280   3.597   4.393   2.387
 3440TIP3    H110281   3.578   4.355   2.300
 3440TIP3    H210282   3.687   4.359   2.405
 3441TIP3   OH210283   3.603   3.954   2.592
 3441TIP3    H110284   3.637   3.933   2.503
 3441TIP3    H210285   3.647   4.040   2.611
 3442TIP3   OH210286   4.127   4.592   2.369
 3442TIP3    H110287   4.117   4.672   2.423
 3442TIP3    H210288   4.112   4.519   2.433
 3443TIP3   OH210289   3.743   4.511   2.915
 3443TIP3    H110290   3.683   4.572   2.963
 3443TIP3    H210291   3.677   4.458   2.865
 3444TIP3   OH210292   4.075   3.843   1.646
 3444TIP3    H110293   4.133   3.903   1.697
 3444TIP3    H210294   4.101   3.865   1.553
 3445TIP3   OH210295   3.499   4.065   3.022
 3445TIP3    H110296   3.504   4.154   3.061
 3445TIP3    H210297   3.402   4.049   3.026
 3446TIP3   OH210298   3.819   4.522   1.923
 3446TIP3    H110299   3.900   4.575   1.936
 3446TIP3    H210300   3.759   4.587   1.883
 3447TIP3   OH210301   3.536   4.677   3.003
 3447TIP3    H110302   3.500   4.679   2.913
 3447TIP3    H210303   3.456   4.655   3.057
 3448TIP3   OH210304   4.592   3.085   1.695
 3448TIP3    H110305   4.509   3.106   1.743
 3448TIP3    H210306   4.606   3.166   1.643
 3449TIP3   OH210307   3.334   3.825   2.041
 3449TIP3    H110308   3.268   3.871   1.986
 3449TIP3    H210309   3.293   3.739   2.053
 3450TIP3   OH210310   4.391   4.450   1.243
 3450TIP3    H110311   4.399   4.547   1.229
 3450TIP3    H210312   4.484   4.421   1.232
 3451TIP3   OH210313   3.112   4.213   2.949
 3451TIP3    H110314   3.046   4.193   2.880
 3451TIP3    H210315   3.151   4.125   2.969
 3452TIP3   OH210316   2.969   4.402   2.584
 3452TIP3    H110317   3.065   4.401   2.575
 3452TIP3    H210318   2.955   4.483   2.636
 3453TIP3   OH210319   4.831   4.853   2.635
 3453TIP3    H110320   4.833   4.757   2.653
 3453TIP3    H210321   4.750   4.878   2.684
 3454TIP3   OH210322   3.939   4.640   2.772
 3454TIP3    H110323   3.937   4.733   2.806
 3454TIP3    H210324   3.868   4.599   2.827
 3455TIP3   OH210325   3.700   4.768   1.726
 3455TIP3    H110326   3.655   4.753   1.641
 3455TIP3    H210327   3.669   4.857   1.751
 3456TIP3   OH210328   3.138   4.618   2.110
 3456TIP3    H110329   3.187   4.609   2.195
 3456TIP3    H210330   3.080   4.540   2.115
 3457TIP3   OH210331   3.900   4.669   1.364
 3457TIP3    H110332   3.960   4.600   1.328
 3457TIP3    H210333   3.936   4.681   1.455
 3458TIP3   OH210334   3.951   4.718   1.634
 3458TIP3    H110335   3.864   4.727   1.677
 3458TIP3    H210336   4.004   4.681   1.707
 3459TIP3   OH210337   4.729   3.972   2.873
 3459TIP3    H110338   4.635   3.994   2.878
 3459TIP3    H210339   4.732   3.880   2.903
 3460TIP3   OH210340   3.320   4.392   2.937
 3460TIP3    H110341   3.368   4.378   3.021
 3460TIP3    H210342   3.244   4.330   2.946
 3461TIP3   OH210343   3.719   3.214   2.723
 3461TIP3    H110344   3.630   3.185   2.695
 3461TIP3    H210345   3.694   3.297   2.768
 3462TIP3   OH210346   4.255   3.333   2.912
 3462TIP3    H110347   4.325   3.312   2.976
 3462TIP3    H210348   4.173   3.316   2.962
 3463TIP3   OH210349   4.475   3.762   2.823
 3463TIP3    H110350   4.437   3.758   2.913
 3463TIP3    H210351   4.463   3.856   2.798
 3464TIP3   OH210352   4.149   3.888   1.389
 3464TIP3    H110353   4.118   3.864   1.300
 3464TIP3    H210354   4.232   3.935   1.368
 3465TIP3   OH210355   3.863   3.265   1.694
 3465TIP3    H110356   3.829   3.261   1.785
 3465TIP3    H210357   3.825   3.182   1.658
 3466TIP3   OH210358   3.650   3.731   2.740
 3466TIP3    H110359   3.603   3.756   2.822
 3466TIP3    H210360   3.636   3.812   2.685
 3467TIP3   OH210361   3.535   3.617   2.255
 3467TIP3    H110362   3.442   3.592   2.273
 3467TIP3    H210363   3.548   3.577   2.166
 3468TIP3   OH210364   4.025   3.701   1.982
 3468TIP3    H110365   3.973   3.774   1.941
 3468TIP3    H210366   4.080   3.672   1.906
 3469TIP3   OH210367   4.203   3.990   3.074
 3469TIP3    H110368   4.186   3.912   3.132
 3469TIP3    H210369   4.301   3.999   3.087
 3470TIP3   OH210370   4.178   3.730   2.229
 3470TIP3    H110371   4.121   3.772   2.162
 3470TIP3    H210372   4.210   3.654   2.177
 3471TIP3   OH210373   3.470   3.763   2.950
 3471TIP3    H110374   3.507   3.830   3.010
 3471TIP3    H210375   3.463   3.684   3.007
 3472TIP3   OH210376   3.519   3.238   1.659
 3472TIP3    H110377   3.510   3.236   1.756
 3472TIP3    H210378   3.441   3.292   1.635
 3473TIP3   OH210379   3.062   3.280   2.535
 3473TIP3    H110380   3.139   3.314   2.584
 3473TIP3    H210381   3.100   3.253   2.449
 3474TIP3   OH210382   3.034   3.263   2.050
 3474TIP3    H110383   3.080   3.300   1.972
 3474TIP3    H210384   2.973   3.337   2.069
 3475TIP3   OH210385   4.175   3.975   2.639
 3475TIP3    H110386   4.228   3.911   2.586
 3475TIP3    H210387   4.161   3.923   2.720
 3476TIP3   OH210388   3.860   3.448   2.315
 3476TIP3    H110389   3.780   3.440   2.371
 3476TIP3    H210390   3.932   3.428   2.378
 3477TIP3   OH210391   3.295   3.495   2.325
 3477TIP3    H110392   3.201   3.503   2.296
 3477TIP3    H210393   3.319   3.404   2.300
 3478TIP3   OH210394   3.564   3.491   2.013
 3478TIP3    H110395   3.658   3.506   1.990
 3478TIP3    H210396   3.517   3.513   1.930
 3479TIP3   OH210397   3.409   3.525   1.791
 3479TIP3    H110398   3.336   3.481   1.743
 3479TIP3    H210399   3.460   3.562   1.717
 3480TIP3   OH210400   4.520   5.209   2.736
 3480TIP3    H110401   4.526   5.218   2.639
 3480TIP3    H210402   4.607   5.246   2.764
 3481TIP3   OH210403   3.483   4.311   3.160
 3481TIP3    H110404   3.564   4.343   3.206
 3481TIP3    H210405   3.418   4.319   3.233
 3482TIP3   OH210406   3.944   3.771   2.415
 3482TIP3    H110407   4.010   3.724   2.362
 3482TIP3    H210408   3.947   3.724   2.500
 3483TIP3   OH210409   3.467   3.256   2.292
 3483TIP3    H110410   3.433   3.177   2.339
 3483TIP3    H210411   3.516   3.217   2.218
 3484TIP3   OH210412   3.924   3.669   2.704
 3484TIP3    H110413   3.835   3.705   2.717
 3484TIP3    H210414   3.981   3.729   2.756
 3485TIP3   OH210415   3.659   4.055   1.798
 3485TIP3    H110416   3.586   3.990   1.787
 3485TIP3    H210417   3.640   4.089   1.889
 3486TIP3   OH210418   4.560   4.292   2.426
 3486TIP3    H110419   4.585   4.343   2.346
 3486TIP3    H210420   4.474   4.252   2.401
 3487TIP3   OH210421   4.116   3.365   1.666
 3487TIP3    H110422   4.019   3.349   1.670
 3487TIP3    H210423   4.124   3.460   1.686
 3488TIP3   OH210424   4.049   4.371   2.797
 3488TIP3    H110425   4.091   4.356   2.883
 3488TIP3    H210426   4.017   4.462   2.803
 3489TIP3   OH210427   4.187   3.617   1.766
 3489TIP3    H110428   4.284   3.624   1.776
 3489TIP3    H210429   4.165   3.697   1.713
 3490TIP3   OH210430   3.349   4.075   2.474
 3490TIP3    H110431   3.387   4.049   2.388
 3490TIP3    H210432   3.396   4.016   2.535
 3491TIP3   OH210433   3.802   4.204   1.617
 3491TIP3    H110434   3.754   4.290   1.622
 3491TIP3    H210435   3.749   4.150   1.680
 3492TIP3   OH210436   3.232   4.002   3.084
 3492TIP3    H110437   3.257   3.986   3.177
 3492TIP3    H210438   3.164   3.934   3.070
 3493TIP3   OH210439   3.958   4.111   3.105
 3493TIP3    H110440   3.904   4.053   3.050
 3493TIP3    H210441   4.048   4.080   3.082
 3494TIP3   OH210442   4.215   4.635   2.691
 3494TIP3    H110443   4.119   4.635   2.706
 3494TIP3    H210444   4.246   4.686   2.770
 3495TIP3   OH210445   4.624   3.708   1.603
 3495TIP3    H110446   4.563   3.664   1.539
 3495TIP3    H210447   4.623   3.797   1.561
 3496TIP3   OH210448   4.842   4.565   2.682
 3496TIP3    H110449   4.744   4.557   2.673
 3496TIP3    H210450   4.869   4.533   2.593
 3497TIP3   OH210451   4.325   4.525   1.507
 3497TIP3    H110452   4.304   4.454   1.569
 3497TIP3    H210453   4.341   4.478   1.423
 3498TIP3   OH210454   4.322   4.156   2.344
 3498TIP3    H110455   4.229   4.131   2.357
 3498TIP3    H210456   4.357   4.077   2.298
 3499TIP3   OH210457   3.452   4.382   2.098
 3499TIP3    H110458   3.451   4.463   2.044
 3499TIP3    H210459   3.358   4.366   2.111
 3500TIP3   OH210460   3.016   3.686   1.803
 3500TIP3    H110461   3.060   3.771   1.824
 3500TIP3    H210462   2.939   3.690   1.864
 3501TIP3   OH210463   3.587   4.146   2.042
 3501TIP3    H110464   3.554   4.236   2.060
 3501TIP3    H210465   3.552   4.096   2.118
 3502TIP3   OH210466   3.721   4.725   2.568
 3502TIP3    H110467   3.763   4.798   2.518
 3502TIP3    H210468   3.797   4.689   2.616
 3503TIP3   OH210469   3.371   4.621   1.950
 3503TIP3    H110470   3.285   4.630   1.997
 3503TIP3    H210471   3.404   4.713   1.953
 3504TIP3   OH210472   4.108   4.357   2.529
 3504TIP3    H110473   4.097   4.355   2.626
 3504TIP3    H210474   4.193   4.314   2.518
 3505TIP3   OH210475   4.084   4.250   1.411
 3505TIP3    H110476   4.138   4.226   1.489
 3505TIP3    H210477   3.995   4.227   1.442
 3506TIP3   OH210478   4.354   4.895   2.580
 3506TIP3    H110479   4.276   4.836   2.571
 3506TIP3    H210480   4.340   4.957   2.505
 3507TIP3   OH210481   4.423   4.726   1.230
 3507TIP3    H110482   4.461   4.798   1.177
 3507TIP3    H210483   4.343   4.772   1.262
 3508TIP3   OH210484   3.441   3.504   3.095
 3508TIP3    H110485   3.344   3.504   3.097
 3508TIP3    H210486   3.462   3.432   3.158
 3509TIP3   OH210487   4.244   4.185   1.626
 3509TIP3    H110488   4.235   4.119   1.698
 3509TIP3    H210489   4.342   4.183   1.614
 3510TIP3   OH210490   3.160   4.587   2.726
 3510TIP3    H110491   3.215   4.515   2.761
 3510TIP3    H210492   3.185   4.660   2.783
 3511TIP3   OH210493   3.449   4.232   1.409
 3511TIP3    H110494   3.464   4.140   1.383
 3511TIP3    H210495   3.430   4.223   1.504
 3512TIP3   OH210496   3.395   4.238   1.681
 3512TIP3    H110497   3.467   4.212   1.740
 3512TIP3    H210498   3.398   4.336   1.688
 3513TIP3   OH210499   3.129   3.931   1.885
 3513TIP3    H110500   3.063   3.976   1.942
 3513TIP3    H210501   3.143   4.000   1.817
 3514TIP3   OH210502   4.304   3.553   2.735
 3514TIP3    H110503   4.363   3.612   2.785
 3514TIP3    H210504   4.284   3.483   2.799
 3515TIP3   OH210505   4.160   3.320   1.943
 3515TIP3    H110506   4.143   3.335   1.847
 3515TIP3    H210507   4.190   3.408   1.972
 3516TIP3   OH210508   3.660   4.434   1.628
 3516TIP3    H110509   3.574   4.460   1.666
 3516TIP3    H210510   3.678   4.511   1.573
 3517TIP3   OH210511   3.848   3.499   2.044
 3517TIP3    H110512   3.912   3.571   2.027
 3517TIP3    H210513   3.853   3.492   2.142
 3518TIP3   OH210514   4.127   3.816   2.860
 3518TIP3    H110515   4.136   3.881   2.933
 3518TIP3    H210516   4.185   3.746   2.892
 3519TIP3   OH210517   3.990   3.224   2.144
 3519TIP3    H110518   3.988   3.298   2.207
 3519TIP3    H210519   4.051   3.260   2.076
 3520TIP3   OH210520   3.404   4.510   1.698
 3520TIP3    H110521   3.374   4.580   1.636
 3520TIP3    H210522   3.389   4.553   1.785
 3521TIP3   OH210523   3.504   3.225   1.936
 3521TIP3    H110524   3.503   3.316   1.972
 3521TIP3    H210525   3.600   3.206   1.943
 3522TIP3   OH210526   4.737   3.689   2.834
 3522TIP3    H110527   4.644   3.711   2.814
 3522TIP3    H210528   4.786   3.717   2.756
 3523TIP3   OH210529   4.412   3.910   2.221
 3523TIP3    H110530   4.334   3.856   2.241
 3523TIP3    H210531   4.481   3.868   2.275
 3524TIP3   OH210532   3.122   4.139   1.690
 3524TIP3    H110533   3.187   4.210   1.700
 3524TIP3    H210534   3.168   4.085   1.623
 3525TIP3   OH210535   3.065   3.416   1.825
 3525TIP3    H110536   3.066   3.514   1.822
 3525TIP3    H210537   2.983   3.395   1.778
 3526TIP3   OH210538   4.377   4.868   2.170
 3526TIP3    H110539   4.335   4.916   2.095
 3526TIP3    H210540   4.471   4.887   2.150
 3527TIP3   OH210541   3.452   3.137   2.697
 3527TIP3    H110542   3.423   3.103   2.610
 3527TIP3    H210543   3.442   3.058   2.754
 3528TIP3   OH210544   2.990   4.349   2.076
 3528TIP3    H110545   2.923   4.383   2.136
 3528TIP3    H210546   2.963   4.393   1.992
 3529TIP3   OH210547   3.151   4.898   3.150
 3529TIP3    H110548   3.237   4.899   3.197
 3529TIP3    H210549   3.131   4.803   3.149
 3530TIP3   OH210550   3.630   4.862   3.192
 3530TIP3    H110551   3.724   4.842   3.203
 3530TIP3    H210552   3.606   4.800   3.120
 3531TIP3   OH210553   3.611   4.436   1.319
 3531TIP3    H110554   3.555   4.365   1.359
 3531TIP3    H210555   3.689   4.384   1.292
 3532TIP3   OH210556   4.271   4.767   2.927
 3532TIP3    H110557   4.261   4.697   2.996
 3532TIP3    H210558   4.351   4.815   2.958
 3533TIP3   OH210559   4.047   4.475   1.233
 3533TIP3    H110560   4.095   4.415   1.293
 3533TIP3    H210561   4.104   4.476   1.153
 3534TIP3   OH210562   3.280   4.304   3.348
 3534TIP3    H110563   3.291   4.209   3.364
 3534TIP3    H210564   3.192   4.307   3.303
 3535TIP3   OH210565   3.258   3.953   1.543
 3535TIP3    H110566   3.313   3.922   1.617
 3535TIP3    H210567   3.325   3.958   1.472
 3536TIP3   OH210568   3.887   4.388   3.123
 3536TIP3    H110569   3.849   4.407   3.036
 3536TIP3    H210570   3.918   4.295   3.114
 3537TIP3   OH210571   3.766   4.152   1.349
 3537TIP3    H110572   3.771   4.164   1.446
 3537TIP3    H210573   3.766   4.054   1.344
 3538TIP3   OH210574   4.373   4.401   2.721
 3538TIP3    H110575   4.455   4.440   2.683
 3538TIP3    H210576   4.311   4.475   2.708
 3539TIP3   OH210577   3.393   4.014   3.340
 3539TIP3    H110578   3.481   3.990   3.309
 3539TIP3    H210579   3.416   4.057   3.425
 3540TIP3   OH210580   3.465   3.858   1.765
 3540TIP3    H110581   3.438   3.817   1.848
 3540TIP3    H210582   3.502   3.782   1.715
 3541TIP3   OH210583   3.731   3.915   2.987
 3541TIP3    H110584   3.659   3.982   2.992
 3541TIP3    H210585   3.785   3.952   2.913
 3542TIP3   OH210586   3.566   3.651   1.606
 3542TIP3    H110587   3.541   3.657   1.511
 3542TIP3    H210588   3.664   3.653   1.599
 3543TIP3   OH210589   4.264   4.324   3.113
 3543TIP3    H110590   4.342   4.307   3.057
 3543TIP3    H210591   4.267   4.249   3.173
 3544TIP3   OH210592   4.385   3.980   1.270
 3544TIP3    H110593   4.368   3.936   1.185
 3544TIP3    H210594   4.353   4.071   1.248
 3545TIP3   OH210595   3.846   3.703   3.118
 3545TIP3    H110596   3.859   3.628   3.057
 3545TIP3    H210597   3.812   3.773   3.058
 3546TIP3   OH210598   3.860   3.496   2.925
 3546TIP3    H110599   3.889   3.538   2.841
 3546TIP3    H210600   3.767   3.474   2.905
 3547TIP3   OH210601   3.888   4.027   2.799
 3547TIP3    H110602   3.973   4.041   2.755
 3547TIP3    H210603   3.831   4.095   2.755
 3548TIP3   OH210604   4.471   3.994   3.142
 3548TIP3    H110605   4.523   3.921   3.179
 3548TIP3    H210606   4.535   4.066   3.143
 3549TIP3   OH210607   4.497   4.235   2.899
 3549TIP3    H110608   4.448   4.298   2.842
 3549TIP3    H210609   4.589   4.264   2.881
 3550TIP3   OH210610   3.734   3.816   3.345
 3550TIP3    H110611   3.645   3.784   3.354
 3550TIP3    H210612   3.763   3.783   3.257
 3551TIP3   OH210613   3.992   3.258   2.991
 3551TIP3    H110614   3.943   3.341   2.970
 3551TIP3    H210615   3.923   3.190   2.980
 3552TIP3   OH210616   4.123   3.766   3.207
 3552TIP3    H110617   4.150   3.750   3.300
 3552TIP3    H210618   4.031   3.736   3.204
 3553TIP3   OH210619   4.351   3.703   3.057
 3553TIP3    H110620   4.278   3.713   3.121
 3553TIP3    H210621   4.425   3.680   3.118
 3554TIP3   OH210622   4.552   3.653   3.240
 3554TIP3    H110623   4.591   3.563   3.235
 3554TIP3    H210624   4.600   3.689   3.316
 3555TIP3   OH210625   3.493   3.571   3.434
 3555TIP3    H110626   3.552   3.533   3.366
 3555TIP3    H210627   3.560   3.605   3.497
 3556TIP3   OH210628   4.081   3.262   3.249
 3556TIP3    H110629   4.154   3.197   3.245
 3556TIP3    H210630   4.047   3.257   3.157
 3557TIP3   OH210631   4.137   3.469   3.415
 3557TIP3    H110632   4.121   3.403   3.345
 3557TIP3    H210633   4.067   3.535   3.399
 3558TIP3   OH210634   3.373   4.711   1.510
 3558TIP3    H110635   3.469   4.706   1.493
 3558TIP3    H210636   3.346   4.763   1.432
 3559TIP3   OH210637   2.853   4.095   1.726
 3559TIP3    H110638   2.948   4.117   1.712
 3559TIP3    H210639   2.847   4.006   1.686
 3560TIP3   OH210640   2.770   4.708   2.140
 3560TIP3    H110641   2.703   4.647   2.103
 3560TIP3    H210642   2.814   4.650   2.206
 3561TIP3   OH210643   2.906   4.557   2.326
 3561TIP3    H110644   2.890   4.486   2.390
 3561TIP3    H210645   2.957   4.619   2.381
 3562TIP3   OH210646   4.630   4.961   2.129
 3562TIP3    H110647   4.661   4.992   2.216
 3562TIP3    H210648   4.695   4.999   2.068
 3563TIP3   OH210649   4.662   4.980   2.412
 3563TIP3    H110650   4.616   4.894   2.405
 3563TIP3    H210651   4.736   4.954   2.469
 3564TIP3   OH210652   4.699   4.657   2.978
 3564TIP3    H110653   4.633   4.662   3.050
 3564TIP3    H210654   4.747   4.742   2.988
 3565TIP3   OH210655   4.522   4.169   1.602
 3565TIP3    H110656   4.589   4.233   1.571
 3565TIP3    H210657   4.568   4.131   1.680
 3566TIP3   OH210658   4.651   4.036   1.804
 3566TIP3    H110659   4.585   3.997   1.865
 3566TIP3    H210660   4.718   4.073   1.866
 3567TIP3   OH210661   4.702   4.427   2.234
 3567TIP3    H110662   4.759   4.362   2.188
 3567TIP3    H210663   4.701   4.502   2.171
 3568TIP3   OH210664   4.536   4.731   2.429
 3568TIP3    H110665   4.464   4.768   2.484
 3568TIP3    H210666   4.486   4.683   2.360
 3569TIP3   OH210667   4.588   3.943   1.453
 3569TIP3    H110668   4.517   3.946   1.385
 3569TIP3    H210669   4.561   4.019   1.507
 3570TIP3   OH210670   4.457   3.618   1.409
 3570TIP3    H110671   4.420   3.655   1.329
 3570TIP3    H210672   4.433   3.523   1.399
 3571TIP3   OH210673   4.464   3.896   1.951
 3571TIP3    H110674   4.474   3.800   1.943
 3571TIP3    H210675   4.450   3.909   2.047
 3572TIP3   OH210676   3.091   3.957   2.703
 3572TIP3    H110677   3.089   3.931   2.608
 3572TIP3    H210678   3.189   3.964   2.717
 3573TIP3   OH210679   4.746   4.314   2.806
 3573TIP3    H110680   4.821   4.250   2.804
 3573TIP3    H210681   4.783   4.390   2.760
 3574TIP3   OH210682   4.942   4.129   2.822
 3574TIP3    H110683   4.869   4.071   2.853
 3574TIP3    H210684   5.018   4.068   2.837
 3575TIP3   OH210685   4.402   3.352   1.393
 3575TIP3    H110686   4.478   3.319   1.445
 3575TIP3    H210687   4.331   3.289   1.414
 3576TIP3   OH210688   4.462   3.610   1.846
 3576TIP3    H110689   4.502   3.521   1.858
 3576TIP3    H210690   4.520   3.645   1.776
 3577TIP3   OH210691   4.616   3.764   2.360
 3577TIP3    H110692   4.695   3.792   2.307
 3577TIP3    H210693   4.629   3.824   2.437
 3578TIP3   OH210694   4.681   3.928   2.568
 3578TIP3    H110695   4.615   3.965   2.629
 3578TIP3    H210696   4.721   4.009   2.531
 3579TIP3   OH210697   4.564   3.359   1.892
 3579TIP3    H110698   4.622   3.334   1.966
 3579TIP3    H210699   4.507   3.280   1.885
 3580TIP3   OH210700   3.268   3.345   2.711
 3580TIP3    H110701   3.330   3.270   2.716
 3580TIP3    H210702   3.331   3.419   2.698
 3581TIP3   OH210703   3.075   3.618   2.783
 3581TIP3    H110704   3.122   3.610   2.697
 3581TIP3    H210705   3.095   3.710   2.806
 3582TIP3   OH210706   5.021   3.667   2.907
 3582TIP3    H110707   4.962   3.681   2.982
 3582TIP3    H210708   5.003   3.575   2.883
 3583TIP3   OH210709   4.650   3.292   1.518
 3583TIP3    H110710   4.690   3.221   1.464
 3583TIP3    H210711   4.717   3.363   1.513
 3584TIP3   OH210712   3.056   3.125   2.281
 3584TIP3    H110713   2.962   3.119   2.303
 3584TIP3    H210714   3.054   3.182   2.201
 3585TIP3   OH210715   4.215   4.826   1.784
 3585TIP3    H110716   4.265   4.814   1.701
 3585TIP3    H210717   4.269   4.893   1.829
 3586TIP3   OH210718   3.278   3.215   3.100
 3586TIP3    H110719   3.225   3.201   3.180
 3586TIP3    H210720   3.210   3.244   3.036
 3587TIP3   OH210721   3.317   4.626   3.169
 3587TIP3    H110722   3.223   4.603   3.156
 3587TIP3    H210723   3.328   4.613   3.264
 3588TIP3   OH210724   3.494   4.661   2.715
 3588TIP3    H110725   3.446   4.738   2.676
 3588TIP3    H210726   3.580   4.676   2.672
 3589TIP3   OH210727   3.938   4.907   2.854
 3589TIP3    H110728   3.980   4.905   2.943
 3589TIP3    H210729   4.006   4.958   2.803
 3590TIP3   OH210730   4.119   5.060   2.714
 3590TIP3    H110731   4.189   5.007   2.672
 3590TIP3    H210732   4.173   5.113   2.777
 3591TIP3   OH210733   4.925   3.411   2.814
 3591TIP3    H110734   4.831   3.396   2.829
 3591TIP3    H210735   4.958   3.319   2.803
 3592TIP3   OH210736   3.169   4.917   2.742
 3592TIP3    H110737   3.080   4.950   2.718
 3592TIP3    H210738   3.182   4.961   2.827
 3593TIP3   OH210739   3.406   4.897   2.599
 3593TIP3    H110740   3.319   4.910   2.643
 3593TIP3    H210741   3.388   4.930   2.509
 3594TIP3   OH210742   3.832   4.926   2.397
 3594TIP3    H110743   3.763   4.944   2.330
 3594TIP3    H210744   3.843   5.014   2.438
 3595TIP3   OH210745   4.101   4.865   2.448
 3595TIP3    H110746   4.007   4.882   2.427
 3595TIP3    H210747   4.145   4.939   2.404
 3596TIP3   OH210748   4.309   5.057   2.362
 3596TIP3    H110749   4.292   5.140   2.313
 3596TIP3    H210750   4.336   4.996   2.289
 3597TIP3   OH210751   3.083   4.712   2.484
 3597TIP3    H110752   3.108   4.687   2.575
 3597TIP3    H210753   3.155   4.668   2.434
 3598TIP3   OH210754   3.276   4.583   2.342
 3598TIP3    H110755   3.292   4.500   2.392
 3598TIP3    H210756   3.367   4.620   2.338
 3599TIP3   OH210757   3.542   4.678   2.347
 3599TIP3    H110758   3.574   4.587   2.335
 3599TIP3    H210759   3.587   4.701   2.430
 3600TIP3   OH210760   4.093   3.327   2.418
 3600TIP3    H110761   4.065   3.265   2.487
 3600TIP3    H210762   4.181   3.294   2.394
 3601TIP3   OH210763   4.627   3.292   2.363
 3601TIP3    H110764   4.678   3.289   2.280
 3601TIP3    H210765   4.545   3.244   2.336
 3602TIP3   OH210766   4.733   3.312   2.110
 3602TIP3    H110767   4.804   3.257   2.068
 3602TIP3    H210768   4.771   3.401   2.089
 3603TIP3   OH210769   3.365   3.044   2.449
 3603TIP3    H110770   3.273   3.012   2.451
 3603TIP3    H210771   3.413   2.958   2.445
 3604TIP3   OH210772   3.154   2.914   2.098
 3604TIP3    H110773   3.184   2.969   2.024
 3604TIP3    H210774   3.127   2.980   2.164
 3605TIP3   OH210775   3.810   3.076   2.331
 3605TIP3    H110776   3.867   3.124   2.269
 3605TIP3    H210777   3.837   3.115   2.415
 3606TIP3   OH210778   4.359   3.223   2.306
 3606TIP3    H110779   4.347   3.177   2.222
 3606TIP3    H210780   4.344   3.150   2.370
 3607TIP3   OH210781   4.386   3.145   1.877
 3607TIP3    H110782   4.298   3.185   1.885
 3607TIP3    H210783   4.371   3.059   1.922
 3608TIP3   OH210784   2.871   4.484   1.876
 3608TIP3    H110785   2.785   4.452   1.843
 3608TIP3    H210786   2.860   4.579   1.858
 3609TIP3   OH210787   3.270   3.071   1.861
 3609TIP3    H110788   3.318   3.008   1.803
 3609TIP3    H210789   3.344   3.125   1.895
 3610TIP3   OH210790   3.781   3.248   1.958
 3610TIP3    H110791   3.840   3.200   2.018
 3610TIP3    H210792   3.804   3.340   1.984
 3611TIP3   OH210793   3.642   4.672   1.459
 3611TIP3    H110794   3.730   4.695   1.423
 3611TIP3    H210795   3.619   4.598   1.398
 3612TIP3   OH210796   4.360   4.791   1.552
 3612TIP3    H110797   4.351   4.694   1.540
 3612TIP3    H210798   4.315   4.823   1.470
 3613TIP3   OH210799   3.561   3.294   3.349
 3613TIP3    H110800   3.547   3.213   3.402
 3613TIP3    H210801   3.655   3.314   3.372
 3614TIP3   OH210802   3.817   3.322   3.457
 3614TIP3    H110803   3.905   3.312   3.417
 3614TIP3    H210804   3.819   3.250   3.523
 3615TIP3   OH210805   2.945   4.509   1.514
 3615TIP3    H110806   2.945   4.533   1.608
 3615TIP3    H210807   3.034   4.468   1.502
 3616TIP3   OH210808   4.661   3.379   3.256
 3616TIP3    H110809   4.710   3.351   3.335
 3616TIP3    H210810   4.738   3.389   3.195
 3617TIP3   OH210811   4.586   4.939   2.737
 3617TIP3    H110812   4.508   4.905   2.690
 3617TIP3    H210813   4.562   5.033   2.746
 3618TIP3   OH210814   5.853   4.307   1.504
 3618TIP3    H110815   5.825   4.399   1.484
 3618TIP3    H210816   5.777   4.258   1.471
 3619TIP3   OH210817   5.854   4.307   1.886
 3619TIP3    H110818   5.886   4.281   1.974
 3619TIP3    H210819   5.811   4.226   1.855
 3620TIP3   OH210820   5.151   4.200   2.250
 3620TIP3    H110821   5.179   4.133   2.314
 3620TIP3    H210822   5.225   4.262   2.255
 3621TIP3   OH210823   6.097   4.610   1.568
 3621TIP3    H110824   6.080   4.541   1.634
 3621TIP3    H210825   6.126   4.685   1.623
 3622TIP3   OH210826   5.121   4.612   1.974
 3622TIP3    H110827   5.114   4.514   1.976
 3622TIP3    H210828   5.218   4.622   1.971
 3623TIP3   OH210829   4.829   3.810   1.760
 3623TIP3    H110830   4.786   3.896   1.777
 3623TIP3    H210831   4.756   3.763   1.716
 3624TIP3   OH210832   4.887   4.101   1.932
 3624TIP3    H110833   4.937   4.025   1.969
 3624TIP3    H210834   4.952   4.138   1.870
 3625TIP3   OH210835   5.747   5.074   1.585
 3625TIP3    H110836   5.791   5.003   1.535
 3625TIP3    H210837   5.737   5.034   1.672
 3626TIP3   OH210838   5.651   4.535   1.934
 3626TIP3    H110839   5.690   4.458   1.889
 3626TIP3    H210840   5.734   4.580   1.959
 3627TIP3   OH210841   6.665   3.854   1.932
 3627TIP3    H110842   6.694   3.937   1.976
 3627TIP3    H210843   6.685   3.875   1.839
 3628TIP3   OH210844   6.065   4.035   1.966
 3628TIP3    H110845   6.105   3.949   1.987
 3628TIP3    H210846   6.032   4.018   1.875
 3629TIP3   OH210847   5.402   3.694   1.931
 3629TIP3    H110848   5.383   3.767   1.869
 3629TIP3    H210849   5.353   3.621   1.887
 3630TIP3   OH210850   6.097   3.786   1.554
 3630TIP3    H110851   6.169   3.769   1.619
 3630TIP3    H210852   6.149   3.822   1.480
 3631TIP3   OH210853   5.033   3.895   2.039
 3631TIP3    H110854   5.116   3.879   2.088
 3631TIP3    H210855   5.050   3.841   1.959
 3632TIP3   OH210856   5.476   4.094   1.831
 3632TIP3    H110857   5.570   4.069   1.845
 3632TIP3    H210858   5.438   4.009   1.799
 3633TIP3   OH210859   6.738   4.062   2.102
 3633TIP3    H110860   6.654   4.108   2.082
 3633TIP3    H210861   6.751   4.090   2.194
 3634TIP3   OH210862   5.398   3.676   2.365
 3634TIP3    H110863   5.337   3.716   2.301
 3634TIP3    H210864   5.348   3.689   2.448
 3635TIP3   OH210865   5.744   4.529   1.373
 3635TIP3    H110866   5.702   4.512   1.288
 3635TIP3    H210867   5.699   4.612   1.400
 3636TIP3   OH210868   5.505   4.453   2.160
 3636TIP3    H110869   5.443   4.519   2.199
 3636TIP3    H210870   5.546   4.505   2.088
 3637TIP3   OH210871   6.307   3.787   1.727
 3637TIP3    H110872   6.287   3.745   1.812
 3637TIP3    H210873   6.357   3.866   1.755
 3638TIP3   OH210874   5.267   3.793   2.150
 3638TIP3    H110875   5.329   3.865   2.176
 3638TIP3    H210876   5.318   3.753   2.076
 3639TIP3   OH210877   5.332   4.647   2.259
 3639TIP3    H110878   5.306   4.734   2.223
 3639TIP3    H210879   5.254   4.630   2.316
 3640TIP3   OH210880   4.725   4.337   1.495
 3640TIP3    H110881   4.687   4.366   1.410
 3640TIP3    H210882   4.758   4.422   1.532
 3641TIP3   OH210883   6.166   4.854   1.735
 3641TIP3    H110884   6.077   4.844   1.775
 3641TIP3    H210885   6.157   4.940   1.690
 3642TIP3   OH210886   6.457   3.753   2.097
 3642TIP3    H110887   6.370   3.782   2.067
 3642TIP3    H210888   6.516   3.787   2.027
 3643TIP3   OH210889   5.752   3.396   2.080
 3643TIP3    H110890   5.739   3.302   2.099
 3643TIP3    H210891   5.676   3.435   2.128
 3644TIP3   OH210892   5.867   4.899   1.409
 3644TIP3    H110893   5.916   4.816   1.390
 3644TIP3    H210894   5.929   4.964   1.367
 3645TIP3   OH210895   6.011   4.685   1.317
 3645TIP3    H110896   5.974   4.606   1.275
 3645TIP3    H210897   6.047   4.649   1.401
 3646TIP3   OH210898   6.392   4.765   2.079
 3646TIP3    H110899   6.380   4.688   2.020
 3646TIP3    H210900   6.374   4.840   2.018
 3647TIP3   OH210901   5.684   4.159   1.336
 3647TIP3    H110902   5.604   4.212   1.315
 3647TIP3    H210903   5.729   4.157   1.250
 3648TIP3   OH210904   5.643   3.943   1.053
 3648TIP3    H110905   5.709   3.997   1.099
 3648TIP3    H210906   5.702   3.882   1.004
 3649TIP3   OH210907   6.587   4.403   1.923
 3649TIP3    H110908   6.504   4.454   1.929
 3649TIP3    H210909   6.617   4.428   1.833
 3650TIP3   OH210910   6.032   4.242   1.307
 3650TIP3    H110911   5.977   4.266   1.385
 3650TIP3    H210912   6.116   4.218   1.351
 3651TIP3   OH210913   6.266   4.281   2.220
 3651TIP3    H110914   6.263   4.365   2.271
 3651TIP3    H210915   6.179   4.285   2.175
 3652TIP3   OH210916   5.264   4.240   1.726
 3652TIP3    H110917   5.223   4.182   1.658
 3652TIP3    H210918   5.341   4.186   1.755
 3653TIP3   OH210919   5.394   4.652   1.873
 3653TIP3    H110920   5.373   4.612   1.787
 3653TIP3    H210921   5.483   4.616   1.891
 3654TIP3   OH210922   5.401   4.210   2.077
 3654TIP3    H110923   5.435   4.189   1.988
 3654TIP3    H210924   5.444   4.296   2.097
 3655TIP3   OH210925   5.926   4.848   1.856
 3655TIP3    H110926   5.913   4.928   1.909
 3655TIP3    H210927   5.909   4.776   1.919
 3656TIP3   OH210928   5.538   4.768   2.402
 3656TIP3    H110929   5.478   4.829   2.450
 3656TIP3    H210930   5.473   4.714   2.353
 3657TIP3   OH210931   5.871   4.100   1.133
 3657TIP3    H110932   5.930   4.161   1.183
 3657TIP3    H210933   5.897   4.122   1.040
 3658TIP3   OH210934   5.291   4.326   2.498
 3658TIP3    H110935   5.298   4.410   2.548
 3658TIP3    H210936   5.199   4.302   2.519
 3659TIP3   OH210937   5.615   4.779   1.412
 3659TIP3    H110938   5.695   4.833   1.424
 3659TIP3    H210939   5.555   4.838   1.365
 3660TIP3   OH210940   5.331   4.935   2.491
 3660TIP3    H110941   5.295   4.935   2.400
 3660TIP3    H210942   5.252   4.914   2.545
 3661TIP3   OH210943   6.386   3.341   1.180
 3661TIP3    H110944   6.305   3.360   1.231
 3661TIP3    H210945   6.400   3.426   1.133
 3662TIP3   OH210946   5.130   4.082   1.529
 3662TIP3    H110947   5.064   4.127   1.472
 3662TIP3    H210948   5.090   3.995   1.540
 3663TIP3   OH210949   6.181   4.711   0.732
 3663TIP3    H110950   6.195   4.804   0.706
 3663TIP3    H210951   6.272   4.675   0.723
 3664TIP3   OH210952   4.911   4.465   2.438
 3664TIP3    H110953   4.848   4.439   2.369
 3664TIP3    H210954   4.951   4.380   2.465
 3665TIP3   OH210955   4.766   4.659   2.068
 3665TIP3    H110956   4.861   4.651   2.059
 3665TIP3    H210957   4.758   4.737   2.126
 3666TIP3   OH210958   6.630   5.111   2.126
 3666TIP3    H110959   6.628   5.014   2.140
 3666TIP3    H210960   6.547   5.137   2.171
 3667TIP3   OH210961   5.735   4.896   2.259
 3667TIP3    H110962   5.733   4.989   2.292
 3667TIP3    H210963   5.663   4.856   2.314
 3668TIP3   OH210964   5.498   5.025   1.211
 3668TIP3    H110965   5.452   5.005   1.128
 3668TIP3    H210966   5.463   5.113   1.235
 3669TIP3   OH210967   4.934   4.874   1.597
 3669TIP3    H110968   4.983   4.866   1.682
 3669TIP3    H210969   4.878   4.795   1.600
 3670TIP3   OH210970   5.702   4.919   0.861
 3670TIP3    H110971   5.764   4.851   0.827
 3670TIP3    H210972   5.733   4.930   0.954
 3671TIP3   OH210973   5.750   4.977   1.125
 3671TIP3    H110974   5.660   4.986   1.163
 3671TIP3    H210975   5.797   4.933   1.198
 3672TIP3   OH210976   6.519   4.241   2.399
 3672TIP3    H110977   6.436   4.253   2.351
 3672TIP3    H210978   6.534   4.145   2.390
 3673TIP3   OH210979   5.114   4.651   2.425
 3673TIP3    H110980   5.166   4.633   2.506
 3673TIP3    H210981   5.041   4.587   2.434
 3674TIP3   OH210982   5.515   3.473   2.209
 3674TIP3    H110983   5.425   3.444   2.182
 3674TIP3    H210984   5.490   3.554   2.258
 3675TIP3   OH210985   6.049   3.587   2.404
 3675TIP3    H110986   6.117   3.560   2.469
 3675TIP3    H210987   5.965   3.568   2.451
 3676TIP3   OH210988   6.289   4.018   2.324
 3676TIP3    H110989   6.237   4.014   2.408
 3676TIP3    H210990   6.263   4.105   2.287
 3677TIP3   OH210991   5.947   4.148   0.879
 3677TIP3    H110992   5.912   4.124   0.791
 3677TIP3    H210993   6.032   4.189   0.853
 3678TIP3   OH210994   5.661   3.519   1.181
 3678TIP3    H110995   5.626   3.516   1.273
 3678TIP3    H210996   5.620   3.438   1.146
 3679TIP3   OH210997   5.445   3.989   2.228
 3679TIP3    H110998   5.397   4.011   2.311
 3679TIP3    H210999   5.430   4.070   2.175
 3680TIP3   OH211000   5.331   3.874   1.741
 3680TIP3    H111001   5.238   3.849   1.760
 3680TIP3    H211002   5.343   3.834   1.653
 3681TIP3   OH211003   5.822   3.960   1.469
 3681TIP3    H111004   5.770   4.031   1.427
 3681TIP3    H211005   5.876   3.928   1.394
 3682TIP3   OH211006   5.996   4.238   2.556
 3682TIP3    H111007   5.973   4.165   2.619
 3682TIP3    H211008   6.090   4.251   2.578
 3683TIP3   OH211009   5.978   3.988   1.708
 3683TIP3    H111010   5.917   4.019   1.638
 3683TIP3    H211011   6.011   3.907   1.664
 3684TIP3   OH211012   5.265   4.015   2.439
 3684TIP3    H111013   5.292   4.079   2.507
 3684TIP3    H211014   5.257   3.933   2.490
 3685TIP3   OH211015   5.316   3.495   1.146
 3685TIP3    H111016   5.306   3.494   1.243
 3685TIP3    H211017   5.238   3.549   1.121
 3686TIP3   OH211018   4.857   3.532   2.022
 3686TIP3    H111019   4.930   3.570   2.074
 3686TIP3    H211020   4.899   3.511   1.938
 3687TIP3   OH211021   4.830   3.520   1.537
 3687TIP3    H111022   4.876   3.555   1.458
 3687TIP3    H211023   4.770   3.595   1.556
 3688TIP3   OH211024   5.989   4.235   2.130
 3688TIP3    H111025   6.022   4.163   2.072
 3688TIP3    H211026   5.959   4.181   2.207
 3689TIP3   OH211027   5.659   3.696   1.803
 3689TIP3    H111028   5.577   3.695   1.856
 3689TIP3    H211029   5.727   3.694   1.872
 3690TIP3   OH211030   5.092   3.753   1.811
 3690TIP3    H111031   4.998   3.759   1.783
 3690TIP3    H211032   5.117   3.662   1.787
 3691TIP3   OH211033   5.360   3.747   1.499
 3691TIP3    H111034   5.454   3.763   1.478
 3691TIP3    H211035   5.314   3.770   1.416
 3692TIP3   OH211036   6.150   3.772   2.002
 3692TIP3    H111037   6.120   3.785   2.095
 3692TIP3    H211038   6.081   3.711   1.969
 3693TIP3   OH211039   5.204   3.782   1.277
 3693TIP3    H111040   5.134   3.737   1.227
 3693TIP3    H211041   5.257   3.820   1.204
 3694TIP3   OH211042   6.321   5.461   2.225
 3694TIP3    H111043   6.319   5.486   2.130
 3694TIP3    H211044   6.400   5.509   2.256
 3695TIP3   OH211045   5.279   4.573   2.641
 3695TIP3    H111046   5.356   4.604   2.692
 3695TIP3    H211047   5.214   4.564   2.714
 3696TIP3   OH211048   5.740   4.025   1.901
 3696TIP3    H111049   5.814   3.985   1.854
 3696TIP3    H211050   5.746   3.982   1.989
 3697TIP3   OH211051   5.261   3.514   1.779
 3697TIP3    H111052   5.228   3.435   1.827
 3697TIP3    H211053   5.314   3.474   1.708
 3698TIP3   OH211054   5.717   3.925   2.187
 3698TIP3    H111055   5.627   3.959   2.204
 3698TIP3    H211056   5.774   3.984   2.240
 3699TIP3   OH211057   5.454   4.312   1.285
 3699TIP3    H111058   5.381   4.247   1.273
 3699TIP3    H211059   5.435   4.346   1.376
 3700TIP3   OH211060   6.354   4.548   1.914
 3700TIP3    H111061   6.377   4.599   1.833
 3700TIP3    H211062   6.269   4.506   1.888
 3701TIP3   OH211063   5.912   3.623   1.151
 3701TIP3    H111064   5.815   3.606   1.156
 3701TIP3    H211065   5.920   3.719   1.171
 3702TIP3   OH211066   5.856   4.632   2.281
 3702TIP3    H111067   5.876   4.608   2.372
 3702TIP3    H211068   5.814   4.720   2.291
 3703TIP3   OH211069   5.981   3.873   1.252
 3703TIP3    H111070   6.077   3.881   1.266
 3703TIP3    H211071   5.961   3.952   1.198
 3704TIP3   OH211072   5.144   4.332   1.961
 3704TIP3    H111073   5.185   4.304   1.877
 3704TIP3    H211074   5.190   4.275   2.025
 3705TIP3   OH211075   5.599   4.462   1.107
 3705TIP3    H111076   5.553   4.548   1.114
 3705TIP3    H211077   5.545   4.407   1.168
 3706TIP3   OH211078   5.030   4.256   2.575
 3706TIP3    H111079   5.056   4.250   2.669
 3706TIP3    H211080   4.962   4.187   2.570
 3707TIP3   OH211081   5.753   4.370   2.591
 3707TIP3    H111082   5.692   4.307   2.550
 3707TIP3    H211083   5.840   4.333   2.563
 3708TIP3   OH211084   6.014   4.892   2.177
 3708TIP3    H111085   5.917   4.888   2.191
 3708TIP3    H211086   6.042   4.943   2.256
 3709TIP3   OH211087   6.421   3.963   1.086
 3709TIP3    H111088   6.356   3.920   1.025
 3709TIP3    H211089   6.417   4.053   1.046
 3710TIP3   OH211090   6.643   4.820   2.168
 3710TIP3    H111091   6.545   4.815   2.159
 3710TIP3    H211092   6.668   4.790   2.078
 3711TIP3   OH211093   6.125   4.783   0.997
 3711TIP3    H111094   6.098   4.711   1.056
 3711TIP3    H211095   6.137   4.738   0.911
 3712TIP3   OH211096   6.120   4.411   1.832
 3712TIP3    H111097   6.027   4.387   1.846
 3712TIP3    H211098   6.153   4.331   1.787
 3713TIP3   OH211099   5.249   4.639   1.586
 3713TIP3    H111100   5.247   4.719   1.531
 3713TIP3    H211101   5.154   4.621   1.596
 3714TIP3   OH211102   4.812   3.942   1.289
 3714TIP3    H111103   4.857   4.027   1.309
 3714TIP3    H211104   4.736   3.947   1.350
 3715TIP3   OH211105   5.384   4.403   1.529
 3715TIP3    H111106   5.350   4.493   1.548
 3715TIP3    H211107   5.349   4.353   1.605
 3716TIP3   OH211108   5.517   4.982   2.054
 3716TIP3    H111109   5.560   5.054   2.005
 3716TIP3    H211110   5.592   4.945   2.103
 3717TIP3   OH211111   5.166   4.878   1.437
 3717TIP3    H111112   5.081   4.887   1.484
 3717TIP3    H211113   5.199   4.970   1.440
 3718TIP3   OH211114   5.904   4.615   2.013
 3718TIP3    H111115   5.894   4.614   2.111
 3718TIP3    H211116   5.985   4.562   2.003
 3719TIP3   OH211117   5.879   4.515   0.899
 3719TIP3    H111118   5.932   4.487   0.977
 3719TIP3    H211119   5.791   4.481   0.924
 3720TIP3   OH211120   6.153   5.148   2.064
 3720TIP3    H111121   6.074   5.092   2.058
 3720TIP3    H211122   6.137   5.213   1.991
 3721TIP3   OH211123   6.219   4.988   0.706
 3721TIP3    H111124   6.271   5.069   0.689
 3721TIP3    H211125   6.137   5.028   0.743
 3722TIP3   OH211126   5.243   3.754   2.584
 3722TIP3    H111127   5.153   3.764   2.616
 3722TIP3    H211128   5.284   3.706   2.659
 3723TIP3   OH211129   6.040   4.445   1.113
 3723TIP3    H111130   6.029   4.378   1.184
 3723TIP3    H211131   6.137   4.440   1.100
 3724TIP3   OH211132   4.955   4.843   2.215
 3724TIP3    H111133   5.008   4.768   2.247
 3724TIP3    H211134   4.983   4.912   2.275
 3725TIP3   OH211135   5.246   4.492   0.898
 3725TIP3    H111136   5.259   4.401   0.866
 3725TIP3    H211137   5.225   4.477   0.992
 3726TIP3   OH211138   5.190   4.494   1.171
 3726TIP3    H111139   5.265   4.469   1.226
 3726TIP3    H211140   5.193   4.592   1.176
 3727TIP3   OH211141   4.925   4.187   1.372
 3727TIP3    H111142   4.859   4.233   1.428
 3727TIP3    H211143   4.940   4.255   1.304
 3728TIP3   OH211144   6.080   3.821   2.261
 3728TIP3    H111145   6.156   3.861   2.306
 3728TIP3    H211146   6.063   3.741   2.316
 3729TIP3   OH211147   5.960   3.573   1.430
 3729TIP3    H111148   5.943   3.596   1.336
 3729TIP3    H211149   5.996   3.657   1.466
 3730TIP3   OH211150   5.459   4.691   1.125
 3730TIP3    H111151   5.371   4.721   1.156
 3730TIP3    H211152   5.468   4.744   1.044
 3731TIP3   OH211153   5.644   3.756   1.531
 3731TIP3    H111154   5.708   3.828   1.514
 3731TIP3    H211155   5.650   3.748   1.629
 3732TIP3   OH211156   5.916   4.074   2.338
 3732TIP3    H111157   5.934   4.128   2.417
 3732TIP3    H211158   5.968   3.994   2.356
 3733TIP3   OH211159   5.789   3.481   1.633
 3733TIP3    H111160   5.782   3.558   1.692
 3733TIP3    H211161   5.850   3.516   1.564
 3734TIP3   OH211162   5.201   4.767   1.184
 3734TIP3    H111163   5.171   4.836   1.122
 3734TIP3    H211164   5.185   4.810   1.271
 3735TIP3   OH211165   5.300   3.482   1.423
 3735TIP3    H111166   5.299   3.572   1.460
 3735TIP3    H211167   5.396   3.462   1.430
 3736TIP3   OH211168   6.555   3.973   2.320
 3736TIP3    H111169   6.457   3.972   2.329
 3736TIP3    H211170   6.564   3.931   2.233
 3737TIP3   OH211171   6.206   4.168   1.708
 3737TIP3    H111172   6.129   4.110   1.721
 3737TIP3    H211173   6.277   4.121   1.756
 3738TIP3   OH211174   4.917   4.396   1.177
 3738TIP3    H111175   4.984   4.466   1.186
 3738TIP3    H211176   4.962   4.340   1.109
 3739TIP3   OH211177   4.860   3.673   1.314
 3739TIP3    H111178   4.863   3.770   1.309
 3739TIP3    H211179   4.782   3.653   1.261
 3740TIP3   OH211180   6.174   5.125   1.656
 3740TIP3    H111181   6.131   5.172   1.581
 3740TIP3    H211182   6.268   5.144   1.636
 3741TIP3   OH211183   5.248   3.393   2.184
 3741TIP3    H111184   5.220   3.357   2.098
 3741TIP3    H211185   5.240   3.316   2.244
 3742TIP3   OH211186   4.788   4.608   1.563
 3742TIP3    H111187   4.719   4.641   1.621
 3742TIP3    H211188   4.762   4.650   1.478
 3743TIP3   OH211189   4.948   5.153   2.638
 3743TIP3    H111190   5.034   5.152   2.685
 3743TIP3    H211191   4.928   5.058   2.636
 3744TIP3   OH211192   5.426   5.119   2.678
 3744TIP3    H111193   5.520   5.097   2.687
 3744TIP3    H211194   5.400   5.057   2.607
 3745TIP3   OH211195   5.425   4.692   0.827
 3745TIP3    H111196   5.357   4.624   0.849
 3745TIP3    H211197   5.490   4.637   0.779
 3746TIP3   OH211198   6.067   5.024   2.413
 3746TIP3    H111199   6.058   4.954   2.483
 3746TIP3    H211200   6.144   5.075   2.445
 3747TIP3   OH211201   5.853   4.729   0.735
 3747TIP3    H111202   5.879   4.660   0.800
 3747TIP3    H211203   5.926   4.724   0.670
 3748TIP3   OH211204   5.079   4.564   2.832
 3748TIP3    H111205   5.092   4.472   2.861
 3748TIP3    H211206   4.988   4.560   2.795
 3749TIP3   OH211207   5.052   4.209   1.031
 3749TIP3    H111208   5.110   4.179   1.103
 3749TIP3    H211209   5.118   4.214   0.958
 3750TIP3   OH211210   5.686   4.645   2.609
 3750TIP3    H111211   5.642   4.662   2.524
 3750TIP3    H211212   5.715   4.551   2.601
 3751TIP3   OH211213   5.568   4.409   0.836
 3751TIP3    H111214   5.567   4.422   0.933
 3751TIP3    H211215   5.566   4.311   0.830
 3752TIP3   OH211216   6.177   4.653   2.217
 3752TIP3    H111217   6.251   4.698   2.173
 3752TIP3    H211218   6.105   4.717   2.203
 3753TIP3   OH211219   5.204   4.293   2.813
 3753TIP3    H111220   5.257   4.212   2.821
 3753TIP3    H211221   5.221   4.330   2.902
 3754TIP3   OH211222   5.261   4.114   1.252
 3754TIP3    H111223   5.235   4.071   1.335
 3754TIP3    H211224   5.298   4.039   1.200
 3755TIP3   OH211225   5.530   4.178   2.478
 3755TIP3    H111226   5.452   4.237   2.481
 3755TIP3    H211227   5.581   4.214   2.402
 3756TIP3   OH211228   5.362   3.908   1.093
 3756TIP3    H111229   5.337   3.914   0.998
 3756TIP3    H211230   5.460   3.910   1.085
 3757TIP3   OH211231   6.049   4.582   2.615
 3757TIP3    H111232   6.127   4.552   2.566
 3757TIP3    H211233   6.042   4.514   2.685
 3758TIP3   OH211234   6.182   4.237   0.762
 3758TIP3    H111235   6.169   4.195   0.675
 3758TIP3    H211236   6.149   4.327   0.740
 3759TIP3   OH211237   5.659   3.967   2.601
 3759TIP3    H111238   5.654   3.886   2.547
 3759TIP3    H211239   5.611   4.032   2.546
 3760TIP3   OH211240   5.657   3.751   2.412
 3760TIP3    H111241   5.683   3.793   2.328
 3760TIP3    H211242   5.563   3.730   2.395
 3761TIP3   OH211243   5.683   4.287   2.284
 3761TIP3    H111244   5.767   4.300   2.239
 3761TIP3    H211245   5.626   4.353   2.241
 3762TIP3   OH211246   6.264   4.254   2.667
 3762TIP3    H111247   6.313   4.171   2.680
 3762TIP3    H211248   6.333   4.312   2.632
 3763TIP3   OH211249   6.307   4.509   2.404
 3763TIP3    H111250   6.248   4.562   2.345
 3763TIP3    H211251   6.394   4.530   2.364
 3764TIP3   OH211252   5.544   4.077   2.836
 3764TIP3    H111253   5.465   4.025   2.859
 3764TIP3    H211254   5.567   4.042   2.748
 3765TIP3   OH211255   5.788   3.514   2.478
 3765TIP3    H111256   5.738   3.596   2.459
 3765TIP3    H211257   5.719   3.446   2.471
 3766TIP3   OH211258   5.915   4.021   2.698
 3766TIP3    H111259   5.899   4.005   2.793
 3766TIP3    H211260   5.826   3.997   2.664
 3767TIP3   OH211261   6.153   3.968   2.552
 3767TIP3    H111262   6.078   3.971   2.615
 3767TIP3    H211263   6.226   3.938   2.608
 3768TIP3   OH211264   6.387   3.911   2.701
 3768TIP3    H111265   6.396   3.815   2.719
 3768TIP3    H211266   6.380   3.949   2.791
 3769TIP3   OH211267   5.374   3.857   2.884
 3769TIP3    H111268   5.374   3.763   2.861
 3769TIP3    H211269   5.399   3.852   2.978
 3770TIP3   OH211270   5.888   3.529   2.735
 3770TIP3    H111271   5.951   3.454   2.732
 3770TIP3    H211272   5.845   3.520   2.648
 3771TIP3   OH211273   5.952   3.744   2.893
 3771TIP3    H111274   5.929   3.671   2.831
 3771TIP3    H211275   5.871   3.800   2.890
 3772TIP3   OH211276   5.170   4.970   0.998
 3772TIP3    H111277   5.265   4.965   0.978
 3772TIP3    H211278   5.140   5.018   0.918
 3773TIP3   OH211279   4.649   4.351   1.214
 3773TIP3    H111280   4.744   4.374   1.199
 3773TIP3    H211281   4.644   4.263   1.173
 3774TIP3   OH211282   4.565   4.964   1.628
 3774TIP3    H111283   4.499   4.902   1.590
 3774TIP3    H211284   4.609   4.905   1.693
 3775TIP3   OH211285   4.700   4.813   1.814
 3775TIP3    H111286   4.690   4.741   1.878
 3775TIP3    H211287   4.753   4.876   1.868
 3776TIP3   OH211288   6.427   5.217   1.614
 3776TIP3    H111289   6.453   5.246   1.703
 3776TIP3    H211290   6.493   5.260   1.558
 3777TIP3   OH211291   6.456   5.235   1.895
 3777TIP3    H111292   6.412   5.147   1.892
 3777TIP3    H211293   6.531   5.214   1.952
 3778TIP3   OH211294   6.503   4.911   2.470
 3778TIP3    H111295   6.430   4.921   2.534
 3778TIP3    H211296   6.545   5.000   2.473
 3779TIP3   OH211297   6.317   4.424   1.090
 3779TIP3    H111298   6.384   4.488   1.058
 3779TIP3    H211299   6.364   4.387   1.169
 3780TIP3   OH211300   6.448   4.291   1.293
 3780TIP3    H111301   6.380   4.250   1.351
 3780TIP3    H211302   6.510   4.330   1.357
 3781TIP3   OH211303   6.502   4.686   1.725
 3781TIP3    H111304   6.554   4.619   1.676
 3781TIP3    H211305   6.495   4.759   1.661
 3782TIP3   OH211306   6.332   4.985   1.919
 3782TIP3    H111307   6.260   5.027   1.971
 3782TIP3    H211308   6.282   4.939   1.849
 3783TIP3   OH211309   6.382   4.199   0.943
 3783TIP3    H111310   6.312   4.201   0.873
 3783TIP3    H211311   6.353   4.276   0.996
 3784TIP3   OH211312   6.253   3.867   0.895
 3784TIP3    H111313   6.239   3.915   0.812
 3784TIP3    H211314   6.227   3.776   0.870
 3785TIP3   OH211315   6.262   4.150   1.439
 3785TIP3    H111316   6.267   4.054   1.433
 3785TIP3    H211317   6.246   4.164   1.535
 3786TIP3   OH211318   4.887   4.225   2.185
 3786TIP3    H111319   4.886   4.193   2.093
 3786TIP3    H211320   4.984   4.224   2.203
 3787TIP3   OH211321   6.551   4.574   2.296
 3787TIP3    H111322   6.623   4.508   2.286
 3787TIP3    H211323   6.577   4.644   2.233
 3788TIP3   OH211324   6.735   4.378   2.309
 3788TIP3    H111325   6.660   4.328   2.349
 3788TIP3    H211326   6.807   4.314   2.325
 3789TIP3   OH211327   6.208   3.596   0.868
 3789TIP3    H111328   6.274   3.568   0.933
 3789TIP3    H211329   6.127   3.548   0.894
 3790TIP3   OH211330   6.258   3.865   1.334
 3790TIP3    H111331   6.299   3.777   1.348
 3790TIP3    H211332   6.314   3.899   1.262
 3791TIP3   OH211333   6.418   4.037   1.829
 3791TIP3    H111334   6.504   4.063   1.788
 3791TIP3    H211335   6.431   4.075   1.918
 3792TIP3   OH211336   6.488   4.182   2.059
 3792TIP3    H111337   6.410   4.216   2.108
 3792TIP3    H211338   6.520   4.264   2.015
 3793TIP3   OH211339   5.108   3.912   2.837
 3793TIP3    H111340   5.203   3.916   2.861
 3793TIP3    H211341   5.083   3.829   2.884
 3794TIP3   OH211342   6.944   3.779   2.616
 3794TIP3    H111343   7.000   3.710   2.573
 3794TIP3    H211344   6.911   3.829   2.539
 3795TIP3   OH211345   6.369   3.613   1.368
 3795TIP3    H111346   6.415   3.600   1.453
 3795TIP3    H211347   6.305   3.539   1.369
 3796TIP3   OH211348   5.063   3.601   2.193
 3796TIP3    H111349   5.126   3.527   2.202
 3796TIP3    H211350   5.125   3.676   2.185
 3797TIP3   OH211351   4.854   3.870   2.258
 3797TIP3    H111352   4.911   3.871   2.179
 3797TIP3    H211353   4.884   3.950   2.304
 3798TIP3   OH211354   6.809   3.912   2.422
 3798TIP3    H111355   6.724   3.955   2.444
 3798TIP3    H211356   6.776   3.841   2.363
 3799TIP3   OH211357   6.465   3.547   0.996
 3799TIP3    H111358   6.546   3.495   0.984
 3799TIP3    H211359   6.504   3.637   0.998
 3800TIP3   OH211360   4.852   3.378   1.764
 3800TIP3    H111361   4.757   3.376   1.786
 3800TIP3    H211362   4.853   3.437   1.686
 3801TIP3   OH211363   6.012   5.083   1.270
 3801TIP3    H111364   6.064   5.070   1.189
 3801TIP3    H211365   6.066   5.147   1.320
 3802TIP3   OH211366   5.071   3.454   2.573
 3802TIP3    H111367   5.031   3.456   2.662
 3802TIP3    H211368   5.003   3.495   2.519
 3803TIP3   OH211369   5.111   4.892   2.659
 3803TIP3    H111370   5.021   4.858   2.641
 3803TIP3    H211371   5.126   4.861   2.749
 3804TIP3   OH211372   5.289   4.919   2.203
 3804TIP3    H111373   5.243   4.995   2.163
 3804TIP3    H211374   5.376   4.931   2.160
 3805TIP3   OH211375   5.734   5.163   2.342
 3805TIP3    H111376   5.776   5.163   2.430
 3805TIP3    H211377   5.800   5.214   2.290
 3806TIP3   OH211378   5.914   5.315   2.201
 3806TIP3    H111379   5.985   5.264   2.160
 3806TIP3    H211380   5.965   5.372   2.262
 3807TIP3   OH211381   6.709   3.676   2.299
 3807TIP3    H111382   6.617   3.669   2.267
 3807TIP3    H211383   6.739   3.583   2.290
 3808TIP3   OH211384   4.966   5.177   2.225
 3808TIP3    H111385   4.876   5.211   2.204
 3808TIP3    H211386   4.976   5.210   2.315
 3809TIP3   OH211387   5.203   5.155   2.085
 3809TIP3    H111388   5.116   5.167   2.129
 3809TIP3    H211389   5.185   5.186   1.995
 3810TIP3   OH211390   5.629   5.183   1.883
 3810TIP3    H111391   5.559   5.202   1.818
 3810TIP3    H211392   5.640   5.270   1.926
 3811TIP3   OH211393   5.898   5.121   1.935
 3811TIP3    H111394   5.804   5.139   1.915
 3811TIP3    H211395   5.941   5.197   1.893
 3812TIP3   OH211396   6.105   5.313   1.850
 3812TIP3    H111397   6.091   5.397   1.801
 3812TIP3    H211398   6.131   5.252   1.777
 3813TIP3   OH211399   4.877   4.968   1.973
 3813TIP3    H111400   4.905   4.942   2.064
 3813TIP3    H211401   4.949   4.924   1.922
 3814TIP3   OH211402   5.072   4.841   1.830
 3814TIP3    H111403   5.087   4.756   1.879
 3814TIP3    H211404   5.163   4.877   1.825
 3815TIP3   OH211405   5.338   4.935   1.833
 3815TIP3    H111406   5.370   4.843   1.821
 3815TIP3    H211407   5.384   4.956   1.917
 3816TIP3   OH211408   5.913   3.591   1.919
 3816TIP3    H111409   5.869   3.522   1.972
 3816TIP3    H211410   5.986   3.542   1.878
 3817TIP3   OH211411   6.436   3.467   1.821
 3817TIP3    H111412   6.471   3.523   1.748
 3817TIP3    H211413   6.341   3.488   1.819
 3818TIP3   OH211414   6.531   3.571   1.586
 3818TIP3    H111415   6.606   3.521   1.548
 3818TIP3    H211416   6.564   3.663   1.573
 3819TIP3   OH211417   5.162   3.299   1.935
 3819TIP3    H111418   5.069   3.268   1.937
 3819TIP3    H211419   5.210   3.214   1.931
 3820TIP3   OH211420   4.949   3.170   1.583
 3820TIP3    H111421   4.980   3.226   1.510
 3820TIP3    H211422   4.922   3.237   1.650
 3821TIP3   OH211423   5.606   3.332   1.818
 3821TIP3    H111424   5.663   3.382   1.757
 3821TIP3    H211425   5.630   3.370   1.903
 3822TIP3   OH211426   6.154   3.479   1.800
 3822TIP3    H111427   6.148   3.441   1.712
 3822TIP3    H211428   6.140   3.400   1.857
 3823TIP3   OH211429   6.183   3.402   1.362
 3823TIP3    H111430   6.097   3.447   1.376
 3823TIP3    H211431   6.167   3.317   1.409
 3824TIP3   OH211432   4.665   4.743   1.364
 3824TIP3    H111433   4.580   4.710   1.330
 3824TIP3    H211434   4.656   4.837   1.343
 3825TIP3   OH211435   5.066   3.327   1.348
 3825TIP3    H111436   5.114   3.265   1.289
 3825TIP3    H211437   5.140   3.382   1.382
 3826TIP3   OH211438   5.578   3.505   1.446
 3826TIP3    H111439   5.638   3.458   1.506
 3826TIP3    H211440   5.600   3.598   1.471
 3827TIP3   OH211441   5.437   4.936   0.944
 3827TIP3    H111442   5.526   4.957   0.910
 3827TIP3    H211443   5.419   4.857   0.889
 3828TIP3   OH211444   6.159   5.049   1.038
 3828TIP3    H111445   6.152   4.951   1.031
 3828TIP3    H211446   6.109   5.075   0.958
 3829TIP3   OH211447   5.372   3.582   2.817
 3829TIP3    H111448   5.329   3.518   2.876
 3829TIP3    H211449   5.464   3.579   2.853
 3830TIP3   OH211450   5.620   3.576   2.945
 3830TIP3    H111451   5.705   3.543   2.912
 3830TIP3    H211452   5.600   3.510   3.014
 3831TIP3   OH211453   4.741   4.763   1.000
 3831TIP3    H111454   4.746   4.791   1.092
 3831TIP3    H211455   4.829   4.722   0.985
 3832TIP3   OH211456   6.445   3.639   2.734
 3832TIP3    H111457   6.461   3.608   2.826
 3832TIP3    H211458   6.534   3.632   2.695
 3833TIP3   OH211459   6.383   5.192   2.225
 3833TIP3    H111460   6.304   5.161   2.176
 3833TIP3    H211461   6.363   5.288   2.230
 3834TIP3   OH211462   6.947   4.458   1.737
 3834TIP3    H111463   6.974   4.392   1.804
 3834TIP3    H211464   7.023   4.519   1.739
 3835TIP3   OH211465   6.916   4.870   1.462
 3835TIP3    H111466   6.910   4.772   1.463
 3835TIP3    H211467   7.013   4.881   1.459
 3836TIP3   OH211468   6.626   4.070   1.245
 3836TIP3    H111469   6.579   4.154   1.264
 3836TIP3    H211470   6.553   4.019   1.205
 3837TIP3   OH211471   6.684   4.360   1.421
 3837TIP3    H111472   6.734   4.283   1.457
 3837TIP3    H211473   6.743   4.392   1.352
 3838TIP3   OH211474   7.437   4.787   1.419
 3838TIP3    H111475   7.464   4.716   1.359
 3838TIP3    H211476   7.521   4.824   1.448
 3839TIP3   OH211477   7.170   3.953   1.429
 3839TIP3    H111478   7.165   4.022   1.361
 3839TIP3    H211479   7.132   3.878   1.379
 3840TIP3   OH211480   6.831   4.154   1.523
 3840TIP3    H111481   6.911   4.134   1.576
 3840TIP3    H211482   6.847   4.097   1.445
 3841TIP3   OH211483   7.265   4.347   1.317
 3841TIP3    H111484   7.359   4.326   1.313
 3841TIP3    H211485   7.224   4.263   1.288
 3842TIP3   OH211486   7.188   3.934   1.860
 3842TIP3    H111487   7.132   3.974   1.791
 3842TIP3    H211488   7.137   3.957   1.940
 3843TIP3   OH211489   7.300   4.711   1.657
 3843TIP3    H111490   7.236   4.775   1.695
 3843TIP3    H211491   7.340   4.764   1.586
 3844TIP3   OH211492   7.054   4.051   1.649
 3844TIP3    H111493   7.116   4.126   1.670
 3844TIP3    H211494   7.102   4.010   1.573
 3845TIP3   OH211495   7.126   4.903   1.744
 3845TIP3    H111496   7.103   4.991   1.708
 3845TIP3    H211497   7.047   4.888   1.801
 3846TIP3   OH211498   6.521   4.590   0.986
 3846TIP3    H111499   6.481   4.611   0.899
 3846TIP3    H211500   6.554   4.677   1.016
 3847TIP3   OH211501   7.057   4.495   1.209
 3847TIP3    H111502   7.019   4.436   1.141
 3847TIP3    H211503   7.133   4.442   1.242
 3848TIP3   OH211504   7.185   4.908   1.359
 3848TIP3    H111505   7.164   4.870   1.273
 3848TIP3    H211506   7.274   4.871   1.378
 3849TIP3   OH211507   7.192   4.476   1.560
 3849TIP3    H111508   7.228   4.451   1.474
 3849TIP3    H211509   7.239   4.559   1.582
 3850TIP3   OH211510   7.332   5.023   1.891
 3850TIP3    H111511   7.272   5.085   1.937
 3850TIP3    H211512   7.268   4.970   1.841
 3851TIP3   OH211513   7.088   4.581   1.990
 3851TIP3    H111514   7.093   4.669   2.034
 3851TIP3    H211515   6.994   4.560   2.005
 3852TIP3   OH211516   7.128   5.190   1.977
 3852TIP3    H111517   7.092   5.193   1.886
 3852TIP3    H211518   7.048   5.170   2.030
 3853TIP3   OH211519   6.931   4.334   1.006
 3853TIP3    H111520   6.862   4.384   0.957
 3853TIP3    H211521   6.881   4.256   1.033
 3854TIP3   OH211522   6.707   4.723   1.923
 3854TIP3    H111523   6.640   4.701   1.855
 3854TIP3    H211524   6.744   4.635   1.946
 3855TIP3   OH211525   6.562   4.917   1.555
 3855TIP3    H111526   6.658   4.910   1.547
 3855TIP3    H211527   6.552   4.995   1.611
 3856TIP3   OH211528   7.510   5.158   1.734
 3856TIP3    H111529   7.520   5.245   1.777
 3856TIP3    H211530   7.453   5.111   1.798
 3857TIP3   OH211531   6.724   5.134   1.085
 3857TIP3    H111532   6.776   5.124   1.168
 3857TIP3    H211533   6.677   5.049   1.084
 3858TIP3   OH211534   6.911   4.905   1.910
 3858TIP3    H111535   6.961   4.890   1.993
 3858TIP3    H211536   6.837   4.842   1.919
 3859TIP3   OH211537   7.308   3.734   1.709
 3859TIP3    H111538   7.221   3.704   1.679
 3859TIP3    H211539   7.282   3.814   1.759
 3860TIP3   OH211540   7.219   4.256   1.712
 3860TIP3    H111541   7.172   4.276   1.796
 3860TIP3    H211542   7.206   4.339   1.662
 3861TIP3   OH211543   7.125   4.127   1.222
 3861TIP3    H111544   7.032   4.104   1.245
 3861TIP3    H211545   7.137   4.074   1.141
 3862TIP3   OH211546   7.055   4.277   1.931
 3862TIP3    H111547   7.085   4.338   1.999
 3862TIP3    H211548   7.048   4.193   1.980
 3863TIP3   OH211549   7.122   3.790   0.658
 3863TIP3    H111550   7.085   3.740   0.732
 3863TIP3    H211551   7.042   3.815   0.608
 3864TIP3   OH211552   6.657   3.793   1.501
 3864TIP3    H111553   6.727   3.828   1.560
 3864TIP3    H211554   6.706   3.767   1.422
 3865TIP3   OH211555   6.622   3.779   1.026
 3865TIP3    H111556   6.666   3.815   0.946
 3865TIP3    H211557   6.561   3.854   1.045
 3866TIP3   OH211558   7.423   3.965   1.328
 3866TIP3    H111559   7.345   3.957   1.385
 3866TIP3    H211560   7.495   3.968   1.392
 3867TIP3   OH211561   6.887   4.012   1.293
 3867TIP3    H111562   6.791   4.020   1.269
 3867TIP3    H211563   6.906   3.918   1.275
 3868TIP3   OH211564   7.165   3.995   0.966
 3868TIP3    H111565   7.232   4.061   0.949
 3868TIP3    H211566   7.100   4.016   0.895
 3869TIP3   OH211567   7.002   4.056   0.758
 3869TIP3    H111568   6.915   4.016   0.767
 3869TIP3    H211569   7.021   4.028   0.666
 3870TIP3   OH211570   7.074   4.827   2.132
 3870TIP3    H111571   7.154   4.857   2.179
 3870TIP3    H211572   7.009   4.827   2.205
 3871TIP3   OH211573   7.054   3.769   1.263
 3871TIP3    H111574   7.017   3.693   1.313
 3871TIP3    H211575   7.092   3.726   1.186
 3872TIP3   OH211576   7.459   4.133   1.678
 3872TIP3    H111577   7.375   4.184   1.683
 3872TIP3    H211578   7.524   4.200   1.656
 3873TIP3   OH211579   7.206   4.592   0.778
 3873TIP3    H111580   7.178   4.499   0.786
 3873TIP3    H211581   7.208   4.620   0.873
 3874TIP3   OH211582   7.636   4.872   1.792
 3874TIP3    H111583   7.681   4.891   1.876
 3874TIP3    H211584   7.615   4.960   1.759
 3875TIP3   OH211585   6.941   4.591   1.447
 3875TIP3    H111586   6.980   4.562   1.362
 3875TIP3    H211587   6.985   4.533   1.511
 3876TIP3   OH211588   6.825   4.510   2.061
 3876TIP3    H111589   6.843   4.497   2.156
 3876TIP3    H211590   6.755   4.445   2.045
 3877TIP3   OH211591   7.545   4.623   2.087
 3877TIP3    H111592   7.496   4.556   2.037
 3877TIP3    H211593   7.638   4.599   2.070
 3878TIP3   OH211594   7.045   4.892   1.075
 3878TIP3    H111595   7.039   4.976   1.025
 3878TIP3    H211596   6.952   4.868   1.081
 3879TIP3   OH211597   6.610   4.190   0.791
 3879TIP3    H111598   6.650   4.279   0.795
 3879TIP3    H211599   6.530   4.203   0.848
 3880TIP3   OH211600   7.191   4.665   1.035
 3880TIP3    H111601   7.147   4.752   1.045
 3880TIP3    H211602   7.146   4.612   1.104
 3881TIP3   OH211603   7.311   5.234   1.541
 3881TIP3    H111604   7.354   5.303   1.485
 3881TIP3    H211605   7.387   5.205   1.595
 3882TIP3   OH211606   6.974   5.130   0.952
 3882TIP3    H111607   6.881   5.141   0.980
 3882TIP3    H211608   7.000   5.223   0.936
 3883TIP3   OH211609   7.032   4.019   2.071
 3883TIP3    H111610   6.935   4.022   2.083
 3883TIP3    H211611   7.060   3.959   2.142
 3884TIP3   OH211612   6.751   5.100   1.700
 3884TIP3    H111613   6.805   5.027   1.734
 3884TIP3    H211614   6.778   5.172   1.759
 3885TIP3   OH211615   6.960   4.735   0.753
 3885TIP3    H111616   7.036   4.676   0.767
 3885TIP3    H211617   7.004   4.814   0.720
 3886TIP3   OH211618   6.725   4.445   0.867
 3886TIP3    H111619   6.656   4.486   0.923
 3886TIP3    H211620   6.732   4.515   0.799
 3887TIP3   OH211621   7.081   3.724   0.929
 3887TIP3    H111622   7.102   3.817   0.949
 3887TIP3    H211623   7.168   3.685   0.917
 3888TIP3   OH211624   6.700   4.662   0.700
 3888TIP3    H111625   6.782   4.708   0.731
 3888TIP3    H211626   6.718   4.657   0.604
 3889TIP3   OH211627   6.667   3.925   0.800
 3889TIP3    H111628   6.653   4.022   0.801
 3889TIP3    H211629   6.596   3.893   0.742
 3890TIP3   OH211630   7.042   3.651   1.670
 3890TIP3    H111631   7.011   3.616   1.584
 3890TIP3    H211632   7.030   3.575   1.730
 3891TIP3   OH211633   6.592   4.870   1.055
 3891TIP3    H111634   6.517   4.896   1.110
 3891TIP3    H211635   6.563   4.906   0.968
 3892TIP3   OH211636   6.742   5.411   2.123
 3892TIP3    H111637   6.829   5.412   2.170
 3892TIP3    H211638   6.724   5.316   2.123
 3893TIP3   OH211639   7.218   5.375   2.168
 3893TIP3    H111640   7.313   5.362   2.180
 3893TIP3    H211641   7.198   5.313   2.095
 3894TIP3   OH211642   6.873   4.816   2.323
 3894TIP3    H111643   6.888   4.719   2.329
 3894TIP3    H211644   6.785   4.819   2.278
 3895TIP3   OH211645   7.473   4.899   2.098
 3895TIP3    H111646   7.442   4.923   2.008
 3895TIP3    H211647   7.505   4.807   2.085
 3896TIP3   OH211648   6.993   4.550   2.306
 3896TIP3    H111649   7.070   4.496   2.283
 3896TIP3    H211650   7.019   4.585   2.393
 3897TIP3   OH211651   7.087   4.348   0.768
 3897TIP3    H111652   7.037   4.335   0.851
 3897TIP3    H211653   7.059   4.270   0.718
 3898TIP3   OH211654   7.323   4.433   1.968
 3898TIP3    H111655   7.247   4.495   1.971
 3898TIP3    H211656   7.373   4.466   1.890
 3899TIP3   OH211657   7.418   4.214   2.098
 3899TIP3    H111658   7.428   4.133   2.043
 3899TIP3    H211659   7.379   4.277   2.034
 3900TIP3   OH211660   7.444   4.010   1.920
 3900TIP3    H111661   7.462   4.044   1.830
 3900TIP3    H211662   7.358   3.966   1.906
 3901TIP3   OH211663   7.476   4.540   1.773
 3901TIP3    H111664   7.550   4.562   1.715
 3901TIP3    H211665   7.412   4.610   1.745
 3902TIP3   OH211666   7.322   4.338   2.325
 3902TIP3    H111667   7.254   4.270   2.342
 3902TIP3    H211668   7.351   4.311   2.235
 3903TIP3   OH211669   7.681   4.302   2.119
 3903TIP3    H111670   7.723   4.238   2.178
 3903TIP3    H211671   7.590   4.268   2.115
 3904TIP3   OH211672   7.166   4.116   2.378
 3904TIP3    H111673   7.172   4.026   2.339
 3904TIP3    H211674   7.200   4.100   2.468
 3905TIP3   OH211675   6.432   4.600   0.720
 3905TIP3    H111676   6.524   4.628   0.702
 3905TIP3    H211677   6.426   4.519   0.665
 3906TIP3   OH211678   6.361   5.225   1.111
 3906TIP3    H111679   6.296   5.160   1.076
 3906TIP3    H211680   6.406   5.168   1.178
 3907TIP3   OH211681   6.492   5.076   1.302
 3907TIP3    H111682   6.483   5.000   1.361
 3907TIP3    H211683   6.547   5.134   1.358
 3908TIP3   OH211684   6.682   4.478   1.674
 3908TIP3    H111685   6.680   4.447   1.580
 3908TIP3    H211686   6.780   4.480   1.689
 3909TIP3   OH211687   6.899   4.165   2.347
 3909TIP3    H111688   6.997   4.159   2.349
 3909TIP3    H211689   6.876   4.079   2.387
 3910TIP3   OH211690   6.858   3.858   1.675
 3910TIP3    H111691   6.920   3.784   1.687
 3910TIP3    H211692   6.920   3.934   1.675
 3911TIP3   OH211693   6.664   4.130   1.750
 3911TIP3    H111694   6.714   4.129   1.666
 3911TIP3    H211695   6.691   4.215   1.787
 3912TIP3   OH211696   6.650   3.626   1.247
 3912TIP3    H111697   6.560   3.628   1.282
 3912TIP3    H211698   6.644   3.690   1.173
 3913TIP3   OH211699   6.867   3.715   2.064
 3913TIP3    H111700   6.817   3.710   2.147
 3913TIP3    H211701   6.801   3.754   2.004
 3914TIP3   OH211702   6.908   5.142   2.141
 3914TIP3    H111703   6.815   5.116   2.127
 3914TIP3    H211704   6.919   5.126   2.236
 3915TIP3   OH211705   7.086   5.174   1.689
 3915TIP3    H111706   7.040   5.250   1.650
 3915TIP3    H211707   7.173   5.187   1.645
 3916TIP3   OH211708   7.543   5.426   1.832
 3916TIP3    H111709   7.572   5.418   1.925
 3916TIP3    H211710   7.619   5.473   1.795
 3917TIP3   OH211711   6.761   5.432   1.714
 3917TIP3    H111712   6.671   5.466   1.693
 3917TIP3    H211713   6.776   5.473   1.800
 3918TIP3   OH211714   6.998   5.409   1.573
 3918TIP3    H111715   6.911   5.423   1.617
 3918TIP3    H211716   6.980   5.442   1.483
 3919TIP3   OH211717   7.414   5.423   1.370
 3919TIP3    H111718   7.353   5.459   1.303
 3919TIP3    H211719   7.447   5.504   1.414
 3920TIP3   OH211720   6.675   5.226   1.459
 3920TIP3    H111721   6.701   5.200   1.550
 3920TIP3    H211722   6.746   5.181   1.408
 3921TIP3   OH211723   6.867   5.097   1.315
 3921TIP3    H111724   6.882   5.014   1.365
 3921TIP3    H211725   6.958   5.133   1.310
 3922TIP3   OH211726   7.132   5.192   1.323
 3922TIP3    H111727   7.163   5.100   1.311
 3922TIP3    H211728   7.182   5.215   1.404
 3923TIP3   OH211729   6.951   3.561   1.415
 3923TIP3    H111730   6.857   3.536   1.420
 3923TIP3    H211731   6.991   3.471   1.421
 3924TIP3   OH211732   6.721   3.428   1.055
 3924TIP3    H111733   6.770   3.482   0.989
 3924TIP3    H211734   6.710   3.492   1.129
 3925TIP3   OH211735   6.456   4.991   0.859
 3925TIP3    H111736   6.378   4.950   0.817
 3925TIP3    H211737   6.444   5.083   0.833
 3926TIP3   OH211738   6.857   3.567   0.854
 3926TIP3    H111739   6.902   3.519   0.782
 3926TIP3    H211740   6.927   3.629   0.884
 3927TIP3   OH211741   7.162   3.837   2.310
 3927TIP3    H111742   7.126   3.768   2.369
 3927TIP3    H211743   7.256   3.838   2.340
 3928TIP3   OH211744   7.408   3.841   2.439
 3928TIP3    H111745   7.493   3.823   2.396
 3928TIP3    H211746   7.403   3.769   2.506
 3929TIP3   OH211747   0.124   5.339   2.674
 3929TIP3    H111748   0.104   5.434   2.662
 3929TIP3    H211749   0.033   5.308   2.688
 3930TIP3   OH211750   0.115   5.333   3.050
 3930TIP3    H111751   0.122   5.340   3.147
 3930TIP3    H211752   0.035   5.280   3.039
 3931TIP3   OH211753   0.336   5.655   2.750
 3931TIP3    H111754   0.340   5.583   2.814
 3931TIP3    H211755   0.376   5.729   2.798
 3932TIP3   OH211756   0.914   4.904   3.101
 3932TIP3    H111757   0.942   4.978   3.159
 3932TIP3    H211758   0.914   4.948   3.015
 3933TIP3   OH211759   0.308   5.076   3.146
 3933TIP3    H111760   0.349   4.990   3.166
 3933TIP3    H211761   0.285   5.066   3.052
 3934TIP3   OH211762   0.346   4.825   2.731
 3934TIP3    H111763   0.417   4.812   2.797
 3934TIP3    H211764   0.397   4.864   2.657
 3935TIP3   OH211765   0.980   5.100   3.282
 3935TIP3    H111766   0.900   5.153   3.263
 3935TIP3    H211767   1.008   5.139   3.367
 3936TIP3   OH211768   0.019   5.563   2.543
 3936TIP3    H111769  -0.033   5.553   2.463
 3936TIP3    H211770   0.007   5.655   2.568
 3937TIP3   OH211771   0.556   4.831   2.905
 3937TIP3    H111772   0.529   4.793   2.989
 3937TIP3    H211773   0.604   4.911   2.933
 3938TIP3   OH211774   0.408   5.897   2.908
 3938TIP3    H111775   0.316   5.894   2.942
 3938TIP3    H211776   0.407   5.984   2.864
 3939TIP3   OH211777   0.705   4.796   3.269
 3939TIP3    H111778   0.616   4.825   3.244
 3939TIP3    H211779   0.761   4.833   3.199
 3940TIP3   OH211780   0.037   4.436   3.241
 3940TIP3    H111781   0.026   4.340   3.259
 3940TIP3    H211782  -0.054   4.468   3.254
 3941TIP3   OH211783   0.103   5.938   2.567
 3941TIP3    H111784   0.164   5.863   2.552
 3941TIP3    H211785   0.164   6.012   2.548
 3942TIP3   OH211786   0.262   5.728   2.494
 3942TIP3    H111787   0.237   5.647   2.449
 3942TIP3    H211788   0.296   5.695   2.580
 3943TIP3   OH211789   0.641   5.810   3.256
 3943TIP3    H111790   0.631   5.733   3.195
 3943TIP3    H211791   0.625   5.885   3.195
 3944TIP3   OH211792  -0.083   5.201   2.499
 3944TIP3    H111793  -0.127   5.283   2.473
 3944TIP3    H211794  -0.016   5.190   2.429
 3945TIP3   OH211795  -0.100   4.994   2.239
 3945TIP3    H111796  -0.028   5.043   2.284
 3945TIP3    H211797  -0.046   4.930   2.188
 3946TIP3   OH211798   0.833   5.442   3.100
 3946TIP3    H111799   0.752   5.497   3.103
 3946TIP3    H211800   0.870   5.471   3.013
 3947TIP3   OH211801   0.293   5.280   2.473
 3947TIP3    H111802   0.239   5.302   2.553
 3947TIP3    H211803   0.379   5.258   2.515
 3948TIP3   OH211804   0.521   5.325   3.399
 3948TIP3    H111805   0.515   5.410   3.447
 3948TIP3    H211806   0.431   5.323   3.358
 3949TIP3   OH211807   0.175   5.894   3.055
 3949TIP3    H111808   0.209   5.949   3.126
 3949TIP3    H211809   0.195   5.806   3.091
 3950TIP3   OH211810   0.123   5.142   2.315
 3950TIP3    H111811   0.188   5.200   2.361
 3950TIP3    H211812   0.145   5.163   2.220
 3951TIP3   OH211813   0.638   4.387   2.358
 3951TIP3    H111814   0.558   4.411   2.408
 3951TIP3    H211815   0.654   4.469   2.306
 3952TIP3   OH211816   0.432   5.749   1.904
 3952TIP3    H111817   0.443   5.847   1.897
 3952TIP3    H211818   0.524   5.720   1.887
 3953TIP3   OH211819   0.879   6.156   3.300
 3953TIP3    H111820   0.877   6.060   3.314
 3953TIP3    H211821   0.797   6.183   3.348
 3954TIP3   OH211822   0.009   6.027   2.306
 3954TIP3    H111823  -0.083   6.023   2.335
 3954TIP3    H211824   0.056   5.995   2.384
 3955TIP3   OH211825   0.766   5.284   3.578
 3955TIP3    H111826   0.684   5.298   3.527
 3955TIP3    H211827   0.780   5.188   3.568
 3956TIP3   OH211828   0.300   4.631   3.582
 3956TIP3    H111829   0.367   4.605   3.649
 3956TIP3    H211830   0.216   4.616   3.629
 3957TIP3   OH211831   0.532   5.059   3.494
 3957TIP3    H111832   0.485   5.056   3.580
 3957TIP3    H211833   0.512   5.149   3.461
 3958TIP3   OH211834   0.189   5.189   2.053
 3958TIP3    H111835   0.166   5.159   1.964
 3958TIP3    H211836   0.274   5.235   2.035
 3959TIP3   OH211837  -0.083   4.538   2.349
 3959TIP3    H111838  -0.114   4.556   2.440
 3959TIP3    H211839  -0.148   4.468   2.325
 3960TIP3   OH211840   0.078   5.014   2.637
 3960TIP3    H111841   0.017   5.082   2.601
 3960TIP3    H211842   0.133   4.993   2.560
 3961TIP3   OH211843   0.260   5.290   3.730
 3961TIP3    H111844   0.225   5.223   3.792
 3961TIP3    H211845   0.353   5.296   3.759
 3962TIP3   OH211846   0.234   5.035   2.884
 3962TIP3    H111847   0.172   5.069   2.816
 3962TIP3    H211848   0.260   4.951   2.840
 3963TIP3   OH211849   0.258   5.288   3.309
 3963TIP3    H111850   0.276   5.210   3.252
 3963TIP3    H211851   0.209   5.245   3.383
 3964TIP3   OH211852  -0.069   4.671   3.007
 3964TIP3    H111853  -0.136   4.733   2.975
 3964TIP3    H211854  -0.004   4.731   3.048
 3965TIP3   OH211855   0.404   4.816   3.180
 3965TIP3    H111856   0.373   4.830   3.272
 3965TIP3    H211857   0.335   4.753   3.150
 3966TIP3   OH211858   0.570   6.503   3.401
 3966TIP3    H111859   0.567   6.527   3.307
 3966TIP3    H211860   0.646   6.554   3.434
 3967TIP3   OH211861   0.008   5.001   3.066
 3967TIP3    H111862   0.091   5.021   3.019
 3967TIP3    H211863   0.015   5.056   3.145
 3968TIP3   OH211864   0.604   5.593   3.089
 3968TIP3    H111865   0.631   5.644   3.009
 3968TIP3    H211866   0.519   5.553   3.061
 3969TIP3   OH211867   0.181   4.628   2.298
 3969TIP3    H111868   0.083   4.627   2.290
 3969TIP3    H211869   0.196   4.724   2.310
 3970TIP3   OH211870   0.233   4.896   2.412
 3970TIP3    H111871   0.326   4.911   2.438
 3970TIP3    H211872   0.211   4.978   2.364
 3971TIP3   OH211873   0.255   5.970   3.335
 3971TIP3    H111874   0.170   5.934   3.364
 3971TIP3    H211875   0.294   5.995   3.421
 3972TIP3   OH211876   0.660   5.010   2.264
 3972TIP3    H111877   0.601   4.964   2.201
 3972TIP3    H211878   0.660   5.098   2.221
 3973TIP3   OH211879   0.891   5.865   3.344
 3973TIP3    H111880   0.794   5.860   3.335
 3973TIP3    H211881   0.917   5.834   3.254
 3974TIP3   OH211882   0.381   5.825   2.172
 3974TIP3    H111883   0.350   5.757   2.232
 3974TIP3    H211884   0.385   5.780   2.085
 3975TIP3   OH211885   0.363   5.459   3.008
 3975TIP3    H111886   0.274   5.418   3.022
 3975TIP3    H211887   0.407   5.383   2.965
 3976TIP3   OH211888   0.240   5.668   3.191
 3976TIP3    H111889   0.220   5.622   3.273
 3976TIP3    H211890   0.289   5.601   3.142
 3977TIP3   OH211891   0.123   5.550   2.061
 3977TIP3    H111892   0.167   5.527   2.145
 3977TIP3    H211893   0.034   5.510   2.072
 3978TIP3   OH211894   0.420   6.188   3.235
 3978TIP3    H111895   0.338   6.151   3.274
 3978TIP3    H211896   0.385   6.260   3.178
 3979TIP3   OH211897   0.468   6.019   1.896
 3979TIP3    H111898   0.499   6.068   1.817
 3979TIP3    H211899   0.396   6.079   1.927
 3980TIP3   OH211900   0.286   5.489   2.290
 3980TIP3    H111901   0.282   5.419   2.359
 3980TIP3    H211902   0.383   5.490   2.274
 3981TIP3   OH211903   0.324   4.863   3.437
 3981TIP3    H111904   0.400   4.910   3.477
 3981TIP3    H211905   0.317   4.783   3.493
 3982TIP3   OH211906   0.233   4.616   2.592
 3982TIP3    H111907   0.183   4.663   2.523
 3982TIP3    H211908   0.260   4.692   2.648
 3983TIP3   OH211909  -0.027   4.759   2.660
 3983TIP3    H111910   0.020   4.843   2.643
 3983TIP3    H211911  -0.093   4.792   2.725
 3984TIP3   OH211912   0.173   5.133   3.518
 3984TIP3    H111913   0.191   5.194   3.592
 3984TIP3    H211914   0.227   5.056   3.540
 3985TIP3   OH211915   0.042   4.517   2.811
 3985TIP3    H111916   0.018   4.580   2.883
 3985TIP3    H211917   0.080   4.578   2.746
 3986TIP3   OH211918   0.801   5.018   3.503
 3986TIP3    H111919   0.703   5.012   3.505
 3986TIP3    H211920   0.819   4.988   3.413
 3987TIP3   OH211921   0.458   5.216   2.889
 3987TIP3    H111922   0.380   5.157   2.899
 3987TIP3    H211923   0.528   5.165   2.935
 3988TIP3   OH211924   0.419   6.167   2.830
 3988TIP3    H111925   0.377   6.218   2.758
 3988TIP3    H211926   0.514   6.188   2.811
 3989TIP3   OH211927   0.312   6.066   3.591
 3989TIP3    H111928   0.320   5.988   3.649
 3989TIP3    H211929   0.386   6.123   3.621
 3990TIP3   OH211930   0.110   5.814   1.880
 3990TIP3    H111931   0.106   5.763   1.962
 3990TIP3    H211932   0.165   5.757   1.826
 3991TIP3   OH211933  -0.137   5.432   2.075
 3991TIP3    H111934  -0.228   5.449   2.103
 3991TIP3    H211935  -0.152   5.348   2.029
 3992TIP3   OH211936   0.437   5.704   3.409
 3992TIP3    H111937   0.514   5.743   3.362
 3992TIP3    H211938   0.365   5.756   3.373
 3993TIP3   OH211939   0.330   5.637   3.799
 3993TIP3    H111940   0.385   5.586   3.737
 3993TIP3    H211941   0.294   5.568   3.856
 3994TIP3   OH211942   0.425   5.281   1.932
 3994TIP3    H111943   0.413   5.236   1.846
 3994TIP3    H211944   0.394   5.372   1.907
 3995TIP3   OH211945   0.515   5.301   3.845
 3995TIP3    H111946   0.567   5.220   3.859
 3995TIP3    H211947   0.580   5.359   3.802
 3996TIP3   OH211948   0.559   5.549   3.591
 3996TIP3    H111949   0.502   5.607   3.534
 3996TIP3    H211950   0.647   5.569   3.550
 3997TIP3   OH211951   0.027   4.582   3.646
 3997TIP3    H111952  -0.011   4.668   3.621
 3997TIP3    H211953  -0.052   4.537   3.681
 3998TIP3   OH211954   0.174   5.080   3.883
 3998TIP3    H111955   0.198   5.064   3.976
 3998TIP3    H211956   0.100   5.016   3.869
 3999TIP3   OH211957   0.403   5.011   3.725
 3999TIP3    H111958   0.331   5.022   3.790
 3999TIP3    H211959   0.478   4.982   3.781
 4000TIP3   OH211960   0.629   4.955   3.879
 4000TIP3    H111961   0.644   4.860   3.898
 4000TIP3    H211962   0.625   4.994   3.969
 4001TIP3   OH211963   0.180   4.587   3.882
 4001TIP3    H111964   0.227   4.501   3.888
 4001TIP3    H211965   0.116   4.570   3.811
 4002TIP3   OH211966   0.165   4.788   4.059
 4002TIP3    H111967   0.182   4.711   3.999
 4002TIP3    H211968   0.090   4.826   4.010
 4003TIP3   OH211969   0.672   6.264   2.791
 4003TIP3    H111970   0.702   6.291   2.880
 4003TIP3    H211971   0.740   6.300   2.733
 4004TIP3   OH211972   0.710   6.279   3.071
 4004TIP3    H111973   0.663   6.193   3.066
 4004TIP3    H211974   0.783   6.253   3.130
 4005TIP3   OH211975   0.756   5.956   3.643
 4005TIP3    H111976   0.683   5.965   3.708
 4005TIP3    H211977   0.796   6.045   3.645
 4006TIP3   OH211978   0.564   5.472   2.261
 4006TIP3    H111979   0.633   5.534   2.232
 4006TIP3    H211980   0.607   5.434   2.341
 4007TIP3   OH211981   0.687   5.343   2.461
 4007TIP3    H111982   0.638   5.298   2.532
 4007TIP3    H211983   0.772   5.361   2.506
 4008TIP3   OH211984   0.745   5.728   2.898
 4008TIP3    H111985   0.802   5.661   2.854
 4008TIP3    H211986   0.747   5.802   2.833
 4009TIP3   OH211987   0.586   6.026   3.092
 4009TIP3    H111988   0.518   6.076   3.142
 4009TIP3    H211989   0.533   5.981   3.023
 4010TIP3   OH211990   0.631   5.243   2.115
 4010TIP3    H111991   0.559   5.251   2.049
 4010TIP3    H211992   0.608   5.318   2.173
 4011TIP3   OH211993   0.495   4.911   2.071
 4011TIP3    H111994   0.473   4.964   1.993
 4011TIP3    H211995   0.469   4.821   2.042
 4012TIP3   OH211996   0.509   5.192   2.619
 4012TIP3    H111997   0.523   5.096   2.617
 4012TIP3    H211998   0.496   5.210   2.715
 4013TIP3   OH211999   0.799   5.618   3.473
 4013TIP3    H112000   0.872   5.553   3.463
 4013TIP3    H212001   0.824   5.687   3.410
 4014TIP3   OH212002   0.982   5.421   3.490
 4014TIP3    H112003   0.908   5.371   3.530
 4014TIP3    H212004   1.055   5.358   3.503
 4015TIP3   OH212005   0.448   4.638   2.063
 4015TIP3    H112006   0.539   4.623   2.097
 4015TIP3    H212007   0.396   4.643   2.143
 4016TIP3   OH212008   0.503   4.906   2.509
 4016TIP3    H112009   0.548   4.820   2.520
 4016TIP3    H212010   0.560   4.947   2.441
 4017TIP3   OH212011   0.675   5.081   3.002
 4017TIP3    H112012   0.757   5.113   2.959
 4017TIP3    H212013   0.686   5.122   3.090
 4018TIP3   OH212014   0.736   5.226   3.234
 4018TIP3    H112015   0.660   5.261   3.285
 4018TIP3    H212016   0.769   5.308   3.191
 4019TIP3   OH212017   1.190   4.819   3.794
 4019TIP3    H112018   1.248   4.753   3.749
 4019TIP3    H212019   1.158   4.872   3.718
 4020TIP3   OH212020   0.614   4.657   2.551
 4020TIP3    H112021   0.659   4.643   2.637
 4020TIP3    H212022   0.554   4.581   2.548
 4021TIP3   OH212023   1.057   4.956   3.600
 4021TIP3    H112024   0.972   4.999   3.622
 4021TIP3    H212025   1.026   4.885   3.541
 4022TIP3   OH212026   0.696   4.597   2.181
 4022TIP3    H112027   0.737   4.527   2.125
 4022TIP3    H212028   0.762   4.668   2.177
 4023TIP3   OH212029   0.269   6.124   2.456
 4023TIP3    H112030   0.309   6.106   2.368
 4023TIP3    H212031   0.328   6.192   2.490
 4024TIP3   OH212032   0.962   4.723   3.473
 4024TIP3    H112033   0.870   4.715   3.442
 4024TIP3    H212034   0.992   4.629   3.467
 4025TIP3   OH212035   0.376   6.368   3.028
 4025TIP3    H112036   0.347   6.446   2.976
 4025TIP3    H212037   0.386   6.300   2.959
 4026TIP3   OH212038   0.200   4.639   3.115
 4026TIP3    H112039   0.138   4.573   3.152
 4026TIP3    H212040   0.257   4.584   3.059
 4027TIP3   OH212041   0.694   4.513   3.003
 4027TIP3    H112042   0.720   4.569   2.927
 4027TIP3    H212043   0.597   4.526   3.004
 4028TIP3   OH212044   0.782   4.616   2.768
 4028TIP3    H112045   0.843   4.558   2.717
 4028TIP3    H212046   0.818   4.705   2.746
 4029TIP3   OH212047  -0.139   4.366   2.986
 4029TIP3    H112048  -0.085   4.423   2.930
 4029TIP3    H212049  -0.144   4.420   3.066
 4030TIP3   OH212050   0.416   4.517   2.971
 4030TIP3    H112051   0.397   4.477   2.886
 4030TIP3    H212052   0.397   4.442   3.032
 4031TIP3   OH212053   0.416   4.438   2.516
 4031TIP3    H112054   0.354   4.502   2.560
 4031TIP3    H212055   0.412   4.362   2.579
 4032TIP3   OH212056  -0.183   4.540   2.608
 4032TIP3    H112057  -0.145   4.487   2.679
 4032TIP3    H212058  -0.138   4.626   2.625
 4033TIP3   OH212059   0.405   6.092   2.217
 4033TIP3    H112060   0.401   5.994   2.206
 4033TIP3    H212061   0.366   6.121   2.133
 4034TIP3   OH212062   0.694   4.685   3.911
 4034TIP3    H112063   0.711   4.653   4.002
 4034TIP3    H212064   0.783   4.679   3.871
 4035TIP3   OH212065   0.636   6.237   3.402
 4035TIP3    H112066   0.562   6.206   3.346
 4035TIP3    H212067   0.613   6.332   3.410
 4036TIP3   OH212068   1.900   5.612   2.164
 4036TIP3    H112069   1.870   5.703   2.151
 4036TIP3    H212070   1.822   5.561   2.134
 4037TIP3   OH212071   1.899   5.607   2.548
 4037TIP3    H112072   1.931   5.583   2.637
 4037TIP3    H212073   1.854   5.526   2.520
 4038TIP3   OH212074   1.196   5.514   2.925
 4038TIP3    H112075   1.233   5.443   2.979
 4038TIP3    H212076   1.274   5.549   2.880
 4039TIP3   OH212077   2.137   5.919   2.228
 4039TIP3    H112078   2.125   5.847   2.291
 4039TIP3    H212079   2.170   5.990   2.286
 4040TIP3   OH212080   1.170   5.917   2.641
 4040TIP3    H112081   1.166   5.819   2.645
 4040TIP3    H212082   1.266   5.929   2.635
 4041TIP3   OH212083   0.879   5.079   2.435
 4041TIP3    H112084   0.884   5.170   2.471
 4041TIP3    H212085   0.797   5.080   2.384
 4042TIP3   OH212086   1.789   6.371   2.245
 4042TIP3    H112087   1.838   6.300   2.200
 4042TIP3    H212088   1.783   6.338   2.335
 4043TIP3   OH212089   1.694   5.837   2.598
 4043TIP3    H112090   1.731   5.759   2.553
 4043TIP3    H212091   1.779   5.880   2.623
 4044TIP3   OH212092   2.710   5.155   2.596
 4044TIP3    H112093   2.739   5.238   2.640
 4044TIP3    H212094   2.730   5.175   2.503
 4045TIP3   OH212095   2.111   5.337   2.629
 4045TIP3    H112096   2.150   5.250   2.650
 4045TIP3    H212097   2.076   5.320   2.539
 4046TIP3   OH212098   1.441   4.990   2.593
 4046TIP3    H112099   1.425   5.067   2.535
 4046TIP3    H212100   1.389   4.922   2.544
 4047TIP3   OH212101   2.141   5.087   2.217
 4047TIP3    H112102   2.212   5.070   2.283
 4047TIP3    H212103   2.195   5.123   2.144
 4048TIP3   OH212104   1.518   5.397   2.495
 4048TIP3    H112105   1.611   5.372   2.510
 4048TIP3    H212106   1.479   5.313   2.463
 4049TIP3   OH212107   2.783   5.363   2.766
 4049TIP3    H112108   2.699   5.410   2.746
 4049TIP3    H212109   2.799   5.393   2.857
 4050TIP3   OH212110   1.440   4.974   3.032
 4050TIP3    H112111   1.390   5.024   2.965
 4050TIP3    H212112   1.388   4.995   3.112
 4051TIP3   OH212113   1.806   5.847   2.023
 4051TIP3    H112114   1.747   5.808   1.958
 4051TIP3    H212115   1.751   5.922   2.055
 4052TIP3   OH212116   1.552   5.757   2.826
 4052TIP3    H112117   1.488   5.822   2.862
 4052TIP3    H212118   1.591   5.806   2.751
 4053TIP3   OH212119   2.351   5.089   2.391
 4053TIP3    H112120   2.335   5.045   2.476
 4053TIP3    H212121   2.401   5.168   2.418
 4054TIP3   OH212122   1.314   5.083   2.820
 4054TIP3    H112123   1.358   5.169   2.834
 4054TIP3    H212124   1.352   5.059   2.732
 4055TIP3   OH212125   1.377   5.950   2.924
 4055TIP3    H112126   1.351   6.036   2.885
 4055TIP3    H212127   1.298   5.932   2.978
 4056TIP3   OH212128   0.769   5.638   2.156
 4056TIP3    H112129   0.730   5.669   2.072
 4056TIP3    H212130   0.802   5.721   2.196
 4057TIP3   OH212131   2.209   6.154   2.394
 4057TIP3    H112132   2.121   6.146   2.436
 4057TIP3    H212133   2.202   6.242   2.353
 4058TIP3   OH212134   2.502   5.054   2.761
 4058TIP3    H112135   2.414   5.083   2.731
 4058TIP3    H212136   2.561   5.088   2.691
 4059TIP3   OH212137   1.786   4.738   2.719
 4059TIP3    H112138   1.831   4.650   2.709
 4059TIP3    H212139   1.724   4.721   2.792
 4060TIP3   OH212140   1.918   6.196   2.070
 4060TIP3    H112141   1.972   6.116   2.058
 4060TIP3    H212142   1.977   6.264   2.030
 4061TIP3   OH212143   2.059   5.945   1.964
 4061TIP3    H112144   1.969   5.912   1.985
 4061TIP3    H212145   2.101   5.937   2.052
 4062TIP3   OH212146   2.437   6.066   2.743
 4062TIP3    H112147   2.425   5.989   2.683
 4062TIP3    H212148   2.419   6.141   2.682
 4063TIP3   OH212149   1.730   5.464   1.999
 4063TIP3    H112150   1.645   5.510   1.982
 4063TIP3    H212151   1.763   5.451   1.909
 4064TIP3   OH212152   1.691   5.228   1.738
 4064TIP3    H112153   1.756   5.296   1.762
 4064TIP3    H212154   1.744   5.177   1.674
 4065TIP3   OH212155   2.632   5.703   2.586
 4065TIP3    H112156   2.549   5.755   2.591
 4065TIP3    H212157   2.662   5.729   2.496
 4066TIP3   OH212158   2.075   5.546   1.965
 4066TIP3    H112159   2.019   5.569   2.043
 4066TIP3    H212160   2.158   5.519   2.012
 4067TIP3   OH212161   2.311   5.582   2.884
 4067TIP3    H112162   2.308   5.666   2.934
 4067TIP3    H212163   2.224   5.586   2.839
 4068TIP3   OH212164   1.312   5.547   2.380
 4068TIP3    H112165   1.267   5.485   2.320
 4068TIP3    H212166   1.383   5.492   2.417
 4069TIP3   OH212167   1.439   5.956   2.536
 4069TIP3    H112168   1.414   5.909   2.455
 4069TIP3    H212169   1.528   5.920   2.554
 4070TIP3   OH212170   1.459   5.505   2.755
 4070TIP3    H112171   1.470   5.490   2.659
 4070TIP3    H212172   1.491   5.597   2.766
 4071TIP3   OH212173   1.970   6.149   2.518
 4071TIP3    H112174   1.957   6.230   2.571
 4071TIP3    H212175   1.954   6.078   2.583
 4072TIP3   OH212176   1.584   6.069   3.066
 4072TIP3    H112177   1.523   6.130   3.112
 4072TIP3    H212178   1.519   6.015   3.016
 4073TIP3   OH212179   1.924   5.398   1.790
 4073TIP3    H112180   1.974   5.458   1.849
 4073TIP3    H212181   1.955   5.426   1.701
 4074TIP3   OH212182   1.343   5.621   3.179
 4074TIP3    H112183   1.343   5.710   3.218
 4074TIP3    H212184   1.247   5.606   3.169
 4075TIP3   OH212185   1.661   6.078   2.071
 4075TIP3    H112186   1.737   6.136   2.091
 4075TIP3    H212187   1.597   6.138   2.032
 4076TIP3   OH212188   1.376   6.236   3.153
 4076TIP3    H112189   1.341   6.236   3.062
 4076TIP3    H212190   1.297   6.214   3.206
 4077TIP3   OH212191   2.431   4.641   1.846
 4077TIP3    H112192   2.350   4.660   1.896
 4077TIP3    H212193   2.445   4.725   1.798
 4078TIP3   OH212194   1.181   5.379   2.184
 4078TIP3    H112195   1.110   5.420   2.130
 4078TIP3    H212196   1.131   5.316   2.237
 4079TIP3   OH212197   2.232   6.008   1.392
 4079TIP3    H112198   2.235   6.105   1.379
 4079TIP3    H212199   2.326   5.985   1.377
 4080TIP3   OH212200   0.955   5.769   3.099
 4080TIP3    H112201   0.893   5.745   3.027
 4080TIP3    H212202   0.995   5.682   3.123
 4081TIP3   OH212203   0.809   5.959   2.735
 4081TIP3    H112204   0.904   5.948   2.720
 4081TIP3    H212205   0.807   6.039   2.790
 4082TIP3   OH212206   2.675   6.412   2.790
 4082TIP3    H112207   2.672   6.316   2.804
 4082TIP3    H212208   2.591   6.439   2.835
 4083TIP3   OH212209   1.780   6.198   2.923
 4083TIP3    H112210   1.778   6.290   2.956
 4083TIP3    H212211   1.709   6.158   2.978
 4084TIP3   OH212212   1.543   6.325   1.874
 4084TIP3    H112213   1.493   6.311   1.792
 4084TIP3    H212214   1.513   6.414   1.903
 4085TIP3   OH212215   0.979   6.177   2.260
 4085TIP3    H112216   1.026   6.167   2.346
 4085TIP3    H212217   0.927   6.094   2.259
 4086TIP3   OH212218   1.741   6.230   1.514
 4086TIP3    H112219   1.800   6.160   1.480
 4086TIP3    H212220   1.774   6.241   1.606
 4087TIP3   OH212221   1.793   6.273   1.784
 4087TIP3    H112222   1.703   6.285   1.823
 4087TIP3    H212223   1.841   6.239   1.861
 4088TIP3   OH212224   2.564   5.541   3.064
 4088TIP3    H112225   2.481   5.554   3.014
 4088TIP3    H212226   2.578   5.445   3.053
 4089TIP3   OH212227   1.159   5.952   3.089
 4089TIP3    H112228   1.209   5.933   3.171
 4089TIP3    H212229   1.085   5.888   3.095
 4090TIP3   OH212230   1.551   4.758   2.880
 4090TIP3    H112231   1.497   4.761   2.800
 4090TIP3    H212232   1.530   4.843   2.922
 4091TIP3   OH212233   2.094   4.904   3.075
 4091TIP3    H112234   2.162   4.865   3.133
 4091TIP3    H212235   2.010   4.874   3.117
 4092TIP3   OH212236   2.333   5.319   2.986
 4092TIP3    H112237   2.282   5.316   3.070
 4092TIP3    H212238   2.309   5.406   2.950
 4093TIP3   OH212239   2.027   5.475   1.529
 4093TIP3    H112240   1.987   5.408   1.469
 4093TIP3    H212241   1.980   5.553   1.497
 4094TIP3   OH212242   1.707   4.820   1.846
 4094TIP3    H112243   1.672   4.817   1.937
 4094TIP3    H212244   1.666   4.739   1.810
 4095TIP3   OH212245   1.493   5.281   2.897
 4095TIP3    H112246   1.441   5.307   2.975
 4095TIP3    H212247   1.485   5.363   2.841
 4096TIP3   OH212248   1.380   5.177   2.406
 4096TIP3    H112249   1.287   5.154   2.430
 4096TIP3    H212250   1.385   5.135   2.318
 4097TIP3   OH212251   1.867   5.263   2.135
 4097TIP3    H112252   1.814   5.334   2.091
 4097TIP3    H212253   1.918   5.228   2.060
 4098TIP3   OH212254   2.041   5.538   3.218
 4098TIP3    H112255   2.020   5.466   3.280
 4098TIP3    H212256   2.135   5.554   3.240
 4099TIP3   OH212257   2.024   5.290   2.371
 4099TIP3    H112258   1.961   5.318   2.302
 4099TIP3    H212259   2.057   5.208   2.329
 4100TIP3   OH212260   1.310   5.320   3.102
 4100TIP3    H112261   1.342   5.386   3.165
 4100TIP3    H212262   1.304   5.239   3.156
 4101TIP3   OH212263   1.358   4.795   1.810
 4101TIP3    H112264   1.350   4.796   1.907
 4101TIP3    H212265   1.284   4.853   1.785
 4102TIP3   OH212266   0.933   4.822   2.686
 4102TIP3    H112267   0.984   4.903   2.703
 4102TIP3    H212268   0.926   4.826   2.589
 4103TIP3   OH212269   0.871   4.819   2.202
 4103TIP3    H112270   0.917   4.855   2.123
 4103TIP3    H212271   0.819   4.897   2.226
 4104TIP3   OH212272   2.034   5.535   2.794
 4104TIP3    H112273   2.067   5.463   2.735
 4104TIP3    H212274   2.003   5.482   2.871
 4105TIP3   OH212275   1.705   5.000   2.466
 4105TIP3    H112276   1.622   4.996   2.517
 4105TIP3    H212277   1.771   4.990   2.536
 4106TIP3   OH212278   1.148   5.049   2.472
 4106TIP3    H112279   1.053   5.071   2.465
 4106TIP3    H212280   1.152   4.960   2.435
 4107TIP3   OH212281   1.404   5.045   2.164
 4107TIP3    H112282   1.497   5.066   2.142
 4107TIP3    H212283   1.356   5.071   2.082
 4108TIP3   OH212284   2.193   5.071   2.666
 4108TIP3    H112285   2.162   5.086   2.758
 4108TIP3    H212286   2.123   5.012   2.632
 4109TIP3   OH212287   1.253   5.077   1.937
 4109TIP3    H112288   1.180   5.038   1.887
 4109TIP3    H212289   1.305   5.118   1.865
 4110TIP3   OH212290   2.365   6.762   2.889
 4110TIP3    H112291   2.363   6.787   2.794
 4110TIP3    H212292   2.445   6.810   2.919
 4111TIP3   OH212293   1.322   5.873   3.309
 4111TIP3    H112294   1.402   5.903   3.356
 4111TIP3    H212295   1.258   5.873   3.383
 4112TIP3   OH212296   1.786   5.328   2.565
 4112TIP3    H112297   1.856   5.284   2.514
 4112TIP3    H212298   1.792   5.283   2.652
 4113TIP3   OH212299   1.314   4.804   2.435
 4113TIP3    H112300   1.305   4.715   2.471
 4113TIP3    H212301   1.371   4.790   2.358
 4114TIP3   OH212302   1.763   5.222   2.855
 4114TIP3    H112303   1.673   5.257   2.869
 4114TIP3    H212304   1.819   5.285   2.905
 4115TIP3   OH212305   1.501   5.615   1.948
 4115TIP3    H112306   1.430   5.547   1.936
 4115TIP3    H212307   1.479   5.648   2.038
 4116TIP3   OH212308   2.399   5.849   2.577
 4116TIP3    H112309   2.423   5.900   2.496
 4116TIP3    H212310   2.314   5.807   2.551
 4117TIP3   OH212311   1.955   4.926   1.807
 4117TIP3    H112312   1.860   4.905   1.819
 4117TIP3    H212313   1.962   5.019   1.836
 4118TIP3   OH212314   1.899   5.933   2.945
 4118TIP3    H112315   1.924   5.911   3.035
 4118TIP3    H212316   1.860   6.021   2.953
 4119TIP3   OH212317   2.026   5.172   1.918
 4119TIP3    H112318   2.122   5.178   1.934
 4119TIP3    H212319   2.007   5.251   1.865
 4120TIP3   OH212320   1.202   5.643   2.625
 4120TIP3    H112321   1.231   5.615   2.536
 4120TIP3    H212322   1.166   5.560   2.660
 4121TIP3   OH212323   1.648   5.764   1.773
 4121TIP3    H112324   1.598   5.849   1.777
 4121TIP3    H212325   1.591   5.708   1.830
 4122TIP3   OH212326   1.068   5.559   3.240
 4122TIP3    H112327   1.093   5.544   3.333
 4122TIP3    H212328   1.004   5.488   3.224
 4123TIP3   OH212329   1.799   5.670   3.257
 4123TIP3    H112330   1.739   5.613   3.206
 4123TIP3    H212331   1.886   5.635   3.229
 4124TIP3   OH212332   2.058   6.191   2.841
 4124TIP3    H112333   1.962   6.190   2.855
 4124TIP3    H212334   2.087   6.243   2.919
 4125TIP3   OH212335   2.460   5.238   1.763
 4125TIP3    H112336   2.400   5.206   1.691
 4125TIP3    H212337   2.478   5.328   1.732
 4126TIP3   OH212338   2.687   6.120   2.832
 4126TIP3    H112339   2.589   6.116   2.823
 4126TIP3    H212340   2.713   6.091   2.742
 4127TIP3   OH212341   2.170   6.087   1.659
 4127TIP3    H112342   2.132   6.026   1.723
 4127TIP3    H212343   2.178   6.036   1.577
 4128TIP3   OH212344   2.165   5.712   2.494
 4128TIP3    H112345   2.071   5.687   2.509
 4128TIP3    H212346   2.198   5.631   2.450
 4129TIP3   OH212347   1.292   5.940   2.248
 4129TIP3    H112348   1.287   6.022   2.194
 4129TIP3    H212349   1.199   5.919   2.260
 4130TIP3   OH212350   0.858   5.244   1.955
 4130TIP3    H112351   0.905   5.327   1.977
 4130TIP3    H212352   0.782   5.249   2.016
 4131TIP3   OH212353   1.437   5.709   2.192
 4131TIP3    H112354   1.397   5.796   2.213
 4131TIP3    H212355   1.399   5.653   2.262
 4132TIP3   OH212356   1.561   6.283   2.718
 4132TIP3    H112357   1.604   6.356   2.668
 4132TIP3    H212358   1.638   6.247   2.766
 4133TIP3   OH212359   1.210   6.180   2.101
 4133TIP3    H112360   1.125   6.189   2.148
 4133TIP3    H212361   1.242   6.273   2.104
 4134TIP3   OH212362   1.949   5.915   2.677
 4134TIP3    H112363   1.938   5.915   2.774
 4134TIP3    H212364   2.030   5.864   2.666
 4135TIP3   OH212365   1.917   5.794   1.561
 4135TIP3    H112366   1.959   5.777   1.646
 4135TIP3    H212367   1.823   5.782   1.583
 4136TIP3   OH212368   2.198   6.449   2.727
 4136TIP3    H112369   2.118   6.394   2.719
 4136TIP3    H212370   2.183   6.514   2.655
 4137TIP3   OH212371   2.261   6.283   1.380
 4137TIP3    H112372   2.301   6.356   1.328
 4137TIP3    H212373   2.182   6.331   1.413
 4138TIP3   OH212374   1.284   5.060   3.250
 4138TIP3    H112375   1.189   5.066   3.268
 4138TIP3    H212376   1.315   5.005   3.323
 4139TIP3   OH212377   2.131   5.722   1.755
 4139TIP3    H112378   2.095   5.655   1.816
 4139TIP3    H212379   2.145   5.793   1.821
 4140TIP3   OH212380   0.999   6.145   2.878
 4140TIP3    H112381   1.053   6.069   2.903
 4140TIP3    H212382   1.031   6.212   2.940
 4141TIP3   OH212383   1.287   5.786   1.559
 4141TIP3    H112384   1.309   5.695   1.532
 4141TIP3    H212385   1.267   5.773   1.654
 4142TIP3   OH212386   1.232   5.797   1.832
 4142TIP3    H112387   1.305   5.766   1.889
 4142TIP3    H212388   1.239   5.895   1.841
 4143TIP3   OH212389   0.969   5.487   2.036
 4143TIP3    H112390   0.904   5.531   2.094
 4143TIP3    H212391   0.983   5.558   1.970
 4144TIP3   OH212392   2.123   5.129   2.925
 4144TIP3    H112393   2.203   5.167   2.965
 4144TIP3    H212394   2.106   5.052   2.982
 4145TIP3   OH212395   2.004   4.875   2.092
 4145TIP3    H112396   1.989   4.899   1.999
 4145TIP3    H212397   2.041   4.958   2.129
 4146TIP3   OH212398   1.503   5.993   1.778
 4146TIP3    H112399   1.416   6.016   1.817
 4146TIP3    H212400   1.516   6.070   1.721
 4147TIP3   OH212401   1.690   5.057   2.195
 4147TIP3    H112402   1.753   5.130   2.179
 4147TIP3    H212403   1.694   5.049   2.293
 4148TIP3   OH212404   1.958   5.375   3.002
 4148TIP3    H112405   1.981   5.429   3.080
 4148TIP3    H212406   2.013   5.296   3.014
 4149TIP3   OH212407   1.831   4.782   2.294
 4149TIP3    H112408   1.826   4.857   2.356
 4149TIP3    H212409   1.894   4.817   2.227
 4150TIP3   OH212410   1.249   6.069   1.850
 4150TIP3    H112411   1.217   6.138   1.787
 4150TIP3    H212412   1.231   6.112   1.937
 4151TIP3   OH212413   1.344   4.782   2.088
 4151TIP3    H112414   1.344   4.875   2.120
 4151TIP3    H212415   1.440   4.764   2.095
 4152TIP3   OH212416   2.599   5.274   2.984
 4152TIP3    H112417   2.501   5.273   2.992
 4152TIP3    H212418   2.610   5.234   2.897
 4153TIP3   OH212419   2.251   5.470   2.370
 4153TIP3    H112420   2.174   5.411   2.384
 4153TIP3    H212421   2.322   5.423   2.419
 4154TIP3   OH212422   0.963   5.697   1.837
 4154TIP3    H112423   1.031   5.766   1.849
 4154TIP3    H212424   1.010   5.641   1.771
 4155TIP3   OH212425   0.903   4.972   1.979
 4155TIP3    H112426   0.913   5.069   1.976
 4155TIP3    H212427   0.828   4.959   1.921
 4156TIP3   OH212428   2.219   6.424   2.318
 4156TIP3    H112429   2.177   6.471   2.243
 4156TIP3    H212430   2.313   6.444   2.299
 4157TIP3   OH212431   0.837   5.919   2.227
 4157TIP3    H112432   0.763   5.943   2.284
 4157TIP3    H212433   0.806   5.957   2.141
 4158TIP3   OH212434   0.993   6.455   3.297
 4158TIP3    H112435   1.078   6.452   3.345
 4158TIP3    H212436   0.970   6.360   3.296
 4159TIP3   OH212437   1.468   6.419   3.344
 4159TIP3    H112438   1.563   6.403   3.353
 4159TIP3    H212439   1.446   6.357   3.271
 4160TIP3   OH212440   1.451   5.990   1.470
 4160TIP3    H112441   1.391   5.923   1.510
 4160TIP3    H212442   1.527   5.934   1.448
 4161TIP3   OH212443   2.112   6.324   3.077
 4161TIP3    H112444   2.103   6.256   3.147
 4161TIP3    H212445   2.189   6.376   3.108
 4162TIP3   OH212446   1.888   6.035   1.387
 4162TIP3    H112447   1.938   5.974   1.444
 4162TIP3    H212448   1.941   6.036   1.304
 4163TIP3   OH212449   1.120   5.859   3.500
 4163TIP3    H112450   1.136   5.763   3.505
 4163TIP3    H212451   1.034   5.863   3.454
 4164TIP3   OH212452   1.105   5.512   1.692
 4164TIP3    H112453   1.158   5.486   1.769
 4164TIP3    H212454   1.170   5.491   1.622
 4165TIP3   OH212455   1.727   5.945   3.274
 4165TIP3    H112456   1.687   5.964   3.187
 4165TIP3    H212457   1.758   5.853   3.265
 4166TIP3   OH212458   1.615   5.719   1.502
 4166TIP3    H112459   1.606   5.723   1.599
 4166TIP3    H212460   1.617   5.622   1.490
 4167TIP3   OH212461   2.221   5.954   2.880
 4167TIP3    H112462   2.296   5.999   2.837
 4167TIP3    H212463   2.151   6.021   2.866
 4168TIP3   OH212464   1.239   5.593   3.484
 4168TIP3    H112465   1.320   5.548   3.454
 4168TIP3    H212466   1.267   5.627   3.571
 4169TIP3   OH212467   1.311   5.416   1.920
 4169TIP3    H112468   1.280   5.374   2.002
 4169TIP3    H212469   1.341   5.340   1.867
 4170TIP3   OH212470   1.575   5.476   3.143
 4170TIP3    H112471   1.499   5.537   3.147
 4170TIP3    H212472   1.626   5.513   3.067
 4171TIP3   OH212473   1.402   5.211   1.751
 4171TIP3    H112474   1.379   5.257   1.667
 4171TIP3    H212475   1.499   5.208   1.745
 4172TIP3   OH212476   2.092   5.881   3.278
 4172TIP3    H112477   2.172   5.856   3.230
 4172TIP3    H212478   2.089   5.815   3.349
 4173TIP3   OH212479   1.698   5.267   3.268
 4173TIP3    H112480   1.699   5.189   3.210
 4173TIP3    H212481   1.655   5.335   3.211
 4174TIP3   OH212482   1.698   5.054   3.078
 4174TIP3    H112483   1.726   5.096   2.994
 4174TIP3    H212484   1.605   5.030   3.058
 4175TIP3   OH212485   1.728   5.592   2.955
 4175TIP3    H112486   1.810   5.600   2.905
 4175TIP3    H212487   1.669   5.655   2.908
 4176TIP3   OH212488   2.309   5.556   3.330
 4176TIP3    H112489   2.360   5.474   3.340
 4176TIP3    H212490   2.377   5.617   3.297
 4177TIP3   OH212491   2.351   5.809   3.066
 4177TIP3    H112492   2.293   5.863   3.008
 4177TIP3    H212493   2.439   5.831   3.027
 4178TIP3   OH212494   1.576   5.378   3.501
 4178TIP3    H112495   1.508   5.310   3.515
 4178TIP3    H212496   1.610   5.355   3.413
 4179TIP3   OH212497   1.835   4.821   3.149
 4179TIP3    H112498   1.783   4.900   3.124
 4179TIP3    H212499   1.769   4.750   3.135
 4180TIP3   OH212500   1.960   5.320   3.360
 4180TIP3    H112501   1.947   5.308   3.456
 4180TIP3    H212502   1.870   5.296   3.329
 4181TIP3   OH212503   2.198   5.272   3.215
 4181TIP3    H112504   2.123   5.273   3.277
 4181TIP3    H212505   2.272   5.241   3.271
 4182TIP3   OH212506   2.428   5.212   3.365
 4182TIP3    H112507   2.439   5.116   3.383
 4182TIP3    H212508   2.423   5.250   3.455
 4183TIP3   OH212509   1.413   5.159   3.554
 4183TIP3    H112510   1.424   5.069   3.520
 4183TIP3    H212511   1.450   5.149   3.645
 4184TIP3   OH212512   1.923   4.821   3.408
 4184TIP3    H112513   1.992   4.753   3.397
 4184TIP3    H212514   1.886   4.823   3.318
 4185TIP3   OH212515   1.992   5.040   3.565
 4185TIP3    H112516   1.972   4.970   3.499
 4185TIP3    H212517   1.915   5.100   3.556
 4186TIP3   OH212518   1.215   6.273   1.665
 4186TIP3    H112519   1.310   6.269   1.643
 4186TIP3    H212520   1.182   6.313   1.583
 4187TIP3   OH212521   0.694   5.653   1.878
 4187TIP3    H112522   0.789   5.674   1.863
 4187TIP3    H212523   0.686   5.565   1.836
 4188TIP3   OH212524   0.608   6.269   2.290
 4188TIP3    H112525   0.543   6.206   2.252
 4188TIP3    H212526   0.653   6.211   2.355
 4189TIP3   OH212527   0.742   6.119   2.478
 4189TIP3    H112528   0.733   6.043   2.538
 4189TIP3    H212529   0.796   6.178   2.534
 4190TIP3   OH212530   2.471   6.517   2.277
 4190TIP3    H112531   2.497   6.548   2.366
 4190TIP3    H212532   2.535   6.562   2.220
 4191TIP3   OH212533   2.500   6.534   2.558
 4191TIP3    H112534   2.458   6.445   2.556
 4191TIP3    H212535   2.577   6.515   2.613
 4192TIP3   OH212536   2.547   6.212   3.133
 4192TIP3    H112537   2.475   6.222   3.198
 4192TIP3    H212538   2.589   6.301   3.136
 4193TIP3   OH212539   2.492   5.577   1.940
 4193TIP3    H112540   2.421   5.552   2.002
 4193TIP3    H212541   2.550   5.632   1.996
 4194TIP3   OH212542   2.545   5.986   2.386
 4194TIP3    H112543   2.599   5.920   2.338
 4194TIP3    H212544   2.542   6.061   2.324
 4195TIP3   OH212545   2.376   6.284   2.583
 4195TIP3    H112546   2.305   6.329   2.634
 4195TIP3    H212547   2.325   6.239   2.512
 4196TIP3   OH212548   2.300   5.183   1.547
 4196TIP3    H112549   2.251   5.203   1.466
 4196TIP3    H212550   2.282   5.086   1.552
 4197TIP3   OH212551   2.300   5.452   2.100
 4197TIP3    H112552   2.311   5.355   2.096
 4197TIP3    H212553   2.289   5.466   2.197
 4198TIP3   OH212554   0.932   5.529   2.861
 4198TIP3    H112555   0.932   5.481   2.775
 4198TIP3    H212556   1.029   5.531   2.878
 4199TIP3   OH212557   2.595   5.875   2.959
 4199TIP3    H112558   2.667   5.810   2.950
 4199TIP3    H212559   2.622   5.945   2.897
 4200TIP3   OH212560   2.779   5.679   2.973
 4200TIP3    H112561   2.705   5.629   3.014
 4200TIP3    H212562   2.852   5.615   2.989
 4201TIP3   OH212563   2.243   4.918   1.550
 4201TIP3    H112564   2.317   4.880   1.601
 4201TIP3    H212565   2.170   4.857   1.566
 4202TIP3   OH212566   2.303   5.165   1.997
 4202TIP3    H112567   2.340   5.075   2.014
 4202TIP3    H212568   2.363   5.193   1.925
 4203TIP3   OH212569   2.463   5.339   2.492
 4203TIP3    H112570   2.549   5.365   2.452
 4203TIP3    H212571   2.476   5.376   2.581
 4204TIP3   OH212572   2.533   5.484   2.723
 4204TIP3    H112573   2.455   5.518   2.772
 4204TIP3    H212574   2.565   5.565   2.678
 4205TIP3   OH212575   1.146   5.204   3.515
 4205TIP3    H112576   1.244   5.203   3.522
 4205TIP3    H212577   1.124   5.121   3.561
 4206TIP3   OH212578   2.983   5.075   3.279
 4206TIP3    H112579   3.043   5.011   3.237
 4206TIP3    H212580   2.953   5.129   3.203
 4207TIP3   OH212581   2.410   4.915   2.034
 4207TIP3    H112582   2.458   4.900   2.118
 4207TIP3    H212583   2.349   4.839   2.034
 4208TIP3   OH212584   1.154   4.870   2.869
 4208TIP3    H112585   1.247   4.890   2.851
 4208TIP3    H212586   1.123   4.962   2.871
 4209TIP3   OH212587   0.927   5.167   2.901
 4209TIP3    H112588   0.946   5.196   2.809
 4209TIP3    H212589   0.946   5.250   2.946
 4210TIP3   OH212590   2.854   5.214   3.085
 4210TIP3    H112591   2.769   5.257   3.107
 4210TIP3    H212592   2.822   5.143   3.027
 4211TIP3   OH212593   2.492   4.850   1.667
 4211TIP3    H112594   2.531   4.777   1.615
 4211TIP3    H212595   2.563   4.918   1.664
 4212TIP3   OH212596   0.895   4.678   2.429
 4212TIP3    H112597   0.800   4.675   2.450
 4212TIP3    H212598   0.897   4.737   2.351
 4213TIP3   OH212599   2.058   6.380   1.934
 4213TIP3    H112600   2.111   6.377   1.852
 4213TIP3    H212601   2.103   6.449   1.985
 4214TIP3   OH212602   1.111   4.751   3.225
 4214TIP3    H112603   1.069   4.738   3.312
 4214TIP3    H212604   1.043   4.804   3.179
 4215TIP3   OH212605   1.156   6.191   3.320
 4215TIP3    H112606   1.065   6.162   3.303
 4215TIP3    H212607   1.168   6.168   3.413
 4216TIP3   OH212608   1.334   6.221   2.867
 4216TIP3    H112609   1.288   6.297   2.826
 4216TIP3    H212610   1.421   6.234   2.823
 4217TIP3   OH212611   1.778   6.465   3.005
 4217TIP3    H112612   1.821   6.464   3.093
 4217TIP3    H212613   1.845   6.516   2.953
 4218TIP3   OH212614   1.958   6.617   2.864
 4218TIP3    H112615   2.030   6.567   2.822
 4218TIP3    H212616   2.010   6.674   2.926
 4219TIP3   OH212617   2.754   4.978   2.964
 4219TIP3    H112618   2.663   4.972   2.929
 4219TIP3    H212619   2.784   4.885   2.953
 4220TIP3   OH212620   1.012   6.478   2.888
 4220TIP3    H112621   0.923   6.514   2.867
 4220TIP3    H212622   1.019   6.504   2.981
 4221TIP3   OH212623   1.248   6.455   2.749
 4221TIP3    H112624   1.161   6.470   2.792
 4221TIP3    H212625   1.230   6.487   2.658
 4222TIP3   OH212626   1.673   6.484   2.546
 4222TIP3    H112627   1.604   6.504   2.480
 4222TIP3    H212628   1.686   6.571   2.588
 4223TIP3   OH212629   1.942   6.421   2.597
 4223TIP3    H112630   1.849   6.441   2.578
 4223TIP3    H212631   1.988   6.497   2.557
 4224TIP3   OH212632   2.146   6.611   2.513
 4224TIP3    H112633   2.135   6.698   2.467
 4224TIP3    H212634   2.176   6.554   2.439
 4225TIP3   OH212635   0.921   6.268   2.638
 4225TIP3    H112636   0.950   6.243   2.728
 4225TIP3    H212637   0.993   6.225   2.586
 4226TIP3   OH212638   1.116   6.142   2.494
 4226TIP3    H112639   1.132   6.058   2.543
 4226TIP3    H212640   1.207   6.178   2.488
 4227TIP3   OH212641   1.384   6.235   2.497
 4227TIP3    H112642   1.414   6.143   2.485
 4227TIP3    H212643   1.430   6.257   2.580
 4228TIP3   OH212644   1.965   4.898   2.581
 4228TIP3    H112645   1.907   4.840   2.634
 4228TIP3    H212646   2.029   4.835   2.544
 4229TIP3   OH212647   2.483   4.771   2.488
 4229TIP3    H112648   2.516   4.825   2.413
 4229TIP3    H212649   2.387   4.785   2.483
 4230TIP3   OH212650   2.577   4.874   2.251
 4230TIP3    H112651   2.651   4.824   2.211
 4230TIP3    H212652   2.609   4.966   2.236
 4231TIP3   OH212653   1.193   4.601   2.666
 4231TIP3    H112654   1.115   4.576   2.614
 4231TIP3    H212655   1.253   4.526   2.646
 4232TIP3   OH212656   0.997   4.472   2.248
 4232TIP3    H112657   1.027   4.526   2.173
 4232TIP3    H212658   0.967   4.540   2.311
 4233TIP3   OH212659   1.645   4.639   2.486
 4233TIP3    H112660   1.705   4.678   2.420
 4233TIP3    H212661   1.691   4.665   2.568
 4234TIP3   OH212662   2.198   4.755   2.473
 4234TIP3    H112663   2.192   4.732   2.379
 4234TIP3    H212664   2.187   4.669   2.515
 4235TIP3   OH212665   2.227   4.702   2.027
 4235TIP3    H112666   2.141   4.746   2.041
 4235TIP3    H212667   2.212   4.618   2.075
 4236TIP3   OH212668   0.710   6.043   2.026
 4236TIP3    H112669   0.625   6.007   1.993
 4236TIP3    H212670   0.698   6.136   1.998
 4237TIP3   OH212671   1.111   4.625   2.016
 4237TIP3    H112672   1.160   4.567   1.954
 4237TIP3    H212673   1.184   4.683   2.048
 4238TIP3   OH212674   1.622   4.806   2.110
 4238TIP3    H112675   1.684   4.762   2.170
 4238TIP3    H212676   1.642   4.899   2.134
 4239TIP3   OH212677   1.482   6.228   1.608
 4239TIP3    H112678   1.569   6.253   1.572
 4239TIP3    H212679   1.459   6.155   1.547
 4240TIP3   OH212680   2.204   6.354   1.701
 4240TIP3    H112681   2.197   6.256   1.690
 4240TIP3    H212682   2.156   6.385   1.621
 4241TIP3   OH212683   1.412   4.881   3.486
 4241TIP3    H112684   1.377   4.812   3.545
 4241TIP3    H212685   1.507   4.881   3.514
 4242TIP3   OH212686   1.662   4.882   3.605
 4242TIP3    H112687   1.748   4.862   3.564
 4242TIP3    H212688   1.652   4.809   3.670
 4243TIP3   OH212689   0.803   6.077   1.672
 4243TIP3    H112690   0.811   6.094   1.767
 4243TIP3    H212691   0.890   6.036   1.651
 4244TIP3   OH212692   2.490   4.940   3.397
 4244TIP3    H112693   2.509   4.909   3.488
 4244TIP3    H212694   2.580   4.937   3.356
 4245TIP3   OH212695   2.427   6.493   2.889
 4245TIP3    H112696   2.349   6.463   2.839
 4245TIP3    H212697   2.409   6.589   2.893
 4246TIP3   OH212698   3.695   5.862   1.657
 4246TIP3    H112699   3.674   5.956   1.641
 4246TIP3    H212700   3.613   5.820   1.627
 4247TIP3   OH212701   3.731   5.843   2.025
 4247TIP3    H112702   3.723   5.830   2.120
 4247TIP3    H212703   3.646   5.815   1.990
 4248TIP3   OH212704   2.992   5.761   2.403
 4248TIP3    H112705   3.024   5.692   2.465
 4248TIP3    H212706   3.070   5.817   2.395
 4249TIP3   OH212707   3.939   6.167   1.716
 4249TIP3    H112708   3.911   6.104   1.784
 4249TIP3    H212709   3.964   6.244   1.768
 4250TIP3   OH212710   2.959   6.167   2.129
 4250TIP3    H112711   2.951   6.069   2.131
 4250TIP3    H212712   3.056   6.174   2.114
 4251TIP3   OH212713   2.676   5.371   1.901
 4251TIP3    H112714   2.631   5.454   1.924
 4251TIP3    H212715   2.601   5.310   1.900
 4252TIP3   OH212716   2.727   5.660   2.078
 4252TIP3    H112717   2.776   5.583   2.116
 4252TIP3    H212718   2.796   5.703   2.026
 4253TIP3   OH212719   3.588   6.625   1.740
 4253TIP3    H112720   3.635   6.559   1.686
 4253TIP3    H212721   3.554   6.567   1.812
 4254TIP3   OH212722   4.503   5.407   2.085
 4254TIP3    H112723   4.531   5.489   2.131
 4254TIP3    H212724   4.526   5.428   1.993
 4255TIP3   OH212725   3.902   5.589   2.124
 4255TIP3    H112726   3.947   5.503   2.133
 4255TIP3    H212727   3.871   5.585   2.031
 4256TIP3   OH212728   3.243   5.252   2.082
 4256TIP3    H112729   3.224   5.325   2.020
 4256TIP3    H212730   3.194   5.179   2.038
 4257TIP3   OH212731   3.936   5.343   1.703
 4257TIP3    H112732   4.007   5.328   1.769
 4257TIP3    H212733   3.990   5.379   1.629
 4258TIP3   OH212734   2.876   5.454   2.188
 4258TIP3    H112735   2.958   5.437   2.237
 4258TIP3    H212736   2.892   5.399   2.109
 4259TIP3   OH212737   3.316   5.650   1.983
 4259TIP3    H112738   3.410   5.623   1.996
 4259TIP3    H212739   3.277   5.567   1.949
 4260TIP3   OH212740   4.579   5.611   2.262
 4260TIP3    H112741   4.492   5.656   2.248
 4260TIP3    H212742   4.614   5.658   2.339
 4261TIP3   OH212743   3.239   5.236   2.517
 4261TIP3    H112744   3.179   5.274   2.449
 4261TIP3    H212745   3.186   5.253   2.598
 4262TIP3   OH212746   3.596   6.086   1.517
 4262TIP3    H112747   3.542   6.073   1.438
 4262TIP3    H212748   3.559   6.171   1.548
 4263TIP3   OH212749   3.348   6.017   2.311
 4263TIP3    H112750   3.280   6.072   2.355
 4263TIP3    H212751   3.378   6.079   2.243
 4264TIP3   OH212752   4.146   5.346   1.876
 4264TIP3    H112753   4.137   5.298   1.959
 4264TIP3    H212754   4.199   5.423   1.902
 4265TIP3   OH212755   3.110   5.351   2.301
 4265TIP3    H112756   3.171   5.424   2.325
 4265TIP3    H212757   3.159   5.311   2.226
 4266TIP3   OH212758   3.173   6.203   2.413
 4266TIP3    H112759   3.150   6.286   2.367
 4266TIP3    H212760   3.092   6.193   2.468
 4267TIP3   OH212761   2.575   5.894   1.638
 4267TIP3    H112762   2.535   5.938   1.562
 4267TIP3    H212763   2.602   5.971   1.692
 4268TIP3   OH212764   4.022   6.410   1.877
 4268TIP3    H112765   3.939   6.401   1.929
 4268TIP3    H212766   4.005   6.496   1.834
 4269TIP3   OH212767   4.289   5.307   2.247
 4269TIP3    H112768   4.204   5.333   2.207
 4269TIP3    H212769   4.354   5.347   2.185
 4270TIP3   OH212770   3.595   4.954   2.231
 4270TIP3    H112771   3.579   4.859   2.248
 4270TIP3    H212772   3.517   4.993   2.278
 4271TIP3   OH212773   3.725   6.463   1.566
 4271TIP3    H112774   3.766   6.378   1.541
 4271TIP3    H212775   3.781   6.526   1.516
 4272TIP3   OH212776   3.856   6.240   1.463
 4272TIP3    H112777   3.795   6.168   1.442
 4272TIP3    H212778   3.895   6.208   1.548
 4273TIP3   OH212779   4.235   6.322   2.229
 4273TIP3    H112780   4.219   6.245   2.170
 4273TIP3    H212781   4.211   6.397   2.171
 4274TIP3   OH212782   3.521   5.713   1.485
 4274TIP3    H112783   3.444   5.769   1.464
 4274TIP3    H212784   3.572   5.717   1.402
 4275TIP3   OH212785   3.482   5.502   1.200
 4275TIP3    H112786   3.546   5.554   1.252
 4275TIP3    H212787   3.544   5.441   1.154
 4276TIP3   OH212788   4.429   5.960   2.077
 4276TIP3    H112789   4.344   6.010   2.080
 4276TIP3    H212790   4.459   5.984   1.986
 4277TIP3   OH212791   3.872   5.798   1.457
 4277TIP3    H112792   3.818   5.822   1.535
 4277TIP3    H212793   3.957   5.776   1.500
 4278TIP3   OH212794   4.110   5.836   2.371
 4278TIP3    H112795   4.108   5.922   2.415
 4278TIP3    H212796   4.020   5.834   2.331
 4279TIP3   OH212797   3.103   5.795   1.878
 4279TIP3    H112798   3.067   5.738   1.807
 4279TIP3    H212799   3.182   5.744   1.907
 4280TIP3   OH212800   3.219   6.168   2.040
 4280TIP3    H112801   3.194   6.155   1.948
 4280TIP3    H212802   3.299   6.222   2.025
 4281TIP3   OH212803   3.241   5.772   2.229
 4281TIP3    H112804   3.272   5.748   2.140
 4281TIP3    H212805   3.284   5.859   2.245
 4282TIP3   OH212806   3.797   6.413   2.015
 4282TIP3    H112807   3.740   6.484   2.050
 4282TIP3    H212808   3.762   6.334   2.062
 4283TIP3   OH212809   3.378   6.323   2.558
 4283TIP3    H112810   3.317   6.387   2.600
 4283TIP3    H212811   3.315   6.271   2.505
 4284TIP3   OH212812   3.713   5.658   1.283
 4284TIP3    H112813   3.772   5.718   1.334
 4284TIP3    H212814   3.739   5.681   1.190
 4285TIP3   OH212815   3.135   5.879   2.657
 4285TIP3    H112816   3.139   5.968   2.698
 4285TIP3    H212817   3.039   5.861   2.667
 4286TIP3   OH212818   3.461   6.334   1.536
 4286TIP3    H112819   3.500   6.354   1.623
 4286TIP3    H212820   3.395   6.404   1.529
 4287TIP3   OH212821   3.173   6.493   2.640
 4287TIP3    H112822   3.139   6.495   2.548
 4287TIP3    H212823   3.092   6.471   2.692
 4288TIP3   OH212824   4.228   4.898   1.332
 4288TIP3    H112825   4.147   4.921   1.382
 4288TIP3    H212826   4.244   4.981   1.282
 4289TIP3   OH212827   2.976   5.637   1.674
 4289TIP3    H112828   2.907   5.683   1.621
 4289TIP3    H212829   2.933   5.555   1.697
 4290TIP3   OH212830   4.026   6.263   0.882
 4290TIP3    H112831   4.035   6.360   0.868
 4290TIP3    H212832   4.119   6.233   0.868
 4291TIP3   OH212833   2.751   6.023   2.588
 4291TIP3    H112834   2.686   6.001   2.518
 4291TIP3    H212835   2.789   5.936   2.610
 4292TIP3   OH212836   2.607   6.217   2.219
 4292TIP3    H112837   2.703   6.210   2.209
 4292TIP3    H212838   2.599   6.296   2.274
 4293TIP3   OH212839   4.471   6.671   2.277
 4293TIP3    H112840   4.468   6.574   2.289
 4293TIP3    H212841   4.388   6.697   2.322
 4294TIP3   OH212842   3.581   6.449   2.416
 4294TIP3    H112843   3.576   6.543   2.441
 4294TIP3    H212844   3.507   6.412   2.468
 4295TIP3   OH212845   3.330   6.583   1.359
 4295TIP3    H112846   3.289   6.571   1.272
 4295TIP3    H212847   3.303   6.673   1.385
 4296TIP3   OH212848   2.774   6.434   1.750
 4296TIP3    H112849   2.828   6.426   1.832
 4296TIP3    H212850   2.716   6.356   1.760
 4297TIP3   OH212851   3.539   6.482   1.005
 4297TIP3    H112852   3.599   6.413   0.969
 4297TIP3    H212853   3.572   6.493   1.096
 4298TIP3   OH212854   3.585   6.530   1.276
 4298TIP3    H112855   3.497   6.537   1.318
 4298TIP3    H212856   3.635   6.489   1.347
 4299TIP3   OH212857   2.954   6.208   2.575
 4299TIP3    H112858   3.005   6.191   2.658
 4299TIP3    H212859   2.880   6.144   2.583
 4300TIP3   OH212860   3.357   5.030   2.360
 4300TIP3    H112861   3.267   5.000   2.332
 4300TIP3    H212862   3.332   5.112   2.406
 4301TIP3   OH212863   3.888   5.145   2.556
 4301TIP3    H112864   3.957   5.113   2.618
 4301TIP3    H212865   3.805   5.123   2.602
 4302TIP3   OH212866   3.785   5.701   1.025
 4302TIP3    H112867   3.756   5.678   0.935
 4302TIP3    H212868   3.868   5.749   1.005
 4303TIP3   OH212869   3.499   5.080   1.331
 4303TIP3    H112870   3.467   5.076   1.423
 4303TIP3    H212871   3.462   4.996   1.297
 4304TIP3   OH212872   3.287   5.548   2.377
 4304TIP3    H112873   3.238   5.569   2.458
 4304TIP3    H212874   3.273   5.629   2.323
 4305TIP3   OH212875   3.173   5.431   1.891
 4305TIP3    H112876   3.080   5.405   1.910
 4305TIP3    H212877   3.184   5.390   1.803
 4306TIP3   OH212878   3.661   5.514   1.618
 4306TIP3    H112879   3.609   5.587   1.577
 4306TIP3    H212880   3.718   5.486   1.544
 4307TIP3   OH212881   3.838   5.791   2.700
 4307TIP3    H112882   3.815   5.725   2.769
 4307TIP3    H212883   3.930   5.811   2.719
 4308TIP3   OH212884   3.818   5.546   1.863
 4308TIP3    H112885   3.760   5.583   1.794
 4308TIP3    H212886   3.849   5.466   1.815
 4309TIP3   OH212887   3.108   5.575   2.586
 4309TIP3    H112888   3.133   5.641   2.653
 4309TIP3    H212889   3.097   5.494   2.640
 4310TIP3   OH212890   3.154   5.051   1.296
 4310TIP3    H112891   3.149   5.050   1.394
 4310TIP3    H212892   3.077   5.105   1.273
 4311TIP3   OH212893   2.700   5.099   2.164
 4311TIP3    H112894   2.774   5.130   2.220
 4311TIP3    H212895   2.745   5.062   2.086
 4312TIP3   OH212896   2.677   5.070   1.687
 4312TIP3    H112897   2.719   5.111   1.609
 4312TIP3    H212898   2.615   5.141   1.711
 4313TIP3   OH212899   3.836   5.791   2.290
 4313TIP3    H112900   3.865   5.724   2.225
 4313TIP3    H212901   3.800   5.733   2.360
 4314TIP3   OH212902   3.499   5.247   1.952
 4314TIP3    H112903   3.417   5.251   2.005
 4314TIP3    H212904   3.567   5.260   2.020
 4315TIP3   OH212905   2.935   5.310   1.961
 4315TIP3    H112906   2.842   5.318   1.930
 4315TIP3    H212907   2.958   5.218   1.939
 4316TIP3   OH212908   3.201   5.304   1.649
 4316TIP3    H112909   3.296   5.321   1.631
 4316TIP3    H212910   3.156   5.329   1.565
 4317TIP3   OH212911   3.996   5.328   2.156
 4317TIP3    H112912   3.962   5.342   2.247
 4317TIP3    H212913   3.927   5.269   2.119
 4318TIP3   OH212914   3.042   5.340   1.425
 4318TIP3    H112915   2.974   5.294   1.372
 4318TIP3    H212916   3.097   5.379   1.354
 4319TIP3   OH212917   4.162   7.018   2.376
 4319TIP3    H112918   4.157   7.043   2.282
 4319TIP3    H212919   4.240   7.069   2.406
 4320TIP3   OH212920   3.119   6.127   2.795
 4320TIP3    H112921   3.198   6.159   2.842
 4320TIP3    H212922   3.054   6.129   2.868
 4321TIP3   OH212923   3.573   5.568   2.049
 4321TIP3    H112924   3.657   5.556   2.001
 4321TIP3    H212925   3.594   5.533   2.137
 4322TIP3   OH212926   3.103   5.071   1.930
 4322TIP3    H112927   3.068   4.992   1.977
 4322TIP3    H212928   3.155   5.031   1.859
 4323TIP3   OH212929   3.558   5.477   2.347
 4323TIP3    H112930   3.468   5.515   2.353
 4323TIP3    H212931   3.613   5.543   2.393
 4324TIP3   OH212932   3.294   5.868   1.431
 4324TIP3    H112933   3.220   5.805   1.420
 4324TIP3    H212934   3.276   5.903   1.522
 4325TIP3   OH212935   4.196   6.103   2.065
 4325TIP3    H112936   4.217   6.156   1.985
 4325TIP3    H212937   4.110   6.063   2.041
 4326TIP3   OH212938   3.753   5.182   1.296
 4326TIP3    H112939   3.656   5.166   1.305
 4326TIP3    H212940   3.764   5.276   1.322
 4327TIP3   OH212941   3.684   6.179   2.439
 4327TIP3    H112942   3.718   6.179   2.529
 4327TIP3    H212943   3.655   6.272   2.429
 4328TIP3   OH212944   3.823   5.429   1.400
 4328TIP3    H112945   3.919   5.437   1.417
 4328TIP3    H212946   3.805   5.511   1.349
 4329TIP3   OH212947   2.978   5.882   2.111
 4329TIP3    H112948   3.022   5.864   2.026
 4329TIP3    H212949   3.033   5.832   2.173
 4330TIP3   OH212950   3.438   6.016   1.251
 4330TIP3    H112951   3.390   6.102   1.256
 4330TIP3    H212952   3.386   5.963   1.315
 4331TIP3   OH212953   2.869   5.812   2.725
 4331TIP3    H112954   2.889   5.799   2.820
 4331TIP3    H212955   2.800   5.746   2.710
 4332TIP3   OH212956   3.594   5.924   2.746
 4332TIP3    H112957   3.532   5.869   2.696
 4332TIP3    H212958   3.680   5.894   2.710
 4333TIP3   OH212959   3.867   6.449   2.338
 4333TIP3    H112960   3.770   6.445   2.331
 4333TIP3    H212961   3.879   6.505   2.417
 4334TIP3   OH212962   4.264   5.522   1.239
 4334TIP3    H112963   4.201   5.478   1.176
 4334TIP3    H212964   4.261   5.611   1.197
 4335TIP3   OH212965   4.484   6.378   2.317
 4335TIP3    H112966   4.387   6.374   2.307
 4335TIP3    H212967   4.511   6.348   2.227
 4336TIP3   OH212968   3.965   6.340   1.147
 4336TIP3    H112969   3.938   6.272   1.210
 4336TIP3    H212970   3.978   6.291   1.064
 4337TIP3   OH212971   3.970   5.966   1.984
 4337TIP3    H112972   3.879   5.935   1.999
 4337TIP3    H212973   4.004   5.889   1.933
 4338TIP3   OH212974   3.087   6.191   1.735
 4338TIP3    H112975   3.100   6.276   1.690
 4338TIP3    H212976   2.991   6.189   1.746
 4339TIP3   OH212977   2.656   5.502   1.444
 4339TIP3    H112978   2.723   5.573   1.440
 4339TIP3    H212979   2.603   5.538   1.516
 4340TIP3   OH212980   3.223   5.956   1.675
 4340TIP3    H112981   3.198   6.049   1.696
 4340TIP3    H212982   3.191   5.912   1.756
 4341TIP3   OH212983   3.356   6.543   2.210
 4341TIP3    H112984   3.398   6.608   2.150
 4341TIP3    H212985   3.434   6.494   2.241
 4342TIP3   OH212986   3.004   6.439   1.583
 4342TIP3    H112987   2.921   6.446   1.634
 4342TIP3    H212988   3.038   6.530   1.590
 4343TIP3   OH212989   3.774   6.181   2.174
 4343TIP3    H112990   3.746   6.164   2.266
 4343TIP3    H212991   3.823   6.102   2.151
 4344TIP3   OH212992   3.719   6.068   1.048
 4344TIP3    H112993   3.776   6.041   1.124
 4344TIP3    H212994   3.632   6.043   1.083
 4345TIP3   OH212995   3.995   6.706   2.214
 4345TIP3    H112996   3.916   6.649   2.208
 4345TIP3    H212997   3.977   6.770   2.142
 4346TIP3   OH212998   4.060   6.537   0.871
 4346TIP3    H112999   4.085   6.598   0.800
 4346TIP3    H213000   3.982   6.585   0.906
 4347TIP3   OH213001   3.079   5.317   2.733
 4347TIP3    H113002   2.983   5.321   2.746
 4347TIP3    H213003   3.107   5.259   2.806
 4348TIP3   OH213004   3.881   5.992   1.255
 4348TIP3    H113005   3.871   5.934   1.332
 4348TIP3    H213006   3.979   5.995   1.248
 4349TIP3   OH213007   2.794   6.401   2.364
 4349TIP3    H113008   2.852   6.329   2.394
 4349TIP3    H213009   2.824   6.473   2.420
 4350TIP3   OH213010   3.083   6.049   1.047
 4350TIP3    H113011   3.103   5.957   1.021
 4350TIP3    H213012   3.068   6.038   1.143
 4351TIP3   OH213013   3.030   6.051   1.321
 4351TIP3    H113014   3.104   6.027   1.378
 4351TIP3    H213015   3.032   6.149   1.326
 4352TIP3   OH213016   2.769   5.742   1.520
 4352TIP3    H113017   2.705   5.791   1.576
 4352TIP3    H213018   2.789   5.811   1.454
 4353TIP3   OH213019   3.923   5.381   2.423
 4353TIP3    H113020   3.980   5.412   2.494
 4353TIP3    H213021   3.894   5.294   2.459
 4354TIP3   OH213022   3.798   5.132   1.580
 4354TIP3    H113023   3.785   5.156   1.486
 4354TIP3    H213024   3.837   5.214   1.617
 4355TIP3   OH213025   3.291   6.242   1.260
 4355TIP3    H113026   3.210   6.273   1.303
 4355TIP3    H213027   3.320   6.324   1.217
 4356TIP3   OH213028   3.483   5.313   1.682
 4356TIP3    H113029   3.547   5.385   1.663
 4356TIP3    H213030   3.490   5.305   1.779
 4357TIP3   OH213031   3.747   5.629   2.491
 4357TIP3    H113032   3.771   5.688   2.565
 4357TIP3    H213033   3.808   5.555   2.501
 4358TIP3   OH213034   3.629   5.038   1.783
 4358TIP3    H113035   3.619   5.116   1.841
 4358TIP3    H213036   3.691   5.074   1.715
 4359TIP3   OH213037   3.036   6.323   1.335
 4359TIP3    H113038   3.009   6.395   1.274
 4359TIP3    H213039   3.024   6.366   1.422
 4360TIP3   OH213040   3.142   5.039   1.572
 4360TIP3    H113041   3.141   5.130   1.610
 4360TIP3    H213042   3.238   5.020   1.581
 4361TIP3   OH213043   4.048   5.723   1.855
 4361TIP3    H113044   3.969   5.669   1.872
 4361TIP3    H213045   4.118   5.676   1.906
 4362TIP3   OH213046   2.754   5.955   1.325
 4362TIP3    H113047   2.819   6.026   1.340
 4362TIP3    H213048   2.803   5.902   1.259
 4363TIP3   OH213049   2.698   5.229   1.466
 4363TIP3    H113050   2.699   5.326   1.458
 4363TIP3    H213051   2.626   5.204   1.407
 4364TIP3   OH213052   4.017   6.685   1.808
 4364TIP3    H113053   3.972   6.730   1.732
 4364TIP3    H213054   4.110   6.703   1.784
 4365TIP3   OH213055   3.091   4.951   2.333
 4365TIP3    H113056   3.061   4.917   2.247
 4365TIP3    H213057   3.081   4.873   2.391
 4366TIP3   OH213058   2.626   6.161   1.715
 4366TIP3    H113059   2.560   6.199   1.774
 4366TIP3    H213060   2.603   6.205   1.630
 4367TIP3   OH213061   2.788   6.712   2.787
 4367TIP3    H113062   2.874   6.712   2.833
 4367TIP3    H213063   2.768   6.617   2.785
 4368TIP3   OH213064   3.266   6.674   2.833
 4368TIP3    H113065   3.362   6.660   2.837
 4368TIP3    H213066   3.242   6.614   2.759
 4369TIP3   OH213067   3.248   6.252   0.955
 4369TIP3    H113068   3.194   6.182   0.997
 4369TIP3    H213069   3.325   6.199   0.926
 4370TIP3   OH213070   3.901   6.590   2.573
 4370TIP3    H113071   3.897   6.516   2.638
 4370TIP3    H213072   3.983   6.637   2.599
 4371TIP3   OH213073   3.687   6.290   0.870
 4371TIP3    H113074   3.728   6.227   0.933
 4371TIP3    H213075   3.749   6.288   0.795
 4372TIP3   OH213076   2.917   6.117   2.987
 4372TIP3    H113077   2.932   6.021   2.993
 4372TIP3    H213078   2.830   6.120   2.942
 4373TIP3   OH213079   2.894   5.764   1.184
 4373TIP3    H113080   2.954   5.737   1.256
 4373TIP3    H213081   2.959   5.771   1.111
 4374TIP3   OH213082   3.524   6.203   2.761
 4374TIP3    H113083   3.484   6.225   2.675
 4374TIP3    H213084   3.554   6.110   2.748
 4375TIP3   OH213085   3.400   5.965   0.985
 4375TIP3    H113086   3.407   5.978   1.082
 4375TIP3    H213087   3.401   5.867   0.981
 4376TIP3   OH213088   4.020   6.209   2.374
 4376TIP3    H113089   4.093   6.257   2.329
 4376TIP3    H213090   3.945   6.266   2.347
 4377TIP3   OH213091   3.036   5.850   2.970
 4377TIP3    H113092   3.114   5.799   2.946
 4377TIP3    H213093   3.063   5.885   3.057
 4378TIP3   OH213094   3.093   5.672   1.397
 4378TIP3    H113095   3.077   5.636   1.486
 4378TIP3    H213096   3.135   5.597   1.351
 4379TIP3   OH213097   3.373   5.736   2.630
 4379TIP3    H113098   3.294   5.794   2.631
 4379TIP3    H213099   3.422   5.769   2.552
 4380TIP3   OH213100   3.204   5.465   1.244
 4380TIP3    H113101   3.180   5.472   1.149
 4380TIP3    H213102   3.302   5.468   1.237
 4381TIP3   OH213103   3.883   6.137   2.765
 4381TIP3    H113104   3.962   6.116   2.714
 4381TIP3    H213105   3.886   6.073   2.838
 4382TIP3   OH213106   4.022   5.794   0.908
 4382TIP3    H113107   4.006   5.750   0.822
 4382TIP3    H213108   3.989   5.884   0.886
 4383TIP3   OH213109   3.500   5.526   2.753
 4383TIP3    H113110   3.495   5.446   2.698
 4383TIP3    H213111   3.453   5.592   2.698
 4384TIP3   OH213112   3.497   5.309   2.566
 4384TIP3    H113113   3.524   5.354   2.483
 4384TIP3    H213114   3.403   5.287   2.546
 4385TIP3   OH213115   3.523   5.846   2.435
 4385TIP3    H113116   3.609   5.864   2.396
 4385TIP3    H213117   3.467   5.913   2.392
 4386TIP3   OH213118   4.143   5.789   2.799
 4386TIP3    H113119   4.160   5.751   2.889
 4386TIP3    H213120   4.169   5.881   2.809
 4387TIP3   OH213121   4.150   6.063   2.556
 4387TIP3    H113122   4.090   6.117   2.498
 4387TIP3    H213123   4.236   6.087   2.513
 4388TIP3   OH213124   3.375   5.634   2.988
 4388TIP3    H113125   3.305   5.566   3.002
 4388TIP3    H213126   3.406   5.610   2.899
 4389TIP3   OH213127   3.629   5.072   2.631
 4389TIP3    H113128   3.579   5.154   2.608
 4389TIP3    H213129   3.561   5.003   2.620
 4390TIP3   OH213130   3.762   5.575   2.843
 4390TIP3    H113131   3.744   5.561   2.938
 4390TIP3    H213132   3.672   5.554   2.809
 4391TIP3   OH213133   4.005   5.518   2.688
 4391TIP3    H113134   3.919   5.533   2.733
 4391TIP3    H213135   4.054   5.471   2.758
 4392TIP3   OH213136   4.235   5.470   2.833
 4392TIP3    H113137   4.248   5.374   2.857
 4392TIP3    H213138   4.219   5.510   2.921
 4393TIP3   OH213139   3.212   5.415   3.040
 4393TIP3    H113140   3.217   5.323   3.007
 4393TIP3    H213141   3.248   5.404   3.130
 4394TIP3   OH213142   3.725   5.085   2.888
 4394TIP3    H113143   3.791   5.013   2.884
 4394TIP3    H213144   3.684   5.078   2.800
 4395TIP3   OH213145   3.793   5.303   3.044
 4395TIP3    H113146   3.770   5.229   2.983
 4395TIP3    H213147   3.713   5.358   3.041
 4396TIP3   OH213148   3.009   6.528   1.146
 4396TIP3    H113149   3.106   6.519   1.130
 4396TIP3    H213150   2.985   6.579   1.067
 4397TIP3   OH213151   2.487   5.901   1.361
 4397TIP3    H113152   2.581   5.927   1.352
 4397TIP3    H213153   2.487   5.814   1.316
 4398TIP3   OH213154   2.409   6.524   1.778
 4398TIP3    H113155   2.341   6.463   1.741
 4398TIP3    H213156   2.451   6.465   1.844
 4399TIP3   OH213157   2.542   6.370   1.964
 4399TIP3    H113158   2.531   6.300   2.030
 4399TIP3    H213159   2.595   6.434   2.016
 4400TIP3   OH213160   4.271   6.771   1.763
 4400TIP3    H113161   4.293   6.801   1.853
 4400TIP3    H213162   4.332   6.822   1.708
 4401TIP3   OH213163   4.297   6.790   2.043
 4401TIP3    H113164   4.251   6.703   2.042
 4401TIP3    H213165   4.370   6.768   2.103
 4402TIP3   OH213166   4.346   6.468   2.622
 4402TIP3    H113167   4.271   6.479   2.684
 4402TIP3    H213168   4.386   6.557   2.623
 4403TIP3   OH213169   4.160   5.982   1.239
 4403TIP3    H113170   4.227   6.047   1.209
 4403TIP3    H213171   4.205   5.945   1.318
 4404TIP3   OH213172   4.289   5.850   1.443
 4404TIP3    H113173   4.221   5.809   1.501
 4404TIP3    H213174   4.351   5.889   1.507
 4405TIP3   OH213175   4.347   6.245   1.880
 4405TIP3    H113176   4.393   6.179   1.825
 4405TIP3    H213177   4.329   6.316   1.816
 4406TIP3   OH213178   4.172   6.542   2.072
 4406TIP3    H113179   4.098   6.583   2.121
 4406TIP3    H213180   4.125   6.497   1.998
 4407TIP3   OH213181   4.225   5.758   1.089
 4407TIP3    H113182   4.155   5.760   1.020
 4407TIP3    H213183   4.197   5.833   1.144
 4408TIP3   OH213184   4.095   5.430   1.046
 4408TIP3    H113185   4.059   5.473   0.968
 4408TIP3    H213186   4.070   5.337   1.032
 4409TIP3   OH213187   4.102   5.708   1.588
 4409TIP3    H113188   4.109   5.612   1.582
 4409TIP3    H213189   4.087   5.722   1.684
 4410TIP3   OH213190   2.727   5.779   2.336
 4410TIP3    H113191   2.726   5.750   2.242
 4410TIP3    H213192   2.825   5.782   2.352
 4411TIP3   OH213193   4.389   6.135   2.445
 4411TIP3    H113194   4.466   6.075   2.440
 4411TIP3    H213195   4.411   6.203   2.379
 4412TIP3   OH213196   4.562   5.931   2.489
 4412TIP3    H113197   4.499   5.860   2.472
 4412TIP3    H213198   4.646   5.880   2.493
 4413TIP3   OH213199   4.042   5.162   1.025
 4413TIP3    H113200   4.117   5.136   1.082
 4413TIP3    H213201   3.969   5.105   1.054
 4414TIP3   OH213202   4.098   5.423   1.484
 4414TIP3    H113203   4.139   5.334   1.498
 4414TIP3    H213204   4.156   5.457   1.414
 4415TIP3   OH213205   4.260   5.597   1.984
 4415TIP3    H113206   4.346   5.623   1.942
 4415TIP3    H213207   4.274   5.633   2.073
 4416TIP3   OH213208   4.337   5.746   2.228
 4416TIP3    H113209   4.254   5.779   2.268
 4416TIP3    H213210   4.364   5.822   2.173
 4417TIP3   OH213211   2.945   5.466   3.009
 4417TIP3    H113212   3.043   5.461   3.012
 4417TIP3    H213213   2.922   5.380   3.050
 4418TIP3   OH213214   4.771   5.324   2.758
 4418TIP3    H113215   4.835   5.255   2.731
 4418TIP3    H213216   4.775   5.385   2.682
 4419TIP3   OH213217   4.207   5.173   1.521
 4419TIP3    H113218   4.256   5.158   1.605
 4419TIP3    H213219   4.146   5.096   1.521
 4420TIP3   OH213220   2.906   5.158   2.339
 4420TIP3    H113221   2.968   5.084   2.350
 4420TIP3    H213222   2.967   5.234   2.333
 4421TIP3   OH213223   2.710   5.431   2.414
 4421TIP3    H113224   2.759   5.430   2.330
 4421TIP3    H213225   2.735   5.517   2.450
 4422TIP3   OH213226   4.647   5.476   2.560
 4422TIP3    H113227   4.586   5.479   2.636
 4422TIP3    H213228   4.615   5.398   2.510
 4423TIP3   OH213229   4.287   5.107   1.155
 4423TIP3    H113230   4.328   5.037   1.102
 4423TIP3    H213231   4.354   5.178   1.151
 4424TIP3   OH213232   2.693   4.932   1.918
 4424TIP3    H113233   2.600   4.930   1.944
 4424TIP3    H213234   2.691   4.990   1.839
 4425TIP3   OH213235   3.850   6.648   1.413
 4425TIP3    H113236   3.906   6.633   1.334
 4425TIP3    H213237   3.905   6.705   1.468
 4426TIP3   OH213238   2.913   5.014   2.728
 4426TIP3    H113239   2.862   5.012   2.811
 4426TIP3    H213240   2.847   5.054   2.668
 4427TIP3   OH213241   2.953   6.443   2.806
 4427TIP3    H113242   2.861   6.417   2.789
 4427TIP3    H213243   2.962   6.427   2.901
 4428TIP3   OH213244   3.131   6.478   2.355
 4428TIP3    H113245   3.084   6.554   2.313
 4428TIP3    H213246   3.218   6.492   2.312
 4429TIP3   OH213247   3.574   6.721   2.493
 4429TIP3    H113248   3.618   6.722   2.580
 4429TIP3    H213249   3.638   6.772   2.439
 4430TIP3   OH213250   3.750   6.876   2.352
 4430TIP3    H113251   3.815   6.823   2.304
 4430TIP3    H213252   3.808   6.928   2.412
 4431TIP3   OH213253   4.548   5.230   2.456
 4431TIP3    H113254   4.461   5.219   2.413
 4431TIP3    H213255   4.586   5.140   2.443
 4432TIP3   OH213256   2.807   6.731   2.378
 4432TIP3    H113257   2.717   6.765   2.357
 4432TIP3    H213258   2.821   6.772   2.464
 4433TIP3   OH213259   3.043   6.713   2.237
 4433TIP3    H113260   2.956   6.725   2.279
 4433TIP3    H213261   3.026   6.743   2.146
 4434TIP3   OH213262   3.466   6.741   2.036
 4434TIP3    H113263   3.402   6.761   1.966
 4434TIP3    H213264   3.479   6.829   2.077
 4435TIP3   OH213265   3.734   6.691   2.095
 4435TIP3    H113266   3.641   6.698   2.066
 4435TIP3    H213267   3.778   6.757   2.040
 4436TIP3   OH213268   3.951   6.872   2.001
 4436TIP3    H113269   3.935   6.956   1.951
 4436TIP3    H213270   3.974   6.810   1.929
 4437TIP3   OH213271   2.719   6.524   2.120
 4437TIP3    H113272   2.745   6.501   2.212
 4437TIP3    H213273   2.793   6.481   2.072
 4438TIP3   OH213274   2.917   6.396   1.980
 4438TIP3    H113275   2.931   6.313   2.030
 4438TIP3    H213276   3.009   6.430   1.975
 4439TIP3   OH213277   3.179   6.492   1.982
 4439TIP3    H113278   3.250   6.438   1.938
 4439TIP3    H213279   3.225   6.507   2.066
 4440TIP3   OH213280   3.759   5.150   2.074
 4440TIP3    H113281   3.711   5.080   2.121
 4440TIP3    H213282   3.829   5.101   2.028
 4441TIP3   OH213283   4.277   5.029   1.976
 4441TIP3    H113284   4.314   5.081   1.901
 4441TIP3    H213285   4.181   5.048   1.968
 4442TIP3   OH213286   4.371   5.128   1.739
 4442TIP3    H113287   4.445   5.077   1.699
 4442TIP3    H213288   4.405   5.220   1.725
 4443TIP3   OH213289   3.003   4.858   2.085
 4443TIP3    H113290   2.911   4.825   2.089
 4443TIP3    H213291   3.052   4.773   2.081
 4444TIP3   OH213292   2.788   4.728   1.733
 4444TIP3    H113293   2.819   4.787   1.662
 4444TIP3    H213294   2.762   4.792   1.802
 4445TIP3   OH213295   3.447   4.889   1.967
 4445TIP3    H113296   3.503   4.939   1.906
 4445TIP3    H213297   3.469   4.931   2.052
 4446TIP3   OH213298   3.993   5.037   1.950
 4446TIP3    H113299   3.992   4.999   1.861
 4446TIP3    H213300   3.980   4.956   2.006
 4447TIP3   OH213301   4.023   4.960   1.513
 4447TIP3    H113302   3.937   5.004   1.527
 4447TIP3    H213303   4.008   4.875   1.559
 4448TIP3   OH213304   2.505   6.297   1.514
 4448TIP3    H113305   2.418   6.270   1.479
 4448TIP3    H213306   2.501   6.393   1.498
 4449TIP3   OH213307   2.908   4.888   1.495
 4449TIP3    H113308   2.957   4.825   1.439
 4449TIP3    H213309   2.981   4.942   1.532
 4450TIP3   OH213310   3.420   5.062   1.596
 4450TIP3    H113311   3.481   5.016   1.657
 4450TIP3    H213312   3.440   5.155   1.621
 4451TIP3   OH213313   3.277   6.488   1.093
 4451TIP3    H113314   3.367   6.508   1.060
 4451TIP3    H213315   3.257   6.411   1.036
 4452TIP3   OH213316   4.002   6.607   1.187
 4452TIP3    H113317   3.992   6.509   1.178
 4452TIP3    H213318   3.954   6.636   1.107
 4453TIP3   OH213319   3.211   5.138   2.976
 4453TIP3    H113320   3.175   5.069   3.033
 4453TIP3    H213321   3.305   5.137   3.005
 4454TIP3   OH213322   3.461   5.135   3.097
 4454TIP3    H113323   3.546   5.109   3.058
 4454TIP3    H213324   3.448   5.065   3.164
 4455TIP3   OH213325   2.580   6.318   1.152
 4455TIP3    H113326   2.585   6.349   1.243
 4455TIP3    H213327   2.670   6.280   1.137
 4456TIP3   OH213328   4.286   5.204   2.885
 4456TIP3    H113329   4.301   5.168   2.975
 4456TIP3    H213330   4.375   5.194   2.845
 4457TIP3   OH213331   4.223   6.749   2.375
 4457TIP3    H113332   4.145   6.717   2.325
 4457TIP3    H213333   4.203   6.845   2.379
 4458TIP3   OH213334   5.492   6.122   1.140
 4458TIP3    H113335   5.463   6.214   1.121
 4458TIP3    H213336   5.413   6.073   1.109
 4459TIP3   OH213337   5.493   6.122   1.523
 4459TIP3    H113338   5.523   6.095   1.611
 4459TIP3    H213339   5.448   6.041   1.491
 4460TIP3   OH213340   4.790   6.018   1.889
 4460TIP3    H113341   4.821   5.949   1.950
 4460TIP3    H213342   4.870   6.072   1.880
 4461TIP3   OH213343   5.739   6.420   1.206
 4461TIP3    H113344   5.715   6.354   1.272
 4461TIP3    H213345   5.760   6.497   1.262
 4462TIP3   OH213346   4.761   6.428   1.612
 4462TIP3    H113347   4.752   6.330   1.614
 4462TIP3    H213348   4.857   6.437   1.607
 4463TIP3   OH213349   4.467   5.628   1.398
 4463TIP3    H113350   4.420   5.711   1.414
 4463TIP3    H213351   4.396   5.576   1.355
 4464TIP3   OH213352   4.526   5.918   1.571
 4464TIP3    H113353   4.575   5.840   1.605
 4464TIP3    H213354   4.584   5.947   1.499
 4465TIP3   OH213355   5.383   6.888   1.228
 4465TIP3    H113356   5.426   6.816   1.177
 4465TIP3    H213357   5.371   6.845   1.314
 4466TIP3   OH213358   5.288   6.349   1.572
 4466TIP3    H113359   5.325   6.273   1.525
 4466TIP3    H213360   5.371   6.393   1.597
 4467TIP3   OH213361   6.301   5.669   1.570
 4467TIP3    H113362   6.331   5.750   1.616
 4467TIP3    H213363   6.321   5.692   1.477
 4468TIP3   OH213364   5.702   5.850   1.603
 4468TIP3    H113365   5.742   5.764   1.624
 4468TIP3    H213366   5.669   5.833   1.513
 4469TIP3   OH213367   5.040   5.508   1.568
 4469TIP3    H113368   5.019   5.581   1.506
 4469TIP3    H213369   4.992   5.435   1.524
 4470TIP3   OH213370   5.733   5.600   1.193
 4470TIP3    H113371   5.804   5.583   1.258
 4470TIP3    H213372   5.785   5.635   1.119
 4471TIP3   OH213373   4.671   5.710   1.676
 4471TIP3    H113374   4.754   5.691   1.723
 4471TIP3    H213375   4.685   5.654   1.596
 4472TIP3   OH213376   5.112   5.908   1.470
 4472TIP3    H113377   5.206   5.883   1.482
 4472TIP3    H213378   5.074   5.824   1.437
 4473TIP3   OH213379   6.375   5.876   1.739
 4473TIP3    H113380   6.290   5.923   1.721
 4473TIP3    H213381   6.391   5.904   1.830
 4474TIP3   OH213382   5.036   5.493   2.003
 4474TIP3    H113383   4.975   5.529   1.935
 4474TIP3    H213384   4.983   5.510   2.084
 4475TIP3   OH213385   5.390   6.349   1.028
 4475TIP3    H113386   5.353   6.326   0.940
 4475TIP3    H213387   5.338   6.430   1.048
 4476TIP3   OH213388   5.143   6.268   1.798
 4476TIP3    H113389   5.081   6.334   1.835
 4476TIP3    H213390   5.183   6.318   1.724
 4477TIP3   OH213391   5.945   5.603   1.363
 4477TIP3    H113392   5.926   5.557   1.445
 4477TIP3    H213393   5.993   5.682   1.394
 4478TIP3   OH213394   4.906   5.607   1.787
 4478TIP3    H113395   4.968   5.679   1.811
 4478TIP3    H213396   4.955   5.567   1.711
 4479TIP3   OH213397   4.970   6.462   1.896
 4479TIP3    H113398   4.944   6.549   1.858
 4479TIP3    H213399   4.891   6.446   1.951
 4480TIP3   OH213400   4.363   6.151   1.131
 4480TIP3    H113401   4.322   6.178   1.046
 4480TIP3    H213402   4.394   6.237   1.166
 4481TIP3   OH213403   5.805   6.670   1.371
 4481TIP3    H113404   5.717   6.657   1.414
 4481TIP3    H213405   5.789   6.755   1.325
 4482TIP3   OH213406   6.094   5.568   1.735
 4482TIP3    H113407   6.007   5.596   1.704
 4482TIP3    H213408   6.154   5.601   1.665
 4483TIP3   OH213409   5.390   5.211   1.717
 4483TIP3    H113410   5.376   5.116   1.735
 4483TIP3    H213411   5.313   5.249   1.764
 4484TIP3   OH213412   5.503   6.714   1.056
 4484TIP3    H113413   5.550   6.630   1.035
 4484TIP3    H213414   5.559   6.775   1.004
 4485TIP3   OH213415   5.646   6.505   0.959
 4485TIP3    H113416   5.620   6.428   0.906
 4485TIP3    H213417   5.682   6.462   1.040
 4486TIP3   OH213418   6.027   6.583   1.715
 4486TIP3    H113419   6.017   6.504   1.657
 4486TIP3    H213420   6.013   6.656   1.651
 4487TIP3   OH213421   5.317   5.976   0.978
 4487TIP3    H113422   5.233   6.025   0.965
 4487TIP3    H213423   5.355   5.980   0.889
 4488TIP3   OH213424   5.265   5.761   0.749
 4488TIP3    H113425   5.336   5.815   0.786
 4488TIP3    H213426   5.318   5.711   0.683
 4489TIP3   OH213427   6.224   6.215   1.558
 4489TIP3    H113428   6.141   6.268   1.566
 4489TIP3    H213429   6.254   6.242   1.469
 4490TIP3   OH213430   5.666   6.048   0.945
 4490TIP3    H113431   5.610   6.076   1.022
 4490TIP3    H213432   5.751   6.030   0.990
 4491TIP3   OH213433   5.903   6.095   1.858
 4491TIP3    H113434   5.901   6.178   1.909
 4491TIP3    H213435   5.816   6.100   1.813
 4492TIP3   OH213436   4.899   6.053   1.363
 4492TIP3    H113437   4.858   5.996   1.295
 4492TIP3    H213438   4.976   6.000   1.391
 4493TIP3   OH213439   5.031   6.467   1.510
 4493TIP3    H113440   5.009   6.428   1.424
 4493TIP3    H213441   5.120   6.430   1.527
 4494TIP3   OH213442   5.038   6.024   1.717
 4494TIP3    H113443   5.069   6.002   1.627
 4494TIP3    H213444   5.081   6.111   1.734
 4495TIP3   OH213445   5.566   6.662   1.494
 4495TIP3    H113446   5.549   6.742   1.546
 4495TIP3    H213447   5.547   6.590   1.557
 4496TIP3   OH213448   5.176   6.581   2.039
 4496TIP3    H113449   5.115   6.643   2.086
 4496TIP3    H213450   5.111   6.528   1.989
 4497TIP3   OH213451   5.512   5.900   0.774
 4497TIP3    H113452   5.567   5.961   0.828
 4497TIP3    H213453   5.526   5.937   0.685
 4498TIP3   OH213454   4.932   6.137   2.144
 4498TIP3    H113455   4.935   6.226   2.186
 4498TIP3    H213456   4.836   6.120   2.149
 4499TIP3   OH213457   5.251   6.596   1.057
 4499TIP3    H113458   5.332   6.650   1.063
 4499TIP3    H213459   5.193   6.650   1.002
 4500TIP3   OH213460   4.969   6.749   2.127
 4500TIP3    H113461   4.933   6.750   2.037
 4500TIP3    H213462   4.890   6.726   2.181
 4501TIP3   OH213463   6.023   5.155   0.819
 4501TIP3    H113464   5.940   5.166   0.870
 4501TIP3    H213465   6.038   5.245   0.787
 4502TIP3   OH213466   4.767   5.896   1.165
 4502TIP3    H113467   4.700   5.943   1.111
 4502TIP3    H213468   4.726   5.810   1.176
 4503TIP3   OH213469   4.548   6.283   2.073
 4503TIP3    H113470   4.478   6.265   2.005
 4503TIP3    H213471   4.582   6.194   2.092
 4504TIP3   OH213472   4.402   6.477   1.701
 4504TIP3    H113473   4.499   6.472   1.699
 4504TIP3    H213474   4.387   6.553   1.758
 4505TIP3   OH213475   6.234   6.920   1.738
 4505TIP3    H113476   6.240   6.829   1.771
 4505TIP3    H213477   6.161   6.953   1.794
 4506TIP3   OH213478   5.372   6.710   1.897
 4506TIP3    H113479   5.370   6.803   1.930
 4506TIP3    H213480   5.301   6.670   1.951
 4507TIP3   OH213481   5.120   6.838   0.860
 4507TIP3    H113482   5.071   6.826   0.778
 4507TIP3    H213483   5.101   6.931   0.883
 4508TIP3   OH213484   4.572   6.691   1.234
 4508TIP3    H113485   4.618   6.681   1.320
 4508TIP3    H213486   4.517   6.610   1.234
 4509TIP3   OH213487   5.371   6.807   0.755
 4509TIP3    H113488   5.286   6.801   0.802
 4509TIP3    H213489   5.427   6.746   0.804
 4510TIP3   OH213490   6.156   6.055   2.038
 4510TIP3    H113491   6.074   6.067   1.989
 4510TIP3    H213492   6.172   5.959   2.027
 4511TIP3   OH213493   4.753   6.464   2.061
 4511TIP3    H113494   4.801   6.448   2.145
 4511TIP3    H213495   4.678   6.401   2.068
 4512TIP3   OH213496   5.152   5.287   1.846
 4512TIP3    H113497   5.064   5.256   1.818
 4512TIP3    H213498   5.127   5.368   1.893
 4513TIP3   OH213499   5.687   5.402   2.041
 4513TIP3    H113500   5.755   5.374   2.105
 4513TIP3    H213501   5.603   5.382   2.088
 4514TIP3   OH213502   5.924   5.832   1.959
 4514TIP3    H113503   5.874   5.828   2.044
 4514TIP3    H213504   5.900   5.920   1.924
 4515TIP3   OH213505   5.298   5.332   0.823
 4515TIP3    H113506   5.263   5.328   0.914
 4515TIP3    H213507   5.261   5.247   0.789
 4516TIP3   OH213508   5.084   5.802   1.865
 4516TIP3    H113509   5.034   5.825   1.946
 4516TIP3    H213510   5.069   5.883   1.811
 4517TIP3   OH213511   4.968   5.689   1.379
 4517TIP3    H113512   4.875   5.664   1.397
 4517TIP3    H213513   4.981   5.648   1.290
 4518TIP3   OH213514   5.458   5.777   1.110
 4518TIP3    H113515   5.405   5.848   1.067
 4518TIP3    H213516   5.509   5.742   1.034
 4519TIP3   OH213517   5.633   6.052   2.191
 4519TIP3    H113518   5.612   5.979   2.254
 4519TIP3    H213519   5.727   6.068   2.214
 4520TIP3   OH213520   5.615   5.803   1.346
 4520TIP3    H113521   5.553   5.833   1.276
 4520TIP3    H213522   5.647   5.722   1.302
 4521TIP3   OH213523   4.904   5.832   2.074
 4521TIP3    H113524   4.936   5.896   2.139
 4521TIP3    H213525   4.895   5.750   2.127
 4522TIP3   OH213526   4.954   5.311   0.783
 4522TIP3    H113527   4.943   5.309   0.880
 4522TIP3    H213528   4.876   5.364   0.757
 4523TIP3   OH213529   4.496   5.351   1.656
 4523TIP3    H113530   4.571   5.385   1.709
 4523TIP3    H213531   4.537   5.324   1.573
 4524TIP3   OH213532   4.467   5.334   1.175
 4524TIP3    H113533   4.511   5.371   1.095
 4524TIP3    H213534   4.406   5.408   1.193
 4525TIP3   OH213535   5.625   6.048   1.768
 4525TIP3    H113536   5.659   5.977   1.709
 4525TIP3    H213537   5.596   5.995   1.845
 4526TIP3   OH213538   5.297   5.512   1.440
 4526TIP3    H113539   5.214   5.510   1.492
 4526TIP3    H213540   5.364   5.509   1.511
 4527TIP3   OH213541   4.729   5.567   1.448
 4527TIP3    H113542   4.635   5.575   1.420
 4527TIP3    H213543   4.752   5.475   1.424
 4528TIP3   OH213544   5.000   5.563   1.139
 4528TIP3    H113545   5.092   5.578   1.111
 4528TIP3    H213546   4.948   5.583   1.057
 4529TIP3   OH213547   5.786   5.586   1.639
 4529TIP3    H113548   5.755   5.599   1.732
 4529TIP3    H213549   5.718   5.525   1.607
 4530TIP3   OH213550   4.832   5.588   0.927
 4530TIP3    H113551   4.764   5.547   0.871
 4530TIP3    H213552   4.890   5.626   0.858
 4531TIP3   OH213553   5.951   7.278   1.854
 4531TIP3    H113554   5.949   7.296   1.758
 4531TIP3    H213555   6.038   7.312   1.879
 4532TIP3   OH213556   4.916   6.383   2.284
 4532TIP3    H113557   4.995   6.415   2.331
 4532TIP3    H213558   4.850   6.388   2.356
 4533TIP3   OH213559   5.377   5.840   1.538
 4533TIP3    H113560   5.450   5.799   1.489
 4533TIP3    H213561   5.385   5.796   1.625
 4534TIP3   OH213562   4.901   5.327   1.416
 4534TIP3    H113563   4.866   5.248   1.463
 4534TIP3    H213564   4.948   5.287   1.342
 4535TIP3   OH213565   5.355   5.737   1.827
 4535TIP3    H113566   5.265   5.773   1.841
 4535TIP3    H213567   5.412   5.798   1.877
 4536TIP3   OH213568   5.082   6.118   0.928
 4536TIP3    H113569   5.009   6.054   0.915
 4536TIP3    H213570   5.062   6.154   1.018
 4537TIP3   OH213571   5.992   6.363   1.551
 4537TIP3    H113572   6.013   6.413   1.470
 4537TIP3    H213573   5.907   6.320   1.527
 4538TIP3   OH213574   5.546   5.437   0.782
 4538TIP3    H113575   5.451   5.415   0.795
 4538TIP3    H213576   5.553   5.530   0.812
 4539TIP3   OH213577   5.492   6.446   1.919
 4539TIP3    H113578   5.517   6.425   2.009
 4539TIP3    H213579   5.451   6.534   1.927
 4540TIP3   OH213580   5.620   5.679   0.899
 4540TIP3    H113581   5.716   5.691   0.914
 4540TIP3    H213582   5.597   5.757   0.844
 4541TIP3   OH213583   4.785   6.150   1.598
 4541TIP3    H113584   4.821   6.121   1.512
 4541TIP3    H213585   4.825   6.087   1.659
 4542TIP3   OH213586   5.262   6.280   0.797
 4542TIP3    H113587   5.212   6.359   0.768
 4542TIP3    H213588   5.192   6.225   0.837
 4543TIP3   OH213589   4.665   6.071   2.212
 4543TIP3    H113590   4.691   6.055   2.304
 4543TIP3    H213591   4.596   6.005   2.195
 4544TIP3   OH213592   5.392   6.184   2.230
 4544TIP3    H113593   5.332   6.125   2.181
 4544TIP3    H213594   5.479   6.149   2.203
 4545TIP3   OH213595   5.650   6.706   1.814
 4545TIP3    H113596   5.554   6.703   1.829
 4545TIP3    H213597   5.680   6.756   1.893
 4546TIP3   OH213598   6.058   5.764   0.722
 4546TIP3    H113599   5.970   5.745   0.688
 4546TIP3    H213600   6.072   5.855   0.691
 4547TIP3   OH213601   6.276   6.629   1.811
 4547TIP3    H113602   6.178   6.627   1.801
 4547TIP3    H213603   6.303   6.602   1.720
 4548TIP3   OH213604   5.757   6.226   1.469
 4548TIP3    H113605   5.664   6.201   1.483
 4548TIP3    H213606   5.790   6.145   1.424
 4549TIP3   OH213607   4.885   6.453   1.225
 4549TIP3    H113608   4.884   6.532   1.168
 4549TIP3    H213609   4.791   6.434   1.233
 4550TIP3   OH213610   4.457   5.758   0.935
 4550TIP3    H113611   4.498   5.845   0.952
 4550TIP3    H213612   4.377   5.762   0.991
 4551TIP3   OH213613   5.021   6.217   1.170
 4551TIP3    H113614   4.987   6.307   1.187
 4551TIP3    H213615   4.983   6.167   1.245
 4552TIP3   OH213616   5.154   6.797   1.692
 4552TIP3    H113617   5.197   6.869   1.642
 4552TIP3    H213618   5.230   6.760   1.740
 4553TIP3   OH213619   4.799   6.692   1.070
 4553TIP3    H113620   4.716   6.699   1.121
 4553TIP3    H213621   4.833   6.784   1.077
 4554TIP3   OH213622   5.541   6.429   1.651
 4554TIP3    H113623   5.530   6.428   1.749
 4554TIP3    H213624   5.622   6.376   1.641
 4555TIP3   OH213625   5.790   6.960   1.703
 4555TIP3    H113626   5.711   6.903   1.696
 4555TIP3    H213627   5.773   7.024   1.631
 4556TIP3   OH213628   4.876   5.572   2.220
 4556TIP3    H113629   4.780   5.565   2.229
 4556TIP3    H213630   4.907   5.514   2.291
 4557TIP3   OH213631   5.664   6.263   0.772
 4557TIP3    H113632   5.670   6.199   0.845
 4557TIP3    H213633   5.760   6.277   0.755
 4558TIP3   OH213634   4.594   6.658   1.849
 4558TIP3    H113635   4.647   6.584   1.884
 4558TIP3    H213636   4.617   6.728   1.911
 4559TIP3   OH213637   4.888   6.333   0.550
 4559TIP3    H113638   4.868   6.258   0.492
 4559TIP3    H213639   4.851   6.306   0.635
 4560TIP3   OH213640   4.821   6.314   0.826
 4560TIP3    H113641   4.903   6.281   0.866
 4560TIP3    H213642   4.839   6.410   0.819
 4561TIP3   OH213643   4.565   6.004   1.010
 4561TIP3    H113644   4.497   6.050   1.064
 4561TIP3    H213645   4.579   6.071   0.940
 4562TIP3   OH213646   5.716   5.637   1.899
 4562TIP3    H113647   5.794   5.677   1.941
 4562TIP3    H213648   5.700   5.557   1.954
 4563TIP3   OH213649   5.595   5.387   1.067
 4563TIP3    H113650   5.578   5.410   0.974
 4563TIP3    H213651   5.630   5.472   1.103
 4564TIP3   OH213652   5.105   6.505   0.750
 4564TIP3    H113653   5.016   6.536   0.774
 4564TIP3    H213654   5.107   6.522   0.655
 4565TIP3   OH213655   5.285   5.569   1.169
 4565TIP3    H113656   5.346   5.644   1.153
 4565TIP3    H213657   5.287   5.562   1.267
 4566TIP3   OH213658   5.552   5.888   1.976
 4566TIP3    H113659   5.573   5.942   2.054
 4566TIP3    H213660   5.606   5.808   1.990
 4567TIP3   OH213661   5.425   5.296   1.271
 4567TIP3    H113662   5.416   5.374   1.328
 4567TIP3    H213663   5.487   5.330   1.202
 4568TIP3   OH213664   4.847   6.588   0.820
 4568TIP3    H113665   4.791   6.646   0.768
 4568TIP3    H213666   4.832   6.620   0.911
 4569TIP3   OH213667   4.937   5.295   1.059
 4569TIP3    H113668   4.934   5.386   1.095
 4569TIP3    H213669   5.033   5.277   1.068
 4570TIP3   OH213670   6.191   5.788   1.957
 4570TIP3    H113671   6.093   5.787   1.965
 4570TIP3    H213672   6.202   5.745   1.871
 4571TIP3   OH213673   5.843   5.984   1.345
 4571TIP3    H113674   5.766   5.925   1.358
 4571TIP3    H213675   5.913   5.936   1.393
 4572TIP3   OH213676   4.556   6.216   0.816
 4572TIP3    H113677   4.634   6.273   0.832
 4572TIP3    H213678   4.597   6.156   0.750
 4573TIP3   OH213679   4.497   5.486   0.951
 4573TIP3    H113680   4.504   5.583   0.949
 4573TIP3    H213681   4.422   5.472   0.892
 4574TIP3   OH213682   5.816   6.944   1.284
 4574TIP3    H113683   5.772   6.983   1.206
 4574TIP3    H213684   5.910   6.953   1.257
 4575TIP3   OH213685   4.887   5.208   1.821
 4575TIP3    H113686   4.857   5.173   1.734
 4575TIP3    H213687   4.876   5.129   1.879
 4576TIP3   OH213688   4.427   6.427   1.199
 4576TIP3    H113689   4.358   6.456   1.261
 4576TIP3    H213690   4.395   6.468   1.115
 4577TIP3   OH213691   4.584   6.969   2.272
 4577TIP3    H113692   4.669   6.968   2.320
 4577TIP3    H213693   4.561   6.874   2.272
 4578TIP3   OH213694   5.064   6.932   2.317
 4578TIP3    H113695   5.158   6.912   2.325
 4578TIP3    H213696   5.038   6.871   2.245
 4579TIP3   OH213697   5.706   6.837   2.050
 4579TIP3    H113698   5.695   6.768   2.120
 4579TIP3    H213699   5.782   6.888   2.083
 4580TIP3   OH213700   4.713   6.373   2.473
 4580TIP3    H113701   4.724   6.277   2.482
 4580TIP3    H213702   4.626   6.379   2.428
 4581TIP3   OH213703   4.702   6.043   0.675
 4581TIP3    H113704   4.760   5.990   0.733
 4581TIP3    H213705   4.721   6.008   0.587
 4582TIP3   OH213706   5.321   6.459   2.247
 4582TIP3    H113707   5.280   6.478   2.160
 4582TIP3    H213708   5.351   6.367   2.238
 4583TIP3   OH213709   5.813   6.467   1.853
 4583TIP3    H113710   5.888   6.513   1.810
 4583TIP3    H213711   5.742   6.533   1.839
 4584TIP3   OH213712   4.830   6.092   2.458
 4584TIP3    H113713   4.915   6.058   2.430
 4584TIP3    H213714   4.854   6.135   2.543
 4585TIP3   OH213715   4.891   5.923   0.892
 4585TIP3    H113716   4.859   5.887   0.977
 4585TIP3    H213717   4.931   5.844   0.851
 4586TIP3   OH213718   5.166   5.990   2.116
 4586TIP3    H113719   5.090   6.052   2.118
 4586TIP3    H213720   5.218   6.025   2.040
 4587TIP3   OH213721   5.000   5.712   0.760
 4587TIP3    H113722   4.977   5.738   0.668
 4587TIP3    H213723   5.098   5.724   0.759
 4588TIP3   OH213724   5.684   6.394   2.251
 4588TIP3    H113725   5.766   6.370   2.205
 4588TIP3    H213726   5.681   6.329   2.323
 4589TIP3   OH213727   5.290   5.781   2.243
 4589TIP3    H113728   5.292   5.702   2.186
 4589TIP3    H213729   5.247   5.847   2.185
 4590TIP3   OH213730   5.294   5.568   2.051
 4590TIP3    H113731   5.322   5.609   1.967
 4590TIP3    H213732   5.200   5.545   2.032
 4591TIP3   OH213733   5.319   6.102   1.925
 4591TIP3    H113734   5.404   6.113   1.880
 4591TIP3    H213735   5.262   6.168   1.880
 4592TIP3   OH213736   5.901   6.069   2.304
 4592TIP3    H113737   5.951   5.987   2.317
 4592TIP3    H213738   5.969   6.129   2.271
 4593TIP3   OH213739   5.943   6.322   2.039
 4593TIP3    H113740   5.885   6.376   1.981
 4593TIP3    H213741   6.031   6.343   2.000
 4594TIP3   OH213742   5.166   5.892   2.474
 4594TIP3    H113743   5.099   5.823   2.488
 4594TIP3    H213744   5.202   5.867   2.386
 4595TIP3   OH213745   5.426   5.330   2.117
 4595TIP3    H113746   5.375   5.411   2.095
 4595TIP3    H213747   5.357   5.261   2.106
 4596TIP3   OH213748   5.552   5.834   2.334
 4596TIP3    H113749   5.541   5.821   2.430
 4596TIP3    H213750   5.462   5.810   2.304
 4597TIP3   OH213751   5.790   5.783   2.188
 4597TIP3    H113752   5.716   5.785   2.252
 4597TIP3    H213753   5.864   5.753   2.244
 4598TIP3   OH213754   6.019   5.725   2.338
 4598TIP3    H113755   6.032   5.629   2.356
 4598TIP3    H213756   6.015   5.763   2.428
 4599TIP3   OH213757   5.004   5.674   2.528
 4599TIP3    H113758   5.012   5.583   2.494
 4599TIP3    H213759   5.044   5.663   2.617
 4600TIP3   OH213760   5.520   5.341   2.375
 4600TIP3    H113761   5.586   5.269   2.370
 4600TIP3    H213762   5.480   5.335   2.286
 4601TIP3   OH213763   5.587   5.556   2.534
 4601TIP3    H113764   5.566   5.484   2.470
 4601TIP3    H213765   5.508   5.613   2.528
 4602TIP3   OH213766   4.287   6.167   0.851
 4602TIP3    H113767   4.382   6.187   0.836
 4602TIP3    H213768   4.279   6.077   0.812
 4603TIP3   OH213769   4.203   6.782   1.265
 4603TIP3    H113770   4.137   6.719   1.227
 4603TIP3    H213771   4.247   6.723   1.330
 4604TIP3   OH213772   4.337   6.630   1.452
 4604TIP3    H113773   4.324   6.557   1.514
 4604TIP3    H213774   4.388   6.691   1.508
 4605TIP3   OH213775   6.078   7.028   1.229
 4605TIP3    H113776   6.085   7.046   1.325
 4605TIP3    H213777   6.096   7.114   1.189
 4606TIP3   OH213778   6.108   7.040   1.509
 4606TIP3    H113779   6.055   6.957   1.517
 4606TIP3    H213780   6.167   7.024   1.585
 4607TIP3   OH213781   6.137   6.726   2.105
 4607TIP3    H113782   6.066   6.736   2.172
 4607TIP3    H213783   6.184   6.812   2.111
 4608TIP3   OH213784   5.936   6.259   0.754
 4608TIP3    H113785   5.990   6.271   0.674
 4608TIP3    H213786   5.993   6.201   0.809
 4609TIP3   OH213787   6.085   6.090   0.920
 4609TIP3    H113788   6.016   6.060   0.983
 4609TIP3    H213789   6.150   6.134   0.979
 4610TIP3   OH213790   6.139   6.498   1.360
 4610TIP3    H113791   6.191   6.430   1.312
 4610TIP3    H213792   6.113   6.559   1.288
 4611TIP3   OH213793   5.968   6.804   1.551
 4611TIP3    H113794   5.900   6.842   1.609
 4611TIP3    H213795   5.914   6.754   1.486
 4612TIP3   OH213796   5.897   5.963   1.078
 4612TIP3    H113797   5.900   5.866   1.079
 4612TIP3    H213798   5.882   5.983   1.173
 4613TIP3   OH213799   4.524   6.028   1.826
 4613TIP3    H113800   4.522   6.001   1.732
 4613TIP3    H213801   4.621   6.035   1.841
 4614TIP3   OH213802   6.187   6.388   1.932
 4614TIP3    H113803   6.259   6.322   1.923
 4614TIP3    H213804   6.218   6.461   1.875
 4615TIP3   OH213805   6.370   6.191   1.945
 4615TIP3    H113806   6.297   6.141   1.987
 4615TIP3    H213807   6.445   6.129   1.961
 4616TIP3   OH213808   5.857   5.397   0.505
 4616TIP3    H113809   5.911   5.357   0.575
 4616TIP3    H213810   5.768   5.360   0.524
 4617TIP3   OH213811   5.897   5.676   0.976
 4617TIP3    H113812   5.932   5.585   0.987
 4617TIP3    H213813   5.968   5.714   0.922
 4618TIP3   OH213814   6.055   5.851   1.466
 4618TIP3    H113815   6.141   5.878   1.426
 4618TIP3    H213816   6.067   5.889   1.555
 4619TIP3   OH213817   6.124   5.996   1.696
 4619TIP3    H113818   6.047   6.030   1.746
 4619TIP3    H213819   6.157   6.078   1.653
 4620TIP3   OH213820   4.737   5.724   2.488
 4620TIP3    H113821   4.835   5.720   2.494
 4620TIP3    H213822   4.714   5.635   2.522
 4621TIP3   OH213823   6.575   5.588   2.253
 4621TIP3    H113824   6.636   5.524   2.212
 4621TIP3    H213825   6.547   5.642   2.176
 4622TIP3   OH213826   6.009   5.426   1.003
 4622TIP3    H113827   6.051   5.414   1.091
 4622TIP3    H213828   5.943   5.353   1.005
 4623TIP3   OH213829   4.702   5.416   1.830
 4623TIP3    H113830   4.764   5.341   1.838
 4623TIP3    H213831   4.765   5.490   1.821
 4624TIP3   OH213832   4.506   5.689   1.903
 4624TIP3    H113833   4.555   5.682   1.819
 4624TIP3    H213834   4.529   5.779   1.930
 4625TIP3   OH213835   6.447   5.728   2.058
 4625TIP3    H113836   6.362   5.770   2.081
 4625TIP3    H213837   6.414   5.656   2.000
 4626TIP3   OH213838   6.105   5.353   0.634
 4626TIP3    H113839   6.130   5.263   0.608
 4626TIP3    H213840   6.191   5.397   0.632
 4627TIP3   OH213841   4.489   5.192   1.403
 4627TIP3    H113842   4.396   5.189   1.429
 4627TIP3    H213843   4.487   5.251   1.324
 4628TIP3   OH213844   5.649   6.884   0.906
 4628TIP3    H113845   5.708   6.864   0.833
 4628TIP3    H213846   5.693   6.958   0.952
 4629TIP3   OH213847   4.710   5.276   2.218
 4629TIP3    H113848   4.656   5.271   2.299
 4629TIP3    H213849   4.644   5.310   2.154
 4630TIP3   OH213850   4.750   6.698   2.293
 4630TIP3    H113851   4.657   6.675   2.277
 4630TIP3    H213852   4.758   6.684   2.388
 4631TIP3   OH213853   4.928   6.733   1.841
 4631TIP3    H113854   4.878   6.808   1.801
 4631TIP3    H213855   5.014   6.748   1.796
 4632TIP3   OH213856   5.371   6.977   1.978
 4632TIP3    H113857   5.413   6.977   2.067
 4632TIP3    H213858   5.437   7.028   1.927
 4633TIP3   OH213859   5.551   7.130   1.838
 4633TIP3    H113860   5.623   7.078   1.798
 4633TIP3    H213861   5.602   7.187   1.899
 4634TIP3   OH213862   6.346   5.490   1.937
 4634TIP3    H113863   6.255   5.482   1.904
 4634TIP3    H213864   6.378   5.398   1.927
 4635TIP3   OH213865   4.606   6.991   1.864
 4635TIP3    H113866   4.515   7.022   1.842
 4635TIP3    H213867   4.614   7.027   1.953
 4636TIP3   OH213868   4.841   6.969   1.723
 4636TIP3    H113869   4.754   6.981   1.767
 4636TIP3    H213870   4.820   7.000   1.632
 4637TIP3   OH213871   5.266   6.998   1.520
 4637TIP3    H113872   5.195   7.016   1.456
 4637TIP3    H213873   5.277   7.085   1.563
 4638TIP3   OH213874   5.533   6.934   1.572
 4638TIP3    H113875   5.440   6.953   1.550
 4638TIP3    H213876   5.578   7.012   1.535
 4639TIP3   OH213877   5.737   7.117   1.491
 4639TIP3    H113878   5.723   7.208   1.455
 4639TIP3    H213879   5.765   7.067   1.412
 4640TIP3   OH213880   4.517   6.785   1.609
 4640TIP3    H113881   4.541   6.757   1.700
 4640TIP3    H213882   4.588   6.738   1.559
 4641TIP3   OH213883   4.710   6.654   1.467
 4641TIP3    H113884   4.724   6.571   1.516
 4641TIP3    H213885   4.801   6.690   1.462
 4642TIP3   OH213886   4.977   6.750   1.469
 4642TIP3    H113887   5.007   6.658   1.457
 4642TIP3    H213888   5.021   6.771   1.554
 4643TIP3   OH213889   5.552   5.406   1.559
 4643TIP3    H113890   5.507   5.337   1.610
 4643TIP3    H213891   5.623   5.356   1.513
 4644TIP3   OH213892   6.073   5.284   1.460
 4644TIP3    H113893   6.107   5.339   1.386
 4644TIP3    H213894   5.978   5.301   1.455
 4645TIP3   OH213895   6.167   5.388   1.224
 4645TIP3    H113896   6.242   5.335   1.190
 4645TIP3    H213897   6.202   5.479   1.211
 4646TIP3   OH213898   4.799   5.115   1.573
 4646TIP3    H113899   4.706   5.083   1.575
 4646TIP3    H213900   4.847   5.029   1.568
 4647TIP3   OH213901   4.585   4.985   1.221
 4647TIP3    H113902   4.616   5.041   1.147
 4647TIP3    H213903   4.559   5.051   1.287
 4648TIP3   OH213904   5.244   5.146   1.454
 4648TIP3    H113905   5.301   5.195   1.393
 4648TIP3    H213906   5.267   5.186   1.539
 4649TIP3   OH213907   5.791   5.293   1.435
 4649TIP3    H113908   5.787   5.252   1.348
 4649TIP3    H213909   5.778   5.215   1.494
 4650TIP3   OH213910   5.821   5.217   1.000
 4650TIP3    H113911   5.733   5.259   1.011
 4650TIP3    H213912   5.806   5.132   1.048
 4651TIP3   OH213913   4.305   6.557   0.997
 4651TIP3    H113914   4.219   6.523   0.967
 4651TIP3    H213915   4.292   6.652   0.976
 4652TIP3   OH213916   4.704   5.140   0.985
 4652TIP3    H113917   4.752   5.079   0.926
 4652TIP3    H213918   4.777   5.196   1.019
 4653TIP3   OH213919   5.214   5.319   1.084
 4653TIP3    H113920   5.273   5.271   1.144
 4653TIP3    H213921   5.237   5.411   1.110
 4654TIP3   OH213922   5.005   5.394   2.468
 4654TIP3    H113923   4.974   5.319   2.521
 4654TIP3    H213924   5.100   5.395   2.493
 4655TIP3   OH213925   5.256   5.394   2.582
 4655TIP3    H113926   5.342   5.366   2.544
 4655TIP3    H213927   5.244   5.325   2.651
 4656TIP3   OH213928   4.384   6.594   0.653
 4656TIP3    H113929   4.357   6.619   0.742
 4656TIP3    H213930   4.446   6.522   0.668
 4657TIP3   OH213931   6.082   5.454   2.370
 4657TIP3    H113932   6.100   5.422   2.462
 4657TIP3    H213933   6.171   5.449   2.330
 4658TIP3   OH213934   6.011   7.009   1.866
 4658TIP3    H113935   5.931   6.977   1.818
 4658TIP3    H213936   5.991   7.104   1.870
 4659TIP3   OH213937   6.586   6.275   1.375
 4659TIP3    H113938   6.615   6.208   1.439
 4659TIP3    H213939   6.655   6.342   1.386
 4660TIP3   OH213940   6.269   5.875   0.884
 4660TIP3    H113941   6.232   5.963   0.902
 4660TIP3    H213942   6.191   5.828   0.853
 4661TIP3   OH213943   6.314   6.168   1.053
 4661TIP3    H113944   6.364   6.093   1.092
 4661TIP3    H213945   6.386   6.224   1.020
 4662TIP3   OH213946   6.822   5.764   1.059
 4662TIP3    H113947   6.810   5.838   0.996
 4662TIP3    H213948   6.780   5.690   1.010
 4663TIP3   OH213949   6.469   5.968   1.161
 4663TIP3    H113950   6.550   5.949   1.212
 4663TIP3    H213951   6.485   5.913   1.083
 4664TIP3   OH213952   6.904   6.168   0.977
 4664TIP3    H113953   6.994   6.150   0.948
 4664TIP3    H213954   6.853   6.096   0.935
 4665TIP3   OH213955   6.827   5.747   1.489
 4665TIP3    H113956   6.766   5.787   1.424
 4665TIP3    H213957   6.777   5.764   1.572
 4666TIP3   OH213958   6.699   5.867   1.277
 4666TIP3    H113959   6.763   5.939   1.299
 4666TIP3    H213960   6.748   5.823   1.203
 4667TIP3   OH213961   7.170   5.456   1.199
 4667TIP3    H113962   7.164   5.364   1.231
 4667TIP3    H213963   7.099   5.499   1.252
 4668TIP3   OH213964   6.831   6.297   1.208
 4668TIP3    H113965   6.871   6.269   1.123
 4668TIP3    H213966   6.865   6.388   1.220
 4669TIP3   OH213967   6.716   6.400   1.625
 4669TIP3    H113968   6.723   6.485   1.672
 4669TIP3    H213969   6.622   6.379   1.641
 4670TIP3   OH213970   6.333   6.532   1.566
 4670TIP3    H113971   6.269   6.510   1.495
 4670TIP3    H213972   6.374   6.445   1.587
 4671TIP3   OH213973   6.197   6.734   1.188
 4671TIP3    H113974   6.284   6.705   1.215
 4671TIP3    H213975   6.176   6.805   1.250
 4672TIP3   OH213976   6.554   6.692   1.538
 4672TIP3    H113977   6.590   6.714   1.625
 4672TIP3    H213978   6.478   6.635   1.563
 4673TIP3   OH213979   6.945   5.544   1.336
 4673TIP3    H113980   6.856   5.514   1.308
 4673TIP3    H213981   6.919   5.625   1.385
 4674TIP3   OH213982   7.481   5.642   1.534
 4674TIP3    H113983   7.506   5.689   1.614
 4674TIP3    H213984   7.387   5.620   1.554
 4675TIP3   OH213985   6.874   6.067   1.346
 4675TIP3    H113986   6.821   6.082   1.427
 4675TIP3    H213987   6.858   6.150   1.297
 4676TIP3   OH213988   6.763   5.953   0.867
 4676TIP3    H113989   6.671   5.921   0.885
 4676TIP3    H213990   6.773   5.932   0.774
 4677TIP3   OH213991   6.699   6.085   1.560
 4677TIP3    H113992   6.719   6.147   1.632
 4677TIP3    H213993   6.689   6.001   1.610
 4678TIP3   OH213994   6.298   5.608   1.132
 4678TIP3    H113995   6.361   5.645   1.197
 4678TIP3    H213996   6.357   5.571   1.066
 4679TIP3   OH213997   7.073   5.752   0.943
 4679TIP3    H113998   6.991   5.750   0.996
 4679TIP3    H213999   7.138   5.780   1.007
 4680TIP3   OH214000   6.530   5.824   0.930
 4680TIP3    H114001   6.435   5.835   0.907
 4680TIP3    H214002   6.545   5.729   0.915
 4681TIP3   OH214003   6.722   6.627   1.781
 4681TIP3    H114004   6.787   6.689   1.815
 4681TIP3    H214005   6.649   6.639   1.845
 4682TIP3   OH214006   6.699   5.577   0.895
 4682TIP3    H114007   6.659   5.506   0.950
 4682TIP3    H214008   6.766   5.526   0.847
 4683TIP3   OH214009   7.140   5.969   1.330
 4683TIP3    H114010   7.049   6.003   1.316
 4683TIP3    H214011   7.190   6.052   1.338
 4684TIP3   OH214012   6.561   6.324   1.074
 4684TIP3    H114013   6.625   6.310   1.004
 4684TIP3    H214014   6.610   6.298   1.154
 4685TIP3   OH214015   6.461   6.324   1.696
 4685TIP3    H114016   6.485   6.314   1.791
 4685TIP3    H214017   6.391   6.257   1.687
 4686TIP3   OH214018   6.671   5.830   1.705
 4686TIP3    H114019   6.575   5.834   1.722
 4686TIP3    H214020   6.702   5.775   1.778
 4687TIP3   OH214021   6.680   5.463   1.307
 4687TIP3    H114022   6.652   5.425   1.222
 4687TIP3    H214023   6.674   5.386   1.367
 4688TIP3   OH214024   6.510   6.622   1.967
 4688TIP3    H114025   6.521   6.525   1.966
 4688TIP3    H214026   6.427   6.633   1.916
 4689TIP3   OH214027   6.628   6.355   1.937
 4689TIP3    H114028   6.708   6.304   1.920
 4689TIP3    H214029   6.648   6.391   2.026
 4690TIP3   OH214030   6.941   6.257   1.600
 4690TIP3    H114031   6.860   6.311   1.615
 4690TIP3    H214032   6.955   6.267   1.505
 4691TIP3   OH214033   7.036   6.028   1.729
 4691TIP3    H114034   7.056   5.953   1.669
 4691TIP3    H214035   7.009   6.098   1.667
 4692TIP3   OH214036   7.082   5.818   1.551
 4692TIP3    H114037   7.114   5.864   1.470
 4692TIP3    H214038   6.990   5.795   1.525
 4693TIP3   OH214039   6.955   6.155   1.960
 4693TIP3    H114040   6.890   6.086   1.983
 4693TIP3    H214041   6.987   6.121   1.873
 4694TIP3   OH214042   7.220   5.584   1.594
 4694TIP3    H114043   7.167   5.666   1.584
 4694TIP3    H214044   7.151   5.515   1.588
 4695TIP3   OH214045   7.316   6.024   1.753
 4695TIP3    H114046   7.354   6.051   1.838
 4695TIP3    H214047   7.224   6.006   1.779
 4696TIP3   OH214048   6.803   5.929   2.017
 4696TIP3    H114049   6.813   5.840   1.980
 4696TIP3    H214050   6.842   5.916   2.106
 4697TIP3   OH214051   7.315   5.588   1.850
 4697TIP3    H114052   7.384   5.520   1.845
 4697TIP3    H214053   7.277   5.582   1.760
 4698TIP3   OH214054   7.353   5.786   2.033
 4698TIP3    H114055   7.339   5.725   1.957
 4698TIP3    H214056   7.290   5.858   2.013
 4699TIP3   OH214057   6.158   6.920   0.956
 4699TIP3    H114058   6.138   6.826   0.958
 4699TIP3    H214059   6.127   6.948   1.043
 4700TIP3   OH214060   6.321   6.294   1.308
 4700TIP3    H114061   6.319   6.263   1.215
 4700TIP3    H214062   6.418   6.295   1.325
 4701TIP3   OH214063   6.538   5.979   1.982
 4701TIP3    H114064   6.635   5.974   1.987
 4701TIP3    H214065   6.514   5.893   2.023
 4702TIP3   OH214066   6.497   5.672   1.309
 4702TIP3    H114067   6.558   5.597   1.323
 4702TIP3    H214068   6.559   5.747   1.309
 4703TIP3   OH214069   6.301   5.944   1.387
 4703TIP3    H114070   6.352   5.946   1.303
 4703TIP3    H214071   6.326   6.028   1.426
 4704TIP3   OH214072   6.277   5.455   0.862
 4704TIP3    H114073   6.201   5.434   0.918
 4704TIP3    H214074   6.259   5.547   0.838
 4705TIP3   OH214075   6.505   5.529   1.702
 4705TIP3    H114076   6.456   5.524   1.785
 4705TIP3    H214077   6.437   5.567   1.642
 4706TIP3   OH214078   6.501   6.855   1.771
 4706TIP3    H114079   6.415   6.879   1.733
 4706TIP3    H214080   6.512   6.922   1.840
 4707TIP3   OH214081   6.592   5.373   1.054
 4707TIP3    H114082   6.502   5.334   1.065
 4707TIP3    H214083   6.645   5.290   1.053
 4708TIP3   OH214084   6.358   5.230   0.715
 4708TIP3    H114085   6.436   5.261   0.669
 4708TIP3    H214086   6.340   5.302   0.779
 4709TIP3   OH214087   7.024   5.414   0.946
 4709TIP3    H114088   7.080   5.473   0.894
 4709TIP3    H214089   7.060   5.429   1.035
 4710TIP3   OH214090   6.802   5.652   1.947
 4710TIP3    H114091   6.766   5.583   2.005
 4710TIP3    H214092   6.896   5.651   1.977
 4711TIP3   OH214093   7.049   5.649   2.070
 4711TIP3    H114094   7.139   5.634   2.037
 4711TIP3    H214095   7.041   5.576   2.135
 4712TIP3   OH214096   0.553   6.692   2.749
 4712TIP3    H114097   0.572   6.778   2.792
 4712TIP3    H214098   0.566   6.714   2.655
 4713TIP3   OH214099   0.631   6.901   2.924
 4713TIP3    H114100   0.606   6.989   2.888
 4713TIP3    H214101   0.623   6.920   3.018
 4714TIP3   OH214102   0.203   6.641   2.554
 4714TIP3    H114103   0.236   6.588   2.626
 4714TIP3    H214104   0.249   6.726   2.567
 4715TIP3   OH214105   0.339   6.613   2.903
 4715TIP3    H114106   0.266   6.671   2.876
 4715TIP3    H214107   0.409   6.637   2.839
 4716TIP3   OH214108   0.273   6.189   1.990
 4716TIP3    H114109   0.199   6.195   2.054
 4716TIP3    H214110   0.256   6.270   1.940
 4717TIP3   OH214111   0.417   7.103   3.256
 4717TIP3    H114112   0.377   7.070   3.173
 4717TIP3    H214113   0.452   7.022   3.293
 4718TIP3   OH214114   0.442   6.818   3.146
 4718TIP3    H114115   0.346   6.816   3.146
 4718TIP3    H214116   0.462   6.792   3.055
 4719TIP3   OH214117   0.329   6.880   2.647
 4719TIP3    H114118   0.376   6.930   2.578
 4719TIP3    H214119   0.272   6.949   2.682
 4720TIP3   OH214120   0.827   6.632   3.430
 4720TIP3    H114121   0.887   6.564   3.390
 4720TIP3    H214122   0.796   6.680   3.352
 4721TIP3   OH214123   0.268   6.450   2.169
 4721TIP3    H114124   0.300   6.465   2.259
 4721TIP3    H214125   0.201   6.381   2.185
 4722TIP3   OH214126   0.698   6.765   3.233
 4722TIP3    H114127   0.610   6.798   3.260
 4722TIP3    H214128   0.669   6.691   3.175
 4723TIP3   OH214129   0.599   6.533   3.114
 4723TIP3    H114130   0.506   6.520   3.086
 4723TIP3    H214131   0.631   6.440   3.105
 4724TIP3   OH214132   0.317   6.342   2.641
 4724TIP3    H114133   0.368   6.386   2.570
 4724TIP3    H214134   0.228   6.344   2.602
 4725TIP3   OH214135   0.422   6.436   2.408
 4725TIP3    H114136   0.492   6.383   2.364
 4725TIP3    H214137   0.452   6.527   2.389
 4726TIP3   OH214138   0.071   6.252   2.170
 4726TIP3    H114139  -0.022   6.270   2.154
 4726TIP3    H214140   0.063   6.169   2.224
 4727TIP3   OH214141   0.316   6.497   3.537
 4727TIP3    H114142   0.329   6.476   3.631
 4727TIP3    H214143   0.406   6.492   3.503
 4728TIP3   OH214144   2.351   6.952   2.238
 4728TIP3    H114145   2.371   7.036   2.283
 4728TIP3    H214146   2.359   6.977   2.144
 4729TIP3   OH214147   1.764   7.149   2.262
 4729TIP3    H114148   1.803   7.069   2.300
 4729TIP3    H214149   1.729   7.112   2.178
 4730TIP3   OH214150   1.087   6.799   2.233
 4730TIP3    H114151   1.071   6.863   2.161
 4730TIP3    H214152   1.040   6.722   2.196
 4731TIP3   OH214153   1.775   6.882   1.870
 4731TIP3    H114154   1.860   6.880   1.921
 4731TIP3    H214155   1.804   6.918   1.785
 4732TIP3   OH214156   0.684   6.980   2.344
 4732TIP3    H114157   0.752   7.013   2.403
 4732TIP3    H214158   0.733   6.936   2.274
 4733TIP3   OH214159   2.428   7.160   2.411
 4733TIP3    H114160   2.396   7.246   2.374
 4733TIP3    H214161   2.435   7.186   2.504
 4734TIP3   OH214162   1.081   6.790   2.676
 4734TIP3    H114163   1.025   6.826   2.604
 4734TIP3    H214164   1.024   6.809   2.754
 4735TIP3   OH214165   1.994   6.903   2.028
 4735TIP3    H114166   1.975   6.862   2.113
 4735TIP3    H214167   2.050   6.979   2.056
 4736TIP3   OH214168   0.953   6.896   2.461
 4736TIP3    H114169   0.961   6.993   2.462
 4736TIP3    H214170   1.009   6.872   2.385
 4737TIP3   OH214171   2.136   6.858   2.392
 4737TIP3    H114172   2.052   6.897   2.365
 4737TIP3    H214173   2.199   6.896   2.328
 4738TIP3   OH214174   1.434   6.510   2.380
 4738TIP3    H114175   1.420   6.416   2.399
 4738TIP3    H214176   1.358   6.550   2.427
 4739TIP3   OH214177   2.067   6.454   1.482
 4739TIP3    H114178   1.986   6.477   1.532
 4739TIP3    H214179   2.084   6.538   1.434
 4740TIP3   OH214180   2.239   7.361   2.741
 4740TIP3    H114181   2.158   7.337   2.695
 4740TIP3    H214182   2.271   7.272   2.764
 4741TIP3   OH214183   1.198   6.587   2.510
 4741TIP3    H114184   1.109   6.557   2.482
 4741TIP3    H214185   1.174   6.669   2.556
 4742TIP3   OH214186   1.733   6.703   2.704
 4742TIP3    H114187   1.802   6.675   2.767
 4742TIP3    H214188   1.650   6.681   2.751
 4743TIP3   OH214189   1.965   7.107   2.625
 4743TIP3    H114190   1.922   7.107   2.713
 4743TIP3    H214191   1.945   7.197   2.594
 4744TIP3   OH214192   1.341   6.635   1.478
 4744TIP3    H114193   1.310   6.630   1.570
 4744TIP3    H214194   1.304   6.551   1.444
 4745TIP3   OH214195   0.987   6.928   2.010
 4745TIP3    H114196   0.896   6.892   2.009
 4745TIP3    H214197   1.017   6.903   1.920
 4746TIP3   OH214198   1.640   7.049   2.040
 4746TIP3    H114199   1.638   7.108   1.963
 4746TIP3    H214200   1.677   6.968   1.998
 4747TIP3   OH214201   0.945   7.144   2.783
 4747TIP3    H114202   1.001   7.164   2.858
 4747TIP3    H214203   0.931   7.048   2.794
 4748TIP3   OH214204   0.998   6.558   1.473
 4748TIP3    H114205   0.987   6.559   1.570
 4748TIP3    H214206   0.908   6.538   1.442
 4749TIP3   OH214207   0.547   6.657   2.308
 4749TIP3    H114208   0.616   6.687   2.371
 4749TIP3    H214209   0.595   6.605   2.242
 4750TIP3   OH214210   1.346   6.784   2.112
 4750TIP3    H114211   1.268   6.787   2.171
 4750TIP3    H214212   1.418   6.803   2.174
 4751TIP3   OH214213   0.741   6.833   2.100
 4751TIP3    H114214   0.657   6.793   2.123
 4751TIP3    H214215   0.801   6.755   2.098
 4752TIP3   OH214216   1.061   6.854   1.757
 4752TIP3    H114217   1.159   6.860   1.765
 4752TIP3    H214218   1.039   6.944   1.724
 4753TIP3   OH214219   1.832   6.881   2.309
 4753TIP3    H114220   1.797   6.894   2.400
 4753TIP3    H214221   1.763   6.824   2.271
 4754TIP3   OH214222   1.446   7.115   2.222
 4754TIP3    H114223   1.526   7.088   2.173
 4754TIP3    H214224   1.476   7.115   2.314
 4755TIP3   OH214225   0.936   6.626   2.080
 4755TIP3    H114226   0.906   6.545   2.126
 4755TIP3    H214227   0.984   6.589   2.004
 4756TIP3   OH214228   1.396   7.026   2.517
 4756TIP3    H114229   1.358   7.107   2.477
 4756TIP3    H214230   1.478   7.063   2.553
 4757TIP3   OH214231   1.590   6.735   1.449
 4757TIP3    H114232   1.496   6.709   1.458
 4757TIP3    H214233   1.585   6.832   1.450
 4758TIP3   OH214234   1.698   6.960   1.605
 4758TIP3    H114235   1.793   6.967   1.586
 4758TIP3    H214236   1.658   7.023   1.544
 4759TIP3   OH214237   2.078   7.035   1.397
 4759TIP3    H114238   2.023   7.011   1.319
 4759TIP3    H214239   2.108   7.124   1.373
 4760TIP3   OH214240   0.918   6.867   2.893
 4760TIP3    H114241   0.820   6.860   2.895
 4760TIP3    H214242   0.943   6.796   2.954
 4761TIP3   OH214243   1.749   6.943   2.569
 4761TIP3    H114244   1.837   6.978   2.593
 4761TIP3    H214245   1.745   6.859   2.620
 4762TIP3   OH214246   1.640   6.684   1.726
 4762TIP3    H114247   1.627   6.714   1.634
 4762TIP3    H214248   1.674   6.766   1.767
 4763TIP3   OH214249   1.331   6.852   1.836
 4763TIP3    H114250   1.364   6.940   1.810
 4763TIP3    H214251   1.334   6.858   1.934
 4764TIP3   OH214252   1.598   7.172   2.676
 4764TIP3    H114253   1.612   7.172   2.772
 4764TIP3    H214254   1.655   7.099   2.647
 4765TIP3   OH214255   1.472   6.591   1.935
 4765TIP3    H114256   1.452   6.669   1.990
 4765TIP3    H214257   1.532   6.630   1.867
 4766TIP3   OH214258   0.992   6.586   1.746
 4766TIP3    H114259   0.997   6.684   1.751
 4766TIP3    H214260   1.088   6.566   1.749
 4767TIP3   OH214261   2.238   7.064   2.640
 4767TIP3    H114262   2.141   7.072   2.639
 4767TIP3    H214263   2.255   7.066   2.545
 4768TIP3   OH214264   0.934   6.506   2.484
 4768TIP3    H114265   0.902   6.471   2.398
 4768TIP3    H214266   0.923   6.428   2.543
 4769TIP3   OH214267   1.332   7.049   2.923
 4769TIP3    H114268   1.342   6.968   2.869
 4769TIP3    H214269   1.302   7.112   2.857
 4770TIP3   OH214270   1.338   6.858   2.725
 4770TIP3    H114271   1.360   6.909   2.644
 4770TIP3    H214272   1.244   6.834   2.707
 4771TIP3   OH214273   1.977   7.370   2.879
 4771TIP3    H114274   1.940   7.284   2.904
 4771TIP3    H214275   2.053   7.377   2.938
 4772TIP3   OH214276   1.205   7.194   3.126
 4772TIP3    H114277   1.141   7.124   3.147
 4772TIP3    H214278   1.252   7.155   3.050
 4773TIP3   OH214279   1.473   6.625   2.782
 4773TIP3    H114280   1.423   6.707   2.760
 4773TIP3    H214281   1.404   6.557   2.770
 4774TIP3   OH214282   1.598   7.120   2.989
 4774TIP3    H114283   1.605   7.113   3.085
 4774TIP3    H214284   1.506   7.087   2.976
 4775TIP3   OH214285   1.838   7.094   2.859
 4775TIP3    H114286   1.758   7.091   2.916
 4775TIP3    H214287   1.906   7.050   2.914
 4776TIP3   OH214288   2.062   7.022   3.000
 4776TIP3    H114289   2.077   6.928   3.021
 4776TIP3    H214290   2.061   7.064   3.089
 4777TIP3   OH214291   1.062   6.961   3.183
 4777TIP3    H114292   1.055   6.875   3.135
 4777TIP3    H214293   1.139   6.942   3.240
 4778TIP3   OH214294   1.564   6.642   3.040
 4778TIP3    H114295   1.631   6.571   3.036
 4778TIP3    H214296   1.525   6.634   2.950
 4779TIP3   OH214297   1.629   6.858   3.198
 4779TIP3    H114298   1.610   6.785   3.134
 4779TIP3    H214299   1.549   6.914   3.190
 4780TIP3   OH214300   1.929   6.983   1.169
 4780TIP3    H114301   1.922   6.979   1.073
 4780TIP3    H214302   1.907   6.888   1.189
 4781TIP3   OH214303   1.887   6.717   1.176
 4781TIP3    H114304   1.956   6.681   1.235
 4781TIP3    H214305   1.808   6.662   1.196
 4782TIP3   OH214306   1.968   6.979   1.636
 4782TIP3    H114307   2.000   6.891   1.665
 4782TIP3    H214308   2.024   6.989   1.555
 4783TIP3   OH214309   2.120   7.129   2.123
 4783TIP3    H114310   2.167   7.192   2.066
 4783TIP3    H214311   2.063   7.190   2.172
 4784TIP3   OH214312   0.791   7.019   3.196
 4784TIP3    H114313   0.878   7.003   3.155
 4784TIP3    H214314   0.757   6.928   3.207
 4785TIP3   OH214315   2.622   6.888   2.919
 4785TIP3    H114316   2.682   6.824   2.876
 4785TIP3    H214317   2.591   6.941   2.843
 4786TIP3   OH214318   2.052   6.723   1.673
 4786TIP3    H114319   2.098   6.708   1.758
 4786TIP3    H214320   1.987   6.650   1.673
 4787TIP3   OH214321   0.744   6.708   2.493
 4787TIP3    H114322   0.812   6.638   2.503
 4787TIP3    H214323   0.802   6.787   2.484
 4788TIP3   OH214324   2.492   7.022   2.724
 4788TIP3    H114325   2.401   7.056   2.736
 4788TIP3    H214326   2.471   6.947   2.665
 4789TIP3   OH214327   2.130   6.663   1.308
 4789TIP3    H114328   2.172   6.594   1.253
 4789TIP3    H214329   2.195   6.736   1.302
 4790TIP3   OH214330   0.527   6.506   2.051
 4790TIP3    H114331   0.442   6.483   2.094
 4790TIP3    H214332   0.498   6.565   1.981
 4791TIP3   OH214333   0.763   6.582   2.887
 4791TIP3    H114334   0.707   6.568   2.965
 4791TIP3    H214335   0.695   6.609   2.822
 4792TIP3   OH214336   2.396   6.790   2.603
 4792TIP3    H114337   2.305   6.793   2.569
 4792TIP3    H214338   2.420   6.696   2.588
 4793TIP3   OH214339   1.604   6.709   2.229
 4793TIP3    H114340   1.554   6.637   2.274
 4793TIP3    H214341   1.671   6.660   2.178
 4794TIP3   OH214342   2.118   6.579   2.119
 4794TIP3    H114343   2.155   6.638   2.051
 4794TIP3    H214344   2.024   6.606   2.120
 4795TIP3   OH214345   2.216   6.691   1.889
 4795TIP3    H114346   2.291   6.641   1.850
 4795TIP3    H214347   2.246   6.783   1.874
 4796TIP3   OH214348   0.842   6.416   2.235
 4796TIP3    H114349   0.751   6.379   2.239
 4796TIP3    H214350   0.893   6.332   2.231
 4797TIP3   OH214351   0.640   6.280   1.893
 4797TIP3    H114352   0.667   6.331   1.814
 4797TIP3    H214353   0.605   6.350   1.951
 4798TIP3   OH214354   1.287   6.449   2.119
 4798TIP3    H114355   1.343   6.499   2.057
 4798TIP3    H214356   1.313   6.486   2.204
 4799TIP3   OH214357   1.835   6.594   2.101
 4799TIP3    H114358   1.828   6.558   2.011
 4799TIP3    H214359   1.821   6.514   2.156
 4800TIP3   OH214360   1.863   6.516   1.663
 4800TIP3    H114361   1.778   6.563   1.677
 4800TIP3    H214362   1.846   6.432   1.710
 4801TIP3   OH214363   0.755   6.437   1.686
 4801TIP3    H114364   0.780   6.380   1.611
 4801TIP3    H214365   0.841   6.473   1.716
 4802TIP3   OH214366   1.267   6.606   1.745
 4802TIP3    H114367   1.325   6.557   1.805
 4802TIP3    H214368   1.289   6.697   1.772
 4803TIP3   OH214369   1.049   6.690   3.128
 4803TIP3    H114370   1.013   6.617   3.181
 4803TIP3    H214371   1.143   6.689   3.156
 4804TIP3   OH214372   1.298   6.700   3.250
 4804TIP3    H114373   1.383   6.677   3.209
 4804TIP3    H214374   1.289   6.628   3.317
 4805TIP3   OH214375   2.127   6.754   3.034
 4805TIP3    H114376   2.145   6.723   3.125
 4805TIP3    H214377   2.216   6.750   2.993
 4806TIP3   OH214378   4.149   7.209   1.723
 4806TIP3    H114379   4.169   7.293   1.770
 4806TIP3    H214380   4.154   7.235   1.630
 4807TIP3   OH214381   3.562   7.409   1.747
 4807TIP3    H114382   3.601   7.330   1.788
 4807TIP3    H214383   3.527   7.369   1.664
 4808TIP3   OH214384   2.884   7.056   1.720
 4808TIP3    H114385   2.867   7.116   1.645
 4808TIP3    H214386   2.835   6.978   1.686
 4809TIP3   OH214387   3.574   7.144   1.352
 4809TIP3    H114388   3.654   7.137   1.410
 4809TIP3    H214389   3.614   7.171   1.268
 4810TIP3   OH214390   2.480   7.243   1.823
 4810TIP3    H114391   2.547   7.262   1.890
 4810TIP3    H214392   2.526   7.187   1.760
 4811TIP3   OH214393   4.226   7.417   1.896
 4811TIP3    H114394   4.192   7.502   1.861
 4811TIP3    H214395   4.223   7.436   1.991
 4812TIP3   OH214396   2.878   7.045   2.159
 4812TIP3    H114397   2.820   7.081   2.089
 4812TIP3    H214398   2.822   7.062   2.238
 4813TIP3   OH214399   3.788   7.161   1.514
 4813TIP3    H114400   3.776   7.113   1.597
 4813TIP3    H214401   3.845   7.236   1.543
 4814TIP3   OH214402   2.746   7.154   1.947
 4814TIP3    H114403   2.758   7.250   1.951
 4814TIP3    H214404   2.804   7.129   1.872
 4815TIP3   OH214405   3.933   7.119   1.880
 4815TIP3    H114406   3.847   7.155   1.852
 4815TIP3    H214407   3.994   7.155   1.813
 4816TIP3   OH214408   3.228   6.769   1.860
 4816TIP3    H114409   3.224   6.674   1.884
 4816TIP3    H214410   3.153   6.804   1.913
 4817TIP3   OH214411   3.865   6.712   0.970
 4817TIP3    H114412   3.783   6.733   1.020
 4817TIP3    H214413   3.879   6.795   0.920
 4818TIP3   OH214414   4.038   7.623   2.223
 4818TIP3    H114415   3.950   7.597   2.192
 4818TIP3    H214416   4.069   7.536   2.254
 4819TIP3   OH214417   2.994   6.844   1.997
 4819TIP3    H114418   2.905   6.814   1.970
 4819TIP3    H214419   2.969   6.925   2.046
 4820TIP3   OH214420   3.528   6.963   2.191
 4820TIP3    H114421   3.598   6.931   2.252
 4820TIP3    H214422   3.446   6.937   2.238
 4821TIP3   OH214423   3.761   7.365   2.111
 4821TIP3    H114424   3.721   7.361   2.201
 4821TIP3    H214425   3.738   7.456   2.084
 4822TIP3   OH214426   3.134   6.897   0.968
 4822TIP3    H114427   3.106   6.888   1.061
 4822TIP3    H214428   3.100   6.813   0.933
 4823TIP3   OH214429   2.786   7.183   1.498
 4823TIP3    H114430   2.694   7.152   1.502
 4823TIP3    H214431   2.812   7.155   1.408
 4824TIP3   OH214432   3.437   7.306   1.526
 4824TIP3    H114433   3.434   7.361   1.447
 4824TIP3    H214434   3.475   7.224   1.488
 4825TIP3   OH214435   2.749   7.398   2.268
 4825TIP3    H114436   2.788   7.411   2.355
 4825TIP3    H214437   2.729   7.303   2.271
 4826TIP3   OH214438   2.793   6.872   0.932
 4826TIP3    H114439   2.789   6.865   1.030
 4826TIP3    H214440   2.713   6.924   0.914
 4827TIP3   OH214441   2.340   6.914   1.793
 4827TIP3    H114442   2.409   6.944   1.856
 4827TIP3    H214443   2.388   6.863   1.727
 4828TIP3   OH214444   2.311   6.888   1.318
 4828TIP3    H114445   2.366   6.925   1.247
 4828TIP3    H214446   2.259   6.968   1.343
 4829TIP3   OH214447   3.141   7.051   1.596
 4829TIP3    H114448   3.065   7.046   1.657
 4829TIP3    H214449   3.216   7.053   1.658
 4830TIP3   OH214450   2.542   7.091   1.588
 4830TIP3    H114451   2.452   7.054   1.595
 4830TIP3    H214452   2.597   7.010   1.585
 4831TIP3   OH214453   2.855   7.106   1.244
 4831TIP3    H114454   2.952   7.113   1.257
 4831TIP3    H214455   2.831   7.199   1.223
 4832TIP3   OH214456   3.628   7.141   1.797
 4832TIP3    H114457   3.592   7.152   1.887
 4832TIP3    H214458   3.563   7.080   1.759
 4833TIP3   OH214459   3.242   7.378   1.705
 4833TIP3    H114460   3.322   7.345   1.659
 4833TIP3    H214461   3.265   7.366   1.798
 4834TIP3   OH214462   2.733   6.882   1.566
 4834TIP3    H114463   2.702   6.802   1.614
 4834TIP3    H214464   2.792   6.842   1.500
 4835TIP3   OH214465   3.192   7.285   1.999
 4835TIP3    H114466   3.152   7.366   1.962
 4835TIP3    H214467   3.274   7.320   2.035
 4836TIP3   OH214468   3.388   6.989   0.930
 4836TIP3    H114469   3.293   6.967   0.943
 4836TIP3    H214470   3.389   7.086   0.938
 4837TIP3   OH214471   3.490   7.217   1.083
 4837TIP3    H114472   3.587   7.219   1.074
 4837TIP3    H214473   3.461   7.280   1.017
 4838TIP3   OH214474   3.869   7.288   0.882
 4838TIP3    H114475   3.816   7.264   0.803
 4838TIP3    H214476   3.898   7.378   0.858
 4839TIP3   OH214477   2.716   7.126   2.369
 4839TIP3    H114478   2.619   7.125   2.384
 4839TIP3    H214479   2.748   7.073   2.444
 4840TIP3   OH214480   3.542   7.203   2.055
 4840TIP3    H114481   3.630   7.237   2.081
 4840TIP3    H214482   3.537   7.119   2.107
 4841TIP3   OH214483   3.430   6.946   1.215
 4841TIP3    H114484   3.424   6.971   1.121
 4841TIP3    H214485   3.470   7.027   1.254
 4842TIP3   OH214486   3.119   7.111   1.325
 4842TIP3    H114487   3.185   7.178   1.305
 4842TIP3    H214488   3.124   7.108   1.423
 4843TIP3   OH214489   3.394   7.439   2.163
 4843TIP3    H114490   3.409   7.434   2.259
 4843TIP3    H214491   3.451   7.367   2.130
 4844TIP3   OH214492   3.266   6.848   1.420
 4844TIP3    H114493   3.260   6.922   1.482
 4844TIP3    H214494   3.328   6.885   1.352
 4845TIP3   OH214495   2.781   6.844   1.206
 4845TIP3    H114496   2.792   6.939   1.227
 4845TIP3    H214497   2.874   6.815   1.218
 4846TIP3   OH214498   4.036   7.322   2.125
 4846TIP3    H114499   3.938   7.330   2.129
 4846TIP3    H214500   4.046   7.312   2.029
 4847TIP3   OH214501   2.347   7.016   1.066
 4847TIP3    H114502   2.351   7.111   1.044
 4847TIP3    H214503   2.252   7.002   1.074
 4848TIP3   OH214504   2.730   6.763   1.971
 4848TIP3    H114505   2.699   6.728   1.885
 4848TIP3    H214506   2.721   6.685   2.030
 4849TIP3   OH214507   3.132   7.303   2.410
 4849TIP3    H114508   3.145   7.220   2.359
 4849TIP3    H214509   3.082   7.356   2.347
 4850TIP3   OH214510   3.134   7.115   2.211
 4850TIP3    H114511   3.156   7.165   2.129
 4850TIP3    H214512   3.040   7.091   2.193
 4851TIP3   OH214513   3.780   7.618   2.362
 4851TIP3    H114514   3.737   7.536   2.389
 4851TIP3    H214515   3.835   7.636   2.440
 4852TIP3   OH214516   2.998   7.451   2.608
 4852TIP3    H114517   2.935   7.384   2.641
 4852TIP3    H214518   3.045   7.400   2.539
 4853TIP3   OH214519   3.269   6.883   2.270
 4853TIP3    H114520   3.217   6.964   2.248
 4853TIP3    H214521   3.203   6.813   2.257
 4854TIP3   OH214522   3.393   7.382   2.476
 4854TIP3    H114523   3.399   7.371   2.572
 4854TIP3    H214524   3.302   7.349   2.460
 4855TIP3   OH214525   3.634   7.349   2.346
 4855TIP3    H114526   3.555   7.348   2.404
 4855TIP3    H214527   3.702   7.304   2.400
 4856TIP3   OH214528   3.864   7.277   2.479
 4856TIP3    H114529   3.875   7.182   2.504
 4856TIP3    H214530   3.856   7.321   2.567
 4857TIP3   OH214531   2.849   7.222   2.667
 4857TIP3    H114532   2.856   7.127   2.644
 4857TIP3    H214533   2.880   7.221   2.760
 4858TIP3   OH214534   3.360   6.898   2.527
 4858TIP3    H114535   3.428   6.827   2.522
 4858TIP3    H214536   3.322   6.891   2.438
 4859TIP3   OH214537   3.425   7.114   2.685
 4859TIP3    H114538   3.405   7.042   2.622
 4859TIP3    H214539   3.346   7.171   2.678
 4860TIP3   OH214540   3.718   7.237   0.644
 4860TIP3    H114541   3.701   7.211   0.551
 4860TIP3    H214542   3.699   7.149   0.684
 4861TIP3   OH214543   3.667   6.980   0.701
 4861TIP3    H114544   3.751   6.941   0.731
 4861TIP3    H214545   3.603   6.907   0.708
 4862TIP3   OH214546   3.760   7.233   1.123
 4862TIP3    H114547   3.794   7.146   1.153
 4862TIP3    H214548   3.815   7.243   1.043
 4863TIP3   OH214549   3.918   7.386   1.609
 4863TIP3    H114550   3.963   7.450   1.553
 4863TIP3    H214551   3.862   7.444   1.662
 4864TIP3   OH214552   2.579   7.271   2.649
 4864TIP3    H114553   2.677   7.265   2.652
 4864TIP3    H214554   2.556   7.185   2.689
 4865TIP3   OH214555   4.421   7.147   2.405
 4865TIP3    H114556   4.479   7.081   2.361
 4865TIP3    H214557   4.388   7.199   2.329
 4866TIP3   OH214558   3.846   6.980   1.162
 4866TIP3    H114559   3.893   6.963   1.246
 4866TIP3    H214560   3.783   6.904   1.161
 4867TIP3   OH214561   2.540   6.966   1.974
 4867TIP3    H114562   2.606   6.894   1.988
 4867TIP3    H214563   2.600   7.043   1.970
 4868TIP3   OH214564   4.289   7.279   2.210
 4868TIP3    H114565   4.199   7.314   2.224
 4868TIP3    H214566   4.265   7.204   2.151
 4869TIP3   OH214567   3.927   6.919   0.793
 4869TIP3    H114568   3.967   6.845   0.742
 4869TIP3    H214569   3.994   6.989   0.783
 4870TIP3   OH214570   2.330   6.749   1.550
 4870TIP3    H114571   2.238   6.746   1.581
 4870TIP3    H214572   2.322   6.806   1.471
 4871TIP3   OH214573   2.555   6.826   2.369
 4871TIP3    H114574   2.503   6.824   2.451
 4871TIP3    H214575   2.489   6.863   2.307
 4872TIP3   OH214576   4.192   7.047   2.088
 4872TIP3    H114577   4.100   7.047   2.057
 4872TIP3    H214578   4.216   6.952   2.075
 4873TIP3   OH214579   3.393   6.961   1.706
 4873TIP3    H114580   3.349   6.891   1.758
 4873TIP3    H214581   3.468   6.913   1.665
 4874TIP3   OH214582   3.915   6.841   1.608
 4874TIP3    H114583   3.949   6.896   1.535
 4874TIP3    H214584   3.819   6.859   1.606
 4875TIP3   OH214585   4.012   6.950   1.376
 4875TIP3    H114586   4.085   6.897   1.338
 4875TIP3    H214587   4.043   7.041   1.360
 4876TIP3   OH214588   2.640   6.673   1.720
 4876TIP3    H114589   2.549   6.638   1.725
 4876TIP3    H214590   2.691   6.589   1.718
 4877TIP3   OH214591   2.425   6.542   1.370
 4877TIP3    H114592   2.456   6.599   1.297
 4877TIP3    H214593   2.399   6.607   1.437
 4878TIP3   OH214594   3.079   6.709   1.607
 4878TIP3    H114595   3.140   6.753   1.545
 4878TIP3    H214596   3.114   6.740   1.692
 4879TIP3   OH214597   3.630   6.848   1.590
 4879TIP3    H114598   3.633   6.803   1.504
 4879TIP3    H214599   3.620   6.770   1.650
 4880TIP3   OH214600   3.658   6.772   1.151
 4880TIP3    H114601   3.571   6.813   1.164
 4880TIP3    H214602   3.647   6.688   1.200
 4881TIP3   OH214603   2.545   6.698   1.136
 4881TIP3    H114604   2.592   6.637   1.076
 4881TIP3    H214605   2.619   6.751   1.171
 4882TIP3   OH214606   3.060   6.863   1.232
 4882TIP3    H114607   3.119   6.816   1.292
 4882TIP3    H214608   3.079   6.955   1.260
 4883TIP3   OH214609   2.849   6.948   2.613
 4883TIP3    H114610   2.812   6.878   2.671
 4883TIP3    H214611   2.943   6.948   2.641
 4884TIP3   OH214612   3.098   6.950   2.733
 4884TIP3    H114613   3.183   6.925   2.693
 4884TIP3    H214614   3.086   6.880   2.800
 4885TIP3   OH214615   3.923   7.009   2.521
 4885TIP3    H114616   3.942   6.979   2.613
 4885TIP3    H214617   4.013   7.005   2.481
 4886TIP3   OH214618   5.336   7.659   1.222
 4886TIP3    H114619   5.382   7.585   1.264
 4886TIP3    H214620   5.336   7.633   1.129
 4887TIP3   OH214621   4.685   7.311   1.207
 4887TIP3    H114622   4.660   7.375   1.138
 4887TIP3    H214623   4.636   7.233   1.172
 4888TIP3   OH214624   4.277   7.504   1.310
 4888TIP3    H114625   4.343   7.517   1.379
 4888TIP3    H214626   4.319   7.442   1.249
 4889TIP3   OH214627   4.675   7.302   1.646
 4889TIP3    H114628   4.616   7.338   1.576
 4889TIP3    H214629   4.619   7.317   1.725
 4890TIP3   OH214630   5.596   7.385   1.012
 4890TIP3    H114631   5.550   7.384   1.097
 4890TIP3    H214632   5.651   7.464   1.017
 4891TIP3   OH214633   4.542   7.410   1.433
 4891TIP3    H114634   4.554   7.507   1.438
 4891TIP3    H214635   4.603   7.386   1.360
 4892TIP3   OH214636   5.723   7.369   1.395
 4892TIP3    H114637   5.650   7.431   1.383
 4892TIP3    H214638   5.767   7.369   1.307
 4893TIP3   OH214639   5.027   7.026   1.353
 4893TIP3    H114640   5.014   6.931   1.372
 4893TIP3    H214641   4.951   7.064   1.402
 4894TIP3   OH214642   4.791   7.102   1.482
 4894TIP3    H114643   4.702   7.070   1.456
 4894TIP3    H214644   4.765   7.182   1.532
 4895TIP3   OH214645   5.325   7.219   1.679
 4895TIP3    H114646   5.393   7.188   1.742
 4895TIP3    H214647   5.241   7.196   1.724
 4896TIP3   OH214648   5.559   7.621   1.582
 4896TIP3    H114649   5.529   7.624   1.674
 4896TIP3    H214650   5.548   7.715   1.556
 4897TIP3   OH214651   4.579   7.436   0.990
 4897TIP3    H114652   4.485   7.408   0.996
 4897TIP3    H214653   4.606   7.390   0.909
 4898TIP3   OH214654   5.265   7.598   0.960
 4898TIP3    H114655   5.190   7.578   0.903
 4898TIP3    H214656   5.322   7.521   0.947
 4899TIP3   OH214657   4.549   7.653   1.753
 4899TIP3    H114658   4.578   7.668   1.843
 4899TIP3    H214659   4.526   7.559   1.757
 4900TIP3   OH214660   4.135   7.176   1.280
 4900TIP3    H114661   4.208   7.198   1.342
 4900TIP3    H214662   4.176   7.119   1.213
 4901TIP3   OH214663   4.096   7.146   0.809
 4901TIP3    H114664   4.155   7.210   0.767
 4901TIP3    H214665   4.024   7.206   0.838
 4902TIP3   OH214666   4.938   7.298   1.081
 4902TIP3    H114667   4.857   7.298   1.136
 4902TIP3    H214668   5.006   7.313   1.148
 4903TIP3   OH214669   4.335   7.345   1.075
 4903TIP3    H114670   4.246   7.309   1.087
 4903TIP3    H214671   4.389   7.264   1.073
 4904TIP3   OH214672   4.659   7.377   0.738
 4904TIP3    H114673   4.755   7.381   0.753
 4904TIP3    H214674   4.633   7.472   0.744
 4905TIP3   OH214675   5.419   7.398   1.272
 4905TIP3    H114676   5.393   7.411   1.366
 4905TIP3    H214677   5.353   7.333   1.245
 4906TIP3   OH214678   5.052   7.621   1.183
 4906TIP3    H114679   5.146   7.611   1.166
 4906TIP3    H214680   5.053   7.638   1.278
 4907TIP3   OH214681   4.532   7.138   1.052
 4907TIP3    H114682   4.499   7.060   1.101
 4907TIP3    H214683   4.572   7.097   0.973
 4908TIP3   OH214684   4.988   7.540   1.487
 4908TIP3    H114685   4.949   7.621   1.448
 4908TIP3    H214686   5.069   7.577   1.526
 4909TIP3   OH214687   4.511   7.382   1.856
 4909TIP3    H114688   4.414   7.383   1.870
 4909TIP3    H214689   4.541   7.328   1.931
 4910TIP3   OH214690   5.346   7.456   1.534
 4910TIP3    H114691   5.430   7.498   1.561
 4910TIP3    H214692   5.342   7.376   1.591
 4911TIP3   OH214693   4.933   7.369   0.804
 4911TIP3    H114694   4.931   7.465   0.785
 4911TIP3    H214695   4.935   7.366   0.902
 4912TIP3   OH214696   5.186   7.689   1.643
 4912TIP3    H114697   5.204   7.692   1.738
 4912TIP3    H214698   5.249   7.622   1.613
 4913TIP3   OH214699   5.065   7.110   0.916
 4913TIP3    H114700   5.036   7.177   0.982
 4913TIP3    H214701   5.121   7.165   0.860
 4914TIP3   OH214702   4.573   7.106   0.723
 4914TIP3    H114703   4.590   7.202   0.722
 4914TIP3    H214704   4.663   7.074   0.707
 4915TIP3   OH214705   4.528   7.020   1.456
 4915TIP3    H114706   4.495   6.985   1.372
 4915TIP3    H214707   4.517   6.942   1.516
 4916TIP3   OH214708   4.932   7.561   1.894
 4916TIP3    H114709   4.942   7.477   1.844
 4916TIP3    H214710   4.877   7.612   1.834
 4917TIP3   OH214711   4.931   7.371   1.697
 4917TIP3    H114712   4.952   7.421   1.616
 4917TIP3    H214713   4.837   7.347   1.680
 4918TIP3   OH214714   5.589   7.893   1.869
 4918TIP3    H114715   5.554   7.802   1.860
 4918TIP3    H214716   5.652   7.883   1.941
 4919TIP3   OH214717   4.798   7.707   2.096
 4919TIP3    H114718   4.733   7.642   2.129
 4919TIP3    H214719   4.842   7.656   2.025
 4920TIP3   OH214720   5.065   7.138   1.755
 4920TIP3    H114721   5.014   7.220   1.734
 4920TIP3    H214722   4.996   7.070   1.745
 4921TIP3   OH214723   5.191   7.636   1.965
 4921TIP3    H114724   5.184   7.623   2.061
 4921TIP3    H214725   5.101   7.607   1.940
 4922TIP3   OH214726   5.437   7.616   1.832
 4922TIP3    H114727   5.355   7.612   1.885
 4922TIP3    H214728   5.499   7.564   1.886
 4923TIP3   OH214729   5.669   7.542   1.980
 4923TIP3    H114730   5.677   7.446   1.994
 4923TIP3    H214731   5.663   7.576   2.072
 4924TIP3   OH214732   4.647   7.479   2.153
 4924TIP3    H114733   4.650   7.384   2.131
 4924TIP3    H214734   4.675   7.477   2.247
 4925TIP3   OH214735   5.159   7.157   2.012
 4925TIP3    H114736   5.224   7.084   2.008
 4925TIP3    H214737   5.118   7.148   1.924
 4926TIP3   OH214738   5.224   7.374   2.169
 4926TIP3    H114739   5.203   7.300   2.107
 4926TIP3    H214740   5.143   7.428   2.164
 4927TIP3   OH214741   4.377   7.531   2.139
 4927TIP3    H114742   4.474   7.522   2.139
 4927TIP3    H214743   4.351   7.444   2.176
 4928TIP3   OH214744   4.338   7.222   1.459
 4928TIP3    H114745   4.403   7.150   1.475
 4928TIP3    H214746   4.397   7.299   1.457
 4929TIP3   OH214747   4.128   7.014   1.044
 4929TIP3    H114748   4.035   7.001   1.069
 4929TIP3    H214749   4.119   7.062   0.959
 4930TIP3   OH214750   4.352   7.083   1.856
 4930TIP3    H114751   4.300   7.078   1.938
 4930TIP3    H214752   4.285   7.120   1.794
 4931TIP3   OH214753   5.974   7.303   1.579
 4931TIP3    H114754   5.890   7.311   1.531
 4931TIP3    H214755   6.005   7.215   1.553
 4932TIP3   OH214756   5.195   7.219   1.196
 4932TIP3    H114757   5.148   7.151   1.247
 4932TIP3    H214758   5.266   7.168   1.153
 4933TIP3   OH214759   5.710   7.093   1.076
 4933TIP3    H114760   5.732   7.187   1.065
 4933TIP3    H214761   5.613   7.100   1.085
 4934TIP3   OH214762   4.435   6.930   1.206
 4934TIP3    H114763   4.344   6.895   1.211
 4934TIP3    H214764   4.485   6.845   1.204
 4935TIP3   OH214765   4.230   6.799   0.865
 4935TIP3    H114766   4.259   6.859   0.792
 4935TIP3    H214767   4.197   6.863   0.930
 4936TIP3   OH214768   4.876   6.960   1.094
 4936TIP3    H114769   4.939   7.005   1.036
 4936TIP3    H214770   4.899   6.997   1.180
 4937TIP3   OH214771   5.425   7.101   1.073
 4937TIP3    H114772   5.430   7.058   0.987
 4937TIP3    H214773   5.409   7.023   1.132
 4938TIP3   OH214774   4.340   6.968   0.671
 4938TIP3    H114775   4.376   6.909   0.604
 4938TIP3    H214776   4.421   7.020   0.694
 4939TIP3   OH214777   4.850   7.113   0.734
 4939TIP3    H114778   4.913   7.071   0.795
 4939TIP3    H214779   4.877   7.206   0.743
 4940TIP3   OH214780   4.645   7.206   2.101
 4940TIP3    H114781   4.608   7.136   2.157
 4940TIP3    H214782   4.739   7.205   2.130
 4941TIP3   OH214783   4.895   7.207   2.221
 4941TIP3    H114784   4.980   7.178   2.183
 4941TIP3    H214785   4.880   7.137   2.289
 4942TIP3   OH214786   5.717   7.270   2.008
 4942TIP3    H114787   5.736   7.236   2.099
 4942TIP3    H214788   5.805   7.263   1.965
 4943TIP3   OH214789   1.647   0.363   5.543
 4943TIP3    H114790   1.601   0.442   5.509
 4943TIP3    H214791   1.578   0.321   5.599
 4944TIP3   OH214792   1.865   0.656   5.607
 4944TIP3    H114793   1.876   0.594   5.679
 4944TIP3    H214794   1.927   0.727   5.631
 4945TIP3   OH214795   1.529   1.123   5.629
 4945TIP3    H114796   1.575   1.052   5.579
 4945TIP3    H214797   1.514   1.080   5.714
 4946TIP3   OH214798   2.495   0.096   6.176
 4946TIP3    H114799   2.440   0.151   6.119
 4946TIP3    H214800   2.554   0.161   6.218
 4947TIP3   OH214801   1.500   0.565   5.424
 4947TIP3    H114802   1.500   0.570   5.327
 4947TIP3    H214803   1.470   0.655   5.445
 4948TIP3   OH214804   1.952   0.890   5.805
 4948TIP3    H114805   1.855   0.895   5.818
 4948TIP3    H214806   1.965   0.941   5.723
 4949TIP3   OH214807   1.647   0.947   5.451
 4949TIP3    H114808   1.695   0.863   5.431
 4949TIP3    H214809   1.711   1.011   5.412
 4950TIP3   OH214810   1.776   0.724   5.355
 4950TIP3    H114811   1.783   0.643   5.302
 4950TIP3    H214812   1.819   0.697   5.439
 4951TIP3   OH214813   2.174   0.811   6.120
 4951TIP3    H114814   2.167   0.737   6.056
 4951TIP3    H214815   2.155   0.888   6.063
 4952TIP3   OH214816   2.368   0.453   5.983
 4952TIP3    H114817   2.287   0.507   5.974
 4952TIP3    H214818   2.403   0.462   5.891
 4953TIP3   OH214819   1.833   0.309   5.354
 4953TIP3    H114820   1.779   0.334   5.433
 4953TIP3    H214821   1.917   0.279   5.397
 4954TIP3   OH214822   2.070   0.344   6.266
 4954TIP3    H114823   2.051   0.421   6.323
 4954TIP3    H214824   1.981   0.319   6.237
 4955TIP3   OH214825   1.689   0.898   5.891
 4955TIP3    H114826   1.688   0.977   5.949
 4955TIP3    H214827   1.683   0.824   5.954
 4956TIP3   OH214828   1.687   0.143   5.195
 4956TIP3    H114829   1.736   0.212   5.245
 4956TIP3    H214830   1.701   0.173   5.102
 4957TIP3   OH214831   1.398   0.822   5.448
 4957TIP3    H114832   1.477   0.877   5.463
 4957TIP3    H214833   1.331   0.888   5.426
 4958TIP3   OH214834   1.968   0.752   4.771
 4958TIP3    H114835   1.978   0.849   4.759
 4958TIP3    H214836   2.061   0.723   4.757
 4959TIP3   OH214837   2.411   1.158   6.169
 4959TIP3    H114838   2.409   1.061   6.178
 4959TIP3    H214839   2.326   1.181   6.213
 4960TIP3   OH214840   1.526   0.950   6.302
 4960TIP3    H114841   1.526   1.045   6.330
 4960TIP3    H214842   1.460   0.912   6.362
 4961TIP3   OH214843   1.279   1.073   5.252
 4961TIP3    H114844   1.229   1.066   5.169
 4961TIP3    H214845   1.250   1.159   5.287
 4962TIP3   OH214846   1.478   0.971   4.894
 4962TIP3    H114847   1.539   0.902   4.859
 4962TIP3    H214848   1.512   0.983   4.985
 4963TIP3   OH214849   1.530   1.019   5.162
 4963TIP3    H114850   1.442   1.032   5.205
 4963TIP3    H214851   1.581   0.982   5.236
 4964TIP3   OH214852   2.301   0.311   6.436
 4964TIP3    H114853   2.217   0.318   6.388
 4964TIP3    H214854   2.306   0.216   6.457
 4965TIP3   OH214855   1.733   0.201   4.928
 4965TIP3    H114856   1.700   0.158   4.848
 4965TIP3    H214857   1.815   0.242   4.895
 4966TIP3   OH214858   2.102   1.508   6.267
 4966TIP3    H114859   2.099   1.527   6.171
 4966TIP3    H214860   2.182   1.556   6.295
 4967TIP3   OH214861   2.143   0.606   5.937
 4967TIP3    H114862   2.138   0.647   5.850
 4967TIP3    H214863   2.061   0.552   5.936
 4968TIP3   OH214864   1.666   0.678   6.317
 4968TIP3    H114865   1.687   0.630   6.398
 4968TIP3    H214866   1.614   0.753   6.348
 4969TIP3   OH214867   1.778  -0.107   5.268
 4969TIP3    H114868   1.869  -0.090   5.298
 4969TIP3    H214869   1.749  -0.019   5.238
 4970TIP3   OH214870   1.384   0.515   5.150
 4970TIP3    H114871   1.341   0.604   5.151
 4970TIP3    H214872   1.319   0.464   5.200
 4971TIP3   OH214873   1.800   0.937   6.222
 4971TIP3    H114874   1.703   0.936   6.232
 4971TIP3    H214875   1.826   0.992   6.298
 4972TIP3   OH214876   2.193  -0.018   5.122
 4972TIP3    H114877   2.138  -0.020   5.041
 4972TIP3    H214878   2.236   0.069   5.114
 4973TIP3   OH214879   2.425   0.869   6.206
 4973TIP3    H114880   2.327   0.863   6.200
 4973TIP3    H214881   2.449   0.836   6.116
 4974TIP3   OH214882   1.898   0.830   5.034
 4974TIP3    H114883   1.887   0.765   5.104
 4974TIP3    H214884   1.916   0.776   4.956
 4975TIP3   OH214885   1.916   0.454   5.886
 4975TIP3    H114886   1.823   0.435   5.904
 4975TIP3    H214887   1.944   0.374   5.837
 4976TIP3   OH214888   1.328   0.991   6.086
 4976TIP3    H114889   1.342   1.072   6.035
 4976TIP3    H214890   1.397   0.997   6.154
 4977TIP3   OH214891   0.925   0.941   5.459
 4977TIP3    H114892   0.863   0.943   5.533
 4977TIP3    H214893   0.972   1.026   5.475
 4978TIP3   OH214894   1.714   0.657   6.052
 4978TIP3    H114895   1.708   0.677   6.148
 4978TIP3    H214896   1.808   0.640   6.041
 4979TIP3   OH214897   1.663   0.554   4.942
 4979TIP3    H114898   1.721   0.533   5.018
 4979TIP3    H214899   1.579   0.520   4.976
 4980TIP3   OH214900   1.932   1.200   6.110
 4980TIP3    H114901   1.854   1.143   6.098
 4980TIP3    H214902   1.921   1.263   6.036
 4981TIP3   OH214903   2.001   1.030   4.757
 4981TIP3    H114904   2.041   1.108   4.715
 4981TIP3    H214905   1.919   1.071   4.793
 4982TIP3   OH214906   1.825   0.499   5.158
 4982TIP3    H114907   1.819   0.430   5.228
 4982TIP3    H214908   1.921   0.493   5.139
 4983TIP3   OH214909   1.234   0.735   5.139
 4983TIP3    H114910   1.150   0.752   5.187
 4983TIP3    H214911   1.258   0.827   5.116
 4984TIP3   OH214912   0.994   0.832   5.226
 4984TIP3    H114913   0.972   0.902   5.161
 4984TIP3    H214914   0.981   0.880   5.311
 4985TIP3   OH214915   2.244  -0.002   6.295
 4985TIP3    H114916   2.170   0.031   6.242
 4985TIP3    H214917   2.320   0.029   6.244
 4986TIP3   OH214918   1.980   0.206   5.765
 4986TIP3    H114919   1.925   0.129   5.776
 4986TIP3    H214920   2.065   0.175   5.804
 4987TIP3   OH214921   1.956   1.183   5.706
 4987TIP3    H114922   1.913   1.224   5.629
 4987TIP3    H214923   2.049   1.187   5.677
 4988TIP3   OH214924   1.186   0.738   4.848
 4988TIP3    H114925   1.167   0.693   4.932
 4988TIP3    H214926   1.259   0.682   4.815
 4989TIP3   OH214927   1.845   1.078   6.458
 4989TIP3    H114928   1.834   1.006   6.525
 4989TIP3    H214929   1.926   1.123   6.487
 4990TIP3   OH214930   1.627   0.777   4.763
 4990TIP3    H114931   1.669   0.716   4.826
 4990TIP3    H214932   1.688   0.774   4.687
 4991TIP3   OH214933   1.322   0.483   4.887
 4991TIP3    H114934   1.344   0.496   4.981
 4991TIP3    H214935   1.345   0.387   4.882
 4992TIP3   OH214936   1.959   0.697   6.250
 4992TIP3    H114937   2.036   0.744   6.210
 4992TIP3    H214938   1.891   0.767   6.246
 4993TIP3   OH214939   1.871   0.665   6.690
 4993TIP3    H114940   1.958   0.665   6.645
 4993TIP3    H214941   1.895   0.613   6.770
 4994TIP3   OH214942   1.960   0.284   4.795
 4994TIP3    H114943   1.940   0.241   4.710
 4994TIP3    H214944   1.928   0.375   4.775
 4995TIP3   OH214945   2.090   0.560   6.444
 4995TIP3    H114946   2.029   0.610   6.385
 4995TIP3    H214947   2.177   0.581   6.402
 4996TIP3   OH214948   0.946   1.008   5.022
 4996TIP3    H114949   1.042   1.012   5.004
 4996TIP3    H214950   0.914   1.074   4.957
 4997TIP3   OH214951   2.204   1.304   5.652
 4997TIP3    H114952   2.241   1.294   5.740
 4997TIP3    H214953   2.281   1.290   5.595
 4998TIP3   OH214954   2.241   1.281   5.940
 4998TIP3    H114955   2.193   1.196   5.932
 4998TIP3    H214956   2.317   1.251   5.991
 4999TIP3   OH214957   2.286   0.958   6.514
 4999TIP3    H114958   2.212   0.964   6.576
 4999TIP3    H214959   2.325   1.048   6.519
 5000TIP3   OH214960   2.098   0.474   5.127
 5000TIP3    H114961   2.170   0.534   5.101
 5000TIP3    H214962   2.133   0.442   5.214
 5001TIP3   OH214963   2.206   0.364   5.351
 5001TIP3    H114964   2.150   0.314   5.413
 5001TIP3    H214965   2.278   0.396   5.410
 5002TIP3   OH214966   2.117   1.035   5.969
 5002TIP3    H114967   2.040   1.075   6.013
 5002TIP3    H214968   2.073   0.986   5.896
 5003TIP3   OH214969   2.166   0.249   4.972
 5003TIP3    H114970   2.091   0.257   4.910
 5003TIP3    H214971   2.144   0.318   5.037
 5004TIP3   OH214972   2.025  -0.064   4.905
 5004TIP3    H114973   1.980   0.000   4.851
 5004TIP3    H214974   1.953  -0.121   4.934
 5005TIP3   OH214975   2.041   0.195   5.491
 5005TIP3    H114976   2.046   0.101   5.466
 5005TIP3    H214977   2.032   0.192   5.588
 5006TIP3   OH214978   2.333   0.626   6.335
 5006TIP3    H114979   2.405   0.560   6.324
 5006TIP3    H214980   2.357   0.693   6.270
 5007TIP3   OH214981   2.524   0.436   6.352
 5007TIP3    H114982   2.444   0.389   6.387
 5007TIP3    H214983   2.592   0.368   6.372
 5008TIP3   OH214984   2.033  -0.065   5.373
 5008TIP3    H114985   2.050  -0.159   5.400
 5008TIP3    H214986   2.102  -0.054   5.305
 5009TIP3   OH214987   2.204   0.102   5.877
 5009TIP3    H114988   2.288   0.126   5.832
 5009TIP3    H214989   2.220   0.146   5.963
 5010TIP3   OH214990   2.263   0.236   6.103
 5010TIP3    H114991   2.195   0.279   6.160
 5010TIP3    H214992   2.304   0.314   6.061
 5011TIP3   OH214993   1.791   1.131   5.311
 5011TIP3    H114994   1.847   1.114   5.233
 5011TIP3    H214995   1.852   1.182   5.367
 5012TIP3   OH214996   1.517   1.211   6.386
 5012TIP3    H114997   1.560   1.213   6.473
 5012TIP3    H214998   1.581   1.263   6.332
 5013TIP3   OH214999   1.694   1.361   6.245
 5013TIP3    H115000   1.762   1.312   6.195
 5013TIP3    H215001   1.750   1.416   6.304
 5014TIP3   OH215002   1.043   1.206   6.067
 5014TIP3    H115003   1.007   1.177   6.154
 5014TIP3    H215004   0.967   1.243   6.019
 5015TIP3   OH215005   1.415   1.232   5.925
 5015TIP3    H115006   1.344   1.246   5.859
 5015TIP3    H215007   1.424   1.321   5.963
 5016TIP3   OH215008   1.680   1.168   5.985
 5016TIP3    H115009   1.587   1.183   5.961
 5016TIP3    H215010   1.725   1.235   5.931
 5017TIP3   OH215011   1.890   1.364   5.896
 5017TIP3    H115012   1.873   1.444   5.843
 5017TIP3    H215013   1.918   1.300   5.825
 5018TIP3   OH215014   1.154   1.031   5.852
 5018TIP3    H115015   1.100   0.953   5.833
 5018TIP3    H215016   1.144   1.039   5.948
 5019TIP3   OH215017   1.218   0.977   4.984
 5019TIP3    H115018   1.308   0.997   4.953
 5019TIP3    H215019   1.196   0.902   4.925
 5020TIP3   OH215020   1.941   1.095   5.079
 5020TIP3    H115021   1.932   0.997   5.071
 5020TIP3    H215022   1.891   1.124   5.000
 5021TIP3   OH215023   2.162   1.237   6.272
 5021TIP3    H115024   2.086   1.205   6.218
 5021TIP3    H215025   2.142   1.333   6.273
 5022TIP3   OH215026   3.432   0.612   5.033
 5022TIP3    H115027   3.403   0.703   5.013
 5022TIP3    H215028   3.354   0.562   5.004
 5023TIP3   OH215029   3.431   0.612   5.415
 5023TIP3    H115030   3.464   0.588   5.504
 5023TIP3    H215031   3.389   0.528   5.388
 5024TIP3   OH215032   2.732   0.520   5.774
 5024TIP3    H115033   2.758   0.449   5.836
 5024TIP3    H215034   2.816   0.565   5.761
 5025TIP3   OH215035   3.674   0.917   5.096
 5025TIP3    H115036   3.657   0.844   5.157
 5025TIP3    H215037   3.703   0.988   5.156
 5026TIP3   OH215038   2.710   0.925   5.506
 5026TIP3    H115039   2.689   0.830   5.509
 5026TIP3    H215040   2.807   0.921   5.499
 5027TIP3   OH215041   2.399   0.191   5.211
 5027TIP3    H115042   2.331   0.226   5.270
 5027TIP3    H215043   2.436   0.115   5.262
 5028TIP3   OH215044   2.460   0.407   5.466
 5028TIP3    H115045   2.512   0.331   5.499
 5028TIP3    H215046   2.499   0.420   5.379
 5029TIP3   OH215047   3.323   1.377   5.116
 5029TIP3    H115048   3.370   1.304   5.069
 5029TIP3    H215049   3.313   1.339   5.204
 5030TIP3   OH215050   3.229   0.837   5.464
 5030TIP3    H115051   3.267   0.758   5.421
 5030TIP3    H215052   3.313   0.881   5.488
 5031TIP3   OH215053   3.643   0.350   5.500
 5031TIP3    H115054   3.674   0.261   5.529
 5031TIP3    H215055   3.607   0.330   5.412
 5032TIP3   OH215056   2.973   0.037   5.487
 5032TIP3    H115057   2.974   0.117   5.431
 5032TIP3    H215058   2.934  -0.025   5.424
 5033TIP3   OH215059   3.692   0.133   5.095
 5033TIP3    H115060   3.763   0.073   5.120
 5033TIP3    H215061   3.703   0.137   4.999
 5034TIP3   OH215062   2.608   0.195   5.553
 5034TIP3    H115063   2.683   0.166   5.609
 5034TIP3    H215064   2.587   0.113   5.503
 5035TIP3   OH215065   3.052   0.402   5.361
 5035TIP3    H115066   3.146   0.379   5.375
 5035TIP3    H215067   3.015   0.318   5.327
 5036TIP3   OH215068   4.319   0.368   5.628
 5036TIP3    H115069   4.247   0.422   5.594
 5036TIP3    H215070   4.342   0.412   5.711
 5037TIP3   OH215071   3.327   0.835   4.901
 5037TIP3    H115072   3.279   0.810   4.821
 5037TIP3    H215073   3.280   0.917   4.925
 5038TIP3   OH215074   3.084   0.758   5.691
 5038TIP3    H115075   3.020   0.822   5.729
 5038TIP3    H215076   3.123   0.809   5.617
 5039TIP3   OH215077   2.840   0.119   5.701
 5039TIP3    H115078   2.900   0.183   5.743
 5039TIP3    H215079   2.892   0.096   5.621
 5040TIP3   OH215080   2.910   0.949   5.791
 5040TIP3    H115081   2.882   1.034   5.750
 5040TIP3    H215082   2.830   0.933   5.846
 5041TIP3   OH215083   2.306   0.640   5.024
 5041TIP3    H115084   2.263   0.677   4.945
 5041TIP3    H215085   2.341   0.720   5.068
 5042TIP3   OH215086   3.744   1.157   5.263
 5042TIP3    H115087   3.655   1.146   5.304
 5042TIP3    H215088   3.733   1.244   5.221
 5043TIP3   OH215089   3.446   1.203   4.944
 5043TIP3    H115090   3.496   1.120   4.924
 5043TIP3    H215091   3.503   1.268   4.897
 5044TIP3   OH215092   3.592   0.993   4.844
 5044TIP3    H115093   3.547   0.915   4.808
 5044TIP3    H215094   3.628   0.957   4.928
 5045TIP3   OH215095   3.970   1.068   5.608
 5045TIP3    H115096   3.958   0.990   5.550
 5045TIP3    H215097   3.953   1.142   5.546
 5046TIP3   OH215098   3.259   0.463   4.866
 5046TIP3    H115099   3.179   0.515   4.845
 5046TIP3    H215100   3.305   0.462   4.780
 5047TIP3   OH215101   3.219   0.244   4.589
 5047TIP3    H115102   3.283   0.302   4.635
 5047TIP3    H215103   3.280   0.193   4.532
 5048TIP3   OH215104   4.165   0.707   5.458
 5048TIP3    H115105   4.081   0.758   5.460
 5048TIP3    H215106   4.193   0.723   5.366
 5049TIP3   OH215107   3.610   0.545   4.836
 5049TIP3    H115108   3.555   0.568   4.915
 5049TIP3    H215109   3.694   0.523   4.880
 5050TIP3   OH215110   3.841   0.586   5.753
 5050TIP3    H115111   3.837   0.671   5.801
 5050TIP3    H215112   3.755   0.589   5.707
 5051TIP3   OH215113   2.841   0.543   5.249
 5051TIP3    H115114   2.801   0.482   5.183
 5051TIP3    H215115   2.917   0.490   5.282
 5052TIP3   OH215116   2.981   0.961   5.397
 5052TIP3    H115117   2.952   0.912   5.319
 5052TIP3    H215118   3.068   0.921   5.415
 5053TIP3   OH215119   2.985   0.512   5.612
 5053TIP3    H115120   3.009   0.492   5.519
 5053TIP3    H215121   3.022   0.602   5.625
 5054TIP3   OH215122   3.504   1.151   5.385
 5054TIP3    H115123   3.491   1.230   5.440
 5054TIP3    H215124   3.488   1.077   5.448
 5055TIP3   OH215125   3.116   1.070   5.932
 5055TIP3    H115126   3.055   1.132   5.978
 5055TIP3    H215127   3.051   1.017   5.882
 5056TIP3   OH215128   3.446   0.405   4.667
 5056TIP3    H115129   3.504   0.465   4.718
 5056TIP3    H215130   3.474   0.428   4.574
 5057TIP3   OH215131   2.874   0.632   6.035
 5057TIP3    H115132   2.874   0.717   6.083
 5057TIP3    H215133   2.780   0.607   6.041
 5058TIP3   OH215134   3.195   1.079   4.935
 5058TIP3    H115135   3.270   1.136   4.959
 5058TIP3    H215136   3.130   1.140   4.899
 5059TIP3   OH215137   2.910   1.239   6.021
 5059TIP3    H115138   2.877   1.238   5.928
 5059TIP3    H215139   2.830   1.216   6.072
 5060TIP3   OH215140   2.708   0.379   5.054
 5060TIP3    H115141   2.640   0.425   5.000
 5060TIP3    H215142   2.658   0.303   5.085
 5061TIP3   OH215143   3.769   1.010   4.261
 5061TIP3    H115144   3.763   1.058   4.178
 5061TIP3    H215145   3.860   0.973   4.256
 5062TIP3   OH215146   2.493   0.766   5.963
 5062TIP3    H115147   2.458   0.740   5.876
 5062TIP3    H215148   2.532   0.682   5.994
 5063TIP3   OH215149   4.207   1.413   5.654
 5063TIP3    H115150   4.207   1.317   5.670
 5063TIP3    H215151   4.125   1.439   5.701
 5064TIP3   OH215152   3.312   1.199   5.790
 5064TIP3    H115153   3.311   1.292   5.822
 5064TIP3    H215154   3.240   1.159   5.843
 5065TIP3   OH215155   3.075   1.331   4.739
 5065TIP3    H115156   3.025   1.309   4.658
 5065TIP3    H215157   3.040   1.418   4.764
 5066TIP3   OH215158   2.514   1.178   5.126
 5066TIP3    H115159   2.556   1.170   5.215
 5066TIP3    H215160   2.462   1.095   5.124
 5067TIP3   OH215161   3.276   1.230   4.381
 5067TIP3    H115162   3.336   1.160   4.347
 5067TIP3    H215163   3.306   1.238   4.474
 5068TIP3   OH215164   3.324   1.273   4.651
 5068TIP3    H115165   3.234   1.287   4.690
 5068TIP3    H215166   3.367   1.225   4.723
 5069TIP3   OH215167   4.093   0.565   5.928
 5069TIP3    H115168   4.012   0.565   5.874
 5069TIP3    H215169   4.114   0.471   5.936
 5070TIP3   OH215170   2.693   0.955   5.961
 5070TIP3    H115171   2.744   0.931   6.041
 5070TIP3    H215172   2.619   0.890   5.963
 5071TIP3   OH215173   3.867   0.333   5.874
 5071TIP3    H115174   3.845   0.348   5.968
 5071TIP3    H215175   3.834   0.414   5.831
 5072TIP3   OH215176   3.536   0.462   4.422
 5072TIP3    H115177   3.494   0.434   4.337
 5072TIP3    H215178   3.619   0.500   4.389
 5073TIP3   OH215179   3.038   0.305   5.773
 5073TIP3    H115180   2.978   0.330   5.846
 5073TIP3    H215181   3.021   0.378   5.710
 5074TIP3   OH215182   2.907   0.184   5.270
 5074TIP3    H115183   2.812   0.169   5.276
 5074TIP3    H215184   2.929   0.134   5.189
 5075TIP3   OH215185   3.405   0.273   5.000
 5075TIP3    H115186   3.349   0.341   4.956
 5075TIP3    H215187   3.456   0.239   4.925
 5076TIP3   OH215188   3.578   0.543   6.074
 5076TIP3    H115189   3.547   0.482   6.144
 5076TIP3    H215190   3.667   0.566   6.106
 5077TIP3   OH215191   3.554   0.316   5.240
 5077TIP3    H115192   3.487   0.342   5.174
 5077TIP3    H215193   3.603   0.251   5.185
 5078TIP3   OH215194   2.837   0.333   5.952
 5078TIP3    H115195   2.858   0.377   6.036
 5078TIP3    H215196   2.842   0.238   5.978
 5079TIP3   OH215197   3.570   0.551   5.660
 5079TIP3    H115198   3.603   0.480   5.599
 5079TIP3    H215199   3.540   0.495   5.734
 5080TIP3   OH215200   3.204   0.031   5.305
 5080TIP3    H115201   3.125  -0.001   5.350
 5080TIP3    H215202   3.267   0.040   5.380
 5081TIP3   OH215203   2.953   0.060   5.020
 5081TIP3    H115204   3.042   0.084   4.991
 5081TIP3    H215205   2.896   0.077   4.941
 5082TIP3   OH215206   2.779   0.081   4.800
 5082TIP3    H115207   2.700   0.054   4.752
 5082TIP3    H215208   2.832   0.122   4.729
 5083TIP3   OH215209   3.899   1.763   5.755
 5083TIP3    H115210   3.898   1.789   5.661
 5083TIP3    H215211   3.978   1.811   5.788
 5084TIP3   OH215212   2.855   0.876   6.177
 5084TIP3    H115213   2.936   0.904   6.226
 5084TIP3    H215214   2.791   0.872   6.251
 5085TIP3   OH215215   3.314   0.338   5.432
 5085TIP3    H115216   3.378   0.288   5.378
 5085TIP3    H215217   3.315   0.284   5.513
 5086TIP3   OH215218   3.295   0.230   5.734
 5086TIP3    H115219   3.203   0.260   5.747
 5086TIP3    H215220   3.347   0.302   5.774
 5087TIP3   OH215221   3.031   0.615   4.815
 5087TIP3    H115222   2.960   0.548   4.804
 5087TIP3    H215223   3.013   0.649   4.906
 5088TIP3   OH215224   3.932   0.851   5.443
 5088TIP3    H115225   3.955   0.901   5.362
 5088TIP3    H215226   3.847   0.808   5.418
 5089TIP3   OH215227   3.457  -0.045   4.663
 5089TIP3    H115228   3.364  -0.045   4.688
 5089TIP3    H215229   3.486   0.045   4.690
 5090TIP3   OH215230   3.436   0.937   5.810
 5090TIP3    H115231   3.455   0.910   5.900
 5090TIP3    H215232   3.392   1.023   5.821
 5091TIP3   OH215233   3.569   0.182   4.773
 5091TIP3    H115234   3.664   0.200   4.788
 5091TIP3    H215235   3.540   0.262   4.726
 5092TIP3   OH215236   2.736   0.648   5.490
 5092TIP3    H115237   2.764   0.610   5.405
 5092TIP3    H215238   2.750   0.575   5.552
 5093TIP3   OH215239   3.177   0.764   4.638
 5093TIP3    H115240   3.129   0.850   4.643
 5093TIP3    H215241   3.122   0.708   4.698
 5094TIP3   OH215242   2.607   0.559   6.104
 5094TIP3    H115243   2.623   0.541   6.199
 5094TIP3    H215244   2.535   0.496   6.083
 5095TIP3   OH215245   3.333   0.672   6.122
 5095TIP3    H115246   3.269   0.616   6.075
 5095TIP3    H215247   3.418   0.637   6.088
 5096TIP3   OH215248   3.591   1.199   5.704
 5096TIP3    H115249   3.496   1.191   5.721
 5096TIP3    H215250   3.620   1.247   5.785
 5097TIP3   OH215251   3.996   0.269   4.615
 5097TIP3    H115252   3.932   0.233   4.549
 5097TIP3    H215253   4.000   0.360   4.577
 5098TIP3   OH215254   4.220   1.124   5.697
 5098TIP3    H115255   4.122   1.119   5.688
 5098TIP3    H215256   4.246   1.093   5.607
 5099TIP3   OH215257   3.714   1.109   4.530
 5099TIP3    H115258   3.685   1.045   4.597
 5099TIP3    H215259   3.725   1.054   4.451
 5100TIP3   OH215260   3.698   0.715   5.362
 5100TIP3    H115261   3.605   0.689   5.375
 5100TIP3    H215262   3.732   0.635   5.317
 5101TIP3   OH215263   2.824   0.939   5.112
 5101TIP3    H115264   2.815   1.021   5.059
 5101TIP3    H215265   2.732   0.920   5.134
 5102TIP3   OH215266   2.390   0.253   4.816
 5102TIP3    H115267   2.436   0.335   4.843
 5102TIP3    H215268   2.315   0.252   4.881
 5103TIP3   OH215269   2.965   0.707   5.059
 5103TIP3    H115270   2.927   0.795   5.078
 5103TIP3    H215271   2.928   0.654   5.132
 5104TIP3   OH215272   3.095   1.286   5.585
 5104TIP3    H115273   3.139   1.356   5.535
 5104TIP3    H215274   3.170   1.246   5.633
 5105TIP3   OH215275   2.740   1.181   4.965
 5105TIP3    H115276   2.657   1.184   5.016
 5105TIP3    H215277   2.769   1.275   4.971
 5106TIP3   OH215278   3.484   0.917   5.542
 5106TIP3    H115279   3.473   0.917   5.640
 5106TIP3    H215280   3.561   0.861   5.531
 5107TIP3   OH215281   3.456   0.818   4.424
 5107TIP3    H115282   3.510   0.791   4.502
 5107TIP3    H215283   3.370   0.783   4.451
 5108TIP3   OH215284   3.731   1.450   5.595
 5108TIP3    H115285   3.653   1.392   5.590
 5108TIP3    H215286   3.713   1.514   5.522
 5109TIP3   OH215287   3.617   0.746   4.640
 5109TIP3    H115288   3.606   0.680   4.711
 5109TIP3    H215289   3.715   0.743   4.629
 5110TIP3   OH215290   2.539   1.170   5.748
 5110TIP3    H115291   2.550   1.075   5.735
 5110TIP3    H215292   2.590   1.183   5.829
 5111TIP3   OH215293   2.821   0.794   4.426
 5111TIP3    H115294   2.833   0.702   4.396
 5111TIP3    H215295   2.803   0.779   4.521
 5112TIP3   OH215296   2.767   0.798   4.699
 5112TIP3    H115297   2.837   0.767   4.758
 5112TIP3    H215298   2.774   0.895   4.708
 5113TIP3   OH215299   2.506   0.492   4.901
 5113TIP3    H115300   2.438   0.533   4.960
 5113TIP3    H215301   2.516   0.563   4.835
 5114TIP3   OH215302   3.036   0.994   4.648
 5114TIP3    H115303   2.949   1.020   4.685
 5114TIP3    H215304   3.047   1.061   4.579
 5115TIP3   OH215305   3.235   0.062   5.041
 5115TIP3    H115306   3.295   0.139   5.038
 5115TIP3    H215307   3.217   0.056   5.138
 5116TIP3   OH215308   3.493   0.384   5.863
 5116TIP3    H115309   3.520   0.439   5.939
 5116TIP3    H215310   3.517   0.294   5.893
 5117TIP3   OH215311   2.781   1.072   4.715
 5117TIP3    H115312   2.747   1.141   4.655
 5117TIP3    H215313   2.762   1.110   4.803
 5118TIP3   OH215314   4.089   0.241   5.748
 5118TIP3    H115315   4.000   0.268   5.776
 5118TIP3    H215316   4.107   0.303   5.677
 5119TIP3   OH215317   3.786   0.478   5.237
 5119TIP3    H115318   3.707   0.423   5.255
 5119TIP3    H215319   3.856   0.429   5.286
 5120TIP3   OH215320   2.495   0.700   4.705
 5120TIP3    H115321   2.566   0.766   4.718
 5120TIP3    H215322   2.540   0.642   4.639
 5121TIP3   OH215323   2.414  -0.019   4.819
 5121TIP3    H115324   2.447   0.072   4.817
 5121TIP3    H215325   2.325  -0.003   4.852
 5122TIP3   OH215326   3.752   1.428   5.186
 5122TIP3    H115327   3.709   1.473   5.110
 5122TIP3    H215328   3.846   1.448   5.166
 5123TIP3   OH215329   2.374   0.918   5.092
 5123TIP3    H115330   2.319   0.937   5.169
 5123TIP3    H215331   2.325   0.959   5.017
 5124TIP3   OH215332   2.522   1.455   6.168
 5124TIP3    H115333   2.610   1.451   6.211
 5124TIP3    H215334   2.500   1.361   6.163
 5125TIP3   OH215335   3.004   1.420   6.210
 5125TIP3    H115336   3.098   1.399   6.217
 5125TIP3    H215337   2.977   1.360   6.138
 5126TIP3   OH215338   2.988   0.995   4.340
 5126TIP3    H115339   2.932   0.922   4.376
 5126TIP3    H215340   3.062   0.943   4.304
 5127TIP3   OH215341   3.645   1.326   5.943
 5127TIP3    H115342   3.635   1.257   6.013
 5127TIP3    H215343   3.722   1.377   5.975
 5128TIP3   OH215344   3.428   1.039   4.255
 5128TIP3    H115345   3.461   0.966   4.312
 5128TIP3    H215346   3.476   1.025   4.171
 5129TIP3   OH215347   2.653   0.862   6.367
 5129TIP3    H115348   2.669   0.766   6.373
 5129TIP3    H215349   2.567   0.865   6.320
 5130TIP3   OH215350   2.630   0.514   4.559
 5130TIP3    H115351   2.685   0.479   4.632
 5130TIP3    H215352   2.696   0.515   4.487
 5131TIP3   OH215353   3.259   0.947   6.141
 5131TIP3    H115354   3.218   0.964   6.054
 5131TIP3    H215355   3.290   0.854   6.132
 5132TIP3   OH215356   3.142   0.712   4.370
 5132TIP3    H115357   3.144   0.721   4.467
 5132TIP3    H215358   3.145   0.614   4.361
 5133TIP3   OH215359   3.754   0.955   5.746
 5133TIP3    H115360   3.829   1.002   5.703
 5133TIP3    H215361   3.682   1.018   5.732
 5134TIP3   OH215362   2.788   0.597   6.345
 5134TIP3    H115363   2.867   0.546   6.324
 5134TIP3    H215364   2.809   0.628   6.436
 5135TIP3   OH215365   2.841   0.418   4.785
 5135TIP3    H115366   2.808   0.379   4.868
 5135TIP3    H215367   2.875   0.339   4.737
 5136TIP3   OH215368   3.110   0.495   6.017
 5136TIP3    H115369   3.026   0.546   6.013
 5136TIP3    H215370   3.154   0.524   5.934
 5137TIP3   OH215371   2.939   0.210   4.621
 5137TIP3    H115372   2.916   0.215   4.526
 5137TIP3    H215373   3.037   0.212   4.616
 5138TIP3   OH215374   3.627   0.884   6.144
 5138TIP3    H115375   3.705   0.857   6.095
 5138TIP3    H215376   3.621   0.818   6.215
 5139TIP3   OH215377   3.764   0.542   4.286
 5139TIP3    H115378   3.742   0.495   4.202
 5139TIP3    H215379   3.729   0.631   4.263
 5140TIP3   OH215380   3.231   0.277   6.113
 5140TIP3    H115381   3.246   0.238   6.026
 5140TIP3    H215382   3.182   0.358   6.086
 5141TIP3   OH215383   3.262   0.594   5.818
 5141TIP3    H115384   3.344   0.601   5.767
 5141TIP3    H215385   3.203   0.658   5.772
 5142TIP3   OH215386   3.829   0.569   6.187
 5142TIP3    H115387   3.862   0.477   6.189
 5142TIP3    H215388   3.906   0.617   6.155
 5143TIP3   OH215389   3.884   0.813   5.935
 5143TIP3    H115390   3.826   0.866   5.875
 5143TIP3    H215391   3.971   0.832   5.895
 5144TIP3   OH215392   3.068   0.396   6.358
 5144TIP3    H115393   3.087   0.307   6.393
 5144TIP3    H215394   3.123   0.395   6.279
 5145TIP3   OH215395   3.467   0.363   6.241
 5145TIP3    H115396   3.490   0.295   6.306
 5145TIP3    H215397   3.384   0.326   6.204
 5146TIP3   OH215398   2.748   1.282   4.530
 5146TIP3    H115399   2.843   1.267   4.511
 5146TIP3    H215400   2.720   1.324   4.447
 5147TIP3   OH215401   2.225   0.659   4.734
 5147TIP3    H115402   2.321   0.678   4.726
 5147TIP3    H215403   2.222   0.567   4.700
 5148TIP3   OH215404   2.144   1.268   5.157
 5148TIP3    H115405   2.077   1.204   5.125
 5148TIP3    H215406   2.190   1.211   5.224
 5149TIP3   OH215407   2.278   1.115   5.334
 5149TIP3    H115408   2.237   1.040   5.384
 5149TIP3    H215409   2.325   1.157   5.409
 5150TIP3   OH215410   4.003   1.523   5.142
 5150TIP3    H115411   4.027   1.547   5.234
 5150TIP3    H215412   4.073   1.567   5.091
 5151TIP3   OH215413   4.034   1.536   5.422
 5151TIP3    H115414   3.990   1.448   5.423
 5151TIP3    H215415   4.108   1.517   5.481
 5152TIP3   OH215416   4.080   1.213   6.000
 5152TIP3    H115417   4.008   1.223   6.064
 5152TIP3    H215418   4.122   1.302   6.003
 5153TIP3   OH215419   3.897   0.728   4.620
 5153TIP3    H115420   3.967   0.790   4.590
 5153TIP3    H215421   3.940   0.688   4.699
 5154TIP3   OH215422   4.024   0.597   4.823
 5154TIP3    H115423   3.959   0.556   4.884
 5154TIP3    H215424   4.092   0.633   4.883
 5155TIP3   OH215425   4.079   0.988   5.253
 5155TIP3    H115426   4.133   0.919   5.210
 5155TIP3    H215427   4.068   1.054   5.183
 5156TIP3   OH215428   3.909   1.288   5.448
 5156TIP3    H115429   3.838   1.328   5.502
 5156TIP3    H215430   3.858   1.240   5.379
 5157TIP3   OH215431   3.964   0.504   4.469
 5157TIP3    H115432   3.892   0.504   4.402
 5157TIP3    H215433   3.934   0.579   4.524
 5158TIP3   OH215434   3.817   0.204   4.421
 5158TIP3    H115435   3.773   0.235   4.340
 5158TIP3    H215436   3.804   0.108   4.416
 5159TIP3   OH215437   3.837   0.457   4.969
 5159TIP3    H115438   3.841   0.360   4.961
 5159TIP3    H215439   3.825   0.469   5.065
 5160TIP3   OH215440   2.464   0.504   5.737
 5160TIP3    H115441   2.447   0.500   5.640
 5160TIP3    H215442   2.561   0.518   5.738
 5161TIP3   OH215443   4.127   0.880   5.823
 5161TIP3    H115444   4.200   0.816   5.813
 5161TIP3    H215445   4.152   0.950   5.761
 5162TIP3   OH215446   4.316   0.689   5.842
 5162TIP3    H115447   4.237   0.644   5.878
 5162TIP3    H215448   4.385   0.623   5.865
 5163TIP3   OH215449   3.838   0.181   4.852
 5163TIP3    H115450   3.878   0.096   4.879
 5163TIP3    H215451   3.898   0.208   4.780
 5164TIP3   OH215452   3.998   0.357   5.364
 5164TIP3    H115453   4.081   0.383   5.319
 5164TIP3    H215454   4.012   0.398   5.451
 5165TIP3   OH215455   4.063   0.492   5.596
 5165TIP3    H115456   3.983   0.528   5.639
 5165TIP3    H215457   4.097   0.571   5.549
 5166TIP3   OH215458   2.683   0.216   6.385
 5166TIP3    H115459   2.778   0.230   6.388
 5166TIP3    H215460   2.678   0.122   6.412
 5167TIP3   OH215461   2.445   0.189   5.793
 5167TIP3    H115462   2.498   0.145   5.724
 5167TIP3    H215463   2.480   0.279   5.787
 5168TIP3   OH215464   3.585   1.383   4.794
 5168TIP3    H115465   3.653   1.329   4.752
 5168TIP3    H215466   3.634   1.445   4.852
 5169TIP3   OH215467   2.689   1.195   6.187
 5169TIP3    H115468   2.599   1.163   6.167
 5169TIP3    H215469   2.701   1.165   6.278
 5170TIP3   OH215470   2.870   1.223   5.738
 5170TIP3    H115471   2.816   1.292   5.696
 5170TIP3    H215472   2.954   1.239   5.691
 5171TIP3   OH215473   3.312   1.467   5.871
 5171TIP3    H115474   3.354   1.465   5.960
 5171TIP3    H215475   3.378   1.517   5.820
 5172TIP3   OH215476   3.492   1.618   5.730
 5172TIP3    H115477   3.563   1.566   5.691
 5172TIP3    H215478   3.543   1.675   5.792
 5173TIP3   OH215479   2.549   1.501   5.748
 5173TIP3    H115480   2.457   1.528   5.730
 5173TIP3    H215481   2.546   1.493   5.844
 5174TIP3   OH215482   2.784   1.459   5.614
 5174TIP3    H115483   2.698   1.474   5.660
 5174TIP3    H215484   2.761   1.486   5.523
 5175TIP3   OH215485   3.208   1.486   5.410
 5175TIP3    H115486   3.134   1.504   5.349
 5175TIP3    H215487   3.218   1.573   5.455
 5176TIP3   OH215488   3.476   1.424   5.464
 5176TIP3    H115489   3.382   1.442   5.444
 5176TIP3    H215490   3.519   1.501   5.425
 5177TIP3   OH215491   3.682   1.616   5.380
 5177TIP3    H115492   3.669   1.700   5.331
 5177TIP3    H215493   3.709   1.554   5.308
 5178TIP3   OH215494   2.452   1.272   5.508
 5178TIP3    H115495   2.482   1.246   5.598
 5178TIP3    H215496   2.519   1.223   5.455
 5179TIP3   OH215497   2.648   1.145   5.361
 5179TIP3    H115498   2.659   1.062   5.413
 5179TIP3    H215499   2.741   1.177   5.358
 5180TIP3   OH215500   2.922   1.238   5.361
 5180TIP3    H115501   2.949   1.145   5.351
 5180TIP3    H215502   2.964   1.257   5.447
 5181TIP3   OH215503   2.245   1.039   4.887
 5181TIP3    H115504   2.159   1.007   4.854
 5181TIP3    H215505   2.230   1.135   4.884
 5182TIP3   OH215506   3.013   1.233   4.471
 5182TIP3    H115507   3.103   1.253   4.438
 5182TIP3    H215508   2.992   1.156   4.413
 5183TIP3   OH215509   2.324   1.078   4.534
 5183TIP3    H115510   2.317   1.079   4.631
 5183TIP3    H215511   2.409   1.030   4.520
 5184TIP3   OH215512   3.962   1.495   5.753
 5184TIP3    H115513   3.882   1.464   5.706
 5184TIP3    H215514   3.941   1.591   5.761
 5185TIP3   OH215515   5.228   0.871   4.522
 5185TIP3    H115516   5.197   0.961   4.498
 5185TIP3    H215517   5.152   0.818   4.495
 5186TIP3   OH215518   5.217   0.869   4.903
 5186TIP3    H115519   5.255   0.829   4.983
 5186TIP3    H215520   5.205   0.792   4.845
 5187TIP3   OH215521   4.521   0.775   5.265
 5187TIP3    H115522   4.547   0.704   5.327
 5187TIP3    H215523   4.606   0.817   5.249
 5188TIP3   OH215524   5.470   1.171   4.584
 5188TIP3    H115525   5.455   1.099   4.647
 5188TIP3    H215526   5.500   1.243   4.642
 5189TIP3   OH215527   4.495   1.172   4.988
 5189TIP3    H115528   4.487   1.074   4.990
 5189TIP3    H215529   4.592   1.182   4.988
 5190TIP3   OH215530   4.196   0.376   4.777
 5190TIP3    H115531   4.153   0.461   4.796
 5190TIP3    H215532   4.120   0.325   4.743
 5191TIP3   OH215533   4.260   0.665   4.946
 5191TIP3    H115534   4.309   0.589   4.987
 5191TIP3    H215535   4.326   0.695   4.882
 5192TIP3   OH215536   5.119   1.630   4.601
 5192TIP3    H115537   5.164   1.559   4.551
 5192TIP3    H215538   5.114   1.592   4.689
 5193TIP3   OH215539   5.024   1.094   4.952
 5193TIP3    H115540   5.063   1.013   4.914
 5193TIP3    H215541   5.108   1.140   4.973
 5194TIP3   OH215542   5.434   0.605   4.984
 5194TIP3    H115543   5.476   0.521   5.013
 5194TIP3    H215544   5.400   0.579   4.896
 5195TIP3   OH215545   4.763   0.297   4.979
 5195TIP3    H115546   4.834   0.355   4.945
 5195TIP3    H215547   4.744   0.246   4.897
 5196TIP3   OH215548   5.476   0.350   4.528
 5196TIP3    H115549   5.503   0.355   4.621
 5196TIP3    H215550   5.539   0.406   4.481
 5197TIP3   OH215551   4.414   0.472   5.054
 5197TIP3    H115552   4.486   0.448   5.115
 5197TIP3    H215553   4.432   0.408   4.981
 5198TIP3   OH215554   4.858   0.644   4.852
 5198TIP3    H115555   4.943   0.597   4.840
 5198TIP3    H215556   4.799   0.574   4.816
 5199TIP3   OH215557   6.125   0.641   5.113
 5199TIP3    H115558   6.044   0.681   5.078
 5199TIP3    H215559   6.116   0.654   5.207
 5200TIP3   OH215560   5.119   1.091   4.389
 5200TIP3    H115561   5.073   1.069   4.307
 5200TIP3    H215562   5.073   1.173   4.415
 5201TIP3   OH215563   4.881   1.013   5.177
 5201TIP3    H115564   4.818   1.079   5.215
 5201TIP3    H215565   4.921   1.064   5.103
 5202TIP3   OH215566   4.630   0.376   5.195
 5202TIP3    H115567   4.696   0.439   5.231
 5202TIP3    H215568   4.674   0.354   5.110
 5203TIP3   OH215569   4.707   1.207   5.275
 5203TIP3    H115570   4.680   1.295   5.240
 5203TIP3    H215571   4.628   1.188   5.331
 5204TIP3   OH215572   4.100   0.892   4.508
 5204TIP3    H115573   4.056   0.917   4.425
 5204TIP3    H215574   4.121   0.981   4.544
 5205TIP3   OH215575   5.541   1.414   4.753
 5205TIP3    H115576   5.451   1.404   4.792
 5205TIP3    H215577   5.531   1.499   4.707
 5206TIP3   OH215578   5.241   1.457   4.424
 5206TIP3    H115579   5.291   1.374   4.405
 5206TIP3    H215580   5.303   1.522   4.384
 5207TIP3   OH215581   5.385   1.243   4.333
 5207TIP3    H115582   5.343   1.164   4.297
 5207TIP3    H215583   5.422   1.209   4.417
 5208TIP3   OH215584   5.768   1.324   5.095
 5208TIP3    H115585   5.754   1.247   5.037
 5208TIP3    H215586   5.749   1.399   5.034
 5209TIP3   OH215587   5.057   0.725   4.349
 5209TIP3    H115588   4.975   0.775   4.327
 5209TIP3    H215589   5.102   0.722   4.263
 5210TIP3   OH215590   5.013   0.506   4.070
 5210TIP3    H115591   5.080   0.555   4.121
 5210TIP3    H215592   5.072   0.448   4.017
 5211TIP3   OH215593   5.962   0.966   4.946
 5211TIP3    H115594   5.877   1.016   4.947
 5211TIP3    H215595   5.989   0.981   4.853
 5212TIP3   OH215596   5.405   0.802   4.325
 5212TIP3    H115597   5.350   0.824   4.403
 5212TIP3    H215598   5.490   0.779   4.369
 5213TIP3   OH215599   5.638   0.844   5.237
 5213TIP3    H115600   5.631   0.929   5.283
 5213TIP3    H215601   5.551   0.842   5.191
 5214TIP3   OH215602   4.643   0.798   4.742
 5214TIP3    H115603   4.600   0.740   4.676
 5214TIP3    H215604   4.717   0.742   4.772
 5215TIP3   OH215605   4.770   1.212   4.889
 5215TIP3    H115606   4.748   1.167   4.806
 5215TIP3    H215607   4.859   1.177   4.908
 5216TIP3   OH215608   4.765   0.776   5.089
 5216TIP3    H115609   4.806   0.743   5.006
 5216TIP3    H215610   4.816   0.858   5.107
 5217TIP3   OH215611   5.298   1.408   4.872
 5217TIP3    H115612   5.287   1.487   4.927
 5217TIP3    H215613   5.284   1.334   4.934
 5218TIP3   OH215614   4.912   1.326   5.420
 5218TIP3    H115615   4.851   1.388   5.466
 5218TIP3    H215616   4.848   1.272   5.369
 5219TIP3   OH215617   5.245   0.661   4.151
 5219TIP3    H115618   5.303   0.722   4.202
 5219TIP3    H215619   5.272   0.683   4.058
 5220TIP3   OH215620   4.670   0.890   5.521
 5220TIP3    H115621   4.669   0.976   5.568
 5220TIP3    H215622   4.576   0.865   5.528
 5221TIP3   OH215623   4.987   1.340   4.425
 5221TIP3    H115624   5.070   1.390   4.439
 5221TIP3    H215625   4.930   1.406   4.385
 5222TIP3   OH215626   4.706   1.494   5.507
 5222TIP3    H115627   4.669   1.495   5.416
 5222TIP3    H215628   4.626   1.472   5.561
 5223TIP3   OH215629   4.506   0.648   4.544
 5223TIP3    H115630   4.432   0.678   4.488
 5223TIP3    H215631   4.481   0.557   4.565
 5224TIP3   OH215632   5.560   1.266   3.746
 5224TIP3    H115633   5.569   1.363   3.732
 5224TIP3    H215634   5.653   1.237   3.735
 5225TIP3   OH215635   4.285   1.026   5.453
 5225TIP3    H115636   4.220   1.001   5.384
 5225TIP3    H215637   4.324   0.940   5.478
 5226TIP3   OH215638   4.139   1.228   5.072
 5226TIP3    H115639   4.234   1.207   5.075
 5226TIP3    H215640   4.133   1.296   5.140
 5227TIP3   OH215641   6.004   1.671   5.142
 5227TIP3    H115642   6.002   1.574   5.155
 5227TIP3    H215643   5.921   1.696   5.188
 5228TIP3   OH215644   5.108   1.455   5.276
 5228TIP3    H115645   5.107   1.548   5.309
 5228TIP3    H215646   5.037   1.415   5.331
 5229TIP3   OH215647   4.868   1.582   4.229
 5229TIP3    H115648   4.826   1.568   4.143
 5229TIP3    H215649   4.839   1.673   4.252
 5230TIP3   OH215650   4.295   1.419   4.621
 5230TIP3    H115651   4.366   1.418   4.689
 5230TIP3    H215652   4.220   1.393   4.679
 5231TIP3   OH215653   5.070   1.485   3.868
 5231TIP3    H115654   5.130   1.416   3.832
 5231TIP3    H215655   5.106   1.495   3.959
 5232TIP3   OH215656   5.121   1.534   4.139
 5232TIP3    H115657   5.033   1.542   4.182
 5232TIP3    H215658   5.174   1.495   4.210
 5233TIP3   OH215659   5.889   0.823   5.412
 5233TIP3    H115660   5.807   0.823   5.359
 5233TIP3    H215661   5.908   0.728   5.419
 5234TIP3   OH215662   4.489   1.209   5.440
 5234TIP3    H115663   4.538   1.193   5.523
 5234TIP3    H215664   4.415   1.145   5.448
 5235TIP3   OH215665   5.673   0.591   5.362
 5235TIP3    H115666   5.637   0.602   5.451
 5235TIP3    H215667   5.634   0.666   5.314
 5236TIP3   OH215668   5.322   0.706   3.895
 5236TIP3    H115669   5.287   0.680   3.807
 5236TIP3    H215670   5.403   0.752   3.870
 5237TIP3   OH215671   4.823   0.570   5.253
 5237TIP3    H115672   4.766   0.593   5.329
 5237TIP3    H215673   4.802   0.642   5.191
 5238TIP3   OH215674   4.692   0.460   4.744
 5238TIP3    H115675   4.613   0.413   4.778
 5238TIP3    H215676   4.720   0.399   4.673
 5239TIP3   OH215677   5.200   0.528   4.474
 5239TIP3    H115678   5.147   0.599   4.432
 5239TIP3    H215679   5.260   0.498   4.403
 5240TIP3   OH215680   5.374   0.801   5.564
 5240TIP3    H115681   5.343   0.739   5.634
 5240TIP3    H215682   5.464   0.822   5.596
 5241TIP3   OH215683   5.367   0.573   4.712
 5241TIP3    H115684   5.288   0.582   4.656
 5241TIP3    H215685   5.374   0.476   4.711
 5242TIP3   OH215686   4.628   0.590   5.441
 5242TIP3    H115687   4.657   0.632   5.523
 5242TIP3    H215688   4.633   0.495   5.465
 5243TIP3   OH215689   4.246   0.135   4.583
 5243TIP3    H115690   4.283   0.164   4.498
 5243TIP3    H215691   4.184   0.208   4.601
 5244TIP3   OH215692   5.372   0.806   5.145
 5244TIP3    H115693   5.400   0.734   5.084
 5244TIP3    H215694   5.340   0.751   5.220
 5245TIP3   OH215695   4.461   0.324   4.820
 5245TIP3    H115696   4.366   0.340   4.798
 5245TIP3    H215697   4.463   0.227   4.823
 5246TIP3   OH215698   4.746   0.312   4.507
 5246TIP3    H115699   4.838   0.335   4.483
 5246TIP3    H215700   4.693   0.334   4.427
 5247TIP3   OH215701   4.567   0.349   4.288
 5247TIP3    H115702   4.498   0.303   4.237
 5247TIP3    H215703   4.624   0.384   4.217
 5248TIP3   OH215704   5.695   2.020   5.241
 5248TIP3    H115705   5.692   2.044   5.146
 5248TIP3    H215706   5.773   2.070   5.271
 5249TIP3   OH215707   4.651   1.134   5.663
 5249TIP3    H115708   4.731   1.163   5.711
 5249TIP3    H215709   4.586   1.131   5.736
 5250TIP3   OH215710   5.076   0.471   5.259
 5250TIP3    H115711   4.988   0.512   5.243
 5250TIP3    H215712   5.136   0.548   5.256
 5251TIP3   OH215713   4.823   0.874   4.298
 5251TIP3    H115714   4.754   0.805   4.289
 5251TIP3    H215715   4.807   0.906   4.390
 5252TIP3   OH215716   5.727   1.108   4.931
 5252TIP3    H115717   5.751   1.158   4.850
 5252TIP3    H215718   5.643   1.064   4.905
 5253TIP3   OH215719   5.227   0.233   4.123
 5253TIP3    H115720   5.167   0.204   4.192
 5253TIP3    H215721   5.281   0.299   4.171
 5254TIP3   OH215722   5.232   1.193   5.297
 5254TIP3    H115723   5.250   1.166   5.388
 5254TIP3    H215724   5.189   1.280   5.307
 5255TIP3   OH215725   5.370   0.433   4.251
 5255TIP3    H115726   5.460   0.455   4.279
 5255TIP3    H215727   5.340   0.515   4.208
 5256TIP3   OH215728   4.518   0.895   4.973
 5256TIP3    H115729   4.559   0.864   4.890
 5256TIP3    H215730   4.560   0.837   5.038
 5257TIP3   OH215731   4.972   1.020   4.122
 5257TIP3    H115732   4.924   1.106   4.126
 5257TIP3    H215733   4.918   0.965   4.182
 5258TIP3   OH215734   4.402   0.818   5.592
 5258TIP3    H115735   4.422   0.800   5.686
 5258TIP3    H215736   4.335   0.750   5.573
 5259TIP3   OH215737   5.129   0.928   5.609
 5259TIP3    H115738   5.065   0.873   5.560
 5259TIP3    H215739   5.214   0.893   5.575
 5260TIP3   OH215740   5.388   1.454   5.192
 5260TIP3    H115741   5.292   1.447   5.206
 5260TIP3    H215742   5.415   1.503   5.272
 5261TIP3   OH215743   5.796   0.521   4.100
 5261TIP3    H115744   5.730   0.488   4.035
 5261TIP3    H215745   5.800   0.613   4.066
 5262TIP3   OH215746   6.018   1.383   5.183
 5262TIP3    H115747   5.920   1.376   5.174
 5262TIP3    H215748   6.044   1.350   5.093
 5263TIP3   OH215749   5.498   1.340   4.012
 5263TIP3    H115750   5.472   1.271   4.074
 5263TIP3    H215751   5.510   1.292   3.928
 5264TIP3   OH215752   5.496   0.972   4.851
 5264TIP3    H115753   5.403   0.946   4.865
 5264TIP3    H215754   5.531   0.893   4.805
 5265TIP3   OH215755   4.626   1.198   4.603
 5265TIP3    H115756   4.627   1.278   4.547
 5265TIP3    H215757   4.532   1.181   4.613
 5266TIP3   OH215758   4.187   0.500   4.306
 5266TIP3    H115759   4.232   0.584   4.327
 5266TIP3    H215760   4.110   0.505   4.367
 5267TIP3   OH215761   4.759   0.961   4.544
 5267TIP3    H115762   4.725   1.050   4.567
 5267TIP3    H215763   4.727   0.908   4.619
 5268TIP3   OH215764   4.890   1.541   5.071
 5268TIP3    H115765   4.934   1.614   5.021
 5268TIP3    H215766   4.966   1.504   5.118
 5269TIP3   OH215767   4.539   1.438   4.453
 5269TIP3    H115768   4.455   1.449   4.499
 5269TIP3    H215769   4.576   1.530   4.457
 5270TIP3   OH215770   5.280   1.175   5.029
 5270TIP3    H115771   5.269   1.173   5.127
 5270TIP3    H215772   5.356   1.117   5.017
 5271TIP3   OH215773   5.254   1.068   3.914
 5271TIP3    H115774   5.308   1.042   3.992
 5271TIP3    H215775   5.166   1.041   3.944
 5272TIP3   OH215776   5.528   1.708   5.081
 5272TIP3    H115777   5.449   1.651   5.075
 5272TIP3    H215778   5.511   1.772   5.008
 5273TIP3   OH215779   5.593   1.542   3.733
 5273TIP3    H115780   5.631   1.615   3.680
 5273TIP3    H215781   5.513   1.587   3.766
 5274TIP3   OH215782   5.415   0.999   4.128
 5274TIP3    H115783   5.404   0.936   4.202
 5274TIP3    H215784   5.512   0.997   4.117
 5275TIP3   OH215785   4.327   1.401   5.230
 5275TIP3    H115786   4.383   1.329   5.265
 5275TIP3    H215787   4.353   1.474   5.288
 5276TIP3   OH215788   4.618   1.049   3.915
 5276TIP3    H115789   4.634   0.957   3.885
 5276TIP3    H215790   4.597   1.035   4.009
 5277TIP3   OH215791   4.561   1.054   4.189
 5277TIP3    H115792   4.639   1.023   4.239
 5277TIP3    H215793   4.570   1.151   4.196
 5278TIP3   OH215794   4.298   0.744   4.386
 5278TIP3    H115795   4.232   0.789   4.443
 5278TIP3    H215796   4.317   0.814   4.322
 5279TIP3   OH215797   4.829   1.249   4.133
 5279TIP3    H115798   4.743   1.277   4.170
 5279TIP3    H215799   4.848   1.322   4.073
 5280TIP3   OH215800   5.024   0.322   4.509
 5280TIP3    H115801   5.088   0.393   4.489
 5280TIP3    H215802   5.023   0.335   4.607
 5281TIP3   OH215803   5.292   0.643   5.347
 5281TIP3    H115804   5.316   0.694   5.426
 5281TIP3    H215805   5.311   0.550   5.377
 5282TIP3   OH215806   4.573   1.327   4.201
 5282TIP3    H115807   4.545   1.398   4.139
 5282TIP3    H215808   4.560   1.371   4.288
 5283TIP3   OH215809   5.897   0.505   5.231
 5283TIP3    H115810   5.809   0.521   5.269
 5283TIP3    H215811   5.891   0.553   5.148
 5284TIP3   OH215812   5.587   0.740   4.725
 5284TIP3    H115813   5.507   0.682   4.729
 5284TIP3    H215814   5.653   0.686   4.774
 5285TIP3   OH215815   4.294   0.958   4.191
 5285TIP3    H115816   4.371   1.018   4.202
 5285TIP3    H215817   4.334   0.897   4.125
 5286TIP3   OH215818   4.224   0.227   4.319
 5286TIP3    H115819   4.242   0.323   4.316
 5286TIP3    H215820   4.136   0.224   4.281
 5287TIP3   OH215821   5.548   1.684   4.673
 5287TIP3    H115822   5.505   1.731   4.598
 5287TIP3    H215823   5.642   1.702   4.652
 5288TIP3   OH215824   4.137   1.160   4.562
 5288TIP3    H115825   4.098   1.204   4.638
 5288TIP3    H215826   4.206   1.222   4.534
 5289TIP3   OH215827   4.321   1.713   5.652
 5289TIP3    H115828   4.406   1.714   5.700
 5289TIP3    H215829   4.300   1.618   5.652
 5290TIP3   OH215830   4.801   1.676   5.697
 5290TIP3    H115831   4.895   1.657   5.704
 5290TIP3    H215832   4.775   1.616   5.624
 5291TIP3   OH215833   4.782   1.252   3.825
 5291TIP3    H115834   4.727   1.179   3.863
 5291TIP3    H215835   4.858   1.200   3.792
 5292TIP3   OH215836   5.440   1.583   5.431
 5292TIP3    H115837   5.431   1.514   5.500
 5292TIP3    H215838   5.517   1.634   5.462
 5293TIP3   OH215839   5.218   1.292   3.737
 5293TIP3    H115840   5.263   1.229   3.796
 5293TIP3    H215841   5.275   1.290   3.657
 5294TIP3   OH215842   4.450   1.116   5.853
 5294TIP3    H115843   4.464   1.020   5.860
 5294TIP3    H215844   4.363   1.120   5.808
 5295TIP3   OH215845   4.427   0.769   4.049
 5295TIP3    H115846   4.482   0.734   4.121
 5295TIP3    H215847   4.493   0.773   3.977
 5296TIP3   OH215848   5.058   1.203   5.626
 5296TIP3    H115849   5.016   1.221   5.540
 5296TIP3    H215850   5.088   1.110   5.618
 5297TIP3   OH215851   4.936   0.967   3.853
 5297TIP3    H115852   4.941   0.979   3.950
 5297TIP3    H215853   4.938   0.869   3.847
 5298TIP3   OH215854   5.551   1.212   5.235
 5298TIP3    H115855   5.625   1.258   5.190
 5298TIP3    H215856   5.478   1.275   5.219
 5299TIP3   OH215857   4.581   0.848   5.834
 5299TIP3    H115858   4.663   0.803   5.811
 5299TIP3    H215859   4.604   0.884   5.922
 5300TIP3   OH215860   4.633   0.674   4.267
 5300TIP3    H115861   4.609   0.635   4.353
 5300TIP3    H215862   4.671   0.597   4.219
 5301TIP3   OH215863   4.904   0.750   5.505
 5301TIP3    H115864   4.822   0.804   5.500
 5301TIP3    H215865   4.951   0.778   5.423
 5302TIP3   OH215866   4.735   0.468   4.108
 5302TIP3    H115867   4.714   0.471   4.013
 5302TIP3    H215868   4.833   0.468   4.105
 5303TIP3   OH215869   5.424   1.141   5.632
 5303TIP3    H115870   5.499   1.110   5.579
 5303TIP3    H215871   5.416   1.073   5.700
 5304TIP3   OH215872   5.559   0.796   3.772
 5304TIP3    H115873   5.536   0.753   3.688
 5304TIP3    H215874   5.525   0.887   3.752
 5305TIP3   OH215875   5.029   0.530   5.593
 5305TIP3    H115876   5.051   0.497   5.505
 5305TIP3    H215877   4.977   0.609   5.569
 5306TIP3   OH215878   5.057   0.850   5.307
 5306TIP3    H115879   5.140   0.854   5.258
 5306TIP3    H215880   5.001   0.915   5.259
 5307TIP3   OH215881   5.626   0.825   5.676
 5307TIP3    H115882   5.659   0.732   5.674
 5307TIP3    H215883   5.702   0.873   5.639
 5308TIP3   OH215884   5.679   1.071   5.425
 5308TIP3    H115885   5.622   1.124   5.364
 5308TIP3    H215886   5.767   1.089   5.384
 5309TIP3   OH215887   4.864   0.651   5.845
 5309TIP3    H115888   4.887   0.562   5.878
 5309TIP3    H215889   4.917   0.655   5.765
 5310TIP3   OH215890   5.262   0.619   5.729
 5310TIP3    H115891   5.286   0.549   5.790
 5310TIP3    H215892   5.181   0.582   5.688
 5311TIP3   OH215893   4.542   1.527   4.013
 5311TIP3    H115894   4.638   1.521   3.997
 5311TIP3    H215895   4.517   1.579   3.935
 5312TIP3   OH215896   4.023   0.912   4.224
 5312TIP3    H115897   4.118   0.935   4.212
 5312TIP3    H215898   4.020   0.822   4.186
 5313TIP3   OH215899   3.930   1.488   4.626
 5313TIP3    H115900   3.843   1.457   4.651
 5313TIP3    H215901   3.986   1.445   4.694
 5314TIP3   OH215902   4.087   1.372   4.822
 5314TIP3    H115903   4.069   1.303   4.889
 5314TIP3    H215904   4.130   1.437   4.881
 5315TIP3   OH215905   5.801   1.774   4.631
 5315TIP3    H115906   5.828   1.807   4.718
 5315TIP3    H215907   5.864   1.818   4.572
 5316TIP3   OH215908   5.830   1.795   4.913
 5316TIP3    H115909   5.785   1.707   4.908
 5316TIP3    H215910   5.905   1.771   4.969
 5317TIP3   OH215911   5.879   1.470   5.488
 5317TIP3    H115912   5.804   1.479   5.551
 5317TIP3    H215913   5.918   1.559   5.491
 5318TIP3   OH215914   5.693   0.984   4.106
 5318TIP3    H115915   5.761   1.048   4.076
 5318TIP3    H215916   5.737   0.946   4.185
 5319TIP3   OH215917   5.821   0.852   4.309
 5319TIP3    H115918   5.754   0.813   4.370
 5319TIP3    H215919   5.886   0.891   4.372
 5320TIP3   OH215920   5.876   1.245   4.743
 5320TIP3    H115921   5.928   1.176   4.696
 5320TIP3    H215922   5.870   1.316   4.676
 5321TIP3   OH215923   5.706   1.545   4.936
 5321TIP3    H115924   5.634   1.586   4.987
 5321TIP3    H215925   5.657   1.497   4.865
 5322TIP3   OH215926   5.761   0.760   3.955
 5322TIP3    H115927   5.689   0.760   3.889
 5322TIP3    H215928   5.732   0.835   4.011
 5323TIP3   OH215929   5.614   0.460   3.908
 5323TIP3    H115930   5.572   0.489   3.826
 5323TIP3    H215931   5.601   0.364   3.907
 5324TIP3   OH215932   5.634   0.717   4.455
 5324TIP3    H115933   5.639   0.620   4.446
 5324TIP3    H215934   5.623   0.729   4.552
 5325TIP3   OH215935   4.257   0.785   5.201
 5325TIP3    H115936   4.257   0.751   5.109
 5325TIP3    H215937   4.354   0.789   5.218
 5326TIP3   OH215938   5.923   1.136   5.312
 5326TIP3    H115939   5.996   1.072   5.300
 5326TIP3    H215940   5.944   1.204   5.246
 5327TIP3   OH215941   6.114   0.946   5.330
 5327TIP3    H115942   6.034   0.900   5.363
 5327TIP3    H215943   6.182   0.880   5.354
 5328TIP3   OH215944   5.648   0.447   4.343
 5328TIP3    H115945   5.675   0.355   4.363
 5328TIP3    H215946   5.702   0.466   4.264
 5329TIP3   OH215947   5.797   0.610   4.849
 5329TIP3    H115948   5.881   0.640   4.806
 5329TIP3    H215949   5.808   0.651   4.936
 5330TIP3   OH215950   5.858   0.748   5.079
 5330TIP3    H115951   5.779   0.784   5.124
 5330TIP3    H215952   5.894   0.827   5.034
 5331TIP3   OH215953   4.480   0.477   5.891
 5331TIP3    H115954   4.571   0.484   5.860
 5331TIP3    H215955   4.475   0.382   5.913
 5332TIP3   OH215956   4.237   0.444   5.275
 5332TIP3    H115957   4.289   0.416   5.197
 5332TIP3    H215958   4.290   0.517   5.307
 5333TIP3   OH215959   5.384   1.642   4.287
 5333TIP3    H115960   5.435   1.629   4.204
 5333TIP3    H215961   5.438   1.708   4.333
 5334TIP3   OH215962   4.486   1.447   5.673
 5334TIP3    H115963   4.394   1.419   5.656
 5334TIP3    H215964   4.496   1.426   5.767
 5335TIP3   OH215965   4.663   1.478   5.219
 5335TIP3    H115966   4.617   1.555   5.180
 5335TIP3    H215967   4.750   1.491   5.176
 5336TIP3   OH215968   5.108   1.722   5.358
 5336TIP3    H115969   5.150   1.722   5.447
 5336TIP3    H215970   5.174   1.773   5.306
 5337TIP3   OH215971   5.287   1.874   5.218
 5337TIP3    H115972   5.357   1.824   5.175
 5337TIP3    H215973   5.340   1.931   5.279
 5338TIP3   OH215974   4.338   1.733   5.243
 5338TIP3    H115975   4.249   1.768   5.223
 5338TIP3    H215976   4.353   1.773   5.330
 5339TIP3   OH215977   4.576   1.713   5.102
 5339TIP3    H115978   4.489   1.726   5.146
 5339TIP3    H215979   4.558   1.747   5.012
 5340TIP3   OH215980   5.002   1.742   4.900
 5340TIP3    H115981   4.934   1.762   4.833
 5340TIP3    H215982   5.015   1.829   4.943
 5341TIP3   OH215983   5.272   1.681   4.952
 5341TIP3    H115984   5.178   1.699   4.932
 5341TIP3    H215985   5.316   1.756   4.909
 5342TIP3   OH215986   5.479   1.872   4.866
 5342TIP3    H115987   5.465   1.956   4.818
 5342TIP3    H215988   5.505   1.812   4.793
 5343TIP3   OH215989   4.253   1.526   4.986
 5343TIP3    H115990   4.276   1.501   5.078
 5343TIP3    H215991   4.326   1.482   4.939
 5344TIP3   OH215992   4.448   1.399   4.842
 5344TIP3    H115993   4.462   1.315   4.893
 5344TIP3    H215994   4.540   1.435   4.841
 5345TIP3   OH215995   4.711   1.491   4.851
 5345TIP3    H115996   4.744   1.400   4.841
 5345TIP3    H215997   4.757   1.516   4.933
 5346TIP3   OH215998   4.811   1.488   3.963
 5346TIP3    H115999   4.899   1.510   3.927
 5346TIP3    H216000   4.789   1.413   3.902
 5347TIP3   OH216001   5.531   1.607   4.055
 5347TIP3    H116002   5.522   1.509   4.044
 5347TIP3    H216003   5.485   1.638   3.974
 5348TIP3   OH216004   4.123   1.323   4.037
 5348TIP3    H116005   4.172   1.377   4.100
 5348TIP3    H216006   4.196   1.267   4.002
 5349TIP3   OH216007   5.757   1.751   5.243
 5349TIP3    H116008   5.679   1.719   5.192
 5349TIP3    H216009   5.737   1.846   5.247
 5350TIP3   OH216010   7.022   1.128   4.002
 5350TIP3    H116011   6.992   1.219   3.986
 5350TIP3    H216012   6.941   1.078   3.982
 5351TIP3   OH216013   7.019   1.124   4.389
 5351TIP3    H116014   7.057   1.106   4.477
 5351TIP3    H216015   6.981   1.037   4.368
 5352TIP3   OH216016   6.319   1.031   4.749
 5352TIP3    H116017   6.346   0.959   4.810
 5352TIP3    H216018   6.403   1.078   4.739
 5353TIP3   OH216019   7.268   1.421   4.068
 5353TIP3    H116020   7.251   1.355   4.137
 5353TIP3    H216021   7.297   1.498   4.121
 5354TIP3   OH216022   6.294   1.430   4.480
 5354TIP3    H116023   6.285   1.332   4.480
 5354TIP3    H216024   6.390   1.438   4.474
 5355TIP3   OH216025   5.996   0.636   4.264
 5355TIP3    H116026   5.949   0.719   4.284
 5355TIP3    H216027   5.922   0.581   4.235
 5356TIP3   OH216028   6.057   0.923   4.434
 5356TIP3    H116029   6.107   0.848   4.474
 5356TIP3    H216030   6.118   0.953   4.367
 5357TIP3   OH216031   6.915   1.886   4.086
 5357TIP3    H116032   6.962   1.814   4.040
 5357TIP3    H216033   6.906   1.851   4.175
 5358TIP3   OH216034   6.821   1.349   4.438
 5358TIP3    H116035   6.860   1.270   4.396
 5358TIP3    H216036   6.905   1.395   4.461
 5359TIP3   OH216037   7.237   0.866   4.473
 5359TIP3    H116038   7.267   0.777   4.504
 5359TIP3    H216039   7.199   0.843   4.386
 5360TIP3   OH216040   6.567   0.560   4.461
 5360TIP3    H116041   6.563   0.638   4.402
 5360TIP3    H216042   6.537   0.492   4.398
 5361TIP3   OH216043   7.287   0.648   4.055
 5361TIP3    H116044   7.356   0.595   4.095
 5361TIP3    H216045   7.276   0.602   3.970
 5362TIP3   OH216046   6.214   0.730   4.540
 5362TIP3    H116047   6.285   0.704   4.602
 5362TIP3    H216048   6.221   0.658   4.475
 5363TIP3   OH216049   6.647   0.918   4.336
 5363TIP3    H116050   6.741   0.893   4.350
 5363TIP3    H216051   6.609   0.834   4.300
 5364TIP3   OH216052   6.926   1.357   3.867
 5364TIP3    H116053   6.870   1.328   3.793
 5364TIP3    H216054   6.874   1.434   3.899
 5365TIP3   OH216055   6.677   1.270   4.664
 5365TIP3    H116056   6.614   1.335   4.702
 5365TIP3    H216057   6.715   1.320   4.589
 5366TIP3   OH216058   6.435   0.635   4.681
 5366TIP3    H116059   6.499   0.697   4.719
 5366TIP3    H216060   6.481   0.612   4.597
 5367TIP3   OH216061   6.504   1.464   4.763
 5367TIP3    H116062   6.477   1.550   4.725
 5367TIP3    H216063   6.425   1.446   4.818
 5368TIP3   OH216064   5.897   1.153   3.998
 5368TIP3    H116065   5.855   1.182   3.915
 5368TIP3    H216066   5.928   1.238   4.035
 5369TIP3   OH216067   7.342   1.667   4.243
 5369TIP3    H116068   7.252   1.660   4.282
 5369TIP3    H216069   7.334   1.752   4.194
 5370TIP3   OH216070   7.040   1.709   3.914
 5370TIP3    H116071   7.093   1.630   3.892
 5370TIP3    H216072   7.099   1.779   3.876
 5371TIP3   OH216073   7.180   1.486   3.815
 5371TIP3    H116074   7.102   1.428   3.813
 5371TIP3    H216075   7.220   1.462   3.901
 5372TIP3   OH216076   7.562   1.577   4.588
 5372TIP3    H116077   7.552   1.504   4.523
 5372TIP3    H216078   7.553   1.656   4.533
 5373TIP3   OH216079   6.850   0.973   3.836
 5373TIP3    H116080   6.769   1.025   3.821
 5373TIP3    H216081   6.893   0.977   3.749
 5374TIP3   OH216082   6.810   0.760   3.560
 5374TIP3    H116083   6.874   0.816   3.608
 5374TIP3    H216084   6.871   0.706   3.506
 5375TIP3   OH216085   7.205   1.059   3.819
 5375TIP3    H116086   7.139   1.087   3.886
 5375TIP3    H216087   7.276   1.030   3.879
 5376TIP3   OH216088   7.419   1.092   4.734
 5376TIP3    H116089   7.416   1.184   4.761
 5376TIP3    H216090   7.340   1.087   4.677
 5377TIP3   OH216091   6.434   1.057   4.226
 5377TIP3    H116092   6.394   0.997   4.159
 5377TIP3    H216093   6.510   1.004   4.258
 5378TIP3   OH216094   6.565   1.467   4.377
 5378TIP3    H116095   6.542   1.426   4.292
 5378TIP3    H216096   6.654   1.431   4.393
 5379TIP3   OH216097   6.570   1.028   4.582
 5379TIP3    H116098   6.601   1.004   4.493
 5379TIP3    H216099   6.613   1.115   4.598
 5380TIP3   OH216100   7.097   1.664   4.358
 5380TIP3    H116101   7.083   1.745   4.411
 5380TIP3    H216102   7.081   1.592   4.421
 5381TIP3   OH216103   6.708   1.582   4.908
 5381TIP3    H116104   6.646   1.645   4.952
 5381TIP3    H216105   6.644   1.529   4.856
 5382TIP3   OH216106   7.044   0.923   3.634
 5382TIP3    H116107   7.100   0.985   3.685
 5382TIP3    H216108   7.074   0.943   3.542
 5383TIP3   OH216109   6.464   1.146   5.008
 5383TIP3    H116110   6.464   1.232   5.054
 5383TIP3    H216111   6.370   1.121   5.016
 5384TIP3   OH216112   6.786   1.592   3.913
 5384TIP3    H116113   6.863   1.649   3.929
 5384TIP3    H216114   6.723   1.653   3.873
 5385TIP3   OH216115   6.503   1.751   4.994
 5385TIP3    H116116   6.467   1.753   4.903
 5385TIP3    H216117   6.423   1.728   5.046
 5386TIP3   OH216118   6.303   0.899   4.027
 5386TIP3    H116119   6.232   0.940   3.975
 5386TIP3    H216120   6.265   0.813   4.050
 5387TIP3   OH216121   6.081   1.283   4.939
 5387TIP3    H116122   6.014   1.261   4.871
 5387TIP3    H216123   6.118   1.195   4.962
 5388TIP3   OH216124   5.935   1.476   4.570
 5388TIP3    H116125   6.031   1.469   4.563
 5388TIP3    H216126   5.925   1.555   4.626
 5389TIP3   OH216127   6.906   1.710   4.766
 5389TIP3    H116128   6.904   1.803   4.796
 5389TIP3    H216129   6.832   1.672   4.818
 5390TIP3   OH216130   6.670   1.842   3.714
 5390TIP3    H116131   6.621   1.825   3.632
 5390TIP3    H216132   6.635   1.929   3.742
 5391TIP3   OH216133   6.105   1.689   4.100
 5391TIP3    H116134   6.152   1.681   4.185
 5391TIP3    H216135   6.048   1.611   4.103
 5392TIP3   OH216136   6.867   1.746   3.356
 5392TIP3    H116137   6.926   1.676   3.320
 5392TIP3    H216138   6.900   1.754   3.447
 5393TIP3   OH216139   6.919   1.787   3.625
 5393TIP3    H116140   6.829   1.800   3.663
 5393TIP3    H216141   6.967   1.754   3.703
 5394TIP3   OH216142   6.285   1.465   4.927
 5394TIP3    H116143   6.334   1.448   5.010
 5394TIP3    H216144   6.211   1.402   4.933
 5395TIP3   OH216145   7.458   0.835   4.840
 5395TIP3    H116146   7.452   0.868   4.930
 5395TIP3    H216147   7.450   0.918   4.788
 5396TIP3   OH216148   7.131   0.970   3.382
 5396TIP3    H116149   7.097   0.940   3.295
 5396TIP3    H216150   7.170   1.055   3.357
 5397TIP3   OH216151   6.631   0.823   4.746
 5397TIP3    H116152   6.570   0.845   4.820
 5397TIP3    H216153   6.609   0.895   4.683
 5398TIP3   OH216154   6.502   0.704   4.242
 5398TIP3    H116155   6.412   0.672   4.263
 5398TIP3    H216156   6.519   0.654   4.159
 5399TIP3   OH216157   6.997   0.787   3.974
 5399TIP3    H116158   6.941   0.854   3.929
 5399TIP3    H216159   7.051   0.754   3.900
 5400TIP3   OH216160   7.170   1.061   5.054
 5400TIP3    H116161   7.138   0.998   5.123
 5400TIP3    H216162   7.263   1.073   5.082
 5401TIP3   OH216163   7.150   0.825   4.212
 5401TIP3    H116164   7.080   0.853   4.150
 5401TIP3    H216165   7.201   0.767   4.152
 5402TIP3   OH216166   6.428   0.846   4.925
 5402TIP3    H116167   6.444   0.889   5.010
 5402TIP3    H216168   6.429   0.751   4.949
 5403TIP3   OH216169   6.053   0.398   4.070
 5403TIP3    H116170   6.080   0.426   3.981
 5403TIP3    H216171   5.982   0.462   4.088
 5404TIP3   OH216172   7.148   1.063   4.628
 5404TIP3    H116173   7.187   0.994   4.570
 5404TIP3    H216174   7.126   1.008   4.706
 5405TIP3   OH216175   6.796   0.548   4.279
 5405TIP3    H116176   6.718   0.520   4.328
 5405TIP3    H216177   6.862   0.555   4.351
 5406TIP3   OH216178   6.260   0.581   4.300
 5406TIP3    H116179   6.166   0.601   4.281
 5406TIP3    H216180   6.255   0.484   4.310
 5407TIP3   OH216181   6.544   0.573   3.997
 5407TIP3    H116182   6.633   0.596   3.967
 5407TIP3    H216183   6.487   0.589   3.918
 5408TIP3   OH216184   6.370   0.600   3.778
 5408TIP3    H116185   6.296   0.559   3.731
 5408TIP3    H216186   6.422   0.636   3.704
 5409TIP3   OH216187   7.483   2.275   4.739
 5409TIP3    H116188   7.470   2.301   4.646
 5409TIP3    H216189   7.552   2.336   4.769
 5410TIP3   OH216190   6.446   1.390   5.149
 5410TIP3    H116191   6.526   1.420   5.198
 5410TIP3    H216192   6.381   1.387   5.222
 5411TIP3   OH216193   6.907   0.851   4.407
 5411TIP3    H116194   6.968   0.797   4.356
 5411TIP3    H216195   6.906   0.801   4.491
 5412TIP3   OH216196   6.888   0.745   4.704
 5412TIP3    H116197   6.796   0.775   4.719
 5412TIP3    H216198   6.941   0.813   4.749
 5413TIP3   OH216199   6.625   1.127   3.790
 5413TIP3    H116200   6.553   1.062   3.778
 5413TIP3    H216201   6.604   1.162   3.880
 5414TIP3   OH216202   7.519   1.375   4.410
 5414TIP3    H116203   7.545   1.373   4.317
 5414TIP3    H216204   7.436   1.324   4.406
 5415TIP3   OH216205   7.066   0.457   3.667
 5415TIP3    H116206   6.971   0.462   3.651
 5415TIP3    H216207   7.089   0.551   3.681
 5416TIP3   OH216208   7.031   1.452   4.784
 5416TIP3    H116209   7.037   1.421   4.875
 5416TIP3    H216210   6.985   1.537   4.792
 5417TIP3   OH216211   7.165   0.704   3.738
 5417TIP3    H116212   7.259   0.725   3.734
 5417TIP3    H216213   7.125   0.784   3.697
 5418TIP3   OH216214   6.318   1.153   4.462
 5418TIP3    H116215   6.356   1.121   4.378
 5418TIP3    H216216   6.352   1.089   4.526
 5419TIP3   OH216217   6.770   1.277   3.613
 5419TIP3    H116218   6.722   1.363   3.615
 5419TIP3    H216219   6.713   1.223   3.672
 5420TIP3   OH216220   6.199   1.070   5.078
 5420TIP3    H116221   6.213   1.052   5.172
 5420TIP3    H216222   6.129   1.006   5.056
 5421TIP3   OH216223   6.923   1.185   5.096
 5421TIP3    H116224   6.858   1.130   5.050
 5421TIP3    H216225   7.007   1.149   5.062
 5422TIP3   OH216226   7.185   1.710   4.679
 5422TIP3    H116227   7.089   1.702   4.693
 5422TIP3    H216228   7.211   1.760   4.759
 5423TIP3   OH216229   7.331   1.552   3.503
 5423TIP3    H116230   7.260   1.532   3.566
 5423TIP3    H216231   7.284   1.573   3.421
 5424TIP3   OH216232   7.287   1.231   4.339
 5424TIP3    H116233   7.194   1.202   4.350
 5424TIP3    H216234   7.324   1.151   4.294
 5425TIP3   OH216235   6.418   1.454   4.087
 5425TIP3    H116236   6.414   1.536   4.034
 5425TIP3    H216237   6.324   1.436   4.101
 5426TIP3   OH216238   5.984   0.758   3.793
 5426TIP3    H116239   6.028   0.843   3.814
 5426TIP3    H216240   5.906   0.763   3.853
 5427TIP3   OH216241   6.558   1.220   4.033
 5427TIP3    H116242   6.520   1.309   4.052
 5427TIP3    H216243   6.520   1.168   4.107
 5428TIP3   OH216244   6.687   1.798   4.558
 5428TIP3    H116245   6.728   1.871   4.507
 5428TIP3    H216246   6.764   1.762   4.604
 5429TIP3   OH216247   6.337   1.692   3.941
 5429TIP3    H116248   6.252   1.702   3.987
 5429TIP3    H216249   6.370   1.785   3.944
 5430TIP3   OH216250   7.075   1.431   4.516
 5430TIP3    H116251   7.067   1.430   4.614
 5430TIP3    H216252   7.153   1.375   4.502
 5431TIP3   OH216253   7.042   1.327   3.399
 5431TIP3    H116254   7.095   1.298   3.476
 5431TIP3    H216255   6.953   1.303   3.428
 5432TIP3   OH216256   7.326   1.963   4.565
 5432TIP3    H116257   7.247   1.906   4.560
 5432TIP3    H216258   7.307   2.027   4.492
 5433TIP3   OH216259   7.332   1.754   3.280
 5433TIP3    H116260   7.421   1.791   3.270
 5433TIP3    H216261   7.276   1.835   3.279
 5434TIP3   OH216262   7.207   1.242   3.608
 5434TIP3    H116263   7.199   1.184   3.685
 5434TIP3    H216264   7.295   1.279   3.620
 5435TIP3   OH216265   6.125   1.659   4.717
 5435TIP3    H116266   6.178   1.584   4.750
 5435TIP3    H216267   6.153   1.730   4.776
 5436TIP3   OH216268   6.418   1.304   3.399
 5436TIP3    H116269   6.428   1.210   3.372
 5436TIP3    H216270   6.397   1.294   3.494
 5437TIP3   OH216271   6.362   1.310   3.670
 5437TIP3    H116272   6.430   1.284   3.733
 5437TIP3    H216273   6.364   1.408   3.678
 5438TIP3   OH216274   6.095   1.003   3.875
 5438TIP3    H116275   6.029   1.047   3.932
 5438TIP3    H216276   6.107   1.073   3.807
 5439TIP3   OH216277   6.629   1.508   3.620
 5439TIP3    H116278   6.541   1.531   3.657
 5439TIP3    H216279   6.642   1.582   3.560
 5440TIP3   OH216280   6.827   0.575   4.015
 5440TIP3    H116281   6.885   0.654   4.012
 5440TIP3    H216282   6.807   0.571   4.112
 5441TIP3   OH216283   7.084   0.899   4.838
 5441TIP3    H116284   7.114   0.952   4.914
 5441TIP3    H216285   7.116   0.809   4.862
 5442TIP3   OH216286   6.373   1.582   3.689
 5442TIP3    H116287   6.342   1.651   3.626
 5442TIP3    H216288   6.355   1.625   3.775
 5443TIP3   OH216289   7.374   1.003   4.217
 5443TIP3    H116290   7.303   0.937   4.228
 5443TIP3    H216291   7.453   0.957   4.249
 5444TIP3   OH216292   6.088   1.211   3.681
 5444TIP3    H116293   6.152   1.284   3.689
 5444TIP3    H216294   6.134   1.157   3.613
 5445TIP3   OH216295   6.020   0.484   3.807
 5445TIP3    H116296   6.035   0.581   3.803
 5445TIP3    H216297   5.932   0.479   3.768
 5446TIP3   OH216298   7.339   1.934   4.165
 5446TIP3    H116299   7.301   1.983   4.088
 5446TIP3    H216300   7.434   1.949   4.148
 5447TIP3   OH216301   5.958   1.424   4.066
 5447TIP3    H116302   5.890   1.456   4.127
 5447TIP3    H216303   5.929   1.467   3.982
 5448TIP3   OH216304   6.116   1.969   5.140
 5448TIP3    H116305   6.202   1.967   5.186
 5448TIP3    H216306   6.094   1.874   5.138
 5449TIP3   OH216307   6.597   1.930   5.187
 5449TIP3    H116308   6.693   1.914   5.187
 5449TIP3    H216309   6.569   1.872   5.114
 5450TIP3   OH216310   6.579   1.508   3.311
 5450TIP3    H116311   6.522   1.437   3.349
 5450TIP3    H216312   6.653   1.455   3.277
 5451TIP3   OH216313   7.234   1.841   4.919
 5451TIP3    H116314   7.227   1.771   4.987
 5451TIP3    H216315   7.309   1.895   4.951
 5452TIP3   OH216316   7.013   1.550   3.231
 5452TIP3    H116317   7.048   1.473   3.280
 5452TIP3    H216318   7.061   1.549   3.146
 5453TIP3   OH216319   6.246   1.373   5.341
 5453TIP3    H116320   6.261   1.277   5.344
 5453TIP3    H216321   6.159   1.378   5.295
 5454TIP3   OH216322   6.224   1.026   3.533
 5454TIP3    H116323   6.279   0.993   3.606
 5454TIP3    H216324   6.292   1.030   3.462
 5455TIP3   OH216325   6.854   1.460   5.113
 5455TIP3    H116326   6.810   1.479   5.028
 5455TIP3    H216327   6.881   1.366   5.104
 5456TIP3   OH216328   6.739   1.227   3.342
 5456TIP3    H116329   6.736   1.238   3.439
 5456TIP3    H216330   6.737   1.129   3.335
 5457TIP3   OH216331   7.350   1.468   4.727
 5457TIP3    H116332   7.423   1.512   4.679
 5457TIP3    H216333   7.276   1.528   4.707
 5458TIP3   OH216334   6.377   1.109   5.322
 5458TIP3    H116335   6.457   1.061   5.297
 5458TIP3    H216336   6.401   1.142   5.411
 5459TIP3   OH216337   6.434   0.931   3.757
 5459TIP3    H116338   6.402   0.892   3.840
 5459TIP3    H216339   6.467   0.852   3.708
 5460TIP3   OH216340   6.703   1.011   4.991
 5460TIP3    H116341   6.618   1.060   4.986
 5460TIP3    H216342   6.747   1.038   4.908
 5461TIP3   OH216343   6.530   0.724   3.594
 5461TIP3    H116344   6.507   0.727   3.499
 5461TIP3    H216345   6.628   0.725   3.589
 5462TIP3   OH216346   7.225   1.400   5.124
 5462TIP3    H116347   7.287   1.362   5.060
 5462TIP3    H216348   7.210   1.326   5.185
 5463TIP3   OH216349   6.825   0.795   5.090
 5463TIP3    H116350   6.840   0.749   5.006
 5463TIP3    H216351   6.775   0.873   5.058
 5464TIP3   OH216352   6.856   1.109   4.793
 5464TIP3    H116353   6.937   1.110   4.741
 5464TIP3    H216354   6.799   1.172   4.744
 5465TIP3   OH216355   7.423   1.078   5.169
 5465TIP3    H116356   7.461   0.987   5.169
 5465TIP3    H216357   7.497   1.129   5.134
 5466TIP3   OH216358   7.489   1.337   4.916
 5466TIP3    H116359   7.426   1.388   4.859
 5466TIP3    H216360   7.562   1.327   4.854
 5467TIP3   OH216361   6.665   0.910   5.335
 5467TIP3    H116362   6.684   0.819   5.366
 5467TIP3    H216363   6.717   0.911   5.253
 5468TIP3   OH216364   7.060   0.876   5.219
 5468TIP3    H116365   7.089   0.797   5.266
 5468TIP3    H216366   6.976   0.844   5.180
 5469TIP3   OH216367   6.339   1.782   3.500
 5469TIP3    H116368   6.435   1.779   3.482
 5469TIP3    H216369   6.309   1.835   3.424
 5470TIP3   OH216370   5.819   1.167   3.716
 5470TIP3    H116371   5.914   1.189   3.702
 5470TIP3    H216372   5.813   1.078   3.676
 5471TIP3   OH216373   5.735   1.779   4.131
 5471TIP3    H116374   5.669   1.718   4.093
 5471TIP3    H216375   5.779   1.720   4.196
 5472TIP3   OH216376   5.871   1.628   4.317
 5472TIP3    H116377   5.859   1.557   4.382
 5472TIP3    H216378   5.922   1.691   4.372
 5473TIP3   OH216379   7.586   2.037   4.136
 5473TIP3    H116380   7.629   2.101   4.194
 5473TIP3    H216381   7.593   2.079   4.048
 5474TIP3   OH216382   7.599   2.077   4.430
 5474TIP3    H116383   7.559   1.996   4.396
 5474TIP3    H216384   7.669   2.039   4.486
 5475TIP3   OH216385   7.689   1.719   5.003
 5475TIP3    H116386   7.604   1.738   5.046
 5475TIP3    H216387   7.693   1.782   4.930
 5476TIP3   OH216388   7.517   1.804   4.423
 5476TIP3    H116389   7.443   1.840   4.477
 5476TIP3    H216390   7.468   1.758   4.352
 5477TIP3   OH216391   6.054   1.039   4.689
 5477TIP3    H116392   6.052   1.007   4.597
 5477TIP3    H216393   6.151   1.044   4.705
 5478TIP3   OH216394   6.283   0.739   5.390
 5478TIP3    H116395   6.366   0.737   5.342
 5478TIP3    H216396   6.271   0.643   5.408
 5479TIP3   OH216397   6.035   0.702   4.762
 5479TIP3    H116398   6.087   0.672   4.685
 5479TIP3    H216399   6.086   0.779   4.789
 5480TIP3   OH216400   7.175   1.900   3.780
 5480TIP3    H116401   7.228   1.885   3.699
 5480TIP3    H216402   7.228   1.966   3.827
 5481TIP3   OH216403   6.283   1.702   5.160
 5481TIP3    H116404   6.191   1.675   5.140
 5481TIP3    H216405   6.288   1.683   5.255
 5482TIP3   OH216406   6.461   1.736   4.708
 5482TIP3    H116407   6.412   1.810   4.668
 5482TIP3    H216408   6.547   1.750   4.663
 5483TIP3   OH216409   6.905   1.977   4.846
 5483TIP3    H116410   6.947   1.981   4.934
 5483TIP3    H216411   6.969   2.029   4.792
 5484TIP3   OH216412   7.082   2.130   4.705
 5484TIP3    H116413   7.152   2.081   4.660
 5484TIP3    H216414   7.134   2.187   4.766
 5485TIP3   OH216415   6.136   1.991   4.731
 5485TIP3    H116416   6.047   2.024   4.706
 5485TIP3    H216417   6.145   2.030   4.819
 5486TIP3   OH216418   6.373   1.969   4.589
 5486TIP3    H116419   6.286   1.983   4.633
 5486TIP3    H216420   6.355   2.002   4.499
 5487TIP3   OH216421   6.799   1.997   4.386
 5487TIP3    H116422   6.729   2.016   4.321
 5487TIP3    H216423   6.811   2.086   4.427
 5488TIP3   OH216424   7.067   1.937   4.440
 5488TIP3    H116425   6.973   1.955   4.420
 5488TIP3    H216426   7.111   2.011   4.394
 5489TIP3   OH216427   7.272   2.128   4.351
 5489TIP3    H116428   7.258   2.211   4.300
 5489TIP3    H216429   7.297   2.065   4.280
 5490TIP3   OH216430   6.048   1.784   4.475
 5490TIP3    H116431   6.074   1.758   4.566
 5490TIP3    H216432   6.119   1.740   4.425
 5491TIP3   OH216433   6.242   1.656   4.333
 5491TIP3    H116434   6.258   1.572   4.383
 5491TIP3    H216435   6.333   1.692   4.328
 5492TIP3   OH216436   6.508   1.749   4.336
 5492TIP3    H116437   6.540   1.657   4.325
 5492TIP3    H216438   6.553   1.772   4.420
 5493TIP3   OH216439   5.836   1.558   3.867
 5493TIP3    H116440   5.751   1.525   3.833
 5493TIP3    H216441   5.826   1.652   3.846
 5494TIP3   OH216442   6.608   1.743   3.450
 5494TIP3    H116443   6.695   1.768   3.412
 5494TIP3    H216444   6.585   1.670   3.389
 5495TIP3   OH216445   7.320   1.849   3.551
 5495TIP3    H116446   7.331   1.755   3.528
 5495TIP3    H216447   7.271   1.883   3.473
 5496TIP3   OH216448   5.911   1.580   3.504
 5496TIP3    H116449   5.911   1.608   3.597
 5496TIP3    H216450   6.000   1.540   3.493
 5497TIP3   OH216451   7.538   2.005   4.748
 5497TIP3    H116452   7.472   1.974   4.684
 5497TIP3    H216453   7.524   2.101   4.744
 5498TIP3   OH216454   7.472   2.071   3.597
 5498TIP3    H116455   7.420   1.991   3.579
 5498TIP3    H216456   7.559   2.035   3.617
 5499TIP3   OH216457   1.277   2.173   5.181
 5499TIP3    H116458   1.245   2.264   5.164
 5499TIP3    H216459   1.200   2.121   5.154
 5500TIP3   OH216460   1.270   2.169   5.569
 5500TIP3    H116461   1.304   2.140   5.655
 5500TIP3    H216462   1.230   2.086   5.536
 5501TIP3   OH216463   0.573   2.066   5.929
 5501TIP3    H116464   0.603   1.996   5.990
 5501TIP3    H216465   0.653   2.118   5.918
 5502TIP3   OH216466   1.525   2.483   5.250
 5502TIP3    H116467   1.500   2.405   5.301
 5502TIP3    H216468   1.552   2.546   5.319
 5503TIP3   OH216469   0.542   2.475   5.655
 5503TIP3    H116470   0.534   2.377   5.655
 5503TIP3    H216471   0.639   2.483   5.656
 5504TIP3   OH216472   0.295   1.722   5.438
 5504TIP3    H116473   0.219   1.780   5.453
 5504TIP3    H216474   0.250   1.636   5.437
 5505TIP3   OH216475   0.326   1.971   5.613
 5505TIP3    H116476   0.365   1.886   5.644
 5505TIP3    H216477   0.366   1.979   5.526
 5506TIP3   OH216478   1.178   2.903   5.255
 5506TIP3    H116479   1.238   2.832   5.281
 5506TIP3    H216480   1.136   2.925   5.340
 5507TIP3   OH216481   1.070   2.395   5.613
 5507TIP3    H116482   1.107   2.315   5.573
 5507TIP3    H216483   1.155   2.439   5.637
 5508TIP3   OH216484   2.078   1.717   5.611
 5508TIP3    H116485   2.114   1.796   5.655
 5508TIP3    H216486   2.105   1.731   5.519
 5509TIP3   OH216487   1.486   1.897   5.645
 5509TIP3    H116488   1.525   1.810   5.666
 5509TIP3    H216489   1.450   1.880   5.556
 5510TIP3   OH216490   0.813   1.541   5.607
 5510TIP3    H116491   0.800   1.613   5.542
 5510TIP3    H216492   0.773   1.466   5.559
 5511TIP3   OH216493   1.514   1.647   5.233
 5511TIP3    H116494   1.583   1.629   5.301
 5511TIP3    H216495   1.570   1.681   5.161
 5512TIP3   OH216496   0.455   1.745   5.716
 5512TIP3    H116497   0.540   1.721   5.758
 5512TIP3    H216498   0.460   1.691   5.636
 5513TIP3   OH216499   0.904   1.968   5.518
 5513TIP3    H116500   0.997   1.942   5.531
 5513TIP3    H216501   0.867   1.883   5.483
 5514TIP3   OH216502   2.159   1.926   5.778
 5514TIP3    H116503   2.073   1.969   5.759
 5514TIP3    H216504   2.160   1.935   5.874
 5515TIP3   OH216505   0.819   1.534   6.049
 5515TIP3    H116506   0.760   1.577   5.984
 5515TIP3    H216507   0.762   1.524   6.126
 5516TIP3   OH216508   1.166   2.397   5.056
 5516TIP3    H116509   1.117   2.366   4.979
 5516TIP3    H216510   1.127   2.486   5.071
 5517TIP3   OH216511   0.925   2.316   5.841
 5517TIP3    H116512   0.861   2.380   5.879
 5517TIP3    H216513   0.964   2.367   5.768
 5518TIP3   OH216514   1.723   1.651   5.404
 5518TIP3    H116515   1.716   1.592   5.480
 5518TIP3    H216516   1.776   1.725   5.439
 5519TIP3   OH216517   0.687   1.646   5.835
 5519TIP3    H116518   0.750   1.720   5.851
 5519TIP3    H216519   0.727   1.606   5.754
 5520TIP3   OH216520   0.749   2.508   5.941
 5520TIP3    H116521   0.725   2.595   5.904
 5520TIP3    H216522   0.669   2.492   5.996
 5521TIP3   OH216523   0.159   2.198   5.171
 5521TIP3    H116524   0.110   2.224   5.091
 5521TIP3    H216525   0.181   2.284   5.211
 5522TIP3   OH216526   1.585   2.716   5.416
 5522TIP3    H116527   1.495   2.705   5.455
 5522TIP3    H216528   1.577   2.805   5.376
 5523TIP3   OH216529   1.876   1.621   5.783
 5523TIP3    H116530   1.788   1.640   5.746
 5523TIP3    H216531   1.935   1.647   5.709
 5524TIP3   OH216532   1.175   1.281   5.755
 5524TIP3    H116533   1.175   1.185   5.777
 5524TIP3    H216534   1.095   1.308   5.804
 5525TIP3   OH216535   1.811   2.626   5.759
 5525TIP3    H116536   1.799   2.548   5.701
 5525TIP3    H216537   1.795   2.700   5.697
 5526TIP3   OH216538   1.105   2.023   5.016
 5526TIP3    H116539   1.021   2.068   4.995
 5526TIP3    H216540   1.147   2.014   4.929
 5527TIP3   OH216541   1.059   1.809   4.727
 5527TIP3    H116542   1.127   1.854   4.779
 5527TIP3    H216543   1.114   1.740   4.683
 5528TIP3   OH216544   2.007   2.266   5.605
 5528TIP3    H116545   1.922   2.316   5.611
 5528TIP3    H216546   2.034   2.288   5.513
 5529TIP3   OH216547   1.453   2.108   4.983
 5529TIP3    H116548   1.396   2.130   5.061
 5529TIP3    H216549   1.534   2.078   5.029
 5530TIP3   OH216550   1.684   2.142   5.900
 5530TIP3    H116551   1.680   2.225   5.950
 5530TIP3    H216552   1.597   2.144   5.855
 5531TIP3   OH216553   0.687   2.104   5.403
 5531TIP3    H116554   0.641   2.045   5.339
 5531TIP3    H216555   0.761   2.048   5.433
 5532TIP3   OH216556   0.819   2.518   5.549
 5532TIP3    H116557   0.791   2.466   5.472
 5532TIP3    H216558   0.907   2.479   5.568
 5533TIP3   OH216559   0.825   2.068   5.764
 5533TIP3    H116560   0.853   2.045   5.672
 5533TIP3    H216561   0.865   2.156   5.777
 5534TIP3   OH216562   1.340   2.709   5.529
 5534TIP3    H116563   1.331   2.788   5.586
 5534TIP3    H216564   1.328   2.636   5.593
 5535TIP3   OH216565   0.957   2.628   6.081
 5535TIP3    H116566   0.896   2.690   6.128
 5535TIP3    H216567   0.892   2.574   6.032
 5536TIP3   OH216568   1.291   1.962   4.814
 5536TIP3    H116569   1.349   2.021   4.866
 5536TIP3    H216570   1.318   1.985   4.722
 5537TIP3   OH216571   0.709   2.180   6.186
 5537TIP3    H116572   0.713   2.268   6.229
 5537TIP3    H216573   0.613   2.164   6.187
 5538TIP3   OH216574   1.062   2.662   5.076
 5538TIP3    H116575   1.056   2.720   5.153
 5538TIP3    H216576   0.993   2.697   5.019
 5539TIP3   OH216577   0.751   2.796   6.171
 5539TIP3    H116578   0.716   2.799   6.080
 5539TIP3    H216579   0.670   2.779   6.224
 5540TIP3   OH216580   1.803   1.201   4.860
 5540TIP3    H116581   1.723   1.218   4.913
 5540TIP3    H216582   1.815   1.286   4.815
 5541TIP3   OH216583   0.547   1.949   5.217
 5541TIP3    H116584   0.476   1.979   5.157
 5541TIP3    H216585   0.532   1.853   5.221
 5542TIP3   OH216586   1.606   2.574   4.433
 5542TIP3    H116587   1.615   2.666   4.401
 5542TIP3    H216588   1.694   2.538   4.410
 5543TIP3   OH216589   0.349   2.319   6.106
 5543TIP3    H116590   0.282   2.284   6.046
 5543TIP3    H216591   0.373   2.239   6.157
 5544TIP3   OH216592   0.184   2.538   5.734
 5544TIP3    H116593   0.272   2.498   5.729
 5544TIP3    H216594   0.193   2.594   5.812
 5545TIP3   OH216595   2.048   2.970   5.805
 5545TIP3    H116596   2.047   2.874   5.821
 5545TIP3    H216597   1.966   2.997   5.852
 5546TIP3   OH216598   1.152   2.757   5.939
 5546TIP3    H116599   1.152   2.849   5.973
 5546TIP3    H216600   1.081   2.717   5.993
 5547TIP3   OH216601   0.933   2.895   4.883
 5547TIP3    H116602   0.877   2.871   4.808
 5547TIP3    H216603   0.891   2.976   4.917
 5548TIP3   OH216604   0.356   2.733   5.277
 5548TIP3    H116605   0.403   2.725   5.363
 5548TIP3    H216606   0.293   2.659   5.283
 5549TIP3   OH216607   1.127   2.786   4.536
 5549TIP3    H116608   1.183   2.723   4.485
 5549TIP3    H216609   1.128   2.744   4.623
 5550TIP3   OH216610   1.937   2.102   6.079
 5550TIP3    H116611   1.855   2.112   6.029
 5550TIP3    H216612   1.955   2.006   6.067
 5551TIP3   OH216613   0.532   2.518   6.113
 5551TIP3    H116614   0.587   2.488   6.188
 5551TIP3    H216615   0.461   2.449   6.110
 5552TIP3   OH216616   0.906   1.343   5.861
 5552TIP3    H116617   0.838   1.342   5.792
 5552TIP3    H216618   0.885   1.424   5.911
 5553TIP3   OH216619   1.469   1.454   6.085
 5553TIP3    H116620   1.537   1.419   6.146
 5553TIP3    H216621   1.385   1.430   6.130
 5554TIP3   OH216622   1.710   1.880   6.007
 5554TIP3    H116623   1.656   1.874   6.088
 5554TIP3    H216624   1.681   1.964   5.967
 5555TIP3   OH216625   1.368   2.016   4.560
 5555TIP3    H116626   1.332   1.983   4.475
 5555TIP3    H216627   1.454   2.053   4.530
 5556TIP3   OH216628   1.084   1.386   4.846
 5556TIP3    H116629   1.063   1.379   4.942
 5556TIP3    H216630   1.040   1.304   4.815
 5557TIP3   OH216631   0.863   1.844   5.910
 5557TIP3    H116632   0.815   1.868   5.991
 5557TIP3    H216633   0.850   1.925   5.856
 5558TIP3   OH216634   0.786   1.747   5.422
 5558TIP3    H116635   0.692   1.719   5.434
 5558TIP3    H216636   0.795   1.727   5.326
 5559TIP3   OH216637   1.244   1.826   5.154
 5559TIP3    H116638   1.190   1.895   5.110
 5559TIP3    H216639   1.294   1.788   5.079
 5560TIP3   OH216640   1.415   2.099   6.237
 5560TIP3    H116641   1.392   2.026   6.299
 5560TIP3    H216642   1.509   2.110   6.258
 5561TIP3   OH216643   1.399   1.850   5.387
 5561TIP3    H116644   1.336   1.873   5.316
 5561TIP3    H216645   1.434   1.768   5.348
 5562TIP3   OH216646   0.680   1.884   6.119
 5562TIP3    H116647   0.717   1.951   6.179
 5562TIP3    H216648   0.630   1.828   6.180
 5563TIP3   OH216649   0.738   1.358   4.835
 5563TIP3    H116650   0.745   1.359   4.932
 5563TIP3    H216651   0.652   1.400   4.823
 5564TIP3   OH216652   1.410   2.095   5.810
 5564TIP3    H116653   1.442   2.023   5.751
 5564TIP3    H216654   1.379   2.041   5.887
 5565TIP3   OH216655   1.085   1.562   5.483
 5565TIP3    H116656   1.000   1.554   5.529
 5565TIP3    H216657   1.149   1.548   5.555
 5566TIP3   OH216658   0.550   1.632   5.468
 5566TIP3    H116659   0.456   1.655   5.450
 5566TIP3    H216660   0.555   1.541   5.432
 5567TIP3   OH216661   0.797   1.684   5.161
 5567TIP3    H116662   0.876   1.630   5.153
 5567TIP3    H216663   0.733   1.639   5.102
 5568TIP3   OH216664   1.566   1.633   5.687
 5568TIP3    H116665   1.530   1.645   5.778
 5568TIP3    H216666   1.502   1.569   5.651
 5569TIP3   OH216667   0.608   1.648   4.955
 5569TIP3    H116668   0.537   1.599   4.910
 5569TIP3    H216669   0.663   1.678   4.881
 5570TIP3   OH216670   1.740   3.321   5.905
 5570TIP3    H116671   1.739   3.347   5.811
 5570TIP3    H216672   1.819   3.369   5.937
 5571TIP3   OH216673   0.696   2.431   6.325
 5571TIP3    H116674   0.777   2.459   6.373
 5571TIP3    H216675   0.632   2.426   6.398
 5572TIP3   OH216676   1.163   1.889   5.585
 5572TIP3    H116677   1.225   1.839   5.531
 5572TIP3    H216678   1.166   1.841   5.670
 5573TIP3   OH216679   1.136   1.784   5.868
 5573TIP3    H116680   1.046   1.818   5.884
 5573TIP3    H216681   1.193   1.844   5.919
 5574TIP3   OH216682   0.870   2.174   4.962
 5574TIP3    H116683   0.801   2.105   4.954
 5574TIP3    H216684   0.853   2.206   5.055
 5575TIP3   OH216685   1.772   2.409   5.594
 5575TIP3    H116686   1.794   2.459   5.512
 5575TIP3    H216687   1.688   2.364   5.569
 5576TIP3   OH216688   1.329   1.493   4.813
 5576TIP3    H116689   1.235   1.467   4.830
 5576TIP3    H216690   1.336   1.581   4.855
 5577TIP3   OH216691   1.278   2.495   5.959
 5577TIP3    H116692   1.296   2.465   6.048
 5577TIP3    H216693   1.233   2.580   5.973
 5578TIP3   OH216694   1.399   1.732   4.934
 5578TIP3    H116695   1.495   1.736   4.952
 5578TIP3    H216696   1.383   1.813   4.883
 5579TIP3   OH216697   0.575   2.204   5.641
 5579TIP3    H116698   0.606   2.168   5.556
 5579TIP3    H216699   0.596   2.132   5.702
 5580TIP3   OH216700   1.014   2.323   4.783
 5580TIP3    H116701   0.966   2.409   4.792
 5580TIP3    H216702   0.962   2.267   4.845
 5581TIP3   OH216703   0.440   2.109   6.262
 5581TIP3    H116704   0.477   2.108   6.352
 5581TIP3    H216705   0.374   2.039   6.267
 5582TIP3   OH216706   1.172   2.231   6.272
 5582TIP3    H116707   1.112   2.169   6.228
 5582TIP3    H216708   1.259   2.194   6.245
 5583TIP3   OH216709   1.431   2.759   5.852
 5583TIP3    H116710   1.336   2.749   5.870
 5583TIP3    H216711   1.460   2.805   5.934
 5584TIP3   OH216712   1.844   1.820   4.762
 5584TIP3    H116713   1.779   1.777   4.701
 5584TIP3    H216714   1.837   1.911   4.728
 5585TIP3   OH216715   2.062   2.682   5.848
 5585TIP3    H116716   1.964   2.675   5.841
 5585TIP3    H216717   2.087   2.651   5.758
 5586TIP3   OH216718   1.525   2.611   4.704
 5586TIP3    H116719   1.518   2.516   4.725
 5586TIP3    H216720   1.544   2.604   4.608
 5587TIP3   OH216721   1.539   2.271   5.512
 5587TIP3    H116722   1.446   2.246   5.526
 5587TIP3    H216723   1.573   2.190   5.468
 5588TIP3   OH216724   0.665   2.500   5.260
 5588TIP3    H116725   0.653   2.582   5.209
 5588TIP3    H216726   0.573   2.479   5.283
 5589TIP3   OH216727   0.214   1.804   4.972
 5589TIP3    H116728   0.281   1.874   4.991
 5589TIP3    H216729   0.135   1.844   5.009
 5590TIP3   OH216730   0.807   2.267   5.208
 5590TIP3    H116731   0.765   2.352   5.229
 5590TIP3    H216732   0.774   2.211   5.281
 5591TIP3   OH216733   0.936   2.842   5.736
 5591TIP3    H116734   0.979   2.915   5.688
 5591TIP3    H216735   1.011   2.804   5.785
 5592TIP3   OH216736   0.586   2.737   5.117
 5592TIP3    H116737   0.500   2.745   5.164
 5592TIP3    H216738   0.617   2.830   5.120
 5593TIP3   OH216739   1.326   2.477   5.691
 5593TIP3    H116740   1.314   2.477   5.789
 5593TIP3    H216741   1.402   2.418   5.682
 5594TIP3   OH216742   1.297   2.376   4.576
 5594TIP3    H116743   1.351   2.347   4.652
 5594TIP3    H216744   1.211   2.338   4.601
 5595TIP3   OH216745   1.573   3.008   5.745
 5595TIP3    H116746   1.495   2.949   5.741
 5595TIP3    H216747   1.554   3.071   5.672
 5596TIP3   OH216748   1.634   2.846   4.401
 5596TIP3    H116749   1.674   2.912   4.341
 5596TIP3    H216750   1.555   2.896   4.428
 5597TIP3   OH216751   1.468   2.316   4.784
 5597TIP3    H116752   1.443   2.257   4.859
 5597TIP3    H216753   1.563   2.292   4.778
 5598TIP3   OH216754   0.373   2.701   5.896
 5598TIP3    H116755   0.430   2.630   5.930
 5598TIP3    H216756   0.398   2.775   5.953
 5599TIP3   OH216757   0.663   2.347   4.574
 5599TIP3    H116758   0.675   2.253   4.550
 5599TIP3    H216759   0.645   2.338   4.670
 5600TIP3   OH216760   0.612   2.355   4.843
 5600TIP3    H116761   0.675   2.322   4.908
 5600TIP3    H216762   0.615   2.452   4.859
 5601TIP3   OH216763   0.343   2.041   5.047
 5601TIP3    H116764   0.281   2.087   5.107
 5601TIP3    H216765   0.360   2.113   4.983
 5602TIP3   OH216766   1.492   1.691   5.949
 5602TIP3    H116767   1.578   1.719   5.983
 5602TIP3    H216768   1.477   1.607   5.999
 5603TIP3   OH216769   1.385   1.431   5.107
 5603TIP3    H116770   1.361   1.460   5.018
 5603TIP3    H216771   1.416   1.514   5.149
 5604TIP3   OH216772   0.880   2.561   4.800
 5604TIP3    H116773   0.790   2.573   4.838
 5604TIP3    H216774   0.882   2.637   4.740
 5605TIP3   OH216775   1.070   1.610   5.214
 5605TIP3    H116776   1.127   1.688   5.200
 5605TIP3    H216777   1.067   1.606   5.312
 5606TIP3   OH216778   1.333   1.934   6.017
 5606TIP3    H116779   1.357   1.983   6.098
 5606TIP3    H216780   1.386   1.853   6.025
 5607TIP3   OH216781   1.222   1.343   5.330
 5607TIP3    H116782   1.198   1.427   5.372
 5607TIP3    H216783   1.264   1.373   5.248
 5608TIP3   OH216784   0.623   2.627   4.867
 5608TIP3    H116785   0.590   2.696   4.804
 5608TIP3    H216786   0.603   2.669   4.953
 5609TIP3   OH216787   1.976   1.835   5.994
 5609TIP3    H116788   1.878   1.837   6.007
 5609TIP3    H216789   1.979   1.777   5.916
 5610TIP3   OH216790   1.624   2.030   5.386
 5610TIP3    H116791   1.548   1.971   5.398
 5610TIP3    H216792   1.695   1.983   5.434
 5611TIP3   OH216793   0.339   2.257   4.855
 5611TIP3    H116794   0.404   2.328   4.864
 5611TIP3    H216795   0.386   2.201   4.789
 5612TIP3   OH216796   0.301   1.540   4.967
 5612TIP3    H116797   0.280   1.632   4.986
 5612TIP3    H216798   0.217   1.495   4.970
 5613TIP3   OH216799   1.593   2.980   5.331
 5613TIP3    H116800   1.553   3.033   5.258
 5613TIP3    H216801   1.688   3.001   5.316
 5614TIP3   OH216802   0.205   2.470   5.243
 5614TIP3    H116803   0.142   2.509   5.305
 5614TIP3    H216804   0.177   2.512   5.158
 5615TIP3   OH216805   0.398   3.027   6.281
 5615TIP3    H116806   0.469   3.030   6.348
 5615TIP3    H216807   0.355   2.944   6.304
 5616TIP3   OH216808   0.846   2.977   6.362
 5616TIP3    H116809   0.941   2.956   6.367
 5616TIP3    H216810   0.819   2.918   6.289
 5617TIP3   OH216811   0.826   2.547   4.493
 5617TIP3    H116812   0.766   2.480   4.534
 5617TIP3    H216813   0.900   2.488   4.468
 5618TIP3   OH216814   1.486   2.883   6.093
 5618TIP3    H116815   1.476   2.814   6.163
 5618TIP3    H216816   1.563   2.934   6.125
 5619TIP3   OH216817   1.266   2.594   4.404
 5619TIP3    H116818   1.299   2.520   4.459
 5619TIP3    H216819   1.323   2.589   4.325
 5620TIP3   OH216820   0.490   2.408   6.513
 5620TIP3    H116821   0.518   2.314   6.522
 5620TIP3    H216822   0.396   2.396   6.493
 5621TIP3   OH216823   0.475   2.069   4.711
 5621TIP3    H116824   0.526   2.033   4.785
 5621TIP3    H216825   0.544   2.073   4.641
 5622TIP3   OH216826   1.101   2.505   6.291
 5622TIP3    H116827   1.060   2.522   6.203
 5622TIP3    H216828   1.132   2.413   6.283
 5623TIP3   OH216829   0.985   2.272   4.515
 5623TIP3    H116830   0.985   2.281   4.613
 5623TIP3    H216831   0.986   2.174   4.508
 5624TIP3   OH216832   1.596   2.512   5.897
 5624TIP3    H116833   1.670   2.559   5.854
 5624TIP3    H216834   1.523   2.575   5.883
 5625TIP3   OH216835   0.602   2.145   6.501
 5625TIP3    H116836   0.678   2.090   6.478
 5625TIP3    H216837   0.626   2.172   6.592
 5626TIP3   OH216838   0.682   1.972   4.934
 5626TIP3    H116839   0.661   1.930   5.018
 5626TIP3    H216840   0.717   1.896   4.883
 5627TIP3   OH216841   0.950   2.038   6.160
 5627TIP3    H116842   0.873   2.098   6.161
 5627TIP3    H216843   1.002   2.073   6.084
 5628TIP3   OH216844   0.779   1.771   4.769
 5628TIP3    H116845   0.757   1.771   4.674
 5628TIP3    H216846   0.877   1.770   4.766
 5629TIP3   OH216847   1.468   2.442   6.295
 5629TIP3    H116848   1.546   2.412   6.246
 5629TIP3    H216849   1.461   2.375   6.365
 5630TIP3   OH216850   1.601   2.102   4.435
 5630TIP3    H116851   1.582   2.053   4.352
 5630TIP3    H216852   1.567   2.190   4.410
 5631TIP3   OH216853   1.073   1.826   6.285
 5631TIP3    H116854   1.075   1.747   6.227
 5631TIP3    H216855   1.029   1.892   6.227
 5632TIP3   OH216856   1.076   1.616   6.095
 5632TIP3    H116857   1.106   1.653   6.009
 5632TIP3    H216858   0.984   1.589   6.074
 5633TIP3   OH216859   1.101   2.150   5.969
 5633TIP3    H116860   1.184   2.154   5.920
 5633TIP3    H216861   1.045   2.214   5.921
 5634TIP3   OH216862   1.684   2.115   6.349
 5634TIP3    H116863   1.729   2.029   6.356
 5634TIP3    H216864   1.754   2.171   6.311
 5635TIP3   OH216865   1.726   2.370   6.086
 5635TIP3    H116866   1.668   2.422   6.026
 5635TIP3    H216867   1.813   2.389   6.046
 5636TIP3   OH216868   0.952   1.943   6.512
 5636TIP3    H116869   0.881   1.878   6.531
 5636TIP3    H216870   0.985   1.910   6.427
 5637TIP3   OH216871   1.217   1.385   6.169
 5637TIP3    H116872   1.162   1.461   6.143
 5637TIP3    H216873   1.163   1.310   6.132
 5638TIP3   OH216874   1.332   1.881   6.378
 5638TIP3    H116875   1.317   1.866   6.473
 5638TIP3    H216876   1.243   1.856   6.345
 5639TIP3   OH216877   1.573   1.835   6.235
 5639TIP3    H116878   1.497   1.831   6.296
 5639TIP3    H216879   1.646   1.800   6.289
 5640TIP3   OH216880   1.806   1.772   6.381
 5640TIP3    H116881   1.816   1.676   6.397
 5640TIP3    H216882   1.800   1.809   6.471
 5641TIP3   OH216883   0.792   1.724   6.558
 5641TIP3    H116884   0.800   1.633   6.527
 5641TIP3    H216885   0.833   1.718   6.646
 5642TIP3   OH216886   1.300   1.380   6.429
 5642TIP3    H116887   1.371   1.315   6.412
 5642TIP3    H216888   1.258   1.382   6.340
 5643TIP3   OH216889   1.377   1.607   6.571
 5643TIP3    H116890   1.352   1.532   6.513
 5643TIP3    H216891   1.293   1.658   6.574
 5644TIP3   OH216892   0.588   2.829   4.679
 5644TIP3    H116893   0.683   2.829   4.656
 5644TIP3    H216894   0.553   2.878   4.603
 5645TIP3   OH216895   0.076   2.202   4.896
 5645TIP3    H116896   0.170   2.227   4.882
 5645TIP3    H216897   0.071   2.115   4.852
 5646TIP3   OH216898  -0.025   2.793   5.285
 5646TIP3    H116899  -0.109   2.807   5.330
 5646TIP3    H216900   0.028   2.754   5.356
 5647TIP3   OH216901   0.118   2.681   5.494
 5647TIP3    H116902   0.108   2.611   5.561
 5647TIP3    H216903   0.170   2.745   5.547
 5648TIP3   OH216904   1.844   3.077   5.295
 5648TIP3    H116905   1.868   3.106   5.385
 5648TIP3    H216906   1.910   3.124   5.241
 5649TIP3   OH216907   1.874   3.094   5.574
 5649TIP3    H116908   1.832   3.006   5.574
 5649TIP3    H216909   1.950   3.076   5.632
 5650TIP3   OH216910   1.921   2.772   6.149
 5650TIP3    H116911   1.849   2.781   6.214
 5650TIP3    H216912   1.963   2.860   6.154
 5651TIP3   OH216913   1.742   2.287   4.770
 5651TIP3    H116914   1.815   2.346   4.742
 5651TIP3    H216915   1.781   2.247   4.851
 5652TIP3   OH216916   1.863   2.154   4.974
 5652TIP3    H116917   1.798   2.110   5.033
 5652TIP3    H216918   1.929   2.188   5.038
 5653TIP3   OH216919   1.920   2.546   5.403
 5653TIP3    H116920   1.975   2.478   5.359
 5653TIP3    H216921   1.913   2.615   5.335
 5654TIP3   OH216922   1.751   2.846   5.599
 5654TIP3    H116923   1.680   2.886   5.653
 5654TIP3    H216924   1.699   2.797   5.531
 5655TIP3   OH216925   1.806   2.064   4.615
 5655TIP3    H116926   1.732   2.064   4.550
 5655TIP3    H216927   1.776   2.136   4.674
 5656TIP3   OH216928   1.675   1.735   4.567
 5656TIP3    H116929   1.625   1.762   4.490
 5656TIP3    H216930   1.654   1.639   4.568
 5657TIP3   OH216931   1.680   2.008   5.118
 5657TIP3    H116932   1.684   1.911   5.112
 5657TIP3    H216933   1.665   2.022   5.214
 5658TIP3   OH216934   0.306   2.061   5.872
 5658TIP3    H116935   0.307   2.055   5.774
 5658TIP3    H216936   0.401   2.080   5.890
 5659TIP3   OH216937   1.970   2.435   5.976
 5659TIP3    H116938   2.041   2.367   5.967
 5659TIP3    H216939   1.997   2.503   5.913
 5660TIP3   OH216940   2.154   2.238   5.991
 5660TIP3    H116941   2.079   2.188   6.029
 5660TIP3    H216942   2.226   2.175   6.009
 5661TIP3   OH216943   1.617   1.470   4.559
 5661TIP3    H116944   1.690   1.436   4.614
 5661TIP3    H216945   1.543   1.411   4.581
 5662TIP3   OH216946   1.676   1.724   5.013
 5662TIP3    H116947   1.712   1.634   5.031
 5662TIP3    H216948   1.737   1.752   4.943
 5663TIP3   OH216949   1.836   1.902   5.508
 5663TIP3    H116950   1.923   1.926   5.469
 5663TIP3    H216951   1.850   1.933   5.599
 5664TIP3   OH216952   1.907   2.044   5.740
 5664TIP3    H116953   1.829   2.076   5.789
 5664TIP3    H216954   1.939   2.125   5.697
 5665TIP3   OH216955   2.359   1.637   6.296
 5665TIP3    H116956   2.419   1.570   6.255
 5665TIP3    H216957   2.330   1.688   6.217
 5666TIP3   OH216958   1.784   1.475   5.049
 5666TIP3    H116959   1.832   1.459   5.134
 5666TIP3    H216960   1.723   1.399   5.049
 5667TIP3   OH216961   0.306   1.794   5.941
 5667TIP3    H116962   0.356   1.762   5.863
 5667TIP3    H216963   0.320   1.890   5.931
 5668TIP3   OH216964   2.228   1.774   6.099
 5668TIP3    H116965   2.140   1.813   6.115
 5668TIP3    H216966   2.202   1.699   6.041
 5669TIP3   OH216967   1.864   1.411   4.681
 5669TIP3    H116968   1.901   1.334   4.633
 5669TIP3    H216969   1.936   1.476   4.678
 5670TIP3   OH216970   0.528   2.746   6.341
 5670TIP3    H116971   0.477   2.671   6.309
 5670TIP3    H216972   0.539   2.727   6.435
 5671TIP3   OH216973   0.709   2.778   5.884
 5671TIP3    H116974   0.660   2.853   5.845
 5671TIP3    H216975   0.795   2.794   5.840
 5672TIP3   OH216976   1.154   3.023   6.022
 5672TIP3    H116977   1.196   3.024   6.111
 5672TIP3    H216978   1.220   3.074   5.970
 5673TIP3   OH216979   1.335   3.174   5.881
 5673TIP3    H116980   1.408   3.123   5.843
 5673TIP3    H216981   1.384   3.233   5.942
 5674TIP3   OH216982   2.127   1.532   5.983
 5674TIP3    H116983   2.037   1.521   5.946
 5674TIP3    H216984   2.162   1.441   5.971
 5675TIP3   OH216985   0.398   3.033   5.914
 5675TIP3    H116986   0.312   3.056   5.877
 5675TIP3    H216987   0.390   3.063   6.006
 5676TIP3   OH216988   0.627   3.014   5.763
 5676TIP3    H116989   0.543   3.026   5.812
 5676TIP3    H216990   0.603   3.047   5.674
 5677TIP3   OH216991   1.051   3.047   5.551
 5677TIP3    H116992   0.970   3.066   5.500
 5677TIP3    H216993   1.063   3.132   5.600
 5678TIP3   OH216994   1.317   2.982   5.609
 5678TIP3    H116995   1.223   3.002   5.591
 5678TIP3    H216996   1.361   3.063   5.578
 5679TIP3   OH216997   1.522   3.172   5.529
 5679TIP3    H116998   1.509   3.258   5.483
 5679TIP3    H216999   1.549   3.114   5.455
 5680TIP3   OH217000   0.297   2.828   5.654
 5680TIP3    H117001   0.315   2.795   5.744
 5680TIP3    H217002   0.367   2.781   5.605
 5681TIP3   OH217003   0.491   2.700   5.510
 5681TIP3    H117004   0.505   2.617   5.561
 5681TIP3    H217005   0.582   2.735   5.506
 5682TIP3   OH217006   0.761   2.793   5.511
 5682TIP3    H117007   0.789   2.699   5.506
 5682TIP3    H217008   0.802   2.817   5.596
 5683TIP3   OH217009   1.337   1.459   5.608
 5683TIP3    H117010   1.288   1.391   5.658
 5683TIP3    H217011   1.396   1.405   5.552
 5684TIP3   OH217012   1.853   1.336   5.504
 5684TIP3    H117013   1.889   1.384   5.427
 5684TIP3    H217014   1.757   1.347   5.493
 5685TIP3   OH217015   1.950   1.437   5.265
 5685TIP3    H117016   2.025   1.382   5.233
 5685TIP3    H217017   1.986   1.528   5.252
 5686TIP3   OH217018   1.044   1.181   5.506
 5686TIP3    H117019   1.091   1.236   5.441
 5686TIP3    H217020   1.069   1.223   5.590
 5687TIP3   OH217021   1.574   1.341   5.476
 5687TIP3    H117022   1.565   1.297   5.390
 5687TIP3    H217023   1.560   1.265   5.538
 5688TIP3   OH217024   1.601   1.262   5.041
 5688TIP3    H117025   1.516   1.307   5.061
 5688TIP3    H217026   1.588   1.178   5.089
 5689TIP3   OH217027   0.085   2.603   5.038
 5689TIP3    H117028   0.011   2.563   4.990
 5689TIP3    H217029   0.069   2.698   5.022
 5690TIP3   OH217030   0.513   1.248   5.025
 5690TIP3    H117031   0.573   1.183   4.983
 5690TIP3    H217032   0.565   1.272   5.105
 5691TIP3   OH217033   1.022   1.357   5.106
 5691TIP3    H117034   0.982   1.303   5.176
 5691TIP3    H217035   1.031   1.443   5.150
 5692TIP3   OH217036   0.858   2.787   4.622
 5692TIP3    H117037   0.938   2.820   4.578
 5692TIP3    H217038   0.834   2.712   4.563
 5693TIP3   OH217039   1.551   2.891   4.731
 5693TIP3    H117040   1.575   2.815   4.675
 5693TIP3    H217041   1.514   2.951   4.661
 5694TIP3   OH217042   1.110   1.489   6.674
 5694TIP3    H117043   1.143   1.437   6.598
 5694TIP3    H217044   1.103   1.422   6.744
 5695TIP3   OH217045   0.162   2.627   4.685
 5695TIP3    H117046   0.160   2.662   4.775
 5695TIP3    H217047   0.251   2.588   4.678
 5696TIP3   OH217048   1.864   1.501   6.413
 5696TIP3    H117049   1.884   1.468   6.504
 5696TIP3    H217050   1.953   1.495   6.371
 5697TIP3   OH217051   1.802   3.053   5.905
 5697TIP3    H117052   1.723   3.022   5.857
 5697TIP3    H217053   1.783   3.149   5.911
 5698TIP3   OH217054   3.069   2.422   4.673
 5698TIP3    H117055   3.041   2.514   4.656
 5698TIP3    H217056   2.992   2.374   4.640
 5699TIP3   OH217057   3.062   2.424   5.056
 5699TIP3    H117058   3.099   2.402   5.143
 5699TIP3    H217059   3.025   2.339   5.028
 5700TIP3   OH217060   2.365   2.319   5.418
 5700TIP3    H117061   2.393   2.249   5.480
 5700TIP3    H217062   2.445   2.374   5.417
 5701TIP3   OH217063   3.308   2.730   4.735
 5701TIP3    H117064   3.299   2.659   4.801
 5701TIP3    H217065   3.342   2.803   4.790
 5702TIP3   OH217066   2.336   2.728   5.138
 5702TIP3    H117067   2.329   2.630   5.142
 5702TIP3    H217068   2.432   2.739   5.142
 5703TIP3   OH217069   2.049   1.938   4.920
 5703TIP3    H117070   1.997   2.018   4.942
 5703TIP3    H217071   1.978   1.876   4.899
 5704TIP3   OH217072   2.102   2.218   5.100
 5704TIP3    H117073   2.148   2.140   5.138
 5704TIP3    H217074   2.169   2.253   5.040
 5705TIP3   OH217075   2.956   3.183   4.753
 5705TIP3    H117076   3.003   3.111   4.706
 5705TIP3    H217077   2.956   3.150   4.844
 5706TIP3   OH217078   2.867   2.650   5.100
 5706TIP3    H117079   2.909   2.572   5.062
 5706TIP3    H217080   2.949   2.698   5.125
 5707TIP3   OH217081   3.878   1.971   5.098
 5707TIP3    H117082   3.908   2.053   5.143
 5707TIP3    H217083   3.904   1.991   5.006
 5708TIP3   OH217084   3.277   2.153   5.133
 5708TIP3    H117085   3.320   2.069   5.156
 5708TIP3    H217086   3.247   2.134   5.042
 5709TIP3   OH217087   2.615   1.811   5.098
 5709TIP3    H117088   2.595   1.883   5.035
 5709TIP3    H217089   2.568   1.736   5.055
 5710TIP3   OH217090   3.314   1.904   4.720
 5710TIP3    H117091   3.384   1.885   4.786
 5710TIP3    H217092   3.368   1.938   4.647
 5711TIP3   OH217093   2.251   2.014   5.202
 5711TIP3    H117094   2.332   1.994   5.253
 5711TIP3    H217095   2.264   1.954   5.126
 5712TIP3   OH217096   2.691   2.211   4.997
 5712TIP3    H117097   2.786   2.187   5.012
 5712TIP3    H217098   2.654   2.125   4.969
 5713TIP3   OH217099   3.952   2.176   5.271
 5713TIP3    H117100   3.869   2.225   5.251
 5713TIP3    H217101   3.971   2.208   5.360
 5714TIP3   OH217102   2.615   1.796   5.532
 5714TIP3    H117103   2.551   1.831   5.468
 5714TIP3    H217104   2.564   1.807   5.615
 5715TIP3   OH217105   2.953   2.642   4.543
 5715TIP3    H117106   2.922   2.633   4.452
 5715TIP3    H217107   2.913   2.728   4.568
 5716TIP3   OH217108   2.719   2.570   5.327
 5716TIP3    H117109   2.658   2.637   5.365
 5716TIP3    H217110   2.763   2.622   5.256
 5717TIP3   OH217111   3.524   1.902   4.894
 5717TIP3    H117112   3.503   1.864   4.981
 5717TIP3    H217113   3.574   1.982   4.920
 5718TIP3   OH217114   2.483   1.911   5.317
 5718TIP3    H117115   2.546   1.981   5.343
 5718TIP3    H217116   2.534   1.868   5.244
 5719TIP3   OH217117   2.546   2.765   5.424
 5719TIP3    H117118   2.522   2.854   5.390
 5719TIP3    H217119   2.468   2.748   5.481
 5720TIP3   OH217120   1.945   2.453   4.661
 5720TIP3    H117121   1.902   2.484   4.579
 5720TIP3    H217122   1.978   2.537   4.700
 5721TIP3   OH217123   3.378   2.970   4.900
 5721TIP3    H117124   3.289   2.962   4.940
 5721TIP3    H217125   3.371   3.057   4.856
 5722TIP3   OH217126   3.672   1.868   5.261
 5722TIP3    H117127   3.586   1.903   5.233
 5722TIP3    H217128   3.733   1.904   5.194
 5723TIP3   OH217129   2.966   1.511   5.246
 5723TIP3    H117130   2.954   1.416   5.268
 5723TIP3    H217131   2.889   1.549   5.294
 5724TIP3   OH217132   3.080   3.013   4.574
 5724TIP3    H117133   3.130   2.931   4.555
 5724TIP3    H217134   3.141   3.078   4.534
 5725TIP3   OH217135   3.224   2.800   4.483
 5725TIP3    H117136   3.197   2.717   4.441
 5725TIP3    H217137   3.261   2.768   4.568
 5726TIP3   OH217138   3.606   2.882   5.247
 5726TIP3    H117139   3.597   2.805   5.186
 5726TIP3    H217140   3.591   2.957   5.185
 5727TIP3   OH217141   2.899   2.275   4.502
 5727TIP3    H117142   2.825   2.333   4.475
 5727TIP3    H217143   2.950   2.267   4.419
 5728TIP3   OH217144   2.865   2.067   4.223
 5728TIP3    H117145   2.937   2.115   4.267
 5728TIP3    H217146   2.915   1.998   4.176
 5729TIP3   OH217147   3.802   2.518   5.088
 5729TIP3    H117148   3.720   2.572   5.094
 5729TIP3    H217149   3.832   2.542   4.998
 5730TIP3   OH217150   3.247   2.359   4.474
 5730TIP3    H117151   3.194   2.382   4.554
 5730TIP3    H217152   3.332   2.334   4.516
 5731TIP3   OH217153   3.481   2.398   5.388
 5731TIP3    H117154   3.480   2.480   5.442
 5731TIP3    H217155   3.395   2.405   5.342
 5732TIP3   OH217156   2.481   2.352   4.889
 5732TIP3    H117157   2.447   2.291   4.822
 5732TIP3    H217158   2.559   2.303   4.925
 5733TIP3   OH217159   2.612   2.770   5.039
 5733TIP3    H117160   2.593   2.723   4.957
 5733TIP3    H217161   2.702   2.737   5.061
 5734TIP3   OH217162   2.612   2.330   5.244
 5734TIP3    H117163   2.651   2.305   5.157
 5734TIP3    H217164   2.658   2.414   5.265
 5735TIP3   OH217165   3.136   2.965   5.021
 5735TIP3    H117166   3.127   3.046   5.075
 5735TIP3    H217167   3.123   2.894   5.086
 5736TIP3   OH217168   2.754   2.885   5.569
 5736TIP3    H117169   2.693   2.946   5.616
 5736TIP3    H217170   2.689   2.830   5.520
 5737TIP3   OH217171   3.087   2.220   4.302
 5737TIP3    H117172   3.147   2.279   4.352
 5737TIP3    H217173   3.113   2.242   4.209
 5738TIP3   OH217174   2.507   2.442   5.670
 5738TIP3    H117175   2.511   2.529   5.714
 5738TIP3    H217176   2.412   2.420   5.684
 5739TIP3   OH217177   2.829   2.897   4.572
 5739TIP3    H117178   2.912   2.945   4.589
 5739TIP3    H217179   2.770   2.966   4.539
 5740TIP3   OH217180   2.546   3.051   5.657
 5740TIP3    H117181   2.510   3.053   5.566
 5740TIP3    H217182   2.467   3.030   5.711
 5741TIP3   OH217183   2.345   2.188   4.687
 5741TIP3    H117184   2.278   2.235   4.635
 5741TIP3    H217185   2.292   2.126   4.739
 5742TIP3   OH217186   3.398   2.831   3.890
 5742TIP3    H117187   3.393   2.929   3.881
 5742TIP3    H217188   3.493   2.817   3.881
 5743TIP3   OH217189   2.126   2.582   5.604
 5743TIP3    H117190   2.059   2.558   5.537
 5743TIP3    H217191   2.163   2.496   5.630
 5744TIP3   OH217192   1.980   2.783   5.224
 5744TIP3    H117193   2.076   2.768   5.226
 5744TIP3    H217194   1.971   2.854   5.289
 5745TIP3   OH217195   3.845   3.227   5.293
 5745TIP3    H117196   3.843   3.131   5.307
 5745TIP3    H217197   3.762   3.253   5.338
 5746TIP3   OH217198   2.949   3.014   5.425
 5746TIP3    H117199   2.948   3.107   5.459
 5746TIP3    H217200   2.879   2.973   5.481
 5747TIP3   OH217201   2.707   3.128   4.379
 5747TIP3    H117202   2.661   3.123   4.293
 5747TIP3    H217203   2.681   3.216   4.412
 5748TIP3   OH217204   2.150   2.987   4.764
 5748TIP3    H117205   2.202   2.983   4.848
 5748TIP3    H217206   2.095   2.907   4.775
 5749TIP3   OH217207   2.909   3.042   4.018
 5749TIP3    H117208   2.969   2.973   3.982
 5749TIP3    H217209   2.945   3.053   4.108
 5750TIP3   OH217210   2.962   3.091   4.290
 5750TIP3    H117211   2.874   3.093   4.334
 5750TIP3    H217212   3.018   3.055   4.361
 5751TIP3   OH217213   3.734   2.357   5.567
 5751TIP3    H117214   3.652   2.367   5.517
 5751TIP3    H217215   3.750   2.261   5.560
 5752TIP3   OH217216   2.329   2.766   5.590
 5752TIP3    H117217   2.379   2.751   5.673
 5752TIP3    H217218   2.256   2.702   5.599
 5753TIP3   OH217219   2.729   1.592   5.373
 5753TIP3    H117220   2.640   1.558   5.348
 5753TIP3    H217221   2.702   1.669   5.426
 5754TIP3   OH217222   3.265   1.704   5.571
 5754TIP3    H117223   3.334   1.676   5.634
 5754TIP3    H217224   3.182   1.684   5.619
 5755TIP3   OH217225   3.499   2.132   5.486
 5755TIP3    H117226   3.452   2.129   5.572
 5755TIP3    H217227   3.479   2.222   5.454
 5756TIP3   OH217228   3.165   2.265   4.046
 5756TIP3    H117229   3.130   2.240   3.958
 5756TIP3    H217230   3.246   2.313   4.020
 5757TIP3   OH217231   2.872   1.640   4.348
 5757TIP3    H117232   2.843   1.634   4.441
 5757TIP3    H217233   2.837   1.556   4.313
 5758TIP3   OH217234   2.661   2.107   5.394
 5758TIP3    H117235   2.612   2.127   5.476
 5758TIP3    H217236   2.644   2.188   5.342
 5759TIP3   OH217237   2.543   1.990   4.905
 5759TIP3    H117238   2.452   1.961   4.929
 5759TIP3    H217239   2.553   1.947   4.818
 5760TIP3   OH217240   3.034   2.072   4.635
 5760TIP3    H117241   2.986   2.146   4.592
 5760TIP3    H217242   3.092   2.042   4.562
 5761TIP3   OH217243   3.212   2.355   5.722
 5761TIP3    H117244   3.192   2.282   5.784
 5761TIP3    H217245   3.306   2.370   5.743
 5762TIP3   OH217246   3.193   2.103   4.875
 5762TIP3    H117247   3.133   2.134   4.805
 5762TIP3    H217248   3.227   2.023   4.832
 5763TIP3   OH217249   2.479   2.133   5.603
 5763TIP3    H117250   2.511   2.194   5.671
 5763TIP3    H217251   2.468   2.050   5.654
 5764TIP3   OH217252   2.528   1.638   4.316
 5764TIP3    H117253   2.532   1.617   4.412
 5764TIP3    H217254   2.441   1.605   4.291
 5765TIP3   OH217255   2.076   1.664   5.175
 5765TIP3    H117256   2.151   1.686   5.234
 5765TIP3    H217257   2.117   1.614   5.103
 5766TIP3   OH217258   2.046   1.636   4.697
 5766TIP3    H117259   2.104   1.678   4.631
 5766TIP3    H217260   1.984   1.709   4.719
 5767TIP3   OH217261   3.197   2.351   5.296
 5767TIP3    H117262   3.233   2.280   5.238
 5767TIP3    H217263   3.172   2.298   5.374
 5768TIP3   OH217264   2.871   1.820   4.972
 5768TIP3    H117265   2.793   1.813   5.030
 5768TIP3    H217266   2.944   1.807   5.035
 5769TIP3   OH217267   2.309   1.868   4.972
 5769TIP3    H117268   2.213   1.874   4.949
 5769TIP3    H217269   2.328   1.773   4.960
 5770TIP3   OH217270   2.585   1.873   4.651
 5770TIP3    H117271   2.678   1.854   4.678
 5770TIP3    H217272   2.602   1.948   4.593
 5771TIP3   OH217273   3.364   1.891   5.169
 5771TIP3    H117274   3.334   1.903   5.262
 5771TIP3    H217275   3.298   1.828   5.137
 5772TIP3   OH217276   3.536   3.578   5.391
 5772TIP3    H117277   3.535   3.603   5.297
 5772TIP3    H217278   3.616   3.626   5.423
 5773TIP3   OH217279   2.492   2.689   5.812
 5773TIP3    H117280   2.572   2.719   5.860
 5773TIP3    H217281   2.428   2.688   5.885
 5774TIP3   OH217282   2.954   2.143   5.067
 5774TIP3    H117283   3.029   2.102   5.020
 5774TIP3    H217284   2.960   2.100   5.154
 5775TIP3   OH217285   2.479   1.625   4.945
 5775TIP3    H117286   2.437   1.553   4.998
 5775TIP3    H217287   2.544   1.574   4.894
 5776TIP3   OH217288   2.933   2.043   5.352
 5776TIP3    H117289   2.843   2.076   5.371
 5776TIP3    H217290   2.991   2.100   5.406
 5777TIP3   OH217291   2.670   2.434   4.453
 5777TIP3    H117292   2.599   2.370   4.464
 5777TIP3    H217293   2.666   2.477   4.542
 5778TIP3   OH217294   3.570   2.666   5.080
 5778TIP3    H117295   3.596   2.716   4.999
 5778TIP3    H217296   3.486   2.624   5.053
 5779TIP3   OH217297   3.126   1.742   4.313
 5779TIP3    H117298   3.029   1.724   4.324
 5779TIP3    H217299   3.135   1.836   4.340
 5780TIP3   OH217300   3.063   2.745   5.450
 5780TIP3    H117301   3.100   2.727   5.537
 5780TIP3    H217302   3.031   2.836   5.458
 5781TIP3   OH217303   3.197   1.989   4.418
 5781TIP3    H117304   3.293   1.993   4.436
 5781TIP3    H217305   3.182   2.071   4.366
 5782TIP3   OH217306   2.359   2.449   5.126
 5782TIP3    H117307   2.402   2.419   5.043
 5782TIP3    H217308   2.404   2.394   5.192
 5783TIP3   OH217309   2.815   2.578   4.270
 5783TIP3    H117310   2.766   2.664   4.275
 5783TIP3    H217311   2.763   2.524   4.333
 5784TIP3   OH217312   2.242   2.372   5.742
 5784TIP3    H117313   2.260   2.356   5.837
 5784TIP3    H217314   2.174   2.305   5.724
 5785TIP3   OH217315   2.969   2.484   5.764
 5785TIP3    H117316   2.911   2.425   5.714
 5785TIP3    H217317   3.058   2.451   5.736
 5786TIP3   OH217318   3.227   3.005   5.346
 5786TIP3    H117319   3.130   3.007   5.359
 5786TIP3    H217320   3.257   3.058   5.423
 5787TIP3   OH217321   3.634   2.079   4.256
 5787TIP3    H117322   3.573   2.037   4.191
 5787TIP3    H217323   3.633   2.169   4.219
 5788TIP3   OH217324   3.857   2.937   5.335
 5788TIP3    H117325   3.759   2.931   5.327
 5788TIP3    H217326   3.883   2.907   5.245
 5789TIP3   OH217327   3.326   2.898   4.159
 5789TIP3    H117328   3.319   2.834   4.232
 5789TIP3    H217329   3.351   2.842   4.083
 5790TIP3   OH217330   3.334   2.529   4.997
 5790TIP3    H117331   3.241   2.504   5.011
 5790TIP3    H217332   3.369   2.448   4.955
 5791TIP3   OH217333   2.462   2.752   4.746
 5791TIP3    H117334   2.463   2.836   4.696
 5791TIP3    H217335   2.369   2.745   4.771
 5792TIP3   OH217336   2.030   2.065   4.462
 5792TIP3    H117337   2.067   2.154   4.481
 5792TIP3    H217338   1.949   2.067   4.519
 5793TIP3   OH217339   2.598   2.519   4.695
 5793TIP3    H117340   2.562   2.608   4.714
 5793TIP3    H217341   2.567   2.469   4.772
 5794TIP3   OH217342   2.732   3.099   5.221
 5794TIP3    H117343   2.775   3.172   5.172
 5794TIP3    H217344   2.807   3.062   5.270
 5795TIP3   OH217345   2.380   2.996   4.601
 5795TIP3    H117346   2.296   3.004   4.650
 5795TIP3    H217347   2.413   3.088   4.607
 5796TIP3   OH217348   3.119   2.732   5.181
 5796TIP3    H117349   3.108   2.730   5.278
 5796TIP3    H217350   3.201   2.683   5.170
 5797TIP3   OH217351   3.095   2.626   4.065
 5797TIP3    H117352   3.151   2.602   4.142
 5797TIP3    H217353   3.009   2.598   4.097
 5798TIP3   OH217354   3.367   3.265   5.232
 5798TIP3    H117355   3.287   3.210   5.223
 5798TIP3    H217356   3.353   3.330   5.160
 5799TIP3   OH217357   3.429   3.109   3.873
 5799TIP3    H117358   3.481   3.188   3.848
 5799TIP3    H217359   3.351   3.153   3.913
 5800TIP3   OH217360   2.453   1.879   5.749
 5800TIP3    H117361   2.355   1.877   5.758
 5800TIP3    H217362   2.479   1.812   5.815
 5801TIP3   OH217363   3.254   2.560   4.281
 5801TIP3    H117364   3.245   2.492   4.352
 5801TIP3    H217365   3.351   2.555   4.267
 5802TIP3   OH217366   2.169   2.958   5.380
 5802TIP3    H117367   2.225   2.888   5.419
 5802TIP3    H217368   2.192   3.033   5.436
 5803TIP3   OH217369   2.456   2.610   4.064
 5803TIP3    H117370   2.477   2.521   4.033
 5803TIP3    H217371   2.444   2.596   4.160
 5804TIP3   OH217372   2.411   2.609   4.341
 5804TIP3    H117373   2.488   2.594   4.398
 5804TIP3    H217374   2.407   2.707   4.341
 5805TIP3   OH217375   2.143   2.309   4.535
 5805TIP3    H117376   2.078   2.349   4.597
 5805TIP3    H217377   2.150   2.382   4.470
 5806TIP3   OH217378   3.292   1.939   5.429
 5806TIP3    H117379   3.370   1.981   5.469
 5806TIP3    H217380   3.279   1.860   5.485
 5807TIP3   OH217381   3.163   1.699   4.598
 5807TIP3    H117382   3.159   1.718   4.503
 5807TIP3    H217383   3.209   1.778   4.634
 5808TIP3   OH217384   2.667   2.804   4.282
 5808TIP3    H117385   2.583   2.835   4.321
 5808TIP3    H217386   2.692   2.880   4.228
 5809TIP3   OH217387   2.851   1.875   4.706
 5809TIP3    H117388   2.918   1.943   4.684
 5809TIP3    H217389   2.866   1.864   4.803
 5810TIP3   OH217390   3.131   2.190   5.506
 5810TIP3    H117391   3.153   2.243   5.585
 5810TIP3    H217392   3.185   2.111   5.519
 5811TIP3   OH217393   3.003   1.598   4.800
 5811TIP3    H117394   3.012   1.669   4.867
 5811TIP3    H217395   3.062   1.633   4.730
 5812TIP3   OH217396   2.410   2.882   4.351
 5812TIP3    H117397   2.383   2.954   4.291
 5812TIP3    H217398   2.398   2.925   4.439
 5813TIP3   OH217399   2.518   1.597   4.587
 5813TIP3    H117400   2.524   1.682   4.634
 5813TIP3    H217401   2.611   1.567   4.597
 5814TIP3   OH217402   3.768   2.092   5.489
 5814TIP3    H117403   3.670   2.087   5.494
 5814TIP3    H217404   3.783   2.052   5.402
 5815TIP3   OH217405   3.420   2.286   4.877
 5815TIP3    H117406   3.345   2.225   4.891
 5815TIP3    H217407   3.493   2.241   4.924
 5816TIP3   OH217408   2.131   2.516   4.346
 5816TIP3    H117409   2.198   2.585   4.357
 5816TIP3    H217410   2.172   2.466   4.272
 5817TIP3   OH217411   2.102   1.804   4.463
 5817TIP3    H117412   2.063   1.892   4.479
 5817TIP3    H217413   2.024   1.750   4.441
 5818TIP3   OH217414   3.386   3.244   4.818
 5818TIP3    H117415   3.348   3.284   4.738
 5818TIP3    H217416   3.482   3.265   4.803
 5819TIP3   OH217417   2.464   1.508   5.351
 5819TIP3    H117418   2.434   1.469   5.267
 5819TIP3    H217419   2.454   1.432   5.413
 5820TIP3   OH217420   2.003   2.719   4.730
 5820TIP3    H117421   1.941   2.759   4.792
 5820TIP3    H217422   1.979   2.764   4.646
 5821TIP3   OH217423   2.162   3.271   5.803
 5821TIP3    H117424   2.248   3.272   5.851
 5821TIP3    H217425   2.143   3.176   5.803
 5822TIP3   OH217426   2.640   3.234   5.848
 5822TIP3    H117427   2.735   3.217   5.856
 5822TIP3    H217428   2.617   3.173   5.775
 5823TIP3   OH217429   2.624   2.810   3.974
 5823TIP3    H117430   2.569   2.739   4.013
 5823TIP3    H217431   2.700   2.759   3.942
 5824TIP3   OH217432   3.281   3.140   5.581
 5824TIP3    H117433   3.273   3.071   5.650
 5824TIP3    H217434   3.359   3.191   5.611
 5825TIP3   OH217435   3.058   2.850   3.889
 5825TIP3    H117436   3.102   2.787   3.950
 5825TIP3    H217437   3.114   2.845   3.809
 5826TIP3   OH217438   2.292   2.675   6.003
 5826TIP3    H117439   2.308   2.578   6.007
 5826TIP3    H217440   2.204   2.678   5.960
 5827TIP3   OH217441   2.260   2.332   4.188
 5827TIP3    H117442   2.323   2.318   4.260
 5827TIP3    H217443   2.323   2.335   4.112
 5828TIP3   OH217444   2.897   2.760   5.778
 5828TIP3    H117445   2.860   2.779   5.690
 5828TIP3    H217446   2.930   2.668   5.768
 5829TIP3   OH217447   2.772   2.524   4.004
 5829TIP3    H117448   2.783   2.536   4.100
 5829TIP3    H217449   2.779   2.426   3.998
 5830TIP3   OH217450   3.389   2.771   5.382
 5830TIP3    H117451   3.467   2.812   5.339
 5830TIP3    H217452   3.323   2.841   5.367
 5831TIP3   OH217453   2.411   2.414   5.986
 5831TIP3    H117454   2.484   2.357   5.961
 5831TIP3    H217455   2.440   2.447   6.074
 5832TIP3   OH217456   2.744   2.295   5.647
 5832TIP3    H117457   2.667   2.355   5.646
 5832TIP3    H217458   2.797   2.328   5.571
 5833TIP3   OH217459   3.263   2.696   5.781
 5833TIP3    H117460   3.344   2.672   5.734
 5833TIP3    H217461   3.260   2.630   5.852
 5834TIP3   OH217462   3.403   2.360   3.919
 5834TIP3    H117463   3.384   2.313   3.836
 5834TIP3    H217464   3.366   2.448   3.897
 5835TIP3   OH217465   2.867   2.085   5.776
 5835TIP3    H117466   2.869   2.004   5.720
 5835TIP3    H217467   2.823   2.149   5.716
 5836TIP3   OH217468   2.871   1.873   5.582
 5836TIP3    H117469   2.900   1.910   5.497
 5836TIP3    H217470   2.778   1.848   5.563
 5837TIP3   OH217471   2.897   2.402   5.454
 5837TIP3    H117472   2.983   2.412   5.412
 5837TIP3    H217473   2.843   2.470   5.408
 5838TIP3   OH217474   3.476   2.373   5.830
 5838TIP3    H117475   3.523   2.294   5.862
 5838TIP3    H217476   3.549   2.428   5.799
 5839TIP3   OH217477   3.521   2.625   5.568
 5839TIP3    H117478   3.463   2.680   5.509
 5839TIP3    H217479   3.609   2.646   5.530
 5840TIP3   OH217480   2.746   2.196   6.011
 5840TIP3    H117481   2.680   2.124   6.021
 5840TIP3    H217482   2.781   2.176   5.922
 5841TIP3   OH217483   3.004   1.633   5.647
 5841TIP3    H117484   2.952   1.714   5.626
 5841TIP3    H217485   2.935   1.563   5.637
 5842TIP3   OH217486   3.130   2.138   5.864
 5842TIP3    H117487   3.121   2.123   5.960
 5842TIP3    H217488   3.040   2.113   5.835
 5843TIP3   OH217489   3.367   2.085   5.716
 5843TIP3    H117490   3.295   2.087   5.782
 5843TIP3    H217491   3.444   2.056   5.770
 5844TIP3   OH217492   3.594   2.022   5.861
 5844TIP3    H117493   3.609   1.928   5.885
 5844TIP3    H217494   3.590   2.067   5.948
 5845TIP3   OH217495   2.589   1.976   6.060
 5845TIP3    H117496   2.587   1.885   6.022
 5845TIP3    H217497   2.627   1.957   6.148
 5846TIP3   OH217498   3.098   1.643   5.905
 5846TIP3    H117499   3.165   1.572   5.900
 5846TIP3    H217500   3.058   1.636   5.816
 5847TIP3   OH217501   3.164   1.857   6.065
 5847TIP3    H117502   3.144   1.786   6.001
 5847TIP3    H217503   3.086   1.916   6.055
 5848TIP3   OH217504   2.384   3.090   4.167
 5848TIP3    H117505   2.479   3.080   4.144
 5848TIP3    H217506   2.352   3.138   4.088
 5849TIP3   OH217507   1.860   2.470   4.378
 5849TIP3    H117508   1.955   2.491   4.364
 5849TIP3    H217509   1.855   2.381   4.338
 5850TIP3   OH217510   1.775   3.075   4.793
 5850TIP3    H117511   1.704   3.014   4.767
 5850TIP3    H217512   1.822   3.021   4.861
 5851TIP3   OH217513   1.913   2.927   4.982
 5851TIP3    H117514   1.913   2.859   5.052
 5851TIP3    H217515   1.963   2.996   5.030
 5852TIP3   OH217516   3.635   3.345   4.780
 5852TIP3    H117517   3.670   3.372   4.867
 5852TIP3    H217518   3.710   3.366   4.721
 5853TIP3   OH217519   3.669   3.352   5.064
 5853TIP3    H117520   3.629   3.263   5.060
 5853TIP3    H217521   3.749   3.332   5.115
 5854TIP3   OH217522   3.716   3.029   5.636
 5854TIP3    H117523   3.645   3.038   5.702
 5854TIP3    H217524   3.759   3.117   5.640
 5855TIP3   OH217525   3.527   2.539   4.251
 5855TIP3    H117526   3.584   2.612   4.220
 5855TIP3    H217527   3.580   2.503   4.326
 5856TIP3   OH217528   3.661   2.402   4.450
 5856TIP3    H117529   3.603   2.370   4.522
 5856TIP3    H217530   3.719   2.467   4.492
 5857TIP3   OH217531   3.716   2.798   4.887
 5857TIP3    H117532   3.770   2.734   4.837
 5857TIP3    H217533   3.715   2.876   4.828
 5858TIP3   OH217534   3.546   3.101   5.086
 5858TIP3    H117535   3.475   3.143   5.138
 5858TIP3    H217536   3.497   3.054   5.016
 5859TIP3   OH217537   3.599   2.313   4.107
 5859TIP3    H117538   3.525   2.321   4.043
 5859TIP3    H217539   3.577   2.387   4.167
 5860TIP3   OH217540   3.470   1.990   4.058
 5860TIP3    H117541   3.426   2.024   3.979
 5860TIP3    H217542   3.446   1.895   4.053
 5861TIP3   OH217543   3.472   2.267   4.608
 5861TIP3    H117544   3.486   2.172   4.602
 5861TIP3    H217545   3.458   2.281   4.705
 5862TIP3   OH217546   2.101   2.345   5.351
 5862TIP3    H117547   2.100   2.309   5.259
 5862TIP3    H217548   2.198   2.344   5.370
 5863TIP3   OH217549   3.765   2.691   5.462
 5863TIP3    H117550   3.837   2.624   5.454
 5863TIP3    H217551   3.794   2.760   5.400
 5864TIP3   OH217552   3.949   2.495   5.479
 5864TIP3    H117553   3.875   2.444   5.519
 5864TIP3    H217554   4.023   2.432   5.493
 5865TIP3   OH217555   3.419   1.722   4.051
 5865TIP3    H117556   3.485   1.691   4.115
 5865TIP3    H217557   3.341   1.668   4.070
 5866TIP3   OH217558   3.471   1.979   4.498
 5866TIP3    H117559   3.512   1.890   4.512
 5866TIP3    H217560   3.531   2.015   4.431
 5867TIP3   OH217561   3.631   2.154   4.995
 5867TIP3    H117562   3.717   2.180   4.955
 5867TIP3    H217563   3.645   2.191   5.085
 5868TIP3   OH217564   3.702   2.299   5.226
 5868TIP3    H117565   3.626   2.334   5.275
 5868TIP3    H217566   3.736   2.380   5.181
 5869TIP3   OH217567   2.323   2.030   6.039
 5869TIP3    H117568   2.419   2.017   6.032
 5869TIP3    H217569   2.295   1.942   6.069
 5870TIP3   OH217570   4.152   1.890   5.782
 5870TIP3    H117571   4.213   1.826   5.742
 5870TIP3    H217572   4.125   1.945   5.705
 5871TIP3   OH217573   3.583   1.730   4.535
 5871TIP3    H117574   3.626   1.714   4.621
 5871TIP3    H217575   3.520   1.654   4.531
 5872TIP3   OH217576   2.280   1.717   5.353
 5872TIP3    H117577   2.338   1.640   5.368
 5872TIP3    H217578   2.345   1.789   5.351
 5873TIP3   OH217579   2.082   1.994   5.428
 5873TIP3    H117580   2.133   1.986   5.345
 5873TIP3    H217581   2.119   2.073   5.468
 5874TIP3   OH217582   4.025   2.031   5.586
 5874TIP3    H117583   3.940   2.072   5.612
 5874TIP3    H217584   3.992   1.958   5.530
 5875TIP3   OH217585   3.689   1.659   4.178
 5875TIP3    H117586   3.706   1.623   4.089
 5875TIP3    H217587   3.735   1.745   4.175
 5876TIP3   OH217588   2.067   1.500   4.933
 5876TIP3    H117589   1.975   1.489   4.963
 5876TIP3    H217590   2.057   1.555   4.853
 5877TIP3   OH217591   3.219   3.197   4.435
 5877TIP3    H117592   3.279   3.188   4.358
 5877TIP3    H217593   3.268   3.262   4.490
 5878TIP3   OH217594   2.292   1.597   5.755
 5878TIP3    H117595   2.237   1.567   5.830
 5878TIP3    H217596   2.224   1.608   5.687
 5879TIP3   OH217597   2.327   3.003   5.822
 5879TIP3    H117598   2.234   2.976   5.807
 5879TIP3    H217599   2.338   2.986   5.916
 5880TIP3   OH217600   2.505   3.035   5.368
 5880TIP3    H117601   2.458   3.112   5.330
 5880TIP3    H217602   2.592   3.048   5.326
 5881TIP3   OH217603   2.949   3.281   5.508
 5881TIP3    H117604   2.991   3.280   5.597
 5881TIP3    H217605   3.016   3.331   5.457
 5882TIP3   OH217606   3.130   3.432   5.367
 5882TIP3    H117607   3.202   3.381   5.328
 5882TIP3    H217608   3.180   3.489   5.429
 5883TIP3   OH217609   3.925   1.792   5.467
 5883TIP3    H117610   3.833   1.783   5.436
 5883TIP3    H217611   3.957   1.700   5.457
 5884TIP3   OH217612   2.179   3.289   5.395
 5884TIP3    H117613   2.090   3.324   5.374
 5884TIP3    H217614   2.196   3.334   5.479
 5885TIP3   OH217615   2.416   3.269   5.252
 5885TIP3    H117616   2.329   3.282   5.296
 5885TIP3    H217617   2.398   3.304   5.163
 5886TIP3   OH217618   2.844   3.300   5.048
 5886TIP3    H117619   2.772   3.321   4.986
 5886TIP3    H217620   2.856   3.386   5.094
 5887TIP3   OH217621   3.113   3.236   5.100
 5887TIP3    H117622   3.019   3.258   5.081
 5887TIP3    H217623   3.159   3.313   5.063
 5888TIP3   OH217624   3.315   3.427   5.017
 5888TIP3    H117625   3.304   3.513   4.969
 5888TIP3    H217626   3.346   3.369   4.944
 5889TIP3   OH217627   2.092   3.084   5.136
 5889TIP3    H117628   2.116   3.059   5.228
 5889TIP3    H217629   2.165   3.039   5.088
 5890TIP3   OH217630   2.289   2.956   4.994
 5890TIP3    H117631   2.303   2.873   5.046
 5890TIP3    H217632   2.380   2.993   4.993
 5891TIP3   OH217633   2.553   3.049   5.002
 5891TIP3    H117634   2.586   2.958   4.994
 5891TIP3    H217635   2.598   3.076   5.084
 5892TIP3   OH217636   3.119   1.703   5.076
 5892TIP3    H117637   3.082   1.636   5.136
 5892TIP3    H217638   3.200   1.658   5.043
 5893TIP3   OH217639   3.650   1.577   4.982
 5893TIP3    H117640   3.688   1.635   4.914
 5893TIP3    H217641   3.557   1.605   4.985
 5894TIP3   OH217642   3.755   1.682   4.749
 5894TIP3    H117643   3.833   1.650   4.702
 5894TIP3    H217644   3.774   1.779   4.745
 5895TIP3   OH217645   2.376   1.416   5.099
 5895TIP3    H117646   2.285   1.381   5.109
 5895TIP3    H217647   2.427   1.332   5.099
 5896TIP3   OH217648   2.151   1.289   4.749
 5896TIP3    H117649   2.189   1.348   4.682
 5896TIP3    H217650   2.133   1.350   4.823
 5897TIP3   OH217651   2.814   1.458   4.982
 5897TIP3    H117652   2.879   1.502   4.925
 5897TIP3    H217653   2.844   1.484   5.070
 5898TIP3   OH217654   3.365   1.597   4.968
 5898TIP3    H117655   3.367   1.556   4.880
 5898TIP3    H217656   3.353   1.517   5.025
 5899TIP3   OH217657   3.404   1.521   4.539
 5899TIP3    H117658   3.311   1.551   4.539
 5899TIP3    H217659   3.395   1.434   4.581
 5900TIP3   OH217660   1.875   2.859   4.537
 5900TIP3    H117661   1.795   2.829   4.492
 5900TIP3    H217662   1.876   2.952   4.509
 5901TIP3   OH217663   2.286   1.456   4.504
 5901TIP3    H117664   2.327   1.379   4.460
 5901TIP3    H217665   2.362   1.496   4.550
 5902TIP3   OH217666   2.795   1.623   4.613
 5902TIP3    H117667   2.851   1.570   4.672
 5902TIP3    H217668   2.824   1.712   4.640
 5903TIP3   OH217669   2.649   3.048   4.107
 5903TIP3    H117670   2.740   3.068   4.075
 5903TIP3    H217671   2.630   2.970   4.050
 5904TIP3   OH217672   3.367   3.161   4.205
 5904TIP3    H117673   3.356   3.063   4.196
 5904TIP3    H217674   3.322   3.193   4.125
 5905TIP3   OH217675   2.584   1.708   6.002
 5905TIP3    H117676   2.548   1.630   6.046
 5905TIP3    H217677   2.679   1.700   6.025
 5906TIP3   OH217678   2.837   1.698   6.116
 5906TIP3    H117679   2.920   1.670   6.073
 5906TIP3    H217680   2.824   1.626   6.181
 5907TIP3   OH217681   1.958   2.884   4.167
 5907TIP3    H117682   1.963   2.910   4.260
 5907TIP3    H217683   2.046   2.841   4.153
 5908TIP3   OH217684   3.660   1.754   5.901
 5908TIP3    H117685   3.678   1.723   5.993
 5908TIP3    H217686   3.749   1.750   5.861
 5909TIP3   OH217687   3.597   3.309   5.393
 5909TIP3    H117688   3.519   3.279   5.343
 5909TIP3    H217689   3.579   3.405   5.397
 5910TIP3   OH217690   4.864   2.677   4.162
 5910TIP3    H117691   4.836   2.769   4.142
 5910TIP3    H217692   4.786   2.630   4.127
 5911TIP3   OH217693   4.866   2.682   4.539
 5911TIP3    H117694   4.896   2.652   4.627
 5911TIP3    H217695   4.822   2.602   4.504
 5912TIP3   OH217696   4.159   2.578   4.913
 5912TIP3    H117697   4.197   2.510   4.972
 5912TIP3    H217698   4.238   2.627   4.887
 5913TIP3   OH217699   5.112   2.974   4.225
 5913TIP3    H117700   5.094   2.912   4.297
 5913TIP3    H217701   5.137   3.055   4.273
 5914TIP3   OH217702   4.134   2.990   4.632
 5914TIP3    H117703   4.128   2.892   4.637
 5914TIP3    H217704   4.230   3.002   4.624
 5915TIP3   OH217705   3.842   2.177   4.414
 5915TIP3    H117706   3.810   2.268   4.427
 5915TIP3    H217707   3.763   2.136   4.374
 5916TIP3   OH217708   4.748   3.444   4.236
 5916TIP3    H117709   4.796   3.374   4.187
 5916TIP3    H217710   4.750   3.408   4.326
 5917TIP3   OH217711   4.660   2.908   4.590
 5917TIP3    H117712   4.698   2.833   4.541
 5917TIP3    H217713   4.744   2.953   4.615
 5918TIP3   OH217714   5.677   2.226   4.586
 5918TIP3    H117715   5.706   2.310   4.628
 5918TIP3    H217716   5.698   2.243   4.493
 5919TIP3   OH217717   5.073   2.407   4.621
 5919TIP3    H117718   5.117   2.322   4.641
 5919TIP3    H217719   5.044   2.392   4.529
 5920TIP3   OH217720   4.413   2.067   4.584
 5920TIP3    H117721   4.395   2.141   4.523
 5920TIP3    H217722   4.363   1.996   4.540
 5921TIP3   OH217723   5.107   2.159   4.207
 5921TIP3    H117724   5.179   2.143   4.273
 5921TIP3    H217725   5.160   2.194   4.133
 5922TIP3   OH217726   4.042   2.261   4.703
 5922TIP3    H117727   4.130   2.242   4.740
 5922TIP3    H217728   4.053   2.228   4.612
 5923TIP3   OH217729   4.488   2.461   4.492
 5923TIP3    H117730   4.582   2.438   4.502
 5923TIP3    H217731   4.451   2.378   4.455
 5924TIP3   OH217732   5.750   2.434   4.757
 5924TIP3    H117733   5.667   2.482   4.735
 5924TIP3    H217734   5.764   2.466   4.848
 5925TIP3   OH217735   4.409   2.050   5.021
 5925TIP3    H117736   4.350   2.088   4.953
 5925TIP3    H217737   4.357   2.068   5.102
 5926TIP3   OH217738   4.743   2.893   4.037
 5926TIP3    H117739   4.725   2.889   3.942
 5926TIP3    H217740   4.709   2.982   4.060
 5927TIP3   OH217741   4.516   2.827   4.815
 5927TIP3    H117742   4.455   2.894   4.852
 5927TIP3    H217743   4.558   2.875   4.741
 5928TIP3   OH217744   5.316   2.162   4.381
 5928TIP3    H117745   5.305   2.116   4.465
 5928TIP3    H217746   5.369   2.239   4.406
 5929TIP3   OH217747   4.282   2.163   4.804
 5929TIP3    H117748   4.344   2.236   4.829
 5929TIP3    H217749   4.332   2.124   4.729
 5930TIP3   OH217750   4.344   3.022   4.914
 5930TIP3    H117751   4.318   3.108   4.874
 5930TIP3    H217752   4.265   3.006   4.969
 5931TIP3   OH217753   3.694   2.743   4.147
 5931TIP3    H117754   3.748   2.780   4.077
 5931TIP3    H217755   3.762   2.719   4.212
 5932TIP3   OH217756   5.178   3.227   4.390
 5932TIP3    H117757   5.088   3.219   4.429
 5932TIP3    H217758   5.170   3.312   4.342
 5933TIP3   OH217759   5.469   2.126   4.751
 5933TIP3    H117760   5.381   2.155   4.720
 5933TIP3    H217761   5.529   2.160   4.682
 5934TIP3   OH217762   4.763   1.769   4.732
 5934TIP3    H117763   4.751   1.675   4.752
 5934TIP3    H217764   4.687   1.808   4.781
 5935TIP3   OH217765   4.877   3.271   4.072
 5935TIP3    H117766   4.921   3.187   4.047
 5935TIP3    H217767   4.939   3.334   4.029
 5936TIP3   OH217768   5.009   3.054   3.978
 5936TIP3    H117769   5.014   2.986   3.910
 5936TIP3    H217770   5.050   3.011   4.055
 5937TIP3   OH217771   5.403   3.138   4.733
 5937TIP3    H117772   5.392   3.061   4.673
 5937TIP3    H217773   5.385   3.213   4.673
 5938TIP3   OH217774   4.693   2.531   3.990
 5938TIP3    H117775   4.616   2.587   3.969
 5938TIP3    H217776   4.743   2.533   3.906
 5939TIP3   OH217777   4.652   2.319   3.704
 5939TIP3    H117778   4.717   2.371   3.754
 5939TIP3    H217779   4.713   2.257   3.657
 5940TIP3   OH217780   5.598   2.776   4.578
 5940TIP3    H117781   5.515   2.828   4.582
 5940TIP3    H217782   5.629   2.801   4.488
 5941TIP3   OH217783   5.043   2.610   3.963
 5941TIP3    H117784   4.989   2.636   4.041
 5941TIP3    H217785   5.128   2.589   4.006
 5942TIP3   OH217786   5.277   2.654   4.875
 5942TIP3    H117787   5.274   2.739   4.923
 5942TIP3    H217788   5.191   2.658   4.828
 5943TIP3   OH217789   4.292   2.628   4.378
 5943TIP3    H117790   4.221   2.573   4.343
 5943TIP3    H217791   4.359   2.563   4.407
 5944TIP3   OH217792   4.403   3.024   4.528
 5944TIP3    H117793   4.382   2.982   4.443
 5944TIP3    H217794   4.494   2.990   4.545
 5945TIP3   OH217795   4.410   2.583   4.736
 5945TIP3    H117796   4.443   2.560   4.647
 5945TIP3    H217797   4.454   2.669   4.754
 5946TIP3   OH217798   4.936   3.222   4.510
 5946TIP3    H117799   4.923   3.303   4.563
 5946TIP3    H217800   4.920   3.150   4.574
 5947TIP3   OH217801   4.550   3.141   5.058
 5947TIP3    H117802   4.488   3.203   5.102
 5947TIP3    H217803   4.486   3.087   5.006
 5948TIP3   OH217804   4.881   2.474   3.788
 5948TIP3    H117805   4.940   2.534   3.838
 5948TIP3    H217806   4.908   2.494   3.695
 5949TIP3   OH217807   4.307   2.695   5.163
 5949TIP3    H117808   4.309   2.783   5.205
 5949TIP3    H217809   4.211   2.677   5.166
 5950TIP3   OH217810   4.626   3.156   4.059
 5950TIP3    H117811   4.710   3.203   4.074
 5950TIP3    H217812   4.566   3.225   4.031
 5951TIP3   OH217813   4.343   3.309   5.143
 5951TIP3    H117814   4.308   3.311   5.052
 5951TIP3    H217815   4.263   3.287   5.196
 5952TIP3   OH217816   5.399   1.714   3.836
 5952TIP3    H117817   5.317   1.736   3.885
 5952TIP3    H217818   5.414   1.797   3.786
 5953TIP3   OH217819   4.144   2.437   4.153
 5953TIP3    H117820   4.093   2.516   4.179
 5953TIP3    H217821   4.109   2.376   4.219
 5954TIP3   OH217822   5.198   3.070   3.340
 5954TIP3    H117823   5.164   3.152   3.381
 5954TIP3    H217824   5.291   3.069   3.368
 5955TIP3   OH217825   3.921   2.840   5.091
 5955TIP3    H117826   3.858   2.816   5.020
 5955TIP3    H217827   3.960   2.754   5.116
 5956TIP3   OH217828   3.778   3.029   4.729
 5956TIP3    H117829   3.870   3.017   4.706
 5956TIP3    H217830   3.782   3.110   4.782
 5957TIP3   OH217831   5.641   3.485   4.780
 5957TIP3    H117832   5.638   3.388   4.792
 5957TIP3    H217833   5.557   3.510   4.825
 5958TIP3   OH217834   4.748   3.268   4.915
 5958TIP3    H117835   4.745   3.362   4.946
 5958TIP3    H217836   4.675   3.229   4.968
 5959TIP3   OH217837   4.464   3.364   3.864
 5959TIP3    H117838   4.464   3.345   3.768
 5959TIP3    H217839   4.484   3.458   3.863
 5960TIP3   OH217840   3.949   3.253   4.250
 5960TIP3    H117841   3.993   3.246   4.337
 5960TIP3    H217842   3.900   3.167   4.249
 5961TIP3   OH217843   4.732   3.355   3.789
 5961TIP3    H117844   4.677   3.320   3.859
 5961TIP3    H217845   4.805   3.293   3.783
 5962TIP3   OH217846   5.529   2.614   5.054
 5962TIP3    H117847   5.448   2.627   5.003
 5962TIP3    H217848   5.545   2.518   5.042
 5963TIP3   OH217849   4.126   3.023   5.079
 5963TIP3    H117850   4.176   3.006   5.161
 5963TIP3    H217851   4.051   2.960   5.087
 5964TIP3   OH217852   4.527   1.846   4.864
 5964TIP3    H117853   4.438   1.817   4.838
 5964TIP3    H217854   4.504   1.929   4.910
 5965TIP3   OH217855   5.061   1.961   5.058
 5965TIP3    H117856   5.130   1.932   5.122
 5965TIP3    H217857   4.978   1.941   5.105
 5966TIP3   OH217858   5.299   2.390   4.976
 5966TIP3    H117859   5.248   2.388   5.060
 5966TIP3    H217860   5.276   2.478   4.940
 5967TIP3   OH217861   4.956   2.508   3.530
 5967TIP3    H117862   4.928   2.490   3.438
 5967TIP3    H217863   5.024   2.576   3.515
 5968TIP3   OH217864   4.668   1.896   3.834
 5968TIP3    H117865   4.637   1.892   3.927
 5968TIP3    H217866   4.633   1.812   3.801
 5969TIP3   OH217867   4.460   2.359   4.884
 5969TIP3    H117868   4.409   2.382   4.964
 5969TIP3    H217869   4.446   2.440   4.830
 5970TIP3   OH217870   4.343   2.247   4.394
 5970TIP3    H117871   4.250   2.223   4.413
 5970TIP3    H217872   4.354   2.206   4.305
 5971TIP3   OH217873   4.832   2.331   4.122
 5971TIP3    H117874   4.780   2.404   4.080
 5971TIP3    H217875   4.888   2.302   4.048
 5972TIP3   OH217876   5.007   2.611   5.209
 5972TIP3    H117877   4.986   2.538   5.272
 5972TIP3    H217878   5.101   2.625   5.230
 5973TIP3   OH217879   4.989   2.361   4.363
 5973TIP3    H117880   4.929   2.394   4.292
 5973TIP3    H217881   5.022   2.281   4.318
 5974TIP3   OH217882   4.278   2.391   5.091
 5974TIP3    H117883   4.309   2.454   5.158
 5974TIP3    H217884   4.268   2.309   5.144
 5975TIP3   OH217885   4.322   1.865   3.800
 5975TIP3    H117886   4.319   1.866   3.898
 5975TIP3    H217887   4.247   1.924   3.779
 5976TIP3   OH217888   3.870   1.911   4.674
 5976TIP3    H117889   3.940   1.950   4.731
 5976TIP3    H217890   3.915   1.903   4.589
 5977TIP3   OH217891   3.841   1.890   4.192
 5977TIP3    H117892   3.893   1.926   4.118
 5977TIP3    H217893   3.787   1.968   4.214
 5978TIP3   OH217894   5.000   2.607   4.786
 5978TIP3    H117895   5.033   2.535   4.726
 5978TIP3    H217896   4.970   2.553   4.862
 5979TIP3   OH217897   4.669   2.067   4.456
 5979TIP3    H117898   4.588   2.068   4.510
 5979TIP3    H217899   4.739   2.069   4.524
 5980TIP3   OH217900   4.105   2.131   4.463
 5980TIP3    H117901   4.010   2.138   4.437
 5980TIP3    H217902   4.128   2.039   4.439
 5981TIP3   OH217903   4.371   2.117   4.153
 5981TIP3    H117904   4.464   2.137   4.134
 5981TIP3    H217905   4.324   2.144   4.071
 5982TIP3   OH217906   5.162   2.146   4.659
 5982TIP3    H117907   5.128   2.159   4.750
 5982TIP3    H217908   5.095   2.085   4.623
 5983TIP3   OH217909   4.215   2.145   3.926
 5983TIP3    H117910   4.144   2.108   3.871
 5983TIP3    H217911   4.269   2.190   3.857
 5984TIP3   OH217912   5.332   3.834   4.878
 5984TIP3    H117913   5.329   3.857   4.783
 5984TIP3    H217914   5.411   3.884   4.907
 5985TIP3   OH217915   4.288   2.945   5.299
 5985TIP3    H117916   4.368   2.975   5.346
 5985TIP3    H217917   4.224   2.944   5.373
 5986TIP3   OH217918   4.753   2.394   4.553
 5986TIP3    H117919   4.829   2.361   4.504
 5986TIP3    H217920   4.764   2.353   4.641
 5987TIP3   OH217921   4.272   1.888   4.431
 5987TIP3    H117922   4.247   1.806   4.478
 5987TIP3    H217923   4.328   1.855   4.359
 5988TIP3   OH217924   4.730   2.294   4.846
 5988TIP3    H117925   4.640   2.330   4.858
 5988TIP3    H217926   4.787   2.356   4.895
 5989TIP3   OH217927   4.464   2.683   3.934
 5989TIP3    H117928   4.390   2.619   3.928
 5989TIP3    H217929   4.449   2.722   4.023
 5990TIP3   OH217930   5.365   2.921   4.568
 5990TIP3    H117931   5.389   2.972   4.488
 5990TIP3    H217932   5.280   2.879   4.541
 5991TIP3   OH217933   4.923   1.997   3.802
 5991TIP3    H117934   4.826   1.983   3.809
 5991TIP3    H217935   4.934   2.091   3.825
 5992TIP3   OH217936   4.864   3.004   4.936
 5992TIP3    H117937   4.890   2.985   5.027
 5992TIP3    H217938   4.827   3.093   4.941
 5993TIP3   OH217939   4.993   2.246   3.904
 5993TIP3    H117940   5.089   2.253   3.921
 5993TIP3    H217941   4.974   2.327   3.853
 5994TIP3   OH217942   4.151   2.713   4.626
 5994TIP3    H117943   4.159   2.694   4.531
 5994TIP3    H217944   4.205   2.643   4.664
 5995TIP3   OH217945   4.609   2.831   3.753
 5995TIP3    H117946   4.560   2.917   3.760
 5995TIP3    H217947   4.560   2.777   3.818
 5996TIP3   OH217948   4.037   2.631   5.230
 5996TIP3    H117949   4.061   2.617   5.324
 5996TIP3    H217950   3.972   2.561   5.215
 5997TIP3   OH217951   4.765   2.742   5.247
 5997TIP3    H117952   4.705   2.684   5.198
 5997TIP3    H217953   4.852   2.708   5.219
 5998TIP3   OH217954   5.025   3.261   4.834
 5998TIP3    H117955   4.929   3.262   4.845
 5998TIP3    H217956   5.053   3.316   4.911
 5999TIP3   OH217957   5.434   2.338   3.742
 5999TIP3    H117958   5.373   2.294   3.679
 5999TIP3    H217959   5.431   2.428   3.702
 6000TIP3   OH217960   5.654   3.194   4.821
 6000TIP3    H117961   5.556   3.189   4.812
 6000TIP3    H217962   5.680   3.164   4.731
 6001TIP3   OH217963   5.131   2.784   4.488
 6001TIP3    H117964   5.037   2.759   4.500
 6001TIP3    H217965   5.164   2.705   4.441
 6002TIP3   OH217966   4.260   3.011   4.244
 6002TIP3    H117967   4.251   3.087   4.184
 6002TIP3    H217968   4.168   2.986   4.257
 6003TIP3   OH217969   3.804   2.331   3.933
 6003TIP3    H117970   3.860   2.397   3.980
 6003TIP3    H217971   3.733   2.320   4.001
 6004TIP3   OH217972   4.398   2.781   4.174
 6004TIP3    H117973   4.365   2.869   4.200
 6004TIP3    H217974   4.370   2.728   4.251
 6005TIP3   OH217975   4.528   3.356   4.708
 6005TIP3    H117976   4.568   3.429   4.657
 6005TIP3    H217977   4.605   3.320   4.754
 6006TIP3   OH217978   4.170   3.240   4.091
 6006TIP3    H117979   4.084   3.251   4.136
 6006TIP3    H217980   4.217   3.319   4.120
 6007TIP3   OH217981   4.915   2.988   4.667
 6007TIP3    H117982   4.906   2.986   4.765
 6007TIP3    H217983   4.996   2.936   4.654
 6008TIP3   OH217984   4.871   2.845   3.553
 6008TIP3    H117985   4.940   2.849   3.622
 6008TIP3    H217986   4.792   2.857   3.606
 6009TIP3   OH217987   5.164   3.524   4.717
 6009TIP3    H117988   5.084   3.469   4.708
 6009TIP3    H217989   5.150   3.588   4.644
 6010TIP3   OH217990   5.221   3.377   3.374
 6010TIP3    H117991   5.202   3.457   3.323
 6010TIP3    H217992   5.132   3.362   3.412
 6011TIP3   OH217993   4.250   2.133   5.236
 6011TIP3    H117994   4.154   2.136   5.251
 6011TIP3    H217995   4.280   2.076   5.309
 6012TIP3   OH217996   5.047   2.819   3.776
 6012TIP3    H117997   5.045   2.748   3.842
 6012TIP3    H217998   5.142   2.823   3.754
 6013TIP3   OH217999   3.961   3.216   4.871
 6013TIP3    H118000   4.020   3.144   4.898
 6013TIP3    H218001   3.997   3.290   4.923
 6014TIP3   OH218002   4.248   2.866   3.551
 6014TIP3    H118003   4.279   2.778   3.525
 6014TIP3    H218004   4.235   2.854   3.647
 6015TIP3   OH218005   4.198   2.863   3.826
 6015TIP3    H118006   4.275   2.837   3.877
 6015TIP3    H218007   4.202   2.961   3.833
 6016TIP3   OH218008   3.900   2.570   4.000
 6016TIP3    H118009   3.901   2.573   4.100
 6016TIP3    H218010   3.965   2.639   3.983
 6017TIP3   OH218011   5.088   2.198   4.918
 6017TIP3    H118012   5.168   2.236   4.957
 6017TIP3    H218013   5.074   2.117   4.972
 6018TIP3   OH218014   4.967   1.948   4.084
 6018TIP3    H118015   4.955   1.971   3.990
 6018TIP3    H218016   5.007   2.030   4.120
 6019TIP3   OH218017   4.462   3.057   3.768
 6019TIP3    H118018   4.380   3.093   3.806
 6019TIP3    H218019   4.497   3.135   3.723
 6020TIP3   OH218020   4.653   2.129   4.185
 6020TIP3    H118021   4.718   2.201   4.166
 6020TIP3    H218022   4.661   2.121   4.282
 6021TIP3   OH218023   4.924   2.446   4.993
 6021TIP3    H118024   4.947   2.500   5.071
 6021TIP3    H218025   4.980   2.367   5.005
 6022TIP3   OH218026   4.799   1.853   4.285
 6022TIP3    H118027   4.793   1.929   4.346
 6022TIP3    H218028   4.860   1.889   4.217
 6023TIP3   OH218029   4.203   3.136   3.837
 6023TIP3    H118030   4.181   3.208   3.775
 6023TIP3    H218031   4.192   3.181   3.924
 6024TIP3   OH218032   4.314   1.854   4.078
 6024TIP3    H118033   4.312   1.946   4.111
 6024TIP3    H218034   4.410   1.836   4.086
 6025TIP3   OH218035   5.566   2.347   4.975
 6025TIP3    H118036   5.468   2.345   4.982
 6025TIP3    H218037   5.578   2.308   4.887
 6026TIP3   OH218038   5.217   2.542   4.363
 6026TIP3    H118039   5.141   2.482   4.374
 6026TIP3    H218040   5.289   2.494   4.410
 6027TIP3   OH218041   3.916   2.777   3.807
 6027TIP3    H118042   3.975   2.850   3.833
 6027TIP3    H218043   3.980   2.725   3.755
 6028TIP3   OH218044   3.868   2.050   3.967
 6028TIP3    H118045   3.876   2.147   3.959
 6028TIP3    H218046   3.782   2.031   3.930
 6029TIP3   OH218047   5.185   3.497   4.312
 6029TIP3    H118048   5.139   3.546   4.240
 6029TIP3    H218049   5.278   3.516   4.288
 6030TIP3   OH218050   4.262   1.768   4.840
 6030TIP3    H118051   4.232   1.733   4.753
 6030TIP3    H218052   4.253   1.690   4.898
 6031TIP3   OH218053   3.809   3.022   4.222
 6031TIP3    H118054   3.728   3.006   4.272
 6031TIP3    H218055   3.777   3.029   4.131
 6032TIP3   OH218056   3.957   3.527   5.292
 6032TIP3    H118057   4.044   3.527   5.338
 6032TIP3    H218058   3.939   3.431   5.288
 6033TIP3   OH218059   4.437   3.489   5.336
 6033TIP3    H118060   4.532   3.472   5.340
 6033TIP3    H218061   4.411   3.430   5.262
 6034TIP3   OH218062   4.421   3.067   3.459
 6034TIP3    H118063   4.368   2.996   3.500
 6034TIP3    H218064   4.500   3.016   3.431
 6035TIP3   OH218065   5.075   3.399   5.070
 6035TIP3    H118066   5.068   3.328   5.138
 6035TIP3    H218067   5.154   3.449   5.099
 6036TIP3   OH218068   4.087   2.933   5.491
 6036TIP3    H118069   4.103   2.837   5.497
 6036TIP3    H218070   4.000   2.935   5.445
 6037TIP3   OH218071   4.050   2.565   3.699
 6037TIP3    H118072   4.121   2.547   3.763
 6037TIP3    H218073   4.107   2.576   3.619
 6038TIP3   OH218074   4.693   3.018   5.265
 6038TIP3    H118075   4.653   3.037   5.178
 6038TIP3    H218076   4.724   2.925   5.254
 6039TIP3   OH218077   4.551   2.776   3.489
 6039TIP3    H118078   4.574   2.792   3.583
 6039TIP3    H218079   4.566   2.679   3.484
 6040TIP3   OH218080   5.188   3.027   4.872
 6040TIP3    H118081   5.263   3.070   4.827
 6040TIP3    H218082   5.118   3.093   4.856
 6041TIP3   OH218083   4.206   2.667   5.472
 6041TIP3    H118084   4.283   2.615   5.448
 6041TIP3    H218085   4.233   2.700   5.561
 6042TIP3   OH218086   4.256   2.490   3.901
 6042TIP3    H118087   4.227   2.457   3.989
 6042TIP3    H218088   4.303   2.413   3.863
 6043TIP3   OH218089   4.541   2.550   5.133
 6043TIP3    H118090   4.464   2.610   5.135
 6043TIP3    H218091   4.593   2.586   5.057
 6044TIP3   OH218092   4.373   2.279   3.748
 6044TIP3    H118093   4.350   2.286   3.653
 6044TIP3    H218094   4.471   2.284   3.742
 6045TIP3   OH218095   5.059   2.954   5.269
 6045TIP3    H118096   5.136   2.926   5.218
 6045TIP3    H218097   5.056   2.886   5.339
 6046TIP3   OH218098   5.198   2.613   3.408
 6046TIP3    H118099   5.172   2.571   3.324
 6046TIP3    H218100   5.162   2.704   3.391
 6047TIP3   OH218101   4.665   2.341   5.259
 6047TIP3    H118102   4.666   2.261   5.202
 6047TIP3    H218103   4.622   2.407   5.201
 6048TIP3   OH218104   4.668   2.126   5.069
 6048TIP3    H118105   4.696   2.169   4.985
 6048TIP3    H218106   4.574   2.104   5.049
 6049TIP3   OH218107   4.694   2.662   4.942
 6049TIP3    H118108   4.778   2.674   4.896
 6049TIP3    H218109   4.637   2.728   4.897
 6050TIP3   OH218110   5.276   2.628   5.321
 6050TIP3    H118111   5.326   2.545   5.330
 6050TIP3    H218112   5.343   2.687   5.284
 6051TIP3   OH218113   5.317   2.883   5.059
 6051TIP3    H118114   5.260   2.936   5.000
 6051TIP3    H218115   5.405   2.903   5.019
 6052TIP3   OH218116   4.543   2.451   5.492
 6052TIP3    H118117   4.475   2.382   5.506
 6052TIP3    H218118   4.577   2.426   5.403
 6053TIP3   OH218119   4.800   1.889   5.134
 6053TIP3    H118120   4.750   1.970   5.112
 6053TIP3    H218121   4.731   1.820   5.124
 6054TIP3   OH218122   4.926   2.393   5.351
 6054TIP3    H118123   4.912   2.379   5.447
 6054TIP3    H218124   4.836   2.369   5.319
 6055TIP3   OH218125   5.165   2.344   5.206
 6055TIP3    H118126   5.090   2.345   5.269
 6055TIP3    H218127   5.239   2.313   5.262
 6056TIP3   OH218128   5.395   2.285   5.356
 6056TIP3    H118129   5.407   2.189   5.373
 6056TIP3    H218130   5.391   2.322   5.446
 6057TIP3   OH218131   4.382   2.231   5.544
 6057TIP3    H118132   4.388   2.139   5.511
 6057TIP3    H218133   4.419   2.220   5.634
 6058TIP3   OH218134   4.894   1.899   5.392
 6058TIP3    H118135   4.961   1.828   5.387
 6058TIP3    H218136   4.854   1.894   5.303
 6059TIP3   OH218137   4.961   2.115   5.551
 6059TIP3    H118138   4.939   2.044   5.487
 6059TIP3    H218139   4.882   2.173   5.544
 6060TIP3   OH218140   4.181   3.327   3.642
 6060TIP3    H118141   4.278   3.324   3.631
 6060TIP3    H218142   4.157   3.379   3.563
 6061TIP3   OH218143   3.581   3.325   4.252
 6061TIP3    H118144   3.500   3.272   4.243
 6061TIP3    H218145   3.620   3.287   4.334
 6062TIP3   OH218146   3.697   3.200   4.469
 6062TIP3    H118147   3.700   3.119   4.521
 6062TIP3    H218148   3.759   3.256   4.520
 6063TIP3   OH218149   5.440   3.585   4.269
 6063TIP3    H118150   5.467   3.622   4.355
 6063TIP3    H218151   5.497   3.632   4.207
 6064TIP3   OH218152   5.467   3.610   4.552
 6064TIP3    H118153   5.422   3.523   4.544
 6064TIP3    H218154   5.543   3.584   4.606
 6065TIP3   OH218155   5.515   3.285   5.125
 6065TIP3    H118156   5.441   3.295   5.188
 6065TIP3    H218157   5.556   3.373   5.127
 6066TIP3   OH218158   5.329   2.794   3.743
 6066TIP3    H118159   5.393   2.861   3.710
 6066TIP3    H218160   5.377   2.759   3.821
 6067TIP3   OH218161   5.461   2.664   3.947
 6067TIP3    H118162   5.393   2.624   4.007
 6067TIP3    H218163   5.524   2.704   4.010
 6068TIP3   OH218164   5.514   3.058   4.380
 6068TIP3    H118165   5.564   2.992   4.329
 6068TIP3    H218166   5.508   3.133   4.317
 6069TIP3   OH218167   5.344   3.359   4.575
 6069TIP3    H118168   5.271   3.402   4.623
 6069TIP3    H218169   5.296   3.313   4.502
 6070TIP3   OH218170   5.395   2.571   3.593
 6070TIP3    H118171   5.325   2.576   3.523
 6070TIP3    H218172   5.367   2.648   3.647
 6071TIP3   OH218173   5.269   2.245   3.548
 6071TIP3    H118174   5.224   2.290   3.476
 6071TIP3    H218175   5.242   2.151   3.533
 6072TIP3   OH218176   5.273   2.524   4.095
 6072TIP3    H118177   5.281   2.427   4.088
 6072TIP3    H218178   5.258   2.537   4.191
 6073TIP3   OH218179   3.901   2.593   4.832
 6073TIP3    H118180   3.918   2.579   4.738
 6073TIP3    H218181   3.995   2.594   4.864
 6074TIP3   OH218182   5.561   2.948   4.950
 6074TIP3    H118183   5.634   2.882   4.940
 6074TIP3    H218184   5.585   3.016   4.885
 6075TIP3   OH218185   5.745   2.751   4.966
 6075TIP3    H118186   5.671   2.701   5.005
 6075TIP3    H218187   5.818   2.687   4.981
 6076TIP3   OH218188   5.211   1.978   3.529
 6076TIP3    H118189   5.286   1.951   3.586
 6076TIP3    H218190   5.139   1.920   3.556
 6077TIP3   OH218191   5.268   2.239   3.988
 6077TIP3    H118192   5.309   2.150   4.001
 6077TIP3    H218193   5.326   2.273   3.917
 6078TIP3   OH218194   5.430   2.411   4.483
 6078TIP3    H118195   5.515   2.436   4.442
 6078TIP3    H218196   5.444   2.449   4.572
 6079TIP3   OH218197   5.500   2.557   4.714
 6079TIP3    H118198   5.422   2.591   4.761
 6079TIP3    H218199   5.532   2.637   4.668
 6080TIP3   OH218200   4.115   2.282   5.511
 6080TIP3    H118201   4.213   2.277   5.516
 6080TIP3    H218202   4.092   2.196   5.553
 6081TIP3   OH218203   5.953   2.150   5.271
 6081TIP3    H118204   6.011   2.083   5.227
 6081TIP3    H218205   5.921   2.201   5.194
 6082TIP3   OH218206   5.377   1.989   4.025
 6082TIP3    H118207   5.426   1.973   4.108
 6082TIP3    H218208   5.317   1.912   4.024
 6083TIP3   OH218209   4.075   1.974   4.848
 6083TIP3    H118210   4.140   1.903   4.858
 6083TIP3    H218211   4.134   2.051   4.838
 6084TIP3   OH218212   3.875   2.248   4.920
 6084TIP3    H118213   3.927   2.245   4.836
 6084TIP3    H218214   3.906   2.332   4.956
 6085TIP3   OH218215   5.820   2.285   5.076
 6085TIP3    H118216   5.734   2.329   5.095
 6085TIP3    H218217   5.789   2.214   5.017
 6086TIP3   OH218218   5.457   1.923   3.659
 6086TIP3    H118219   5.498   1.852   3.605
 6086TIP3    H218220   5.524   1.994   3.654
 6087TIP3   OH218221   3.853   1.732   4.417
 6087TIP3    H118222   3.764   1.754   4.449
 6087TIP3    H218223   3.864   1.795   4.343
 6088TIP3   OH218224   5.034   3.443   3.929
 6088TIP3    H118225   5.022   3.433   3.833
 6088TIP3    H218226   5.077   3.528   3.936
 6089TIP3   OH218227   4.083   1.832   5.231
 6089TIP3    H118228   4.033   1.827   5.314
 6089TIP3    H218229   4.016   1.870   5.171
 6090TIP3   OH218230   4.123   3.261   5.310
 6090TIP3    H118231   4.031   3.233   5.292
 6090TIP3    H218232   4.133   3.241   5.403
 6091TIP3   OH218233   4.301   3.294   4.857
 6091TIP3    H118234   4.255   3.371   4.817
 6091TIP3    H218235   4.387   3.306   4.813
 6092TIP3   OH218236   4.745   3.536   4.996
 6092TIP3    H118237   4.788   3.538   5.084
 6092TIP3    H218238   4.810   3.587   4.943
 6093TIP3   OH218239   4.924   3.688   4.856
 6093TIP3    H118240   4.993   3.639   4.810
 6093TIP3    H218241   4.977   3.745   4.916
 6094TIP3   OH218242   5.720   2.050   4.954
 6094TIP3    H118243   5.629   2.043   4.919
 6094TIP3    H218244   5.751   1.957   4.944
 6095TIP3   OH218245   3.976   3.543   4.884
 6095TIP3    H118246   3.889   3.580   4.857
 6095TIP3    H218247   3.989   3.590   4.968
 6096TIP3   OH218248   4.213   3.526   4.737
 6096TIP3    H118249   4.126   3.540   4.780
 6096TIP3    H218250   4.197   3.562   4.648
 6097TIP3   OH218251   4.641   3.554   4.540
 6097TIP3    H118252   4.572   3.571   4.473
 6097TIP3    H218253   4.652   3.644   4.578
 6098TIP3   OH218254   4.909   3.495   4.591
 6098TIP3    H118255   4.815   3.512   4.571
 6098TIP3    H218256   4.953   3.567   4.543
 6099TIP3   OH218257   5.118   3.688   4.503
 6099TIP3    H118258   5.101   3.771   4.454
 6099TIP3    H218259   5.142   3.627   4.429
 6100TIP3   OH218260   3.881   3.333   4.629
 6100TIP3    H118261   3.915   3.313   4.719
 6100TIP3    H218262   3.956   3.298   4.576
 6101TIP3   OH218263   4.081   3.216   4.484
 6101TIP3    H118264   4.097   3.131   4.532
 6101TIP3    H218265   4.173   3.251   4.479
 6102TIP3   OH218266   4.347   3.302   4.484
 6102TIP3    H118267   4.381   3.211   4.479
 6102TIP3    H218268   4.392   3.332   4.565
 6103TIP3   OH218269   4.925   1.965   4.572
 6103TIP3    H118270   4.882   1.894   4.624
 6103TIP3    H218271   5.000   1.918   4.530
 6104TIP3   OH218272   5.447   1.844   4.479
 6104TIP3    H118273   5.484   1.896   4.403
 6104TIP3    H218274   5.352   1.864   4.472
 6105TIP3   OH218275   5.542   1.943   4.242
 6105TIP3    H118276   5.616   1.892   4.202
 6105TIP3    H218277   5.575   2.035   4.228
 6106TIP3   OH218278   4.176   1.669   4.590
 6106TIP3    H118279   4.084   1.642   4.575
 6106TIP3    H218280   4.223   1.583   4.584
 6107TIP3   OH218281   4.615   1.706   4.474
 6107TIP3    H118282   4.670   1.752   4.409
 6107TIP3    H218283   4.645   1.745   4.557
 6108TIP3   OH218284   5.162   1.852   4.454
 6108TIP3    H118285   5.164   1.814   4.366
 6108TIP3    H218286   5.149   1.772   4.510
 6109TIP3   OH218287   5.193   1.776   4.016
 6109TIP3    H118288   5.107   1.819   4.029
 6109TIP3    H218289   5.178   1.690   4.063
 6110TIP3   OH218290   3.680   3.108   3.998
 6110TIP3    H118291   3.588   3.086   3.977
 6110TIP3    H218292   3.671   3.189   4.049
 6111TIP3   OH218293   4.080   1.713   3.981
 6111TIP3    H118294   4.132   1.645   3.933
 6111TIP3    H218295   4.151   1.761   4.029
 6112TIP3   OH218296   4.590   1.878   4.100
 6112TIP3    H118297   4.653   1.834   4.160
 6112TIP3    H218298   4.609   1.971   4.124
 6113TIP3   OH218299   4.457   3.303   3.596
 6113TIP3    H118300   4.546   3.333   3.569
 6113TIP3    H218301   4.443   3.228   3.535
 6114TIP3   OH218302   4.381   1.954   5.479
 6114TIP3    H118303   4.345   1.884   5.536
 6114TIP3    H218304   4.475   1.953   5.508
 6115TIP3   OH218305   4.630   1.952   5.599
 6115TIP3    H118306   4.716   1.925   5.561
 6115TIP3    H218307   4.617   1.882   5.667
 6116TIP3   OH218308   3.752   3.130   3.662
 6116TIP3    H118309   3.763   3.143   3.757
 6116TIP3    H218310   3.841   3.094   3.637
 6117TIP3   OH218311   5.456   2.013   5.387
 6117TIP3    H118312   5.474   1.982   5.478
 6117TIP3    H218313   5.545   2.007   5.346
 6118TIP3   OH218314   5.392   3.565   4.881
 6118TIP3    H118315   5.315   3.534   4.829
 6118TIP3    H218316   5.374   3.661   4.884
 6119TIP3   OH218317   6.645   2.938   3.636
 6119TIP3    H118318   6.640   3.033   3.611
 6119TIP3    H218319   6.552   2.917   3.628
 6120TIP3   OH218320   6.670   2.935   4.022
 6120TIP3    H118321   6.692   2.908   4.113
 6120TIP3    H218322   6.616   2.861   3.990
 6121TIP3   OH218323   5.959   2.834   4.394
 6121TIP3    H118324   5.992   2.765   4.455
 6121TIP3    H218325   6.039   2.886   4.379
 6122TIP3   OH218326   6.906   3.240   3.707
 6122TIP3    H118327   6.886   3.173   3.773
 6122TIP3    H218328   6.933   3.315   3.763
 6123TIP3   OH218329   5.932   3.243   4.119
 6123TIP3    H118330   5.924   3.145   4.120
 6123TIP3    H218331   6.028   3.251   4.103
 6124TIP3   OH218332   5.637   2.441   3.902
 6124TIP3    H118333   5.592   2.526   3.918
 6124TIP3    H218334   5.566   2.392   3.858
 6125TIP3   OH218335   5.697   2.734   4.075
 6125TIP3    H118336   5.747   2.656   4.108
 6125TIP3    H218337   5.754   2.766   4.004
 6126TIP3   OH218338   6.558   3.705   3.729
 6126TIP3    H118339   6.601   3.635   3.675
 6126TIP3    H218340   6.543   3.659   3.812
 6127TIP3   OH218341   6.455   3.166   4.081
 6127TIP3    H118342   6.485   3.097   4.019
 6127TIP3    H218343   6.542   3.206   4.103
 6128TIP3   OH218344   7.458   2.488   4.074
 6128TIP3    H118345   7.491   2.573   4.110
 6128TIP3    H218346   7.469   2.502   3.979
 6129TIP3   OH218347   6.870   2.663   4.108
 6129TIP3    H118348   6.914   2.578   4.126
 6129TIP3    H218349   6.840   2.649   4.017
 6130TIP3   OH218350   6.211   2.324   4.072
 6130TIP3    H118351   6.190   2.397   4.010
 6130TIP3    H218352   6.162   2.251   4.028
 6131TIP3   OH218353   6.901   2.416   3.693
 6131TIP3    H118354   6.972   2.404   3.760
 6131TIP3    H218355   6.954   2.452   3.619
 6132TIP3   OH218356   5.842   2.525   4.180
 6132TIP3    H118357   5.925   2.507   4.227
 6132TIP3    H218358   5.856   2.470   4.100
 6133TIP3   OH218359   6.282   2.723   3.977
 6133TIP3    H118360   6.376   2.698   3.987
 6133TIP3    H218361   6.243   2.641   3.941
 6134TIP3   OH218362   7.537   2.696   4.236
 6134TIP3    H118363   7.452   2.743   4.222
 6134TIP3    H218364   7.561   2.727   4.324
 6135TIP3   OH218365   6.205   2.308   4.507
 6135TIP3    H118366   6.146   2.345   4.439
 6135TIP3    H218367   6.153   2.327   4.588
 6136TIP3   OH218368   6.562   3.166   3.506
 6136TIP3    H118369   6.509   3.115   3.441
 6136TIP3    H218370   6.500   3.239   3.528
 6137TIP3   OH218371   6.313   3.083   4.303
 6137TIP3    H118372   6.252   3.151   4.338
 6137TIP3    H218373   6.354   3.131   4.228
 6138TIP3   OH218374   7.104   2.426   3.869
 6138TIP3    H118375   7.101   2.372   3.948
 6138TIP3    H218376   7.158   2.502   3.898
 6139TIP3   OH218377   6.077   2.422   4.291
 6139TIP3    H118378   6.139   2.495   4.314
 6139TIP3    H218379   6.125   2.382   4.215
 6140TIP3   OH218380   6.141   3.278   4.402
 6140TIP3    H118381   6.114   3.362   4.359
 6140TIP3    H218382   6.061   3.262   4.456
 6141TIP3   OH218383   5.530   2.966   3.639
 6141TIP3    H118384   5.496   2.987   3.550
 6141TIP3    H218385   5.563   3.053   3.669
 6142TIP3   OH218386   6.974   3.485   3.876
 6142TIP3    H118387   6.885   3.474   3.916
 6142TIP3    H218388   6.964   3.570   3.830
 6143TIP3   OH218389   7.261   2.382   4.239
 6143TIP3    H118390   7.172   2.409   4.209
 6143TIP3    H218391   7.319   2.418   4.169
 6144TIP3   OH218392   6.562   2.026   4.223
 6144TIP3    H118393   6.545   1.931   4.238
 6144TIP3    H218394   6.485   2.065   4.269
 6145TIP3   OH218395   6.678   3.532   3.552
 6145TIP3    H118396   6.725   3.447   3.534
 6145TIP3    H218397   6.740   3.594   3.507
 6146TIP3   OH218398   6.817   3.314   3.455
 6146TIP3    H118399   6.750   3.246   3.434
 6146TIP3    H218400   6.857   3.278   3.536
 6147TIP3   OH218401   7.199   3.395   4.219
 6147TIP3    H118402   7.188   3.318   4.160
 6147TIP3    H218403   7.182   3.470   4.158
 6148TIP3   OH218404   6.448   2.572   3.195
 6148TIP3    H118405   6.502   2.639   3.242
 6148TIP3    H218406   6.517   2.520   3.150
 6149TIP3   OH218407   7.391   3.025   4.061
 6149TIP3    H118408   7.311   3.082   4.068
 6149TIP3    H218409   7.424   3.053   3.973
 6150TIP3   OH218410   6.838   2.878   3.448
 6150TIP3    H118411   6.777   2.898   3.522
 6150TIP3    H218412   6.920   2.854   3.495
 6151TIP3   OH218413   7.073   2.911   4.362
 6151TIP3    H118414   7.071   2.995   4.410
 6151TIP3    H218415   6.986   2.915   4.316
 6152TIP3   OH218416   6.058   2.863   3.872
 6152TIP3    H118417   6.020   2.807   3.802
 6152TIP3    H218418   6.142   2.818   3.892
 6153TIP3   OH218419   6.197   3.277   4.010
 6153TIP3    H118420   6.179   3.240   3.922
 6153TIP3    H218421   6.286   3.242   4.028
 6154TIP3   OH218422   6.207   2.840   4.222
 6154TIP3    H118423   6.236   2.818   4.131
 6154TIP3    H218424   6.250   2.927   4.237
 6155TIP3   OH218425   6.734   3.479   3.997
 6155TIP3    H118426   6.720   3.558   4.051
 6155TIP3    H218427   6.716   3.405   4.060
 6156TIP3   OH218428   6.346   3.397   4.545
 6156TIP3    H118429   6.285   3.459   4.590
 6156TIP3    H218430   6.282   3.344   4.493
 6157TIP3   OH218431   6.694   2.710   3.275
 6157TIP3    H118432   6.719   2.788   3.328
 6157TIP3    H218433   6.703   2.747   3.184
 6158TIP3   OH218434   6.102   2.950   4.650
 6158TIP3    H118435   6.105   3.040   4.690
 6158TIP3    H218436   6.006   2.933   4.655
 6159TIP3   OH218437   6.418   3.416   3.567
 6159TIP3    H118438   6.498   3.471   3.567
 6159TIP3    H218439   6.365   3.453   3.496
 6160TIP3   OH218440   6.139   3.565   4.630
 6160TIP3    H118441   6.105   3.566   4.539
 6160TIP3    H218442   6.059   3.543   4.683
 6161TIP3   OH218443   7.192   1.983   3.329
 6161TIP3    H118444   7.109   2.003   3.378
 6161TIP3    H218445   7.207   2.068   3.283
 6162TIP3   OH218446   5.933   2.712   3.675
 6162TIP3    H118447   5.874   2.758   3.612
 6162TIP3    H218448   5.895   2.624   3.675
 6163TIP3   OH218449   6.990   3.338   2.866
 6163TIP3    H118450   7.000   3.435   2.856
 6163TIP3    H218451   7.083   3.308   2.858
 6164TIP3   OH218452   5.718   3.097   4.577
 6164TIP3    H118453   5.652   3.077   4.507
 6164TIP3    H218454   5.755   3.009   4.598
 6165TIP3   OH218455   5.573   3.286   4.214
 6165TIP3    H118456   5.668   3.284   4.199
 6165TIP3    H218457   5.562   3.370   4.262
 6166TIP3   OH218458   7.437   3.742   4.263
 6166TIP3    H118459   7.437   3.645   4.279
 6166TIP3    H218460   7.355   3.767   4.311
 6167TIP3   OH218461   6.543   3.526   4.401
 6167TIP3    H118462   6.541   3.619   4.433
 6167TIP3    H218463   6.471   3.486   4.455
 6168TIP3   OH218464   6.309   3.664   3.348
 6168TIP3    H118465   6.256   3.629   3.275
 6168TIP3    H218466   6.266   3.748   3.371
 6169TIP3   OH218467   5.743   3.505   3.737
 6169TIP3    H118468   5.788   3.494   3.823
 6169TIP3    H218469   5.691   3.423   3.733
 6170TIP3   OH218470   6.506   3.559   2.991
 6170TIP3    H118471   6.564   3.487   2.958
 6170TIP3    H218472   6.535   3.566   3.084
 6171TIP3   OH218473   6.556   3.604   3.260
 6171TIP3    H118474   6.466   3.615   3.298
 6171TIP3    H218475   6.599   3.552   3.330
 6172TIP3   OH218476   7.323   2.866   4.544
 6172TIP3    H118477   7.243   2.886   4.493
 6172TIP3    H218478   7.334   2.770   4.526
 6173TIP3   OH218479   5.922   3.280   4.566
 6173TIP3    H118480   5.972   3.262   4.648
 6173TIP3    H218481   5.847   3.217   4.572
 6174TIP3   OH218482   6.323   2.102   4.350
 6174TIP3    H118483   6.234   2.072   4.322
 6174TIP3    H218484   6.298   2.185   4.395
 6175TIP3   OH218485   6.856   2.217   4.544
 6175TIP3    H118486   6.924   2.189   4.609
 6175TIP3    H218487   6.772   2.198   4.590
 6176TIP3   OH218488   7.093   2.647   4.463
 6176TIP3    H118489   7.042   2.646   4.547
 6176TIP3    H218490   7.071   2.735   4.426
 6177TIP3   OH218491   6.748   2.770   3.013
 6177TIP3    H118492   6.721   2.748   2.922
 6177TIP3    H218493   6.825   2.828   2.998
 6178TIP3   OH218494   6.469   2.148   3.322
 6178TIP3    H118495   6.433   2.147   3.413
 6178TIP3    H218496   6.427   2.067   3.287
 6179TIP3   OH218497   6.255   2.618   4.369
 6179TIP3    H118498   6.204   2.640   4.449
 6179TIP3    H218499   6.241   2.699   4.315
 6180TIP3   OH218500   6.140   2.503   3.883
 6180TIP3    H118501   6.046   2.483   3.899
 6180TIP3    H218502   6.152   2.464   3.793
 6181TIP3   OH218503   6.622   2.595   3.601
 6181TIP3    H118504   6.577   2.669   3.558
 6181TIP3    H218505   6.680   2.563   3.529
 6182TIP3   OH218506   6.803   2.866   4.695
 6182TIP3    H118507   6.782   2.795   4.758
 6182TIP3    H218508   6.896   2.884   4.717
 6183TIP3   OH218509   6.784   2.619   3.849
 6183TIP3    H118510   6.725   2.653   3.778
 6183TIP3    H218511   6.817   2.538   3.803
 6184TIP3   OH218512   6.075   2.647   4.577
 6184TIP3    H118513   6.100   2.713   4.643
 6184TIP3    H218514   6.063   2.566   4.630
 6185TIP3   OH218515   6.120   2.123   3.287
 6185TIP3    H118516   6.112   2.124   3.385
 6185TIP3    H218517   6.047   2.183   3.263
 6186TIP3   OH218518   5.667   2.166   4.160
 6186TIP3    H118519   5.741   2.201   4.213
 6186TIP3    H218520   5.708   2.142   4.076
 6187TIP3   OH218521   5.637   2.150   3.677
 6187TIP3    H118522   5.683   2.187   3.598
 6187TIP3    H218523   5.577   2.224   3.696
 6188TIP3   OH218524   6.798   2.863   4.273
 6188TIP3    H118525   6.830   2.792   4.213
 6188TIP3    H218526   6.766   2.809   4.349
 6189TIP3   OH218527   6.467   2.322   3.943
 6189TIP3    H118528   6.383   2.324   3.993
 6189TIP3    H218529   6.533   2.328   4.014
 6190TIP3   OH218530   5.899   2.382   3.953
 6190TIP3    H118531   5.805   2.391   3.924
 6190TIP3    H218532   5.922   2.292   3.927
 6191TIP3   OH218533   6.170   2.378   3.641
 6191TIP3    H118534   6.262   2.396   3.614
 6191TIP3    H218535   6.119   2.396   3.558
 6192TIP3   OH218536   6.959   2.400   4.148
 6192TIP3    H118537   6.923   2.415   4.238
 6192TIP3    H218538   6.891   2.342   4.111
 6193TIP3   OH218539   6.018   2.395   3.418
 6193TIP3    H118540   5.941   2.365   3.367
 6193TIP3    H218541   6.066   2.447   3.350
 6194TIP3   OH218542   7.128   4.092   4.366
 6194TIP3    H118543   7.128   4.116   4.272
 6194TIP3    H218544   7.208   4.138   4.398
 6195TIP3   OH218545   6.085   3.200   4.786
 6195TIP3    H118546   6.165   3.231   4.833
 6195TIP3    H218547   6.020   3.201   4.859
 6196TIP3   OH218548   6.548   2.651   4.040
 6196TIP3    H118549   6.625   2.619   3.991
 6196TIP3    H218550   6.559   2.609   4.127
 6197TIP3   OH218551   6.072   2.142   3.920
 6197TIP3    H118552   6.037   2.063   3.966
 6197TIP3    H218553   6.115   2.104   3.843
 6198TIP3   OH218554   6.525   2.550   4.334
 6198TIP3    H118555   6.435   2.587   4.344
 6198TIP3    H218556   6.581   2.614   4.382
 6199TIP3   OH218557   7.162   3.177   4.056
 6199TIP3    H118558   7.186   3.228   3.975
 6199TIP3    H218559   7.077   3.135   4.030
 6200TIP3   OH218560   6.719   2.254   3.283
 6200TIP3    H118561   6.622   2.237   3.294
 6200TIP3    H218562   6.729   2.347   3.313
 6201TIP3   OH218563   6.662   3.261   4.423
 6201TIP3    H118564   6.687   3.243   4.514
 6201TIP3    H218565   6.622   3.350   4.428
 6202TIP3   OH218566   6.793   2.494   3.397
 6202TIP3    H118567   6.889   2.508   3.412
 6202TIP3    H218568   6.768   2.574   3.345
 6203TIP3   OH218569   5.953   2.966   4.105
 6203TIP3    H118570   5.986   2.938   4.016
 6203TIP3    H218571   5.996   2.901   4.162
 6204TIP3   OH218572   5.835   2.884   4.715
 6204TIP3    H118573   5.853   2.869   4.810
 6204TIP3    H218574   5.765   2.819   4.697
 6205TIP3   OH218575   6.561   2.998   4.735
 6205TIP3    H118576   6.500   2.941   4.685
 6205TIP3    H218577   6.648   2.964   4.705
 6206TIP3   OH218578   6.821   3.520   4.319
 6206TIP3    H118579   6.725   3.519   4.332
 6206TIP3    H218580   6.850   3.572   4.397
 6207TIP3   OH218581   7.236   2.588   3.227
 6207TIP3    H118582   7.174   2.547   3.163
 6207TIP3    H218583   7.230   2.681   3.194
 6208TIP3   OH218584   7.450   3.453   4.307
 6208TIP3    H118585   7.352   3.446   4.296
 6208TIP3    H218586   7.478   3.421   4.218
 6209TIP3   OH218587   6.937   3.410   3.138
 6209TIP3    H118588   6.902   3.347   3.203
 6209TIP3    H218589   6.940   3.358   3.056
 6210TIP3   OH218590   6.929   3.040   3.975
 6210TIP3    H118591   6.835   3.015   3.988
 6210TIP3    H218592   6.961   2.961   3.928
 6211TIP3   OH218593   6.047   3.272   3.728
 6211TIP3    H118594   6.052   3.350   3.670
 6211TIP3    H218595   5.954   3.251   3.725
 6212TIP3   OH218596   5.619   2.571   3.428
 6212TIP3    H118597   5.666   2.655   3.448
 6212TIP3    H218598   5.543   2.578   3.490
 6213TIP3   OH218599   6.227   3.054   3.750
 6213TIP3    H118600   6.178   3.131   3.715
 6213TIP3    H218601   6.156   2.995   3.777
 6214TIP3   OH218602   6.324   3.612   4.196
 6214TIP3    H118603   6.367   3.684   4.145
 6214TIP3    H218604   6.400   3.574   4.243
 6215TIP3   OH218605   5.971   3.510   3.574
 6215TIP3    H118606   5.887   3.517   3.623
 6215TIP3    H218607   6.002   3.603   3.577
 6216TIP3   OH218608   6.712   3.244   4.154
 6216TIP3    H118609   6.703   3.243   4.252
 6216TIP3    H218610   6.793   3.191   4.142
 6217TIP3   OH218611   6.684   3.138   3.032
 6217TIP3    H118612   6.738   3.114   3.112
 6217TIP3    H218613   6.598   3.104   3.061
 6218TIP3   OH218614   6.960   3.778   4.204
 6218TIP3    H118615   6.880   3.722   4.198
 6218TIP3    H218616   6.944   3.843   4.132
 6219TIP3   OH218617   7.027   3.615   2.856
 6219TIP3    H118618   7.057   3.691   2.804
 6219TIP3    H218619   6.945   3.654   2.893
 6220TIP3   OH218620   6.045   2.390   4.723
 6220TIP3    H118621   5.948   2.393   4.734
 6220TIP3    H218622   6.071   2.330   4.794
 6221TIP3   OH218623   6.850   3.069   3.240
 6221TIP3    H118624   6.829   3.011   3.316
 6221TIP3    H218625   6.948   3.065   3.241
 6222TIP3   OH218626   5.763   3.475   4.354
 6222TIP3    H118627   5.815   3.398   4.380
 6222TIP3    H218628   5.795   3.542   4.416
 6223TIP3   OH218629   6.050   3.119   3.038
 6223TIP3    H118630   6.069   3.026   3.013
 6223TIP3    H218631   6.036   3.108   3.134
 6224TIP3   OH218632   6.005   3.122   3.310
 6224TIP3    H118633   6.090   3.092   3.344
 6224TIP3    H218634   6.009   3.219   3.323
 6225TIP3   OH218635   5.731   2.815   3.514
 6225TIP3    H118636   5.664   2.863   3.567
 6225TIP3    H218637   5.751   2.881   3.445
 6226TIP3   OH218638   6.884   2.455   4.406
 6226TIP3    H118639   6.963   2.493   4.445
 6226TIP3    H218640   6.870   2.374   4.459
 6227TIP3   OH218641   6.767   2.203   3.569
 6227TIP3    H118642   6.749   2.228   3.477
 6227TIP3    H218643   6.803   2.287   3.606
 6228TIP3   OH218644   6.269   3.362   3.275
 6228TIP3    H118645   6.174   3.364   3.295
 6228TIP3    H218646   6.270   3.383   3.181
 6229TIP3   OH218647   6.457   2.383   3.671
 6229TIP3    H118648   6.517   2.458   3.652
 6229TIP3    H218649   6.459   2.379   3.769
 6230TIP3   OH218650   6.720   2.703   4.480
 6230TIP3    H118651   6.743   2.758   4.557
 6230TIP3    H218652   6.775   2.624   4.492
 6231TIP3   OH218653   6.596   2.111   3.774
 6231TIP3    H118654   6.583   2.190   3.830
 6231TIP3    H218655   6.657   2.147   3.705
 6232TIP3   OH218656   6.001   3.397   3.323
 6232TIP3    H118657   5.972   3.468   3.262
 6232TIP3    H218658   5.988   3.439   3.410
 6233TIP3   OH218659   6.108   2.111   3.565
 6233TIP3    H118660   6.104   2.203   3.596
 6233TIP3    H218661   6.204   2.095   3.573
 6234TIP3   OH218662   7.358   2.604   4.457
 6234TIP3    H118663   7.260   2.600   4.467
 6234TIP3    H218664   7.368   2.571   4.367
 6235TIP3   OH218665   7.011   2.798   3.849
 6235TIP3    H118666   6.934   2.739   3.860
 6235TIP3    H218667   7.081   2.749   3.898
 6236TIP3   OH218668   5.734   3.027   3.316
 6236TIP3    H118669   5.806   3.092   3.327
 6236TIP3    H218670   5.776   2.969   3.249
 6237TIP3   OH218671   5.667   2.302   3.452
 6237TIP3    H118672   5.673   2.400   3.448
 6237TIP3    H218673   5.583   2.287   3.408
 6238TIP3   OH218674   6.980   3.756   3.798
 6238TIP3    H118675   6.937   3.803   3.723
 6238TIP3    H218676   7.074   3.775   3.776
 6239TIP3   OH218677   6.058   2.023   4.324
 6239TIP3    H118678   6.027   1.990   4.237
 6239TIP3    H218679   6.047   1.945   4.381
 6240TIP3   OH218680   5.600   3.248   3.702
 6240TIP3    H118681   5.525   3.273   3.758
 6240TIP3    H218682   5.572   3.284   3.616
 6241TIP3   OH218683   5.753   3.784   4.778
 6241TIP3    H118684   5.840   3.783   4.823
 6241TIP3    H218685   5.732   3.689   4.775
 6242TIP3   OH218686   6.232   3.746   4.822
 6242TIP3    H118687   6.328   3.730   4.828
 6242TIP3    H218688   6.208   3.686   4.749
 6243TIP3   OH218689   6.215   3.321   2.956
 6243TIP3    H118690   6.154   3.252   2.990
 6243TIP3    H218691   6.292   3.266   2.935
 6244TIP3   OH218692   6.874   3.654   4.555
 6244TIP3    H118693   6.865   3.585   4.625
 6244TIP3    H218694   6.952   3.704   4.585
 6245TIP3   OH218695   6.652   3.362   2.862
 6245TIP3    H118696   6.687   3.294   2.923
 6245TIP3    H218697   6.714   3.357   2.787
 6246TIP3   OH218698   5.883   3.189   4.978
 6246TIP3    H118699   5.899   3.093   4.982
 6246TIP3    H218700   5.796   3.192   4.932
 6247TIP3   OH218701   5.863   2.837   3.173
 6247TIP3    H118702   5.913   2.798   3.248
 6247TIP3    H218703   5.934   2.843   3.106
 6248TIP3   OH218704   6.489   3.274   4.752
 6248TIP3    H118705   6.450   3.294   4.664
 6248TIP3    H218706   6.520   3.182   4.741
 6249TIP3   OH218707   6.371   3.042   2.996
 6249TIP3    H118708   6.373   3.037   3.095
 6249TIP3    H218709   6.367   2.945   2.980
 6250TIP3   OH218710   6.984   3.283   4.358
 6250TIP3    H118711   7.059   3.327   4.314
 6250TIP3    H218712   6.913   3.349   4.343
 6251TIP3   OH218713   6.002   2.924   4.961
 6251TIP3    H118714   6.079   2.873   4.933
 6251TIP3    H218715   6.030   2.958   5.048
 6252TIP3   OH218716   6.017   2.725   3.369
 6252TIP3    H118717   6.048   2.730   3.460
 6252TIP3    H218718   6.085   2.669   3.327
 6253TIP3   OH218719   6.339   2.808   4.622
 6253TIP3    H118720   6.260   2.867   4.622
 6253TIP3    H218721   6.389   2.842   4.544
 6254TIP3   OH218722   6.174   2.531   3.235
 6254TIP3    H118723   6.148   2.543   3.141
 6254TIP3    H218724   6.271   2.540   3.228
 6255TIP3   OH218725   6.854   3.210   4.755
 6255TIP3    H118726   6.934   3.188   4.707
 6255TIP3    H218727   6.852   3.143   4.826
 6256TIP3   OH218728   6.995   2.868   2.893
 6256TIP3    H118729   6.965   2.823   2.811
 6256TIP3    H218730   6.960   2.958   2.876
 6257TIP3   OH218731   6.463   2.597   4.745
 6257TIP3    H118732   6.462   2.518   4.688
 6257TIP3    H218733   6.419   2.664   4.688
 6258TIP3   OH218734   6.464   2.382   4.556
 6258TIP3    H118735   6.492   2.426   4.472
 6258TIP3    H218736   6.370   2.360   4.536
 6259TIP3   OH218737   6.491   2.919   4.429
 6259TIP3    H118738   6.574   2.931   4.382
 6259TIP3    H218739   6.432   2.984   4.384
 6260TIP3   OH218740   7.072   2.886   4.808
 6260TIP3    H118741   7.124   2.805   4.812
 6260TIP3    H218742   7.135   2.950   4.773
 6261TIP3   OH218743   7.115   3.137   4.542
 6261TIP3    H118744   7.056   3.191   4.485
 6261TIP3    H218745   7.202   3.160   4.503
 6262TIP3   OH218746   6.341   2.706   4.980
 6262TIP3    H118747   6.272   2.638   4.993
 6262TIP3    H218748   6.373   2.685   4.890
 6263TIP3   OH218749   6.596   2.146   4.622
 6263TIP3    H118750   6.546   2.227   4.599
 6263TIP3    H218751   6.527   2.077   4.610
 6264TIP3   OH218752   6.723   2.648   4.838
 6264TIP3    H118753   6.706   2.637   4.933
 6264TIP3    H218754   6.634   2.626   4.803
 6265TIP3   OH218755   6.961   2.598   4.693
 6265TIP3    H118756   6.885   2.602   4.755
 6265TIP3    H218757   7.034   2.570   4.750
 6266TIP3   OH218758   7.196   2.542   4.843
 6266TIP3    H118759   7.202   2.446   4.861
 6266TIP3    H218760   7.187   2.580   4.933
 6267TIP3   OH218761   6.178   2.488   5.031
 6267TIP3    H118762   6.182   2.396   4.996
 6267TIP3    H218763   6.214   2.475   5.121
 6268TIP3   OH218764   6.690   2.155   4.880
 6268TIP3    H118765   6.756   2.083   4.872
 6268TIP3    H218766   6.649   2.151   4.791
 6269TIP3   OH218767   6.756   2.370   5.040
 6269TIP3    H118768   6.735   2.300   4.974
 6269TIP3    H218769   6.678   2.429   5.032
 6270TIP3   OH218770   5.979   3.607   3.141
 6270TIP3    H118771   6.073   3.600   3.117
 6270TIP3    H218772   5.946   3.652   3.061
 6271TIP3   OH218773   5.470   2.978   3.369
 6271TIP3    H118774   5.562   3.001   3.343
 6271TIP3    H218775   5.456   2.895   3.319
 6272TIP3   OH218776   5.363   3.596   3.757
 6272TIP3    H118777   5.315   3.530   3.706
 6272TIP3    H218778   5.407   3.541   3.825
 6273TIP3   OH218779   5.501   3.453   3.950
 6273TIP3    H118780   5.489   3.376   4.008
 6273TIP3    H218781   5.554   3.511   4.007
 6274TIP3   OH218782   7.233   3.846   3.756
 6274TIP3    H118783   7.259   3.877   3.845
 6274TIP3    H218784   7.300   3.887   3.699
 6275TIP3   OH218785   7.265   3.865   4.036
 6275TIP3    H118786   7.219   3.778   4.033
 6275TIP3    H218787   7.337   3.842   4.096
 6276TIP3   OH218788   7.310   3.540   4.611
 6276TIP3    H118789   7.237   3.552   4.674
 6276TIP3    H218790   7.352   3.628   4.613
 6277TIP3   OH218791   7.130   3.055   3.229
 6277TIP3    H118792   7.197   3.121   3.203
 6277TIP3    H218793   7.170   3.016   3.310
 6278TIP3   OH218794   7.251   2.923   3.433
 6278TIP3    H118795   7.186   2.883   3.495
 6278TIP3    H218796   7.316   2.964   3.494
 6279TIP3   OH218797   7.307   3.314   3.866
 6279TIP3    H118798   7.358   3.246   3.818
 6279TIP3    H218799   7.299   3.385   3.799
 6280TIP3   OH218800   7.139   3.616   4.059
 6280TIP3    H118801   7.068   3.657   4.112
 6280TIP3    H218802   7.089   3.569   3.990
 6281TIP3   OH218803   7.186   2.826   3.084
 6281TIP3    H118804   7.116   2.833   3.015
 6281TIP3    H218805   7.162   2.903   3.139
 6282TIP3   OH218806   7.073   2.498   3.025
 6282TIP3    H118807   7.012   2.545   2.967
 6282TIP3    H218808   7.043   2.406   3.014
 6283TIP3   OH218809   7.069   2.780   3.581
 6283TIP3    H118810   7.075   2.684   3.573
 6283TIP3    H218811   7.055   2.793   3.678
 6284TIP3   OH218812   5.694   2.848   4.329
 6284TIP3    H118813   5.692   2.820   4.235
 6284TIP3    H218814   5.791   2.853   4.344
 6285TIP3   OH218815   7.359   3.204   4.434
 6285TIP3    H118816   7.433   3.140   4.425
 6285TIP3    H218817   7.384   3.273   4.370
 6286TIP3   OH218818   7.541   3.004   4.465
 6286TIP3    H118819   7.464   2.955   4.501
 6286TIP3    H218820   7.612   2.937   4.470
 6287TIP3   OH218821   7.008   2.230   3.009
 6287TIP3    H118822   7.074   2.212   3.079
 6287TIP3    H218823   6.930   2.180   3.037
 6288TIP3   OH218824   7.068   2.497   3.476
 6288TIP3    H118825   7.108   2.408   3.489
 6288TIP3    H218826   7.126   2.531   3.406
 6289TIP3   OH218827   7.220   2.665   3.973
 6289TIP3    H118828   7.302   2.696   3.927
 6289TIP3    H218829   7.235   2.705   4.061
 6290TIP3   OH218830   7.292   2.814   4.202
 6290TIP3    H118831   7.214   2.850   4.249
 6290TIP3    H218832   7.324   2.893   4.153
 6291TIP3   OH218833   5.911   2.538   5.002
 6291TIP3    H118834   6.009   2.532   5.003
 6291TIP3    H218835   5.888   2.452   5.042
 6292TIP3   OH218836   7.735   2.419   4.748
 6292TIP3    H118837   7.766   2.350   4.689
 6292TIP3    H218838   7.690   2.479   4.683
 6293TIP3   OH218839   7.172   2.244   3.511
 6293TIP3    H118840   7.214   2.239   3.599
 6293TIP3    H218841   7.110   2.169   3.516
 6294TIP3   OH218842   5.873   2.232   4.334
 6294TIP3    H118843   5.935   2.157   4.341
 6294TIP3    H218844   5.935   2.306   4.325
 6295TIP3   OH218845   5.676   2.504   4.405
 6295TIP3    H118846   5.724   2.500   4.320
 6295TIP3    H218847   5.701   2.592   4.436
 6296TIP3   OH218848   7.610   2.554   4.554
 6296TIP3    H118849   7.526   2.599   4.578
 6296TIP3    H218850   7.573   2.486   4.495
 6297TIP3   OH218851   7.252   2.191   3.151
 6297TIP3    H118852   7.281   2.123   3.088
 6297TIP3    H218853   7.321   2.259   3.141
 6298TIP3   OH218854   5.660   2.007   3.904
 6298TIP3    H118855   5.566   2.005   3.932
 6298TIP3    H218856   5.657   2.067   3.827
 6299TIP3   OH218857   6.821   3.715   3.410
 6299TIP3    H118858   6.871   3.701   3.327
 6299TIP3    H218859   6.877   3.778   3.457
 6300TIP3   OH218860   5.880   2.089   4.720
 6300TIP3    H118861   5.828   2.084   4.802
 6300TIP3    H218862   5.815   2.127   4.658
 6301TIP3   OH218863   5.919   3.518   4.797
 6301TIP3    H118864   5.827   3.490   4.779
 6301TIP3    H218865   5.928   3.497   4.890
 6302TIP3   OH218866   6.097   3.551   4.345
 6302TIP3    H118867   6.050   3.625   4.304
 6302TIP3    H218868   6.184   3.563   4.301
 6303TIP3   OH218869   6.541   3.794   4.481
 6303TIP3    H118870   6.583   3.793   4.570
 6303TIP3    H218871   6.608   3.845   4.430
 6304TIP3   OH218872   6.721   3.946   4.341
 6304TIP3    H118873   6.791   3.894   4.300
 6304TIP3    H218874   6.773   4.002   4.403
 6305TIP3   OH218875   7.476   2.314   4.465
 6305TIP3    H118876   7.385   2.303   4.430
 6305TIP3    H218877   7.511   2.222   4.452
 6306TIP3   OH218878   5.774   3.808   4.366
 6306TIP3    H118879   5.684   3.841   4.343
 6306TIP3    H218880   5.781   3.841   4.456
 6307TIP3   OH218881   6.011   3.786   4.226
 6307TIP3    H118882   5.924   3.799   4.270
 6307TIP3    H218883   5.991   3.814   4.135
 6308TIP3   OH218884   6.436   3.812   4.025
 6308TIP3    H118885   6.366   3.830   3.959
 6308TIP3    H218886   6.447   3.900   4.067
 6309TIP3   OH218887   6.705   3.752   4.077
 6309TIP3    H118888   6.611   3.768   4.055
 6309TIP3    H218889   6.748   3.826   4.033
 6310TIP3   OH218890   6.913   3.944   3.990
 6310TIP3    H118891   6.898   4.028   3.941
 6310TIP3    H218892   6.939   3.883   3.918
 6311TIP3   OH218893   5.685   3.600   4.112
 6311TIP3    H118894   5.711   3.574   4.203
 6311TIP3    H218895   5.756   3.555   4.062
 6312TIP3   OH218896   5.879   3.470   3.972
 6312TIP3    H118897   5.896   3.386   4.019
 6312TIP3    H218898   5.970   3.505   3.963
 6313TIP3   OH218899   6.147   3.567   3.972
 6313TIP3    H118900   6.177   3.476   3.953
 6313TIP3    H218901   6.193   3.582   4.057
 6314TIP3   OH218902   6.725   2.223   4.065
 6314TIP3    H118903   6.678   2.153   4.114
 6314TIP3    H218904   6.794   2.174   4.018
 6315TIP3   OH218905   7.244   2.098   3.970
 6315TIP3    H118906   7.278   2.157   3.900
 6315TIP3    H218907   7.148   2.116   3.965
 6316TIP3   OH218908   7.316   2.230   3.746
 6316TIP3    H118909   7.384   2.177   3.699
 6316TIP3    H218910   7.355   2.319   3.732
 6317TIP3   OH218911   5.969   1.930   4.076
 6317TIP3    H118912   5.877   1.898   4.079
 6317TIP3    H218913   6.017   1.844   4.072
 6318TIP3   OH218914   5.757   1.800   3.724
 6318TIP3    H118915   5.786   1.858   3.651
 6318TIP3    H218916   5.729   1.866   3.791
 6319TIP3   OH218917   6.416   1.959   3.957
 6319TIP3    H118918   6.471   2.011   3.896
 6319TIP3    H218919   6.432   2.004   4.041
 6320TIP3   OH218920   6.961   2.109   3.942
 6320TIP3    H118921   6.957   2.075   3.852
 6320TIP3    H218922   6.946   2.028   3.995
 6321TIP3   OH218923   6.985   2.033   3.507
 6321TIP3    H118924   6.900   2.080   3.521
 6321TIP3    H218925   6.968   1.948   3.552
 6322TIP3   OH218926   5.466   3.379   3.506
 6322TIP3    H118927   5.382   3.350   3.465
 6322TIP3    H218928   5.465   3.471   3.474
 6323TIP3   OH218929   5.873   1.957   3.489
 6323TIP3    H118930   5.922   1.897   3.430
 6323TIP3    H218931   5.946   2.013   3.524
 6324TIP3   OH218932   6.385   2.134   3.587
 6324TIP3    H118933   6.446   2.089   3.647
 6324TIP3    H218934   6.406   2.228   3.610
 6325TIP3   OH218935   6.241   3.570   3.072
 6325TIP3    H118936   6.334   3.585   3.045
 6325TIP3    H218937   6.221   3.491   3.018
 6326TIP3   OH218938   6.968   3.678   3.178
 6326TIP3    H118939   6.960   3.580   3.169
 6326TIP3    H218940   6.918   3.707   3.100
 6327TIP3   OH218941   6.176   2.212   4.968
 6327TIP3    H118942   6.141   2.141   5.024
 6327TIP3    H218943   6.271   2.211   4.996
 6328TIP3   OH218944   6.427   2.209   5.087
 6328TIP3    H118945   6.511   2.184   5.046
 6328TIP3    H218946   6.414   2.138   5.153
 6329TIP3   OH218947   5.549   3.400   3.140
 6329TIP3    H118948   5.540   3.423   3.234
 6329TIP3    H218949   5.638   3.360   3.136
 6330TIP3   OH218950   7.246   2.269   4.877
 6330TIP3    H118951   7.266   2.240   4.969
 6330TIP3    H218952   7.335   2.264   4.836
 6331TIP3   OH218953   7.192   3.823   4.362
 6331TIP3    H118954   7.112   3.791   4.316
 6331TIP3    H218955   7.170   3.918   4.371
 6332TIP3   OH218956   7.748   3.134   3.927
 6332TIP3    H118957   7.786   3.049   3.951
 6332TIP3    H218958   7.782   3.144   3.835
 6333TIP3   OH218959   7.729   3.496   3.605
 6333TIP3    H118960   7.703   3.406   3.630
 6333TIP3    H218961   7.786   3.523   3.678
 6334TIP3   OH218962   7.446   2.719   3.392
 6334TIP3    H118963   7.387   2.796   3.400
 6334TIP3    H218964   7.384   2.652   3.358
 6335TIP3   OH218965   7.489   3.002   3.552
 6335TIP3    H118966   7.522   2.916   3.585
 6335TIP3    H218967   7.572   3.041   3.518
 6336TIP3   OH218968   7.607   2.776   3.641
 6336TIP3    H118969   7.704   2.790   3.635
 6336TIP3    H218970   7.593   2.706   3.576
 6337TIP3   OH218971   7.332   3.229   3.127
 6337TIP3    H118972   7.284   3.260   3.048
 6337TIP3    H218973   7.361   3.314   3.167
 6338TIP3   OH218974   7.907   3.195   4.181
 6338TIP3    H118975   7.882   3.286   4.206
 6338TIP3    H218976   7.848   3.183   4.104
 6339TIP3   OH218977   7.929   3.829   4.133
 6339TIP3    H118978   7.906   3.810   4.040
 6339TIP3    H218979   7.846   3.805   4.179
 6340TIP3   OH218980   7.515   3.361   4.058
 6340TIP3    H118981   7.447   3.331   3.995
 6340TIP3    H218982   7.552   3.276   4.093
 6341TIP3   OH218983   7.367   3.551   3.692
 6341TIP3    H118984   7.463   3.551   3.695
 6341TIP3    H218985   7.346   3.624   3.752
 6342TIP3   OH218986   7.510   3.760   3.240
 6342TIP3    H118987   7.557   3.749   3.325
 6342TIP3    H218988   7.458   3.677   3.238
 6343TIP3   OH218989   7.716   3.541   4.031
 6343TIP3    H118990   7.764   3.526   4.115
 6343TIP3    H218991   7.644   3.475   4.040
 6344TIP3   OH218992   7.458   2.440   3.653
 6344TIP3    H118993   7.546   2.468   3.684
 6344TIP3    H218994   7.477   2.401   3.565
 6345TIP3   OH218995   7.440   2.405   3.158
 6345TIP3    H118996   7.478   2.447   3.078
 6345TIP3    H218997   7.381   2.478   3.186
 6346TIP3   OH218998   7.855   3.462   4.263
 6346TIP3    H118999   7.945   3.472   4.298
 6346TIP3    H219000   7.802   3.465   4.345
 6347TIP3   OH219001   7.599   3.159   4.220
 6347TIP3    H119002   7.648   3.137   4.301
 6347TIP3    H219003   7.551   3.077   4.200
 6348TIP3   OH219004   7.396   2.833   2.910
 6348TIP3    H119005   7.445   2.916   2.931
 6348TIP3    H219006   7.326   2.837   2.979
 6349TIP3   OH219007   7.742   3.814   3.109
 6349TIP3    H119008   7.653   3.792   3.146
 6349TIP3    H219009   7.748   3.908   3.126
 6350TIP3   OH219010   7.567   3.723   3.843
 6350TIP3    H119011   7.615   3.658   3.897
 6350TIP3    H219012   7.583   3.804   3.893
 6351TIP3   OH219013   7.509   3.068   2.984
 6351TIP3    H119014   7.455   3.124   3.044
 6351TIP3    H219015   7.565   3.134   2.938
 6352TIP3   OH219016   7.509   3.335   2.809
 6352TIP3    H119017   7.575   3.392   2.853
 6352TIP3    H219018   7.568   3.280   2.755
 6353TIP3   OH219019   7.441   2.565   2.938
 6353TIP3    H119020   7.454   2.662   2.941
 6353TIP3    H219021   7.346   2.557   2.925
 6354TIP3   OH219022   7.382   3.495   3.195
 6354TIP3    H119023   7.304   3.522   3.245
 6354TIP3    H219024   7.363   3.534   3.107
 6355TIP3   OH219025   7.550   4.040   4.263
 6355TIP3    H119026   7.635   4.030   4.308
 6355TIP3    H219027   7.520   3.947   4.261
 6356TIP3   OH219028   7.673   3.443   4.471
 6356TIP3    H119029   7.687   3.347   4.474
 6356TIP3    H219030   7.588   3.448   4.423
 6357TIP3   OH219031   7.794   3.179   4.455
 6357TIP3    H119032   7.844   3.097   4.450
 6357TIP3    H219033   7.821   3.214   4.543
 6358TIP3   OH219034   7.248   3.246   2.840
 6358TIP3    H119035   7.342   3.272   2.830
 6358TIP3    H219036   7.248   3.153   2.808
 6359TIP3   OH219037   7.168   3.852   3.255
 6359TIP3    H119038   7.101   3.790   3.219
 6359TIP3    H219039   7.212   3.794   3.321
 6360TIP3   OH219040   7.297   3.701   3.446
 6360TIP3    H119041   7.288   3.626   3.507
 6360TIP3    H219042   7.347   3.762   3.502
 6361TIP3   OH219043   7.488   3.111   3.813
 6361TIP3    H119044   7.495   3.082   3.720
 6361TIP3    H219045   7.582   3.128   3.835
 6362TIP3   OH219046   7.721   2.794   4.475
 6362TIP3    H119047   7.809   2.805   4.513
 6362TIP3    H219048   7.688   2.712   4.517
 6363TIP3   OH219049   7.457   2.760   3.875
 6363TIP3    H119050   7.500   2.760   3.787
 6363TIP3    H219051   7.501   2.835   3.916
 6364TIP3   OH219052   7.438   2.303   3.409
 6364TIP3    H119053   7.351   2.266   3.432
 6364TIP3    H219054   7.425   2.333   3.317
 6365TIP3   OH219055   7.636   2.383   4.255
 6365TIP3    H119056   7.574   2.357   4.325
 6365TIP3    H219057   7.573   2.412   4.185
 6366TIP3   OH219058   7.712   3.773   4.294
 6366TIP3    H119059   7.621   3.746   4.273
 6366TIP3    H219060   7.719   3.748   4.387
 6367TIP3   OH219061   7.902   3.793   3.841
 6367TIP3    H119062   7.846   3.857   3.793
 6367TIP3    H219063   7.988   3.816   3.803
 6368TIP3   OH219064   7.565   4.059   3.861
 6368TIP3    H119065   7.478   4.096   3.836
 6368TIP3    H219066   7.580   4.104   3.945
 6369TIP3   OH219067   7.777   3.987   3.690
 6369TIP3    H119068   7.706   4.025   3.746
 6369TIP3    H219069   7.791   4.059   3.625
 6370TIP3   OH219070   7.473   3.861   3.605
 6370TIP3    H119071   7.505   3.838   3.694
 6370TIP3    H219072   7.542   3.816   3.552
 6371TIP3   OH219073   7.663   3.729   3.463
 6371TIP3    H119074   7.682   3.639   3.497
 6371TIP3    H219075   7.743   3.777   3.487
 6372TIP3   OH219076   7.272   3.625   2.986
 6372TIP3    H119077   7.185   3.594   2.955
 6372TIP3    H219078   7.260   3.721   2.976
 6373TIP3   OH219079   7.360   3.660   2.641
 6373TIP3    H119080   7.317   3.700   2.719
 6373TIP3    H219081   7.412   3.590   2.682
 6374TIP3   OH219082   0.910   3.983   4.821
 6374TIP3    H119083   0.883   4.075   4.801
 6374TIP3    H219084   0.830   3.935   4.791
 6375TIP3   OH219085   0.918   3.977   5.198
 6375TIP3    H119086   0.943   3.954   5.289
 6375TIP3    H219087   0.865   3.900   5.171
 6376TIP3   OH219088   0.249   3.870   5.502
 6376TIP3    H119089   0.227   3.834   5.589
 6376TIP3    H219090   0.310   3.942   5.524
 6377TIP3   OH219091   1.154   4.284   4.885
 6377TIP3    H119092   1.134   4.219   4.953
 6377TIP3    H219093   1.179   4.362   4.938
 6378TIP3   OH219094   0.262   4.255   5.393
 6378TIP3    H119095   0.210   4.179   5.362
 6378TIP3    H219096   0.322   4.264   5.315
 6379TIP3   OH219097   0.802   4.749   4.898
 6379TIP3    H119098   0.850   4.674   4.857
 6379TIP3    H219099   0.783   4.716   4.986
 6380TIP3   OH219100   0.714   4.202   5.265
 6380TIP3    H119101   0.748   4.134   5.206
 6380TIP3    H219102   0.798   4.247   5.288
 6381TIP3   OH219103   1.721   3.529   5.250
 6381TIP3    H119104   1.749   3.610   5.298
 6381TIP3    H219105   1.739   3.555   5.158
 6382TIP3   OH219106   1.122   3.710   5.284
 6382TIP3    H119107   1.160   3.622   5.304
 6382TIP3    H219108   1.088   3.695   5.193
 6383TIP3   OH219109   0.470   3.364   5.244
 6383TIP3    H119110   0.442   3.437   5.184
 6383TIP3    H219111   0.423   3.288   5.203
 6384TIP3   OH219112   1.152   3.456   4.876
 6384TIP3    H119113   1.225   3.444   4.941
 6384TIP3    H219114   1.202   3.496   4.802
 6385TIP3   OH219115   0.113   3.575   5.366
 6385TIP3    H119116   0.204   3.549   5.388
 6385TIP3    H219117   0.076   3.491   5.337
 6386TIP3   OH219118   0.535   3.770   5.130
 6386TIP3    H119119   0.625   3.742   5.157
 6386TIP3    H219120   0.493   3.684   5.107
 6387TIP3   OH219121   1.791   3.735   5.421
 6387TIP3    H119122   1.708   3.784   5.403
 6387TIP3    H219123   1.813   3.769   5.510
 6388TIP3   OH219124   0.460   3.346   5.682
 6388TIP3    H119125   0.400   3.389   5.617
 6388TIP3    H219126   0.412   3.363   5.766
 6389TIP3   OH219127   0.806   4.207   4.687
 6389TIP3    H119128   0.755   4.185   4.608
 6389TIP3    H219129   0.762   4.290   4.715
 6390TIP3   OH219130   0.558   4.136   5.485
 6390TIP3    H119131   0.505   4.208   5.524
 6390TIP3    H219132   0.600   4.181   5.408
 6391TIP3   OH219133   1.364   3.462   5.046
 6391TIP3    H119134   1.340   3.424   5.132
 6391TIP3    H219135   1.412   3.543   5.073
 6392TIP3   OH219136   0.344   3.465   5.466
 6392TIP3    H119137   0.406   3.539   5.486
 6392TIP3    H219138   0.391   3.422   5.391
 6393TIP3   OH219139   0.380   4.323   5.619
 6393TIP3    H119140   0.349   4.321   5.525
 6393TIP3    H219141   0.296   4.298   5.660
 6394TIP3   OH219142   1.225   4.528   5.049
 6394TIP3    H119143   1.136   4.518   5.091
 6394TIP3    H219144   1.215   4.614   5.005
 6395TIP3   OH219145   1.513   3.425   5.413
 6395TIP3    H119146   1.427   3.458   5.385
 6395TIP3    H219147   1.573   3.460   5.344
 6396TIP3   OH219148   0.812   3.070   5.402
 6396TIP3    H119149   0.791   2.976   5.417
 6396TIP3    H219150   0.734   3.112   5.445
 6397TIP3   OH219151   0.931   4.571   4.731
 6397TIP3    H119152   0.979   4.490   4.707
 6397TIP3    H219153   0.989   4.638   4.688
 6398TIP3   OH219154   1.071   4.356   4.631
 6398TIP3    H119155   1.013   4.283   4.605
 6398TIP3    H219156   1.108   4.322   4.716
 6399TIP3   OH219157   1.448   4.439   5.397
 6399TIP3    H119158   1.435   4.363   5.337
 6399TIP3    H219159   1.428   4.515   5.337
 6400TIP3   OH219160   0.740   3.831   4.655
 6400TIP3    H119161   0.658   3.883   4.639
 6400TIP3    H219162   0.782   3.835   4.567
 6401TIP3   OH219163   0.700   3.620   4.365
 6401TIP3    H119164   0.763   3.673   4.417
 6401TIP3    H219165   0.760   3.557   4.321
 6402TIP3   OH219166   1.642   4.075   5.239
 6402TIP3    H119167   1.559   4.127   5.245
 6402TIP3    H219168   1.673   4.103   5.150
 6403TIP3   OH219169   1.088   3.915   4.625
 6403TIP3    H119170   1.032   3.940   4.702
 6403TIP3    H219171   1.173   3.896   4.669
 6404TIP3   OH219172   1.322   3.955   5.538
 6404TIP3    H119173   1.320   4.040   5.587
 6404TIP3    H219174   1.235   3.959   5.494
 6405TIP3   OH219175   0.321   3.911   5.038
 6405TIP3    H119176   0.286   3.851   4.969
 6405TIP3    H219177   0.401   3.862   5.067
 6406TIP3   OH219178   0.429   4.262   5.183
 6406TIP3    H119179   0.422   4.286   5.089
 6406TIP3    H219180   0.524   4.272   5.200
 6407TIP3   OH219181   0.524   3.881   5.389
 6407TIP3    H119182   0.516   3.874   5.292
 6407TIP3    H219183   0.531   3.977   5.404
 6408TIP3   OH219184   0.986   4.522   5.173
 6408TIP3    H119185   0.968   4.605   5.222
 6408TIP3    H219186   0.967   4.452   5.238
 6409TIP3   OH219187   0.583   4.465   5.741
 6409TIP3    H119188   0.533   4.547   5.723
 6409TIP3    H219189   0.521   4.401   5.699
 6410TIP3   OH219190   0.931   3.771   4.450
 6410TIP3    H119191   0.986   3.834   4.501
 6410TIP3    H219192   0.956   3.795   4.358
 6411TIP3   OH219193   0.362   4.006   5.825
 6411TIP3    H119194   0.333   4.096   5.840
 6411TIP3    H219195   0.278   3.964   5.797
 6412TIP3   OH219196   0.674   4.450   4.726
 6412TIP3    H119197   0.748   4.509   4.746
 6412TIP3    H219198   0.608   4.510   4.688
 6413TIP3   OH219199   1.446   3.020   4.509
 6413TIP3    H119200   1.359   3.042   4.548
 6413TIP3    H219201   1.467   3.103   4.461
 6414TIP3   OH219202   0.202   3.753   4.833
 6414TIP3    H119203   0.146   3.821   4.792
 6414TIP3    H219204   0.134   3.704   4.882
 6415TIP3   OH219205   1.242   4.382   4.045
 6415TIP3    H119206   1.249   4.479   4.034
 6415TIP3    H219207   1.335   4.355   4.032
 6416TIP3   OH219208   1.687   4.786   5.444
 6416TIP3    H119209   1.683   4.689   5.460
 6416TIP3    H219210   1.603   4.813   5.489
 6417TIP3   OH219211   0.808   4.562   5.589
 6417TIP3    H119212   0.805   4.658   5.612
 6417TIP3    H219213   0.719   4.536   5.620
 6418TIP3   OH219214   0.556   4.699   4.528
 6418TIP3    H119215   0.504   4.688   4.447
 6418TIP3    H219216   0.526   4.787   4.560
 6419TIP3   OH219217   0.752   4.602   4.168
 6419TIP3    H119218   0.812   4.532   4.134
 6419TIP3    H219219   0.786   4.612   4.260
 6420TIP3   OH219220   0.805   4.647   4.437
 6420TIP3    H119221   0.716   4.660   4.477
 6420TIP3    H219222   0.853   4.609   4.512
 6421TIP3   OH219223   1.575   3.915   5.717
 6421TIP3    H119224   1.492   3.928   5.669
 6421TIP3    H219225   1.589   3.819   5.709
 6422TIP3   OH219226   0.575   3.147   5.523
 6422TIP3    H119227   0.486   3.114   5.497
 6422TIP3    H219228   0.547   3.228   5.571
 6423TIP3   OH219229   1.105   3.259   5.720
 6423TIP3    H119230   1.173   3.234   5.786
 6423TIP3    H219231   1.021   3.242   5.767
 6424TIP3   OH219232   1.343   3.692   5.639
 6424TIP3    H119233   1.292   3.689   5.723
 6424TIP3    H219234   1.319   3.780   5.603
 6425TIP3   OH219235   1.002   3.815   4.193
 6425TIP3    H119236   0.970   3.795   4.104
 6425TIP3    H219237   1.082   3.868   4.173
 6426TIP3   OH219238   0.722   3.191   4.499
 6426TIP3    H119239   0.684   3.190   4.589
 6426TIP3    H219240   0.676   3.114   4.461
 6427TIP3   OH219241   0.517   3.661   5.541
 6427TIP3    H119242   0.459   3.680   5.618
 6427TIP3    H219243   0.510   3.744   5.488
 6428TIP3   OH219244   0.390   3.544   5.059
 6428TIP3    H119245   0.296   3.522   5.074
 6428TIP3    H219246   0.401   3.509   4.968
 6429TIP3   OH219247   0.878   3.635   4.787
 6429TIP3    H119248   0.824   3.707   4.747
 6429TIP3    H219249   0.930   3.605   4.709
 6430TIP3   OH219250   1.052   3.914   5.875
 6430TIP3    H119251   1.030   3.841   5.937
 6430TIP3    H219252   1.146   3.926   5.895
 6431TIP3   OH219253   1.034   3.663   5.027
 6431TIP3    H119254   0.973   3.698   4.959
 6431TIP3    H219255   1.063   3.582   4.981
 6432TIP3   OH219256   0.343   3.671   5.754
 6432TIP3    H119257   0.335   3.749   5.809
 6432TIP3    H219258   0.322   3.599   5.815
 6433TIP3   OH219259   0.379   3.168   4.465
 6433TIP3    H119260   0.359   3.170   4.560
 6433TIP3    H219261   0.306   3.225   4.431
 6434TIP3   OH219262   1.048   3.909   5.449
 6434TIP3    H119263   1.080   3.838   5.390
 6434TIP3    H219264   1.016   3.856   5.525
 6435TIP3   OH219265   0.718   3.362   5.120
 6435TIP3    H119266   0.631   3.364   5.164
 6435TIP3    H219267   0.777   3.380   5.195
 6436TIP3   OH219268   0.165   3.382   5.112
 6436TIP3    H119269   0.090   3.334   5.075
 6436TIP3    H219270   0.230   3.310   5.121
 6437TIP3   OH219271   0.422   3.421   4.818
 6437TIP3    H119272   0.511   3.444   4.787
 6437TIP3    H219273   0.366   3.443   4.739
 6438TIP3   OH219274   1.202   3.444   5.316
 6438TIP3    H119275   1.177   3.459   5.410
 6438TIP3    H219276   1.129   3.385   5.289
 6439TIP3   OH219277   0.272   3.448   4.601
 6439TIP3    H119278   0.184   3.415   4.576
 6439TIP3    H219279   0.306   3.483   4.517
 6440TIP3   OH219280   1.378   5.135   5.542
 6440TIP3    H119281   1.374   5.161   5.448
 6440TIP3    H219282   1.454   5.186   5.574
 6441TIP3   OH219283   0.794   3.695   5.218
 6441TIP3    H119284   0.873   3.661   5.175
 6441TIP3    H219285   0.800   3.658   5.308
 6442TIP3   OH219286   0.339   3.172   5.099
 6442TIP3    H119287   0.295   3.097   5.146
 6442TIP3    H219288   0.372   3.129   5.020
 6443TIP3   OH219289   0.779   3.596   5.504
 6443TIP3    H119290   0.687   3.629   5.515
 6443TIP3    H219291   0.831   3.660   5.556
 6444TIP3   OH219292   0.517   3.982   4.605
 6444TIP3    H119293   0.443   3.919   4.591
 6444TIP3    H219294   0.494   4.018   4.694
 6445TIP3   OH219295   1.411   4.221   5.231
 6445TIP3    H119296   1.433   4.273   5.151
 6445TIP3    H219297   1.325   4.180   5.206
 6446TIP3   OH219298   0.969   3.299   4.459
 6446TIP3    H119299   0.873   3.279   4.471
 6446TIP3    H219300   0.976   3.393   4.486
 6447TIP3   OH219301   0.910   4.306   5.599
 6447TIP3    H119302   0.932   4.288   5.691
 6447TIP3    H219303   0.879   4.399   5.602
 6448TIP3   OH219304   1.035   3.544   4.566
 6448TIP3    H119305   1.130   3.555   4.585
 6448TIP3    H219306   1.014   3.626   4.517
 6449TIP3   OH219307   0.194   4.004   5.270
 6449TIP3    H119308   0.249   3.972   5.196
 6449TIP3    H219309   0.211   3.936   5.339
 6450TIP3   OH219310   0.656   4.132   4.423
 6450TIP3    H119311   0.611   4.220   4.425
 6450TIP3    H219312   0.600   4.080   4.484
 6451TIP3   OH219313   0.807   4.041   5.908
 6451TIP3    H119314   0.744   3.979   5.866
 6451TIP3    H219315   0.892   4.004   5.877
 6452TIP3   OH219316   1.074   4.560   5.499
 6452TIP3    H119317   0.978   4.560   5.512
 6452TIP3    H219318   1.102   4.617   5.574
 6453TIP3   OH219319   1.698   4.493   5.486
 6453TIP3    H119320   1.600   4.489   5.477
 6453TIP3    H219321   1.724   4.464   5.395
 6454TIP3   OH219322   1.186   4.455   4.314
 6454TIP3    H119323   1.151   4.391   4.378
 6454TIP3    H219324   1.191   4.405   4.231
 6455TIP3   OH219325   1.177   4.085   5.150
 6455TIP3    H119326   1.084   4.060   5.164
 6455TIP3    H219327   1.210   4.006   5.103
 6456TIP3   OH219328   0.296   4.304   4.904
 6456TIP3    H119329   0.311   4.395   4.872
 6456TIP3    H219330   0.203   4.292   4.881
 6457TIP3   OH219331   0.443   4.077   4.846
 6457TIP3    H119332   0.405   4.165   4.864
 6457TIP3    H219333   0.410   4.026   4.923
 6458TIP3   OH219334   0.593   4.656   5.409
 6458TIP3    H119335   0.588   4.700   5.324
 6458TIP3    H219336   0.687   4.644   5.422
 6459TIP3   OH219337   0.219   4.548   4.751
 6459TIP3    H119338   0.130   4.579   4.769
 6459TIP3    H219339   0.269   4.633   4.761
 6460TIP3   OH219340   0.966   4.288   5.332
 6460TIP3    H119341   0.955   4.288   5.430
 6460TIP3    H219342   1.048   4.237   5.322
 6461TIP3   OH219343   0.935   4.183   4.212
 6461TIP3    H119344   0.988   4.156   4.291
 6461TIP3    H219345   0.846   4.159   4.242
 6462TIP3   OH219346   1.210   4.822   5.379
 6462TIP3    H119347   1.128   4.770   5.369
 6462TIP3    H219348   1.197   4.889   5.308
 6463TIP3   OH219349   1.278   4.658   4.035
 6463TIP3    H119350   1.311   4.731   3.980
 6463TIP3    H219351   1.197   4.701   4.070
 6464TIP3   OH219352   0.317   3.389   5.917
 6464TIP3    H119353   0.232   3.341   5.913
 6464TIP3    H219354   0.360   3.345   5.994
 6465TIP3   OH219355   1.095   4.110   4.424
 6465TIP3    H119356   1.086   4.050   4.501
 6465TIP3    H219357   1.193   4.114   4.417
 6466TIP3   OH219358   0.299   4.159   4.206
 6466TIP3    H119359   0.319   4.066   4.183
 6466TIP3    H219360   0.289   4.152   4.303
 6467TIP3   OH219361   0.273   4.164   4.475
 6467TIP3    H119362   0.308   4.134   4.559
 6467TIP3    H219363   0.265   4.261   4.490
 6468TIP3   OH219364   1.140   3.493   5.576
 6468TIP3    H119365   1.212   3.537   5.623
 6468TIP3    H219366   1.122   3.415   5.632
 6469TIP3   OH219367   1.025   3.248   4.742
 6469TIP3    H119368   0.997   3.276   4.653
 6469TIP3    H219369   1.055   3.333   4.782
 6470TIP3   OH219370   0.527   4.369   4.430
 6470TIP3    H119371   0.439   4.384   4.470
 6470TIP3    H219372   0.535   4.449   4.376
 6471TIP3   OH219373   0.711   3.425   4.849
 6471TIP3    H119374   0.768   3.503   4.832
 6471TIP3    H219375   0.707   3.424   4.946
 6472TIP3   OH219376   0.970   3.749   5.656
 6472TIP3    H119377   0.987   3.805   5.735
 6472TIP3    H219378   1.024   3.671   5.676
 6473TIP3   OH219379   0.849   3.162   4.957
 6473TIP3    H119380   0.822   3.242   5.007
 6473TIP3    H219381   0.905   3.200   4.887
 6474TIP3   OH219382   0.271   4.436   4.504
 6474TIP3    H119383   0.217   4.494   4.447
 6474TIP3    H219384   0.249   4.473   4.592
 6475TIP3   OH219385   0.357   3.155   4.743
 6475TIP3    H119386   0.354   3.248   4.774
 6475TIP3    H219387   0.453   3.140   4.747
 6476TIP3   OH219388   1.610   3.648   5.640
 6476TIP3    H119389   1.512   3.645   5.645
 6476TIP3    H219390   1.623   3.613   5.551
 6477TIP3   OH219391   1.262   3.843   5.024
 6477TIP3    H119392   1.184   3.786   5.040
 6477TIP3    H219393   1.332   3.796   5.074
 6478TIP3   OH219394   0.003   3.359   4.595
 6478TIP3    H119395  -0.059   3.427   4.566
 6478TIP3    H219396  -0.048   3.278   4.582
 6479TIP3   OH219397   1.232   4.798   4.974
 6479TIP3    H119398   1.187   4.844   4.898
 6479TIP3    H219399   1.325   4.817   4.952
 6480TIP3   OH219400   0.315   3.063   5.501
 6480TIP3    H119401   0.275   3.035   5.416
 6480TIP3    H219402   0.297   2.986   5.558
 6481TIP3   OH219403   0.545   4.838   5.941
 6481TIP3    H119404   0.619   4.779   5.959
 6481TIP3    H219405   0.477   4.779   5.905
 6482TIP3   OH219406   0.463   4.365   4.125
 6482TIP3    H119407   0.403   4.296   4.162
 6482TIP3    H219408   0.539   4.310   4.101
 6483TIP3   OH219409   1.122   4.699   5.734
 6483TIP3    H119410   1.114   4.628   5.803
 6483TIP3    H219411   1.200   4.749   5.764
 6484TIP3   OH219412   0.901   4.408   4.038
 6484TIP3    H119413   0.943   4.342   4.097
 6484TIP3    H219414   0.957   4.405   3.958
 6485TIP3   OH219415   0.109   3.830   4.321
 6485TIP3    H119416   0.144   3.853   4.408
 6485TIP3    H219417   0.184   3.853   4.264
 6486TIP3   OH219418   0.770   4.316   5.916
 6486TIP3    H119419   0.722   4.343   5.836
 6486TIP3    H219420   0.790   4.221   5.899
 6487TIP3   OH219421   0.620   4.085   4.154
 6487TIP3    H119422   0.622   4.095   4.251
 6487TIP3    H219423   0.615   3.988   4.147
 6488TIP3   OH219424   1.232   4.328   5.534
 6488TIP3    H119425   1.307   4.373   5.491
 6488TIP3    H219426   1.162   4.395   5.520
 6489TIP3   OH219427   0.325   3.788   4.576
 6489TIP3    H119428   0.291   3.748   4.658
 6489TIP3    H219429   0.351   3.710   4.524
 6490TIP3   OH219430   0.600   3.859   5.802
 6490TIP3    H119431   0.519   3.914   5.807
 6490TIP3    H219432   0.642   3.892   5.719
 6491TIP3   OH219433   0.417   3.580   4.408
 6491TIP3    H119434   0.388   3.589   4.315
 6491TIP3    H219435   0.514   3.588   4.398
 6492TIP3   OH219436   1.107   4.256   5.943
 6492TIP3    H119437   1.178   4.231   5.883
 6492TIP3    H219438   1.108   4.183   6.007
 6493TIP3   OH219439   1.236   3.911   4.072
 6493TIP3    H119440   1.216   3.868   3.987
 6493TIP3    H219441   1.204   4.002   4.052
 6494TIP3   OH219442   0.719   3.636   5.910
 6494TIP3    H119443   0.713   3.557   5.853
 6494TIP3    H219444   0.673   3.704   5.855
 6495TIP3   OH219445   0.715   3.425   5.727
 6495TIP3    H119446   0.741   3.470   5.644
 6495TIP3    H219447   0.621   3.402   5.708
 6496TIP3   OH219448   0.743   3.973   5.605
 6496TIP3    H119449   0.821   3.978   5.549
 6496TIP3    H219450   0.681   4.033   5.559
 6497TIP3   OH219451   1.320   3.929   5.984
 6497TIP3    H119452   1.371   3.848   5.997
 6497TIP3    H219453   1.387   3.990   5.951
 6498TIP3   OH219454   1.361   4.183   5.721
 6498TIP3    H119455   1.304   4.237   5.661
 6498TIP3    H219456   1.449   4.204   5.682
 6499TIP3   OH219457   0.611   3.755   6.135
 6499TIP3    H119458   0.540   3.692   6.157
 6499TIP3    H219459   0.640   3.721   6.048
 6500TIP3   OH219460   0.845   3.189   5.797
 6500TIP3    H119461   0.795   3.271   5.774
 6500TIP3    H219462   0.775   3.121   5.786
 6501TIP3   OH219463   0.971   3.695   6.014
 6501TIP3    H119464   0.954   3.679   6.109
 6501TIP3    H219465   0.884   3.669   5.977
 6502TIP3   OH219466   1.208   3.643   5.867
 6502TIP3    H119467   1.134   3.646   5.932
 6502TIP3    H219468   1.283   3.614   5.924
 6503TIP3   OH219469   1.436   3.585   6.018
 6503TIP3    H119470   1.450   3.489   6.036
 6503TIP3    H219471   1.434   3.624   6.108
 6504TIP3   OH219472   0.438   3.547   6.212
 6504TIP3    H119473   0.423   3.463   6.165
 6504TIP3    H219474   0.470   3.512   6.298
 6505TIP3   OH219475   0.939   3.201   6.055
 6505TIP3    H119476   1.006   3.129   6.049
 6505TIP3    H219477   0.898   3.195   5.966
 6506TIP3   OH219478   1.006   3.415   6.216
 6506TIP3    H119479   0.984   3.344   6.151
 6506TIP3    H219480   0.928   3.474   6.210
 6507TIP3   OH219481   0.227   4.656   4.306
 6507TIP3    H119482   0.323   4.636   4.307
 6507TIP3    H219483   0.216   4.678   4.213
 6508TIP3   OH219484   1.488   4.884   4.931
 6508TIP3    H119485   1.506   4.919   5.020
 6508TIP3    H219486   1.539   4.943   4.875
 6509TIP3   OH219487   1.511   4.909   5.212
 6509TIP3    H119488   1.468   4.820   5.210
 6509TIP3    H219489   1.586   4.890   5.270
 6510TIP3   OH219490   1.559   4.585   5.786
 6510TIP3    H119491   1.486   4.596   5.850
 6510TIP3    H219492   1.601   4.674   5.789
 6511TIP3   OH219493   1.372   4.105   4.409
 6511TIP3    H119494   1.443   4.166   4.380
 6511TIP3    H219495   1.415   4.063   4.487
 6512TIP3   OH219496   1.499   3.971   4.606
 6512TIP3    H119497   1.439   3.921   4.665
 6512TIP3    H219498   1.575   3.992   4.665
 6513TIP3   OH219499   1.559   4.360   5.044
 6513TIP3    H119500   1.608   4.296   4.991
 6513TIP3    H219501   1.548   4.434   4.982
 6514TIP3   OH219502   1.387   4.659   5.238
 6514TIP3    H119503   1.316   4.703   5.288
 6514TIP3    H219504   1.337   4.614   5.166
 6515TIP3   OH219505   1.447   3.893   4.244
 6515TIP3    H119506   1.370   3.889   4.183
 6515TIP3    H219507   1.413   3.957   4.309
 6516TIP3   OH219508   1.316   3.537   4.221
 6516TIP3    H119509   1.286   3.601   4.156
 6516TIP3    H219510   1.281   3.453   4.187
 6517TIP3   OH219511   1.319   3.822   4.757
 6517TIP3    H119512   1.321   3.725   4.758
 6517TIP3    H219513   1.303   3.843   4.852
 6518TIP3   OH219514   1.605   4.248   5.613
 6518TIP3    H119515   1.678   4.183   5.603
 6518TIP3    H219516   1.631   4.319   5.552
 6519TIP3   OH219517   1.790   4.052   5.626
 6519TIP3    H119518   1.716   4.002   5.667
 6519TIP3    H219519   1.863   3.989   5.641
 6520TIP3   OH219520   1.260   3.263   4.190
 6520TIP3    H119521   1.308   3.251   4.273
 6520TIP3    H219522   1.173   3.223   4.208
 6521TIP3   OH219523   1.307   3.537   4.660
 6521TIP3    H119524   1.354   3.450   4.667
 6521TIP3    H219525   1.360   3.580   4.592
 6522TIP3   OH219526   1.474   3.709   5.146
 6522TIP3    H119527   1.560   3.736   5.106
 6522TIP3    H219528   1.485   3.748   5.235
 6523TIP3   OH219529   1.542   3.857   5.376
 6523TIP3    H119530   1.465   3.891   5.425
 6523TIP3    H219531   1.575   3.938   5.332
 6524TIP3   OH219532   1.993   3.448   5.934
 6524TIP3    H119533   2.055   3.383   5.892
 6524TIP3    H219534   1.965   3.502   5.857
 6525TIP3   OH219535   1.429   3.287   4.683
 6525TIP3    H119536   1.473   3.278   4.771
 6525TIP3    H219537   1.363   3.216   4.689
 6526TIP3   OH219538   0.120   3.270   5.493
 6526TIP3    H119539   0.192   3.206   5.506
 6526TIP3    H219540   0.158   3.352   5.527
 6527TIP3   OH219541   1.866   3.588   5.739
 6527TIP3    H119542   1.781   3.630   5.763
 6527TIP3    H219543   1.833   3.516   5.681
 6528TIP3   OH219544   1.527   3.224   4.326
 6528TIP3    H119545   1.547   3.146   4.271
 6528TIP3    H219546   1.526   3.294   4.259
 6529TIP3   OH219547   1.069   4.754   4.588
 6529TIP3    H119548   1.121   4.747   4.505
 6529TIP3    H219549   1.115   4.826   4.635
 6530TIP3   OH219550   0.802   4.826   5.654
 6530TIP3    H119551   0.839   4.837   5.744
 6530TIP3    H219552   0.863   4.884   5.602
 6531TIP3   OH219553   0.970   4.990   5.519
 6531TIP3    H119554   1.041   4.942   5.474
 6531TIP3    H219555   1.022   5.048   5.580
 6532TIP3   OH219556   1.766   3.351   5.617
 6532TIP3    H119557   1.675   3.345   5.585
 6532TIP3    H219558   1.796   3.258   5.607
 6533TIP3   OH219559   0.701   4.859   5.192
 6533TIP3    H119560   0.626   4.872   5.130
 6533TIP3    H219561   0.703   4.946   5.238
 6534TIP3   OH219562   0.959   4.793   5.254
 6534TIP3    H119563   0.864   4.811   5.234
 6534TIP3    H219564   1.000   4.869   5.211
 6535TIP3   OH219565   1.163   4.988   5.167
 6535TIP3    H119566   1.147   5.073   5.120
 6535TIP3    H219567   1.187   4.928   5.093
 6536TIP3   OH219568   0.977   3.270   5.251
 6536TIP3    H119569   0.922   3.206   5.300
 6536TIP3    H219570   1.030   3.212   5.194
 6537TIP3   OH219571   1.495   3.138   5.137
 6537TIP3    H119572   1.529   3.191   5.062
 6537TIP3    H219573   1.399   3.157   5.132
 6538TIP3   OH219574   1.590   3.255   4.901
 6538TIP3    H119575   1.667   3.205   4.868
 6538TIP3    H219576   1.621   3.347   4.895
 6539TIP3   OH219577   0.221   2.972   5.249
 6539TIP3    H119578   0.128   2.943   5.247
 6539TIP3    H219579   0.267   2.885   5.247
 6540TIP3   OH219580   0.028   2.852   4.915
 6540TIP3    H119581   0.042   2.890   4.827
 6540TIP3    H219582  -0.029   2.920   4.955
 6541TIP3   OH219583   0.667   3.003   5.132
 6541TIP3    H119584   0.723   3.061   5.079
 6541TIP3    H219585   0.668   3.047   5.218
 6542TIP3   OH219586   1.215   3.140   5.113
 6542TIP3    H119587   1.167   3.128   5.031
 6542TIP3    H219588   1.202   3.054   5.159
 6543TIP3   OH219589   1.230   3.080   4.680
 6543TIP3    H119590   1.159   3.147   4.695
 6543TIP3    H219591   1.180   3.000   4.703
 6544TIP3   OH219592   0.121   2.999   4.669
 6544TIP3    H119593   0.168   2.939   4.608
 6544TIP3    H219594   0.194   3.053   4.705
 6545TIP3   OH219595   0.636   3.178   4.762
 6545TIP3    H119596   0.690   3.131   4.827
 6545TIP3    H219597   0.656   3.271   4.788
 6546TIP3   OH219598   0.492   4.602   4.260
 6546TIP3    H119599   0.582   4.625   4.227
 6546TIP3    H219600   0.473   4.526   4.201
 6547TIP3   OH219601   1.216   4.724   4.355
 6547TIP3    H119602   1.208   4.626   4.345
 6547TIP3    H219603   1.167   4.754   4.276
 6548TIP3   OH219604   0.422   3.261   6.140
 6548TIP3    H119605   0.385   3.187   6.193
 6548TIP3    H219606   0.514   3.258   6.173
 6549TIP3   OH219607   0.672   3.253   6.266
 6549TIP3    H119608   0.756   3.229   6.225
 6549TIP3    H219609   0.659   3.178   6.328
 6550TIP3   OH219610   1.501   3.314   6.051
 6550TIP3    H119611   1.519   3.283   6.142
 6550TIP3    H219612   1.590   3.309   6.010
 6551TIP3   OH219613   1.439   4.867   5.541
 6551TIP3    H119614   1.360   4.836   5.492
 6551TIP3    H219615   1.420   4.963   5.546
 6552TIP3   OH219616   2.684   4.234   4.697
 6552TIP3    H119617   2.732   4.214   4.779
 6552TIP3    H219618   2.686   4.150   4.650
 6553TIP3   OH219619   2.009   4.133   5.050
 6553TIP3    H119620   2.032   4.063   5.114
 6553TIP3    H219621   2.075   4.200   5.070
 6554TIP3   OH219622   2.951   4.558   4.372
 6554TIP3    H119623   2.940   4.478   4.424
 6554TIP3    H219624   2.984   4.623   4.437
 6555TIP3   OH219625   1.974   4.542   4.771
 6555TIP3    H119626   1.964   4.445   4.778
 6555TIP3    H219627   2.069   4.552   4.787
 6556TIP3   OH219628   1.741   4.032   4.735
 6556TIP3    H119629   1.793   3.957   4.772
 6556TIP3    H219630   1.803   4.072   4.673
 6557TIP3   OH219631   2.596   5.001   4.386
 6557TIP3    H119632   2.638   4.928   4.336
 6557TIP3    H219633   2.595   4.965   4.476
 6558TIP3   OH219634   2.503   4.464   4.741
 6558TIP3    H119635   2.547   4.387   4.702
 6558TIP3    H219636   2.584   4.514   4.765
 6559TIP3   OH219637   3.516   3.788   4.743
 6559TIP3    H119638   3.548   3.863   4.797
 6559TIP3    H219639   3.524   3.824   4.654
 6560TIP3   OH219640   2.907   3.964   4.773
 6560TIP3    H119641   2.955   3.882   4.794
 6560TIP3    H219642   2.878   3.946   4.682
 6561TIP3   OH219643   2.216   3.643   4.738
 6561TIP3    H119644   2.260   3.688   4.665
 6561TIP3    H219645   2.185   3.561   4.694
 6562TIP3   OH219646   1.892   3.830   4.835
 6562TIP3    H119647   1.969   3.809   4.893
 6562TIP3    H219648   1.915   3.780   4.755
 6563TIP3   OH219649   3.585   3.989   4.913
 6563TIP3    H119650   3.505   4.042   4.892
 6563TIP3    H219651   3.614   4.030   4.996
 6564TIP3   OH219652   2.248   3.606   5.171
 6564TIP3    H119653   2.189   3.648   5.105
 6564TIP3    H219654   2.197   3.625   5.253
 6565TIP3   OH219655   2.609   4.485   4.176
 6565TIP3    H119656   2.589   4.404   4.127
 6565TIP3    H219657   2.526   4.533   4.181
 6566TIP3   OH219658   2.352   4.384   4.966
 6566TIP3    H119659   2.293   4.453   5.003
 6566TIP3    H219660   2.401   4.434   4.897
 6567TIP3   OH219661   3.163   3.702   4.584
 6567TIP3    H119662   3.110   3.698   4.665
 6567TIP3    H219663   3.193   3.794   4.584
 6568TIP3   OH219664   2.113   3.728   4.967
 6568TIP3    H119665   2.177   3.800   4.988
 6568TIP3    H219666   2.157   3.691   4.887
 6569TIP3   OH219667   2.181   4.580   5.058
 6569TIP3    H119668   2.159   4.671   5.028
 6569TIP3    H219669   2.104   4.563   5.116
 6570TIP3   OH219670   1.582   4.267   4.295
 6570TIP3    H119671   1.528   4.295   4.219
 6570TIP3    H219672   1.608   4.354   4.333
 6571TIP3   OH219673   3.018   4.786   4.544
 6571TIP3    H119674   2.926   4.777   4.579
 6571TIP3    H219675   3.010   4.870   4.495
 6572TIP3   OH219676   3.308   3.678   4.898
 6572TIP3    H119677   3.222   3.715   4.872
 6572TIP3    H219678   3.369   3.717   4.832
 6573TIP3   OH219679   2.605   3.326   4.884
 6573TIP3    H119680   2.590   3.232   4.905
 6573TIP3    H219681   2.528   3.367   4.931
 6574TIP3   OH219682   2.712   4.823   4.205
 6574TIP3    H119683   2.762   4.739   4.190
 6574TIP3    H219684   2.778   4.887   4.169
 6575TIP3   OH219685   2.862   4.602   4.117
 6575TIP3    H119686   2.795   4.530   4.118
 6575TIP3    H219687   2.908   4.582   4.201
 6576TIP3   OH219688   3.243   4.696   4.884
 6576TIP3    H119689   3.234   4.619   4.823
 6576TIP3    H219690   3.227   4.771   4.824
 6577TIP3   OH219691   3.438   4.329   4.720
 6577TIP3    H119692   3.358   4.385   4.728
 6577TIP3    H219693   3.469   4.355   4.631
 6578TIP3   OH219694   3.118   4.211   5.025
 6578TIP3    H119695   3.117   4.294   5.076
 6578TIP3    H219696   3.033   4.219   4.977
 6579TIP3   OH219697   2.118   4.164   4.537
 6579TIP3    H119698   2.057   4.123   4.470
 6579TIP3    H219699   2.195   4.106   4.529
 6580TIP3   OH219700   2.257   4.579   4.659
 6580TIP3    H119701   2.252   4.498   4.608
 6580TIP3    H219702   2.345   4.568   4.699
 6581TIP3   OH219703   2.263   4.146   4.873
 6581TIP3    H119704   2.316   4.148   4.793
 6581TIP3    H219705   2.290   4.230   4.916
 6582TIP3   OH219706   2.773   4.780   4.659
 6582TIP3    H119707   2.764   4.862   4.712
 6582TIP3    H219708   2.760   4.709   4.725
 6583TIP3   OH219709   2.390   4.698   5.207
 6583TIP3    H119710   2.331   4.760   5.254
 6583TIP3    H219711   2.324   4.645   5.157
 6584TIP3   OH219712   2.141   4.257   5.303
 6584TIP3    H119713   2.149   4.343   5.349
 6584TIP3    H219714   2.048   4.235   5.324
 6585TIP3   OH219715   2.442   4.731   4.217
 6585TIP3    H119716   2.537   4.750   4.228
 6585TIP3    H219717   2.411   4.811   4.171
 6586TIP3   OH219718   2.184   4.864   5.294
 6586TIP3    H119719   2.147   4.869   5.204
 6586TIP3    H219720   2.105   4.843   5.348
 6587TIP3   OH219721   3.242   3.276   3.981
 6587TIP3    H119722   3.164   3.286   4.040
 6587TIP3    H219723   3.239   3.358   3.932
 6588TIP3   OH219724   1.973   4.028   4.351
 6588TIP3    H119725   1.911   4.065   4.284
 6588TIP3    H219726   1.987   3.938   4.321
 6589TIP3   OH219727   3.038   4.637   3.532
 6589TIP3    H119728   3.047   4.735   3.519
 6589TIP3    H219729   3.132   4.609   3.520
 6590TIP3   OH219730   1.763   4.398   5.241
 6590TIP3    H119731   1.694   4.377   5.174
 6590TIP3    H219732   1.799   4.309   5.264
 6591TIP3   OH219733   1.616   4.593   4.872
 6591TIP3    H119734   1.713   4.594   4.871
 6591TIP3    H219735   1.597   4.672   4.925
 6592TIP3   OH219736   3.481   5.042   4.930
 6592TIP3    H119737   3.480   4.946   4.943
 6592TIP3    H219738   3.398   5.068   4.976
 6593TIP3   OH219739   2.586   4.828   5.063
 6593TIP3    H119740   2.586   4.920   5.096
 6593TIP3    H219741   2.516   4.787   5.119
 6594TIP3   OH219742   2.343   4.948   4.017
 6594TIP3    H119743   2.309   4.945   3.926
 6594TIP3    H219744   2.316   5.038   4.045
 6595TIP3   OH219745   1.786   4.791   4.387
 6595TIP3    H119746   1.844   4.795   4.466
 6595TIP3    H219747   1.712   4.740   4.423
 6596TIP3   OH219748   2.550   4.856   3.655
 6596TIP3    H119749   2.609   4.786   3.619
 6596TIP3    H219750   2.585   4.868   3.746
 6597TIP3   OH219751   2.599   4.906   3.926
 6597TIP3    H119752   2.512   4.914   3.970
 6597TIP3    H219753   2.654   4.871   3.998
 6598TIP3   OH219754   3.370   4.170   5.206
 6598TIP3    H119755   3.289   4.183   5.153
 6598TIP3    H219756   3.385   4.074   5.196
 6599TIP3   OH219757   1.968   4.579   5.226
 6599TIP3    H119758   2.016   4.567   5.310
 6599TIP3    H219759   1.893   4.517   5.236
 6600TIP3   OH219760   2.368   3.402   5.012
 6600TIP3    H119761   2.276   3.375   4.989
 6600TIP3    H219762   2.348   3.487   5.057
 6601TIP3   OH219763   2.903   3.517   5.207
 6601TIP3    H119764   2.972   3.491   5.272
 6601TIP3    H219765   2.820   3.499   5.256
 6602TIP3   OH219766   3.136   3.946   5.123
 6602TIP3    H119767   3.089   3.945   5.209
 6602TIP3    H219768   3.116   4.036   5.089
 6603TIP3   OH219769   2.812   4.054   3.668
 6603TIP3    H119770   2.762   4.062   3.584
 6603TIP3    H219771   2.825   4.147   3.693
 6604TIP3   OH219772   2.542   3.433   3.946
 6604TIP3    H119773   2.528   3.504   4.010
 6604TIP3    H219774   2.473   3.368   3.964
 6605TIP3   OH219775   2.292   3.924   5.028
 6605TIP3    H119776   2.249   3.948   5.112
 6605TIP3    H219777   2.279   4.005   4.975
 6606TIP3   OH219778   2.848   4.169   5.360
 6606TIP3    H119779   2.828   4.096   5.423
 6606TIP3    H219780   2.942   4.185   5.381
 6607TIP3   OH219781   2.853   3.925   4.498
 6607TIP3    H119782   2.838   3.984   4.423
 6607TIP3    H219783   2.893   3.848   4.457
 6608TIP3   OH219784   2.114   3.950   5.242
 6608TIP3    H119785   2.149   4.012   5.308
 6608TIP3    H219786   2.107   3.867   5.294
 6609TIP3   OH219787   1.721   3.481   4.805
 6609TIP3    H119788   1.790   3.502   4.873
 6609TIP3    H219789   1.766   3.424   4.742
 6610TIP3   OH219790   2.834   4.167   4.930
 6610TIP3    H119791   2.870   4.094   4.875
 6610TIP3    H219792   2.809   4.116   5.010
 6611TIP3   OH219793   1.901   3.660   4.591
 6611TIP3    H119794   1.854   3.603   4.654
 6611TIP3    H219795   1.986   3.615   4.583
 6612TIP3   OH219796   3.005   3.705   4.810
 6612TIP3    H119797   2.974   3.717   4.903
 6612TIP3    H219798   2.934   3.650   4.774
 6613TIP3   OH219799   3.173   5.392   5.028
 6613TIP3    H119800   3.171   5.417   4.934
 6613TIP3    H219801   3.252   5.441   5.059
 6614TIP3   OH219802   2.131   4.501   5.449
 6614TIP3    H119803   2.210   4.532   5.497
 6614TIP3    H219804   2.066   4.502   5.522
 6615TIP3   OH219805   2.103   3.449   4.594
 6615TIP3    H119806   2.092   3.355   4.619
 6615TIP3    H219807   2.132   3.448   4.502
 6616TIP3   OH219808   2.566   3.839   5.027
 6616TIP3    H119809   2.483   3.886   5.008
 6616TIP3    H219810   2.630   3.911   5.043
 6617TIP3   OH219811   2.262   4.269   4.073
 6617TIP3    H119812   2.223   4.180   4.074
 6617TIP3    H219813   2.292   4.281   4.164
 6618TIP3   OH219814   3.209   4.481   4.718
 6618TIP3    H119815   3.234   4.529   4.636
 6618TIP3    H219816   3.123   4.439   4.692
 6619TIP3   OH219817   2.697   4.558   5.089
 6619TIP3    H119818   2.736   4.544   5.176
 6619TIP3    H219819   2.668   4.650   5.093
 6620TIP3   OH219820   1.998   4.263   4.767
 6620TIP3    H119821   2.040   4.228   4.687
 6620TIP3    H219822   2.037   4.207   4.836
 6621TIP3   OH219823   1.881   4.185   5.378
 6621TIP3    H119824   1.902   4.174   5.473
 6621TIP3    H219825   1.811   4.119   5.365
 6622TIP3   OH219826   2.607   4.300   5.397
 6622TIP3    H119827   2.549   4.239   5.349
 6622TIP3    H219828   2.695   4.267   5.371
 6623TIP3   OH219829   2.864   4.815   4.986
 6623TIP3    H119830   2.767   4.821   4.997
 6623TIP3    H219831   2.894   4.870   5.061
 6624TIP3   OH219832   3.494   4.752   4.972
 6624TIP3    H119833   3.396   4.746   4.963
 6624TIP3    H219834   3.521   4.721   4.882
 6625TIP3   OH219835   2.968   4.713   3.796
 6625TIP3    H119836   2.963   4.647   3.867
 6625TIP3    H219837   2.992   4.661   3.718
 6626TIP3   OH219838   2.973   4.350   4.648
 6626TIP3    H119839   2.879   4.327   4.654
 6626TIP3    H219840   3.010   4.269   4.607
 6627TIP3   OH219841   2.058   4.590   4.358
 6627TIP3    H119842   2.133   4.645   4.384
 6627TIP3    H219843   2.009   4.584   4.442
 6628TIP3   OH219844   1.674   3.870   4.101
 6628TIP3    H119845   1.707   3.960   4.115
 6628TIP3    H219846   1.590   3.872   4.153
 6629TIP3   OH219847   2.248   4.330   4.353
 6629TIP3    H119848   2.211   4.418   4.340
 6629TIP3    H219849   2.192   4.291   4.421
 6630TIP3   OH219850   2.370   4.912   4.857
 6630TIP3    H119851   2.411   4.987   4.808
 6630TIP3    H219852   2.446   4.879   4.907
 6631TIP3   OH219853   2.754   4.545   4.819
 6631TIP3    H119854   2.746   4.542   4.916
 6631TIP3    H219855   2.840   4.502   4.805
 6632TIP3   OH219856   2.738   4.410   3.711
 6632TIP3    H119857   2.774   4.392   3.800
 6632TIP3    H219858   2.645   4.388   3.727
 6633TIP3   OH219859   3.004   5.080   4.867
 6633TIP3    H119860   2.923   5.026   4.857
 6633TIP3    H219861   2.992   5.146   4.796
 6634TIP3   OH219862   3.070   4.914   3.519
 6634TIP3    H119863   3.109   4.988   3.469
 6634TIP3    H219864   2.990   4.959   3.554
 6635TIP3   OH219865   2.091   3.691   5.387
 6635TIP3    H119866   1.995   3.695   5.403
 6635TIP3    H219867   2.122   3.635   5.460
 6636TIP3   OH219868   1.812   4.772   5.016
 6636TIP3    H119869   1.863   4.704   5.063
 6636TIP3    H219870   1.828   4.850   5.069
 6637TIP3   OH219871   2.107   4.417   3.707
 6637TIP3    H119872   2.101   4.332   3.661
 6637TIP3    H219873   2.129   4.389   3.797
 6638TIP3   OH219874   1.781   4.121   4.177
 6638TIP3    H119875   1.709   4.164   4.230
 6638TIP3    H219876   1.799   4.191   4.113
 6639TIP3   OH219877   2.930   3.754   5.067
 6639TIP3    H119878   3.006   3.797   5.108
 6639TIP3    H219879   2.916   3.675   5.125
 6640TIP3   OH219880   2.251   4.635   3.925
 6640TIP3    H119881   2.243   4.727   3.951
 6640TIP3    H219882   2.326   4.640   3.865
 6641TIP3   OH219883   2.771   4.009   5.141
 6641TIP3    H119884   2.793   4.060   5.222
 6641TIP3    H219885   2.820   3.926   5.155
 6642TIP3   OH219886   2.677   3.387   4.467
 6642TIP3    H119887   2.706   3.424   4.554
 6642TIP3    H219888   2.733   3.439   4.408
 6643TIP3   OH219889   3.405   3.905   5.131
 6643TIP3    H119890   3.307   3.900   5.131
 6643TIP3    H219891   3.425   3.876   5.041
 6644TIP3   OH219892   3.059   4.114   4.544
 6644TIP3    H119893   2.997   4.041   4.526
 6644TIP3    H219894   3.141   4.065   4.562
 6645TIP3   OH219895   1.787   4.348   3.975
 6645TIP3    H119896   1.781   4.415   3.905
 6645TIP3    H219897   1.835   4.277   3.927
 6646TIP3   OH219898   3.026   5.056   4.460
 6646TIP3    H119899   2.984   5.102   4.385
 6646TIP3    H219900   3.120   5.075   4.440
 6647TIP3   OH219901   2.102   3.324   4.989
 6647TIP3    H119902   2.072   3.289   4.903
 6647TIP3    H219903   2.093   3.246   5.048
 6648TIP3   OH219904   1.631   4.528   4.363
 6648TIP3    H119905   1.584   4.561   4.440
 6648TIP3    H219906   1.592   4.581   4.290
 6649TIP3   OH219907   1.799   5.085   5.441
 6649TIP3    H119908   1.885   5.087   5.488
 6649TIP3    H219909   1.779   4.990   5.440
 6650TIP3   OH219910   2.278   5.047   5.486
 6650TIP3    H119911   2.373   5.032   5.492
 6650TIP3    H219912   2.254   4.988   5.413
 6651TIP3   OH219913   2.265   4.628   3.614
 6651TIP3    H119914   2.210   4.556   3.654
 6651TIP3    H219915   2.335   4.577   3.569
 6652TIP3   OH219916   2.918   4.955   5.218
 6652TIP3    H119917   2.910   4.886   5.288
 6652TIP3    H219918   2.996   5.006   5.248
 6653TIP3   OH219919   2.697   4.660   3.524
 6653TIP3    H119920   2.758   4.615   3.585
 6653TIP3    H219921   2.750   4.664   3.441
 6654TIP3   OH219922   1.929   4.490   5.640
 6654TIP3    H119923   1.943   4.394   5.648
 6654TIP3    H219924   1.841   4.494   5.596
 6655TIP3   OH219925   1.911   4.147   3.844
 6655TIP3    H119926   1.964   4.099   3.909
 6655TIP3    H219927   1.973   4.149   3.768
 6656TIP3   OH219928   2.536   4.576   5.415
 6656TIP3    H119929   2.497   4.595   5.327
 6656TIP3    H219930   2.567   4.484   5.405
 6657TIP3   OH219931   2.422   4.339   3.658
 6657TIP3    H119932   2.396   4.342   3.751
 6657TIP3    H219933   2.409   4.244   3.638
 6658TIP3   OH219934   3.026   4.586   5.020
 6658TIP3    H119935   3.105   4.625   4.977
 6658TIP3    H219936   2.961   4.657   5.005
 6659TIP3   OH219937   2.049   4.223   5.622
 6659TIP3    H119938   2.127   4.170   5.602
 6659TIP3    H219939   2.074   4.259   5.710
 6660TIP3   OH219940   2.104   4.025   4.055
 6660TIP3    H119941   2.113   3.991   4.144
 6660TIP3    H219942   2.138   3.950   4.002
 6661TIP3   OH219943   2.379   4.106   5.281
 6661TIP3    H119944   2.305   4.170   5.282
 6661TIP3    H219945   2.434   4.140   5.206
 6662TIP3   OH219946   2.211   3.833   3.892
 6662TIP3    H119947   2.170   3.836   3.804
 6662TIP3    H219948   2.300   3.864   3.875
 6663TIP3   OH219949   2.899   4.510   5.417
 6663TIP3    H119950   2.980   4.487   5.371
 6663TIP3    H219951   2.897   4.445   5.489
 6664TIP3   OH219952   3.042   4.168   3.542
 6664TIP3    H119953   3.010   4.139   3.455
 6664TIP3    H219954   3.008   4.261   3.539
 6665TIP3   OH219955   2.505   3.898   5.410
 6665TIP3    H119956   2.506   3.817   5.355
 6665TIP3    H219957   2.462   3.962   5.350
 6666TIP3   OH219958   2.505   3.675   5.232
 6666TIP3    H119959   2.536   3.726   5.153
 6666TIP3    H219960   2.412   3.656   5.207
 6667TIP3   OH219961   2.533   4.216   5.090
 6667TIP3    H119962   2.621   4.226   5.050
 6667TIP3    H219963   2.482   4.286   5.045
 6668TIP3   OH219964   3.117   4.186   5.470
 6668TIP3    H119965   3.168   4.104   5.482
 6668TIP3    H219966   3.184   4.246   5.436
 6669TIP3   OH219967   3.158   4.439   5.206
 6669TIP3    H119968   3.100   4.494   5.148
 6669TIP3    H219969   3.246   4.461   5.168
 6670TIP3   OH219970   2.382   4.009   5.640
 6670TIP3    H119971   2.315   3.940   5.656
 6670TIP3    H219972   2.418   3.982   5.553
 6671TIP3   OH219973   2.642   3.442   5.284
 6671TIP3    H119974   2.592   3.525   5.266
 6671TIP3    H219975   2.572   3.375   5.275
 6672TIP3   OH219976   2.767   3.951   5.502
 6672TIP3    H119977   2.756   3.938   5.597
 6672TIP3    H219978   2.677   3.926   5.472
 6673TIP3   OH219979   3.005   3.900   5.355
 6673TIP3    H119980   2.931   3.903   5.419
 6673TIP3    H219981   3.080   3.871   5.411
 6674TIP3   OH219982   3.231   3.841   5.506
 6674TIP3    H119983   3.246   3.746   5.524
 6674TIP3    H219984   3.230   3.880   5.596
 6675TIP3   OH219985   2.222   3.788   5.694
 6675TIP3    H119986   2.231   3.697   5.661
 6675TIP3    H219987   2.259   3.779   5.785
 6676TIP3   OH219988   2.734   3.456   5.543
 6676TIP3    H119989   2.802   3.386   5.538
 6676TIP3    H219990   2.695   3.450   5.453
 6677TIP3   OH219991   2.800   3.672   5.702
 6677TIP3    H119992   2.779   3.601   5.638
 6677TIP3    H219993   2.722   3.730   5.695
 6678TIP3   OH219994   2.016   4.887   3.797
 6678TIP3    H119995   2.113   4.885   3.787
 6678TIP3    H219996   1.993   4.945   3.723
 6679TIP3   OH219997   1.506   4.285   4.011
 6679TIP3    H119998   1.602   4.299   4.005
 6679TIP3    H219999   1.496   4.195   3.973
 6680TIP3   OH220000   1.422   4.892   4.430
 6680TIP3    H120001   1.352   4.834   4.393
 6680TIP3    H220002   1.462   4.832   4.496
 6681TIP3   OH220003   1.563   4.737   4.612
 6681TIP3    H120004   1.538   4.675   4.683
 6681TIP3    H220005   1.609   4.805   4.666
 6682TIP3   OH220006   3.278   5.149   4.419
 6682TIP3    H120007   3.307   5.181   4.506
 6682TIP3    H220008   3.343   5.188   4.359
 6683TIP3   OH220009   3.307   5.167   4.701
 6683TIP3    H120010   3.265   5.079   4.696
 6683TIP3    H220011   3.385   5.145   4.755
 6684TIP3   OH220012   3.354   4.843   5.274
 6684TIP3    H120013   3.282   4.853   5.339
 6684TIP3    H220014   3.396   4.931   5.277
 6685TIP3   OH220015   3.186   4.348   3.866
 6685TIP3    H120016   3.256   4.415   3.857
 6685TIP3    H220017   3.195   4.325   3.961
 6686TIP3   OH220018   3.274   4.251   4.104
 6686TIP3    H120019   3.252   4.168   4.147
 6686TIP3    H220020   3.368   4.264   4.125
 6687TIP3   OH220021   3.360   4.611   4.527
 6687TIP3    H120022   3.405   4.546   4.471
 6687TIP3    H220023   3.351   4.687   4.466
 6688TIP3   OH220024   3.185   4.916   4.725
 6688TIP3    H120025   3.113   4.959   4.775
 6688TIP3    H220026   3.135   4.870   4.654
 6689TIP3   OH220027   3.226   4.115   3.729
 6689TIP3    H120028   3.164   4.152   3.662
 6689TIP3    H220029   3.218   4.186   3.797
 6690TIP3   OH220030   1.740   4.149   4.990
 6690TIP3    H120031   1.736   4.121   4.897
 6690TIP3    H220032   1.838   4.152   5.004
 6691TIP3   OH220033   3.402   4.505   5.099
 6691TIP3    H120034   3.475   4.440   5.091
 6691TIP3    H220035   3.429   4.574   5.036
 6692TIP3   OH220036   3.585   4.308   5.118
 6692TIP3    H120037   3.511   4.257   5.158
 6692TIP3    H220038   3.659   4.246   5.132
 6693TIP3   OH220039   3.071   3.538   3.657
 6693TIP3    H120040   3.130   3.514   3.730
 6693TIP3    H220041   2.986   3.498   3.685
 6694TIP3   OH220042   3.278   3.967   4.629
 6694TIP3    H120043   3.361   3.997   4.587
 6694TIP3    H220044   3.290   4.007   4.718
 6695TIP3   OH220045   3.338   4.114   4.862
 6695TIP3    H120046   3.261   4.149   4.910
 6695TIP3    H220047   3.372   4.195   4.816
 6696TIP3   OH220048   1.955   3.837   5.659
 6696TIP3    H120049   2.053   3.834   5.665
 6696TIP3    H220050   1.932   3.753   5.702
 6697TIP3   OH220051   3.790   3.705   5.421
 6697TIP3    H120052   3.851   3.640   5.379
 6697TIP3    H220053   3.762   3.758   5.344
 6698TIP3   OH220054   1.917   3.529   4.987
 6698TIP3    H120055   1.981   3.457   5.004
 6698TIP3    H220056   1.977   3.606   4.993
 6699TIP3   OH220057   1.721   3.803   5.067
 6699TIP3    H120058   1.771   3.807   4.983
 6699TIP3    H220059   1.741   3.889   5.107
 6700TIP3   OH220060   3.661   3.844   5.227
 6700TIP3    H120061   3.575   3.886   5.245
 6700TIP3    H220062   3.632   3.772   5.167
 6701TIP3   OH220063   3.314   3.498   3.785
 6701TIP3    H120064   3.374   3.421   3.785
 6701TIP3    H220065   3.375   3.565   3.818
 6702TIP3   OH220066   1.690   3.318   4.556
 6702TIP3    H120067   1.610   3.310   4.610
 6702TIP3    H220068   1.651   3.338   4.470
 6703TIP3   OH220069   2.861   5.012   4.075
 6703TIP3    H120070   2.914   5.001   3.993
 6703TIP3    H220071   2.913   5.077   4.123
 6704TIP3   OH220072   1.923   3.387   5.381
 6704TIP3    H120073   1.875   3.384   5.465
 6704TIP3    H220074   1.856   3.427   5.322
 6705TIP3   OH220075   1.965   4.813   5.459
 6705TIP3    H120076   1.871   4.791   5.445
 6705TIP3    H220077   1.974   4.802   5.554
 6706TIP3   OH220078   2.144   4.848   5.004
 6706TIP3    H120079   2.094   4.924   4.967
 6706TIP3    H220080   2.230   4.866   4.962
 6707TIP3   OH220081   2.586   5.093   5.145
 6707TIP3    H120082   2.628   5.095   5.234
 6707TIP3    H220083   2.652   5.145   5.093
 6708TIP3   OH220084   2.766   5.246   5.006
 6708TIP3    H120085   2.838   5.197   4.963
 6708TIP3    H220086   2.817   5.303   5.067
 6709TIP3   OH220087   3.560   3.606   5.106
 6709TIP3    H120088   3.470   3.598   5.071
 6709TIP3    H220089   3.594   3.514   5.095
 6710TIP3   OH220090   1.817   5.102   5.035
 6710TIP3    H120091   1.728   5.135   5.010
 6710TIP3    H220092   1.831   5.151   5.117
 6711TIP3   OH220093   2.053   5.081   4.888
 6711TIP3    H120094   1.967   5.095   4.933
 6711TIP3    H220095   2.035   5.120   4.800
 6712TIP3   OH220096   2.479   5.113   4.688
 6712TIP3    H120097   2.412   5.135   4.621
 6712TIP3    H220098   2.493   5.200   4.731
 6713TIP3   OH220099   2.750   5.051   4.739
 6713TIP3    H120100   2.656   5.071   4.720
 6713TIP3    H220101   2.795   5.126   4.698
 6714TIP3   OH220102   2.955   5.243   4.654
 6714TIP3    H120103   2.942   5.328   4.606
 6714TIP3    H220104   2.983   5.184   4.580
 6715TIP3   OH220105   1.733   4.899   4.771
 6715TIP3    H120106   1.756   4.874   4.863
 6715TIP3    H220107   1.806   4.854   4.722
 6716TIP3   OH220108   1.928   4.766   4.623
 6716TIP3    H120109   1.939   4.688   4.682
 6716TIP3    H220110   2.016   4.809   4.629
 6717TIP3   OH220111   2.189   4.859   4.641
 6717TIP3    H120112   2.229   4.770   4.638
 6717TIP3    H220113   2.232   4.895   4.720
 6718TIP3   OH220114   2.761   3.497   4.698
 6718TIP3    H120115   2.723   3.450   4.774
 6718TIP3    H220116   2.852   3.462   4.692
 6719TIP3   OH220117   3.289   3.398   4.607
 6719TIP3    H120118   3.330   3.483   4.583
 6719TIP3    H220119   3.197   3.427   4.621
 6720TIP3   OH220120   2.010   3.221   4.746
 6720TIP3    H120121   1.919   3.185   4.746
 6720TIP3    H220122   2.063   3.138   4.742
 6721TIP3   OH220123   1.813   3.091   4.389
 6721TIP3    H120124   1.837   3.147   4.312
 6721TIP3    H220125   1.777   3.158   4.450
 6722TIP3   OH220126   2.459   3.262   4.624
 6722TIP3    H120127   2.525   3.302   4.565
 6722TIP3    H220128   2.482   3.302   4.709
 6723TIP3   OH220129   3.003   3.403   4.610
 6723TIP3    H120130   3.025   3.366   4.523
 6723TIP3    H220131   2.990   3.321   4.663
 6724TIP3   OH220132   3.036   3.316   4.148
 6724TIP3    H120133   2.966   3.375   4.178
 6724TIP3    H220134   3.022   3.238   4.205
 6725TIP3   OH220135   1.525   4.675   4.161
 6725TIP3    H120136   1.439   4.642   4.129
 6725TIP3    H220137   1.512   4.770   4.146
 6726TIP3   OH220138   1.904   3.261   4.163
 6726TIP3    H120139   1.967   3.210   4.109
 6726TIP3    H220140   1.949   3.346   4.177
 6727TIP3   OH220141   2.290   4.869   3.749
 6727TIP3    H120142   2.379   4.887   3.712
 6727TIP3    H220143   2.267   4.790   3.695
 6728TIP3   OH220144   3.008   4.978   3.842
 6728TIP3    H120145   2.996   4.881   3.830
 6728TIP3    H220146   2.963   5.012   3.762
 6729TIP3   OH220147   2.222   3.510   5.628
 6729TIP3    H120148   2.186   3.442   5.686
 6729TIP3    H220149   2.316   3.510   5.657
 6730TIP3   OH220150   2.471   3.509   5.749
 6730TIP3    H120151   2.557   3.486   5.711
 6730TIP3    H220152   2.460   3.438   5.816
 6731TIP3   OH220153   1.593   4.696   3.800
 6731TIP3    H120154   1.588   4.732   3.890
 6731TIP3    H220155   1.682   4.656   3.797
 6732TIP3   OH220156   3.297   3.570   5.537
 6732TIP3    H120157   3.316   3.539   5.628
 6732TIP3    H220158   3.386   3.566   5.496
 6733TIP3   OH220159   3.234   5.123   5.030
 6733TIP3    H120160   3.156   5.093   4.980
 6733TIP3    H220161   3.216   5.219   5.034
 6734TIP3   OH220162   4.504   4.482   3.801
 6734TIP3    H120163   4.477   4.575   3.786
 6734TIP3    H220164   4.430   4.437   3.757
 6735TIP3   OH220165   4.503   4.495   4.177
 6735TIP3    H120166   4.533   4.467   4.265
 6735TIP3    H220167   4.456   4.416   4.146
 6736TIP3   OH220168   3.796   4.398   4.552
 6736TIP3    H120169   3.834   4.327   4.608
 6736TIP3    H220170   3.876   4.434   4.512
 6737TIP3   OH220171   4.729   4.803   3.859
 6737TIP3    H120172   4.732   4.727   3.917
 6737TIP3    H220173   4.780   4.869   3.908
 6738TIP3   OH220174   3.773   4.801   4.268
 6738TIP3    H120175   3.769   4.703   4.272
 6738TIP3    H220176   3.870   4.813   4.261
 6739TIP3   OH220177   4.394   5.261   3.878
 6739TIP3    H120178   4.438   5.191   3.825
 6739TIP3    H220179   4.388   5.219   3.964
 6740TIP3   OH220180   4.298   4.724   4.227
 6740TIP3    H120181   4.334   4.647   4.179
 6740TIP3    H220182   4.383   4.768   4.250
 6741TIP3   OH220183   5.316   4.040   4.226
 6741TIP3    H120184   5.343   4.126   4.263
 6741TIP3    H220185   5.336   4.053   4.131
 6742TIP3   OH220186   4.719   4.223   4.267
 6742TIP3    H120187   4.759   4.136   4.286
 6742TIP3    H220188   4.682   4.207   4.178
 6743TIP3   OH220189   4.002   3.880   4.217
 6743TIP3    H120190   4.020   3.941   4.144
 6743TIP3    H220191   3.980   3.800   4.168
 6744TIP3   OH220192   4.123   4.288   4.130
 6744TIP3    H120193   4.218   4.263   4.140
 6744TIP3    H220194   4.081   4.203   4.116
 6745TIP3   OH220195   5.390   4.251   4.393
 6745TIP3    H120196   5.307   4.297   4.368
 6745TIP3    H220197   5.393   4.274   4.487
 6746TIP3   OH220198   4.048   3.865   4.662
 6746TIP3    H120199   3.990   3.895   4.589
 6746TIP3    H220200   3.992   3.887   4.738
 6747TIP3   OH220201   4.388   4.709   3.671
 6747TIP3    H120202   4.353   4.696   3.583
 6747TIP3    H220203   4.348   4.794   3.696
 6748TIP3   OH220204   4.157   4.644   4.454
 6748TIP3    H120205   4.093   4.709   4.489
 6748TIP3    H220206   4.196   4.692   4.378
 6749TIP3   OH220207   4.961   3.991   4.019
 6749TIP3    H120208   4.940   3.929   4.090
 6749TIP3    H220209   5.001   4.066   4.065
 6750TIP3   OH220210   3.907   3.973   4.459
 6750TIP3    H120211   3.964   4.052   4.460
 6750TIP3    H220212   3.931   3.936   4.371
 6751TIP3   OH220213   3.981   4.837   4.551
 6751TIP3    H120214   3.955   4.922   4.512
 6751TIP3    H220215   3.902   4.819   4.606
 6752TIP3   OH220216   3.383   4.532   3.784
 6752TIP3    H120217   3.335   4.565   3.707
 6752TIP3    H220218   3.415   4.613   3.826
 6753TIP3   OH220219   4.818   5.043   4.034
 6753TIP3    H120220   4.726   5.030   4.068
 6753TIP3    H220221   4.807   5.125   3.982
 6754TIP3   OH220222   5.105   3.945   4.392
 6754TIP3    H120223   5.016   3.964   4.357
 6754TIP3    H220224   5.163   3.973   4.319
 6755TIP3   OH220225   4.413   3.587   4.378
 6755TIP3    H120226   4.388   3.493   4.386
 6755TIP3    H220227   4.331   3.630   4.412
 6756TIP3   OH220228   4.512   5.089   3.699
 6756TIP3    H120229   4.560   5.004   3.681
 6756TIP3    H220230   4.576   5.151   3.658
 6757TIP3   OH220231   4.654   4.874   3.604
 6757TIP3    H120232   4.637   4.791   3.556
 6757TIP3    H220233   4.688   4.840   3.690
 6758TIP3   OH220234   5.041   4.953   4.370
 6758TIP3    H120235   5.029   4.876   4.310
 6758TIP3    H220236   5.023   5.028   4.309
 6759TIP3   OH220237   4.334   4.362   3.626
 6759TIP3    H120238   4.250   4.409   3.609
 6759TIP3    H220239   4.379   4.371   3.541
 6760TIP3   OH220240   5.237   4.595   4.218
 6760TIP3    H120241   5.153   4.646   4.218
 6760TIP3    H220242   5.266   4.613   4.126
 6761TIP3   OH220243   4.673   4.425   3.588
 6761TIP3    H120244   4.621   4.450   3.668
 6761TIP3    H220245   4.757   4.396   3.631
 6762TIP3   OH220246   4.914   4.469   4.510
 6762TIP3    H120247   4.909   4.554   4.558
 6762TIP3    H220248   4.827   4.470   4.465
 6763TIP3   OH220249   3.923   4.435   4.001
 6763TIP3    H120250   3.853   4.368   4.002
 6763TIP3    H220251   3.994   4.388   4.049
 6764TIP3   OH220252   4.042   4.842   4.164
 6764TIP3    H120253   4.018   4.796   4.082
 6764TIP3    H220254   4.131   4.806   4.182
 6765TIP3   OH220255   4.052   4.397   4.382
 6765TIP3    H120256   4.070   4.377   4.288
 6765TIP3    H220257   4.092   4.486   4.393
 6766TIP3   OH220258   4.570   5.038   4.145
 6766TIP3    H120259   4.561   5.116   4.203
 6766TIP3    H220260   4.556   4.963   4.206
 6767TIP3   OH220261   4.187   4.956   4.695
 6767TIP3    H120262   4.125   5.017   4.740
 6767TIP3    H220263   4.123   4.901   4.644
 6768TIP3   OH220264   3.946   4.510   4.805
 6768TIP3    H120265   3.945   4.599   4.845
 6768TIP3    H220266   3.851   4.493   4.795
 6769TIP3   OH220267   4.263   4.968   3.697
 6769TIP3    H120268   4.346   5.017   3.712
 6769TIP3    H220269   4.204   5.036   3.663
 6770TIP3   OH220270   3.980   5.124   4.781
 6770TIP3    H120271   3.945   5.124   4.689
 6770TIP3    H220272   3.900   5.101   4.833
 6771TIP3   OH220273   3.759   4.236   3.803
 6771TIP3    H120274   3.710   4.295   3.744
 6771TIP3    H220275   3.724   4.261   3.889
 6772TIP3   OH220276   4.834   4.895   3.020
 6772TIP3    H120277   4.846   4.991   3.006
 6772TIP3    H220278   4.926   4.863   3.005
 6773TIP3   OH220279   3.557   4.657   4.727
 6773TIP3    H120280   3.494   4.633   4.656
 6773TIP3    H220281   3.597   4.570   4.751
 6774TIP3   OH220282   3.413   4.847   4.361
 6774TIP3    H120283   3.508   4.836   4.348
 6774TIP3    H220284   3.411   4.927   4.417
 6775TIP3   OH220285   5.278   5.300   4.416
 6775TIP3    H120286   5.276   5.203   4.427
 6775TIP3    H220287   5.195   5.325   4.462
 6776TIP3   OH220288   4.383   5.084   4.551
 6776TIP3    H120289   4.382   5.176   4.583
 6776TIP3    H220290   4.311   5.044   4.605
 6777TIP3   OH220291   4.144   5.214   3.502
 6777TIP3    H120292   4.097   5.197   3.418
 6777TIP3    H220293   4.111   5.301   3.528
 6778TIP3   OH220294   3.582   5.062   3.888
 6778TIP3    H120295   3.631   5.054   3.973
 6778TIP3    H220296   3.531   4.979   3.889
 6779TIP3   OH220297   4.346   5.114   3.141
 6779TIP3    H120298   4.405   5.044   3.106
 6779TIP3    H220299   4.379   5.124   3.232
 6780TIP3   OH220300   4.396   5.163   3.411
 6780TIP3    H120301   4.309   5.171   3.455
 6780TIP3    H220302   4.448   5.120   3.481
 6781TIP3   OH220303   5.167   4.429   4.690
 6781TIP3    H120304   5.085   4.441   4.639
 6781TIP3    H220305   5.183   4.333   4.678
 6782TIP3   OH220306   3.762   4.839   4.716
 6782TIP3    H120307   3.813   4.820   4.798
 6782TIP3    H220308   3.689   4.775   4.722
 6783TIP3   OH220309   4.169   3.661   4.500
 6783TIP3    H120310   4.079   3.628   4.476
 6783TIP3    H220311   4.143   3.746   4.540
 6784TIP3   OH220312   4.698   3.777   4.695
 6784TIP3    H120313   4.765   3.746   4.759
 6784TIP3    H220314   4.614   3.756   4.740
 6785TIP3   OH220315   4.939   4.207   4.616
 6785TIP3    H120316   4.885   4.203   4.698
 6785TIP3    H220317   4.912   4.291   4.576
 6786TIP3   OH220318   4.254   3.730   3.453
 6786TIP3    H120319   4.316   3.774   3.513
 6786TIP3    H220320   4.283   3.637   3.456
 6787TIP3   OH220321   4.102   4.175   4.525
 6787TIP3    H120322   4.042   4.193   4.600
 6787TIP3    H220323   4.087   4.255   4.469
 6788TIP3   OH220324   4.645   4.427   4.848
 6788TIP3    H120325   4.623   4.353   4.910
 6788TIP3    H220326   4.740   4.438   4.868
 6789TIP3   OH220327   4.635   4.181   4.013
 6789TIP3    H120328   4.602   4.239   3.942
 6789TIP3    H220329   4.683   4.110   3.967
 6790TIP3   OH220330   3.913   4.207   4.727
 6790TIP3    H120331   3.949   4.268   4.794
 6790TIP3    H220332   3.908   4.123   4.776
 6791TIP3   OH220333   3.939   3.670   3.449
 6791TIP3    H120334   3.998   3.731   3.494
 6791TIP3    H220335   3.875   3.730   3.407
 6792TIP3   OH220336   4.637   4.423   4.424
 6792TIP3    H120337   4.672   4.352   4.366
 6792TIP3    H220338   4.606   4.369   4.500
 6793TIP3   OH220339   4.799   3.961   4.302
 6793TIP3    H120340   4.760   3.973   4.391
 6793TIP3    H220341   4.733   3.900   4.263
 6794TIP3   OH220342   4.969   5.649   4.515
 6794TIP3    H120343   4.966   5.672   4.420
 6794TIP3    H220344   5.047   5.699   4.545
 6795TIP3   OH220345   3.924   4.761   4.937
 6795TIP3    H120346   4.005   4.790   4.983
 6795TIP3    H220347   3.861   4.760   5.011
 6796TIP3   OH220348   4.388   4.210   4.196
 6796TIP3    H120349   4.464   4.169   4.152
 6796TIP3    H220350   4.388   4.165   4.282
 6797TIP3   OH220351   4.367   4.112   4.480
 6797TIP3    H120352   4.276   4.143   4.496
 6797TIP3    H220353   4.422   4.174   4.533
 6798TIP3   OH220354   4.098   4.500   3.570
 6798TIP3    H120355   4.027   4.433   3.565
 6798TIP3    H220356   4.084   4.537   3.661
 6799TIP3   OH220357   5.003   4.739   4.203
 6799TIP3    H120358   5.030   4.783   4.120
 6799TIP3    H220359   4.919   4.694   4.177
 6800TIP3   OH220360   4.506   4.821   4.572
 6800TIP3    H120361   4.524   4.796   4.663
 6800TIP3    H220362   4.463   4.908   4.580
 6801TIP3   OH220363   3.800   4.525   4.257
 6801TIP3    H120364   3.791   4.496   4.165
 6801TIP3    H220365   3.813   4.438   4.298
 6802TIP3   OH220366   4.245   4.648   3.392
 6802TIP3    H120367   4.198   4.734   3.399
 6802TIP3    H220368   4.193   4.594   3.456
 6803TIP3   OH220369   3.671   4.448   4.868
 6803TIP3    H120370   3.698   4.432   4.961
 6803TIP3    H220371   3.610   4.374   4.852
 6804TIP3   OH220372   4.401   4.557   4.885
 6804TIP3    H120373   4.341   4.500   4.835
 6804TIP3    H220374   4.488   4.521   4.856
 6805TIP3   OH220375   4.663   5.082   4.468
 6805TIP3    H120376   4.567   5.075   4.481
 6805TIP3    H220377   4.689   5.132   4.547
 6806TIP3   OH220378   5.292   5.010   4.455
 6806TIP3    H120379   5.194   5.003   4.448
 6806TIP3    H220380   5.317   4.977   4.366
 6807TIP3   OH220381   4.768   4.970   3.285
 6807TIP3    H120382   4.754   4.902   3.352
 6807TIP3    H220383   4.783   4.919   3.204
 6808TIP3   OH220384   4.770   4.599   4.127
 6808TIP3    H120385   4.676   4.574   4.137
 6808TIP3    H220386   4.805   4.520   4.082
 6809TIP3   OH220387   3.896   4.829   3.878
 6809TIP3    H120388   3.892   4.909   3.822
 6809TIP3    H220389   3.803   4.806   3.888
 6810TIP3   OH220390   3.458   4.132   3.576
 6810TIP3    H120391   3.506   4.214   3.601
 6810TIP3    H220392   3.386   4.132   3.643
 6811TIP3   OH220393   4.036   4.598   3.811
 6811TIP3    H120394   4.000   4.684   3.839
 6811TIP3    H220395   4.002   4.539   3.882
 6812TIP3   OH220396   4.165   5.170   4.346
 6812TIP3    H120397   4.208   5.242   4.295
 6812TIP3    H220398   4.241   5.132   4.392
 6813TIP3   OH220399   3.812   5.067   3.726
 6813TIP3    H120400   3.728   5.075   3.775
 6813TIP3    H220401   3.845   5.159   3.730
 6814TIP3   OH220402   4.553   4.804   4.303
 6814TIP3    H120403   4.545   4.801   4.401
 6814TIP3    H220404   4.631   4.749   4.288
 6815TIP3   OH220405   4.527   4.699   3.191
 6815TIP3    H120406   4.585   4.675   3.267
 6815TIP3    H220407   4.442   4.671   3.226
 6816TIP3   OH220408   4.801   5.339   4.357
 6816TIP3    H120409   4.722   5.281   4.350
 6816TIP3    H220410   4.785   5.402   4.283
 6817TIP3   OH220411   4.869   5.175   3.005
 6817TIP3    H120412   4.913   5.254   2.968
 6817TIP3    H220413   4.786   5.216   3.036
 6818TIP3   OH220414   3.888   3.951   4.877
 6818TIP3    H120415   3.791   3.949   4.888
 6818TIP3    H220416   3.917   3.888   4.945
 6819TIP3   OH220417   4.684   4.638   3.408
 6819TIP3    H120418   4.675   4.562   3.469
 6819TIP3    H220419   4.781   4.634   3.391
 6820TIP3   OH220420   3.602   5.032   4.505
 6820TIP3    H120421   3.656   4.957   4.534
 6820TIP3    H220422   3.634   5.101   4.564
 6821TIP3   OH220423   3.891   4.679   3.187
 6821TIP3    H120424   3.911   4.588   3.161
 6821TIP3    H220425   3.874   4.668   3.283
 6822TIP3   OH220426   3.839   4.682   3.460
 6822TIP3    H120427   3.912   4.653   3.516
 6822TIP3    H220428   3.844   4.780   3.469
 6823TIP3   OH220429   3.571   4.377   3.657
 6823TIP3    H120430   3.509   4.420   3.720
 6823TIP3    H220431   3.584   4.450   3.593
 6824TIP3   OH220432   4.721   4.018   4.562
 6824TIP3    H120433   4.807   4.048   4.595
 6824TIP3    H220434   4.708   3.934   4.611
 6825TIP3   OH220435   4.103   4.878   3.405
 6825TIP3    H120436   4.018   4.904   3.444
 6825TIP3    H220437   4.122   4.956   3.351
 6826TIP3   OH220438   4.561   4.262   4.630
 6826TIP3    H120439   4.587   4.312   4.710
 6826TIP3    H220440   4.615   4.181   4.637
 6827TIP3   OH220441   3.848   4.955   3.476
 6827TIP3    H120442   3.817   5.026   3.415
 6827TIP3    H220443   3.832   4.997   3.563
 6828TIP3   OH220444   5.205   4.162   4.609
 6828TIP3    H120445   5.107   4.162   4.619
 6828TIP3    H220446   5.211   4.115   4.524
 6829TIP3   OH220447   4.858   4.358   4.007
 6829TIP3    H120448   4.785   4.298   4.029
 6829TIP3    H220449   4.934   4.313   4.051
 6830TIP3   OH220450   3.566   4.587   3.465
 6830TIP3    H120451   3.635   4.654   3.479
 6830TIP3    H220452   3.613   4.530   3.400
 6831TIP3   OH220453   3.490   3.852   3.580
 6831TIP3    H120454   3.526   3.941   3.568
 6831TIP3    H220455   3.449   3.861   3.666
 6832TIP3   OH220456   4.822   5.315   3.948
 6832TIP3    H120457   4.780   5.363   3.873
 6832TIP3    H220458   4.917   5.332   3.927
 6833TIP3   OH220459   3.913   3.574   4.479
 6833TIP3    H120460   3.867   3.559   4.394
 6833TIP3    H220461   3.883   3.499   4.532
 6834TIP3   OH220462   3.439   4.804   3.855
 6834TIP3    H120463   3.367   4.832   3.914
 6834TIP3    H220464   3.409   4.842   3.769
 6835TIP3   OH220465   3.594   5.341   4.928
 6835TIP3    H120466   3.681   5.341   4.974
 6835TIP3    H220467   3.575   5.246   4.926
 6836TIP3   OH220468   4.074   5.304   4.973
 6836TIP3    H120469   4.169   5.286   4.977
 6836TIP3    H220470   4.048   5.245   4.899
 6837TIP3   OH220471   4.056   4.881   3.097
 6837TIP3    H120472   4.000   4.811   3.137
 6837TIP3    H220473   4.133   4.828   3.070
 6838TIP3   OH220474   4.712   5.213   4.707
 6838TIP3    H120475   4.705   5.143   4.775
 6838TIP3    H220476   4.791   5.263   4.737
 6839TIP3   OH220477   4.494   4.919   3.012
 6839TIP3    H120478   4.533   4.854   3.075
 6839TIP3    H220479   4.555   4.914   2.937
 6840TIP3   OH220480   3.724   4.746   5.128
 6840TIP3    H120481   3.740   4.650   5.132
 6840TIP3    H220482   3.637   4.749   5.082
 6841TIP3   OH220483   3.702   4.396   3.322
 6841TIP3    H120484   3.757   4.366   3.397
 6841TIP3    H220485   3.771   4.402   3.252
 6842TIP3   OH220486   4.331   4.832   4.901
 6842TIP3    H120487   4.290   4.851   4.814
 6842TIP3    H220488   4.361   4.739   4.892
 6843TIP3   OH220489   4.206   4.595   3.125
 6843TIP3    H120490   4.213   4.608   3.222
 6843TIP3    H220491   4.214   4.498   3.120
 6844TIP3   OH220492   4.826   4.842   4.510
 6844TIP3    H120493   4.900   4.885   4.464
 6844TIP3    H220494   4.754   4.905   4.493
 6845TIP3   OH220495   3.842   4.480   5.111
 6845TIP3    H120496   3.921   4.434   5.080
 6845TIP3    H220497   3.871   4.514   5.198
 6846TIP3   OH220498   3.902   4.301   3.546
 6846TIP3    H120499   3.879   4.263   3.632
 6846TIP3    H220500   3.939   4.223   3.498
 6847TIP3   OH220501   4.180   4.366   4.774
 6847TIP3    H120502   4.101   4.425   4.775
 6847TIP3    H220503   4.229   4.398   4.696
 6848TIP3   OH220504   4.001   4.097   3.387
 6848TIP3    H120505   3.969   4.094   3.295
 6848TIP3    H220506   4.096   4.093   3.375
 6849TIP3   OH220507   4.698   4.769   4.907
 6849TIP3    H120508   4.772   4.740   4.853
 6849TIP3    H220509   4.692   4.700   4.975
 6850TIP3   OH220510   4.851   4.435   3.028
 6850TIP3    H120511   4.802   4.377   2.967
 6850TIP3    H220512   4.802   4.519   3.014
 6851TIP3   OH220513   4.302   4.154   4.896
 6851TIP3    H120514   4.303   4.075   4.838
 6851TIP3    H220515   4.259   4.221   4.839
 6852TIP3   OH220516   4.306   3.942   4.705
 6852TIP3    H120517   4.333   3.982   4.620
 6852TIP3    H220518   4.212   3.919   4.687
 6853TIP3   OH220519   4.332   4.479   4.584
 6853TIP3    H120520   4.414   4.484   4.532
 6853TIP3    H220521   4.274   4.543   4.536
 6854TIP3   OH220522   4.914   4.443   4.960
 6854TIP3    H120523   4.962   4.358   4.964
 6854TIP3    H220524   4.981   4.501   4.921
 6855TIP3   OH220525   4.954   4.698   4.699
 6855TIP3    H120526   4.897   4.751   4.638
 6855TIP3    H220527   5.042   4.717   4.658
 6856TIP3   OH220528   4.181   4.264   5.130
 6856TIP3    H120529   4.112   4.196   5.142
 6856TIP3    H220530   4.213   4.243   5.040
 6857TIP3   OH220531   4.437   3.705   4.774
 6857TIP3    H120532   4.387   3.786   4.748
 6857TIP3    H220533   4.369   3.636   4.758
 6858TIP3   OH220534   4.562   4.207   4.988
 6858TIP3    H120535   4.547   4.193   5.083
 6858TIP3    H220536   4.473   4.183   4.954
 6859TIP3   OH220537   4.803   4.162   4.845
 6859TIP3    H120538   4.727   4.160   4.906
 6859TIP3    H220539   4.876   4.129   4.901
 6860TIP3   OH220540   5.034   4.099   4.994
 6860TIP3    H120541   5.045   4.003   5.010
 6860TIP3    H220542   5.030   4.136   5.084
 6861TIP3   OH220543   4.017   4.046   5.182
 6861TIP3    H120544   4.024   3.956   5.145
 6861TIP3    H220545   4.055   4.032   5.271
 6862TIP3   OH220546   4.530   3.713   5.031
 6862TIP3    H120547   4.597   3.642   5.023
 6862TIP3    H220548   4.490   3.710   4.942
 6863TIP3   OH220549   4.597   3.928   5.189
 6863TIP3    H120550   4.576   3.857   5.125
 6863TIP3    H220551   4.519   3.987   5.181
 6864TIP3   OH220552   3.818   5.160   3.287
 6864TIP3    H120553   3.913   5.151   3.269
 6864TIP3    H220554   3.790   5.209   3.208
 6865TIP3   OH220555   3.296   4.545   3.496
 6865TIP3    H120556   3.392   4.566   3.489
 6865TIP3    H220557   3.294   4.453   3.462
 6866TIP3   OH220558   3.213   5.151   3.918
 6866TIP3    H120559   3.147   5.089   3.881
 6866TIP3    H220560   3.257   5.094   3.984
 6867TIP3   OH220561   3.347   5.002   4.106
 6867TIP3    H120562   3.337   4.928   4.168
 6867TIP3    H220563   3.400   5.064   4.160
 6868TIP3   OH220564   5.073   5.413   3.904
 6868TIP3    H120565   5.104   5.439   3.992
 6868TIP3    H220566   5.143   5.446   3.846
 6869TIP3   OH220567   5.105   5.424   4.187
 6869TIP3    H120568   5.059   5.337   4.181
 6869TIP3    H220569   5.180   5.398   4.243
 6870TIP3   OH220570   5.152   5.099   4.761
 6870TIP3    H120571   5.078   5.108   4.825
 6870TIP3    H220572   5.192   5.188   4.765
 6871TIP3   OH220573   4.955   4.633   3.369
 6871TIP3    H120574   5.038   4.683   3.356
 6871TIP3    H220575   4.980   4.581   3.450
 6872TIP3   OH220576   5.028   4.491   3.579
 6872TIP3    H120577   4.987   4.428   3.639
 6872TIP3    H220578   5.058   4.564   3.638
 6873TIP3   OH220579   5.151   4.869   4.006
 6873TIP3    H120580   5.154   4.811   3.926
 6873TIP3    H220581   5.138   4.954   3.961
 6874TIP3   OH220582   4.982   5.175   4.213
 6874TIP3    H120583   4.908   5.215   4.262
 6874TIP3    H220584   4.935   5.127   4.141
 6875TIP3   OH220585   5.038   4.408   3.221
 6875TIP3    H120586   4.969   4.409   3.152
 6875TIP3    H220587   5.001   4.474   3.282
 6876TIP3   OH220588   4.829   4.034   3.169
 6876TIP3    H120589   4.863   4.116   3.132
 6876TIP3    H220590   4.907   3.978   3.171
 6877TIP3   OH220591   4.882   4.317   3.734
 6877TIP3    H120592   4.925   4.231   3.722
 6877TIP3    H220593   4.888   4.333   3.830
 6878TIP3   OH220594   3.541   4.398   4.460
 6878TIP3    H120595   3.558   4.390   4.365
 6878TIP3    H220596   3.634   4.405   4.493
 6879TIP3   OH220597   5.199   4.762   4.588
 6879TIP3    H120598   5.270   4.696   4.577
 6879TIP3    H220599   5.220   4.828   4.521
 6880TIP3   OH220600   5.384   4.566   4.603
 6880TIP3    H120601   5.308   4.517   4.640
 6880TIP3    H220602   5.456   4.501   4.618
 6881TIP3   OH220603   5.064   4.225   4.129
 6881TIP3    H120604   5.150   4.252   4.091
 6881TIP3    H220605   5.076   4.261   4.219
 6882TIP3   OH220606   5.137   4.373   4.354
 6882TIP3    H120607   5.058   4.407   4.399
 6882TIP3    H220608   5.169   4.453   4.307
 6883TIP3   OH220609   3.750   4.094   5.147
 6883TIP3    H120610   3.848   4.091   5.149
 6883TIP3    H220611   3.729   4.009   5.190
 6884TIP3   OH220612   5.588   3.964   4.907
 6884TIP3    H120613   5.648   3.898   4.865
 6884TIP3    H220614   5.558   4.016   4.830
 6885TIP3   OH220615   3.531   4.060   4.548
 6885TIP3    H120616   3.605   4.054   4.485
 6885TIP3    H220617   3.544   4.151   4.580
 6886TIP3   OH220618   5.457   4.101   4.712
 6886TIP3    H120619   5.371   4.143   4.728
 6886TIP3    H220620   5.428   4.028   4.653
 6887TIP3   OH220621   4.657   5.273   3.559
 6887TIP3    H120622   4.710   5.258   3.478
 6887TIP3    H220623   4.715   5.332   3.610
 6888TIP3   OH220624   3.723   3.650   4.874
 6888TIP3    H120625   3.670   3.642   4.955
 6888TIP3    H220626   3.657   3.683   4.810
 6889TIP3   OH220627   3.760   5.076   4.947
 6889TIP3    H120628   3.669   5.047   4.929
 6889TIP3    H220629   3.770   5.055   5.041
 6890TIP3   OH220630   3.938   5.109   4.495
 6890TIP3    H120631   3.892   5.185   4.454
 6890TIP3    H220632   4.024   5.120   4.451
 6891TIP3   OH220633   4.382   5.351   4.633
 6891TIP3    H120634   4.425   5.352   4.721
 6891TIP3    H220635   4.448   5.402   4.581
 6892TIP3   OH220636   4.561   5.504   4.492
 6892TIP3    H120637   4.630   5.452   4.448
 6892TIP3    H220638   4.614   5.559   4.553
 6893TIP3   OH220639   5.356   3.864   4.592
 6893TIP3    H120640   5.267   3.857   4.555
 6893TIP3    H220641   5.388   3.771   4.581
 6894TIP3   OH220642   3.614   5.364   4.517
 6894TIP3    H120643   3.524   5.397   4.495
 6894TIP3    H220644   3.625   5.402   4.605
 6895TIP3   OH220645   3.851   5.343   4.377
 6895TIP3    H120646   3.764   5.355   4.420
 6895TIP3    H220647   3.833   5.374   4.286
 6896TIP3   OH220648   4.277   5.370   4.175
 6896TIP3    H120649   4.208   5.389   4.109
 6896TIP3    H220650   4.289   5.458   4.217
 6897TIP3   OH220651   4.546   5.311   4.229
 6897TIP3    H120652   4.452   5.327   4.207
 6897TIP3    H220653   4.590   5.384   4.183
 6898TIP3   OH220654   4.754   5.502   4.141
 6898TIP3    H120655   4.740   5.585   4.092
 6898TIP3    H220656   4.781   5.440   4.069
 6899TIP3   OH220657   3.525   5.156   4.263
 6899TIP3    H120658   3.552   5.130   4.354
 6899TIP3    H220659   3.597   5.112   4.213
 6900TIP3   OH220660   3.720   5.028   4.121
 6900TIP3    H120661   3.736   4.944   4.170
 6900TIP3    H220662   3.812   5.063   4.116
 6901TIP3   OH220663   3.987   5.122   4.123
 6901TIP3    H120664   4.018   5.030   4.111
 6901TIP3    H220665   4.033   5.143   4.207
 6902TIP3   OH220666   4.594   3.785   4.223
 6902TIP3    H120667   4.533   3.721   4.264
 6902TIP3    H220668   4.658   3.728   4.177
 6903TIP3   OH220669   5.080   3.672   4.135
 6903TIP3    H120670   5.128   3.714   4.060
 6903TIP3    H220671   4.987   3.682   4.109
 6904TIP3   OH220672   5.206   3.763   3.912
 6904TIP3    H120673   5.263   3.716   3.848
 6904TIP3    H220674   5.175   3.840   3.863
 6905TIP3   OH220675   3.800   3.486   4.246
 6905TIP3    H120676   3.712   3.444   4.243
 6905TIP3    H220677   3.858   3.408   4.232
 6906TIP3   OH220678   3.552   3.372   3.852
 6906TIP3    H120679   3.613   3.409   3.785
 6906TIP3    H220680   3.589   3.410   3.933
 6907TIP3   OH220681   4.802   3.660   4.079
 6907TIP3    H120682   4.813   3.628   3.989
 6907TIP3    H220683   4.786   3.577   4.130
 6908TIP3   OH220684   4.832   3.606   3.717
 6908TIP3    H120685   4.788   3.642   3.639
 6908TIP3    H220686   4.824   3.511   3.702
 6909TIP3   OH220687   3.313   4.928   3.652
 6909TIP3    H120688   3.227   4.898   3.618
 6909TIP3    H220689   3.304   5.024   3.636
 6910TIP3   OH220690   3.700   3.501   3.649
 6910TIP3    H120691   3.755   3.456   3.582
 6910TIP3    H220692   3.758   3.572   3.679
 6911TIP3   OH220693   4.086   5.117   3.235
 6911TIP3    H120694   4.176   5.137   3.201
 6911TIP3    H220695   4.064   5.041   3.176
 6912TIP3   OH220696   4.805   5.236   3.328
 6912TIP3    H120697   4.796   5.137   3.319
 6912TIP3    H220698   4.761   5.265   3.246
 6913TIP3   OH220699   4.017   3.768   5.118
 6913TIP3    H120700   3.983   3.697   5.175
 6913TIP3    H220701   4.111   3.768   5.144
 6914TIP3   OH220702   4.267   3.767   5.237
 6914TIP3    H120703   4.352   3.743   5.195
 6914TIP3    H220704   4.257   3.695   5.302
 6915TIP3   OH220705   3.389   4.953   3.292
 6915TIP3    H120706   3.390   4.977   3.385
 6915TIP3    H220707   3.478   4.912   3.280
 6916TIP3   OH220708   5.094   3.828   5.024
 6916TIP3    H120709   5.112   3.796   5.115
 6916TIP3    H220710   5.182   3.822   4.983
 6917TIP3   OH220711   5.031   5.380   4.517
 6917TIP3    H120712   4.953   5.348   4.467
 6917TIP3    H220713   5.010   5.475   4.521
 6918TIP3   OH220714   6.296   4.752   3.284
 6918TIP3    H120715   6.267   4.843   3.263
 6918TIP3    H220716   6.223   4.701   3.244
 6919TIP3   OH220717   6.293   4.754   3.666
 6919TIP3    H120718   6.329   4.727   3.753
 6919TIP3    H220719   6.262   4.669   3.631
 6920TIP3   OH220720   5.609   4.649   4.019
 6920TIP3    H120721   5.627   4.579   4.085
 6920TIP3    H220722   5.674   4.715   4.045
 6921TIP3   OH220723   6.540   5.054   3.346
 6921TIP3    H120724   6.527   4.985   3.412
 6921TIP3    H220725   6.570   5.129   3.400
 6922TIP3   OH220726   5.568   5.061   3.754
 6922TIP3    H120727   5.555   4.964   3.757
 6922TIP3    H220728   5.665   5.065   3.749
 6923TIP3   OH220729   6.190   5.517   3.362
 6923TIP3    H120730   6.235   5.446   3.312
 6923TIP3    H220731   6.181   5.477   3.449
 6924TIP3   OH220732   6.097   4.976   3.709
 6924TIP3    H120733   6.142   4.898   3.671
 6924TIP3    H220734   6.177   5.026   3.736
 6925TIP3   OH220735   7.108   4.299   3.709
 6925TIP3    H120736   7.139   4.381   3.753
 6925TIP3    H220737   7.131   4.317   3.617
 6926TIP3   OH220738   6.507   4.480   3.743
 6926TIP3    H120739   6.550   4.395   3.766
 6926TIP3    H220740   6.476   4.462   3.652
 6927TIP3   OH220741   5.832   4.149   3.697
 6927TIP3    H120742   5.844   4.183   3.608
 6927TIP3    H220743   5.798   4.060   3.674
 6928TIP3   OH220744   6.541   4.233   3.331
 6928TIP3    H120745   6.612   4.215   3.397
 6928TIP3    H220746   6.595   4.266   3.257
 6929TIP3   OH220747   5.487   4.307   3.862
 6929TIP3    H120748   5.564   4.322   3.920
 6929TIP3    H220749   5.505   4.215   3.836
 6930TIP3   OH220750   5.936   4.535   3.597
 6930TIP3    H120751   6.031   4.539   3.622
 6930TIP3    H220752   5.929   4.439   3.586
 6931TIP3   OH220753   7.183   4.506   3.879
 6931TIP3    H120754   7.099   4.552   3.860
 6931TIP3    H220755   7.195   4.529   3.972
 6932TIP3   OH220756   5.848   4.115   4.155
 6932TIP3    H120757   5.790   4.152   4.084
 6932TIP3    H220758   5.793   4.136   4.234
 6933TIP3   OH220759   6.184   4.971   3.153
 6933TIP3    H120760   6.147   4.957   3.064
 6933TIP3    H220761   6.143   5.057   3.177
 6934TIP3   OH220762   5.948   4.898   3.938
 6934TIP3    H120763   5.885   4.963   3.977
 6934TIP3    H220764   5.988   4.949   3.865
 6935TIP3   OH220765   6.750   4.234   3.504
 6935TIP3    H120766   6.741   4.182   3.585
 6935TIP3    H220767   6.803   4.310   3.533
 6936TIP3   OH220768   5.733   4.228   3.940
 6936TIP3    H120769   5.793   4.304   3.960
 6936TIP3    H220770   5.774   4.196   3.857
 6937TIP3   OH220771   5.777   5.092   4.038
 6937TIP3    H120772   5.751   5.178   3.999
 6937TIP3    H220773   5.697   5.075   4.093
 6938TIP3   OH220774   5.182   4.773   3.270
 6938TIP3    H120775   5.131   4.810   3.196
 6938TIP3    H220776   5.206   4.850   3.322
 6939TIP3   OH220777   6.611   5.298   3.513
 6939TIP3    H120778   6.521   5.289   3.552
 6939TIP3    H220779   6.602   5.384   3.467
 6940TIP3   OH220780   6.902   4.200   3.876
 6940TIP3    H120781   6.814   4.227   3.844
 6940TIP3    H220782   6.961   4.232   3.805
 6941TIP3   OH220783   6.196   3.840   3.857
 6941TIP3    H120784   6.184   3.745   3.876
 6941TIP3    H220785   6.119   3.877   3.905
 6942TIP3   OH220786   6.312   5.343   3.186
 6942TIP3    H120787   6.361   5.260   3.166
 6942TIP3    H220788   6.374   5.408   3.146
 6943TIP3   OH220789   6.453   5.128   3.095
 6943TIP3    H120790   6.421   5.048   3.052
 6943TIP3    H220791   6.490   5.092   3.179
 6944TIP3   OH220792   6.836   5.210   3.857
 6944TIP3    H120793   6.825   5.132   3.798
 6944TIP3    H220794   6.819   5.284   3.796
 6945TIP3   OH220795   6.130   4.606   3.114
 6945TIP3    H120796   6.050   4.657   3.091
 6945TIP3    H220797   6.175   4.599   3.028
 6946TIP3   OH220798   6.087   4.389   2.828
 6946TIP3    H120799   6.155   4.441   2.875
 6946TIP3    H220800   6.144   4.324   2.782
 6947TIP3   OH220801   7.031   4.848   3.702
 6947TIP3    H120802   6.948   4.899   3.706
 6947TIP3    H220803   7.061   4.872   3.611
 6948TIP3   OH220804   6.476   4.687   3.086
 6948TIP3    H120805   6.422   4.710   3.165
 6948TIP3    H220806   6.561   4.662   3.129
 6949TIP3   OH220807   6.710   4.726   3.998
 6949TIP3    H120808   6.707   4.809   4.049
 6949TIP3    H220809   6.624   4.729   3.952
 6950TIP3   OH220810   5.697   4.630   3.492
 6950TIP3    H120811   5.704   4.677   3.407
 6950TIP3    H220812   5.790   4.618   3.519
 6951TIP3   OH220813   5.841   5.097   3.652
 6951TIP3    H120814   5.820   5.066   3.563
 6951TIP3    H220815   5.930   5.059   3.667
 6952TIP3   OH220816   5.860   4.651   3.853
 6952TIP3    H120817   5.890   4.643   3.761
 6952TIP3    H220818   5.888   4.742   3.877
 6953TIP3   OH220819   6.369   5.293   3.633
 6953TIP3    H120820   6.356   5.373   3.687
 6953TIP3    H220821   6.354   5.221   3.697
 6954TIP3   OH220822   5.982   5.213   4.181
 6954TIP3    H120823   5.920   5.274   4.226
 6954TIP3    H220824   5.918   5.159   4.130
 6955TIP3   OH220825   6.315   4.545   2.912
 6955TIP3    H120826   6.374   4.606   2.962
 6955TIP3    H220827   6.342   4.567   2.819
 6956TIP3   OH220828   5.734   4.769   4.278
 6956TIP3    H120829   5.740   4.855   4.323
 6956TIP3    H220830   5.640   4.746   4.296
 6957TIP3   OH220831   6.059   5.223   3.190
 6957TIP3    H120832   6.140   5.277   3.201
 6957TIP3    H220833   5.999   5.284   3.145
 6958TIP3   OH220834   5.776   5.381   4.269
 6958TIP3    H120835   5.742   5.381   4.178
 6958TIP3    H220836   5.697   5.357   4.321
 6959TIP3   OH220837   6.832   3.784   2.960
 6959TIP3    H120838   6.749   3.803   3.010
 6959TIP3    H220839   6.844   3.868   2.912
 6960TIP3   OH220840   6.631   5.152   2.508
 6960TIP3    H120841   6.640   5.249   2.493
 6960TIP3    H220842   6.724   5.123   2.496
 6961TIP3   OH220843   5.352   4.911   4.209
 6961TIP3    H120844   5.287   4.893   4.138
 6961TIP3    H220845   5.387   4.822   4.228
 6962TIP3   OH220846   5.200   5.123   3.860
 6962TIP3    H120847   5.286   5.088   3.835
 6962TIP3    H220848   5.223   5.203   3.910
 6963TIP3   OH220849   7.073   5.555   3.904
 6963TIP3    H120850   7.072   5.458   3.916
 6963TIP3    H220851   6.989   5.579   3.949
 6964TIP3   OH220852   6.180   5.339   4.039
 6964TIP3    H120853   6.178   5.432   4.071
 6964TIP3    H220854   6.107   5.300   4.091
 6965TIP3   OH220855   5.942   5.469   2.990
 6965TIP3    H120856   5.895   5.452   2.906
 6965TIP3    H220857   5.909   5.557   3.015
 6966TIP3   OH220858   5.382   5.322   3.373
 6966TIP3    H120859   5.423   5.312   3.461
 6966TIP3    H220860   5.335   5.236   3.366
 6967TIP3   OH220861   6.141   5.371   2.628
 6967TIP3    H120862   6.201   5.302   2.592
 6967TIP3    H220863   6.176   5.381   2.720
 6968TIP3   OH220864   6.193   5.419   2.898
 6968TIP3    H120865   6.104   5.429   2.939
 6968TIP3    H220866   6.243   5.380   2.971
 6969TIP3   OH220867   6.963   4.686   4.177
 6969TIP3    H120868   6.881   4.695   4.126
 6969TIP3    H220869   6.980   4.590   4.168
 6970TIP3   OH220870   5.559   5.093   4.203
 6970TIP3    H120871   5.608   5.074   4.286
 6970TIP3    H220872   5.484   5.030   4.208
 6971TIP3   OH220873   5.958   3.919   3.985
 6971TIP3    H120874   5.870   3.887   3.958
 6971TIP3    H220875   5.931   3.995   4.041
 6972TIP3   OH220876   6.494   4.033   4.182
 6972TIP3    H120877   6.563   4.003   4.244
 6972TIP3    H220878   6.411   4.012   4.229
 6973TIP3   OH220879   6.730   4.461   4.099
 6973TIP3    H120880   6.681   4.458   4.184
 6973TIP3    H220881   6.707   4.549   4.065
 6974TIP3   OH220882   6.393   4.590   2.656
 6974TIP3    H120883   6.358   4.565   2.569
 6974TIP3    H220884   6.474   4.638   2.631
 6975TIP3   OH220885   6.107   3.965   2.959
 6975TIP3    H120886   6.070   3.961   3.049
 6975TIP3    H220887   6.067   3.884   2.922
 6976TIP3   OH220888   5.895   4.436   4.008
 6976TIP3    H120889   5.842   4.457   4.088
 6976TIP3    H220890   5.879   4.517   3.954
 6977TIP3   OH220891   6.266   4.404   3.248
 6977TIP3    H120892   6.215   4.475   3.204
 6977TIP3    H220893   6.321   4.371   3.174
 6978TIP3   OH220894   6.441   4.684   4.335
 6978TIP3    H120895   6.419   4.610   4.396
 6978TIP3    H220896   6.536   4.695   4.355
 6979TIP3   OH220897   6.421   4.433   3.485
 6979TIP3    H120898   6.361   4.460   3.413
 6979TIP3    H220899   6.457   4.352   3.443
 6980TIP3   OH220900   5.712   4.460   4.214
 6980TIP3    H120901   5.732   4.524   4.283
 6980TIP3    H220902   5.698   4.378   4.265
 6981TIP3   OH220903   5.763   3.940   2.924
 6981TIP3    H120904   5.749   3.933   3.020
 6981TIP3    H220905   5.684   3.990   2.897
 6982TIP3   OH220906   6.431   4.679   3.908
 6982TIP3    H120907   6.465   4.607   3.849
 6982TIP3    H220908   6.403   4.626   3.985
 6983TIP3   OH220909   6.103   4.157   3.588
 6983TIP3    H120910   6.030   4.128   3.646
 6983TIP3    H220911   6.181   4.137   3.643
 6984TIP3   OH220912   5.794   4.230   3.301
 6984TIP3    H120913   5.888   4.222   3.277
 6984TIP3    H220914   5.750   4.231   3.213
 6985TIP3   OH220915   6.595   4.219   3.783
 6985TIP3    H120916   6.560   4.230   3.875
 6985TIP3    H220917   6.532   4.155   3.747
 6986TIP3   OH220918   5.650   4.231   3.066
 6986TIP3    H120919   5.570   4.187   3.030
 6986TIP3    H220920   5.696   4.255   2.984
 6987TIP3   OH220921   6.765   5.906   4.001
 6987TIP3    H120922   6.761   5.928   3.906
 6987TIP3    H220923   6.844   5.955   4.030
 6988TIP3   OH220924   5.723   5.015   4.423
 6988TIP3    H120925   5.801   5.046   4.472
 6988TIP3    H220926   5.657   5.012   4.495
 6989TIP3   OH220927   6.189   4.476   3.680
 6989TIP3    H120928   6.258   4.430   3.629
 6989TIP3    H220929   6.192   4.428   3.765
 6990TIP3   OH220930   5.732   3.945   3.556
 6990TIP3    H120931   5.678   3.877   3.602
 6990TIP3    H220932   5.755   3.899   3.475
 6991TIP3   OH220933   6.162   4.370   3.964
 6991TIP3    H120934   6.073   4.405   3.983
 6991TIP3    H220935   6.220   4.427   4.017
 6992TIP3   OH220936   5.897   4.759   3.065
 6992TIP3    H120937   5.831   4.687   3.052
 6992TIP3    H220938   5.875   4.787   3.157
 6993TIP3   OH220939   6.798   4.993   3.692
 6993TIP3    H120940   6.822   5.044   3.611
 6993TIP3    H220941   6.714   4.950   3.665
 6994TIP3   OH220942   6.357   4.069   2.924
 6994TIP3    H120943   6.261   4.048   2.935
 6994TIP3    H220944   6.362   4.163   2.952
 6995TIP3   OH220945   6.298   5.076   4.059
 6995TIP3    H120946   6.321   5.053   4.150
 6995TIP3    H220947   6.259   5.164   4.068
 6996TIP3   OH220948   6.425   4.318   3.032
 6996TIP3    H120949   6.522   4.323   3.046
 6996TIP3    H220950   6.407   4.398   2.978
 6997TIP3   OH220951   5.609   4.784   3.744
 6997TIP3    H120952   5.609   4.727   3.667
 6997TIP3    H220953   5.623   4.722   3.817
 6998TIP3   OH220954   6.045   4.907   2.885
 6998TIP3    H120955   5.997   4.993   2.888
 6998TIP3    H220956   5.990   4.853   2.945
 6999TIP3   OH220957   5.474   4.695   4.350
 6999TIP3    H120958   5.486   4.679   4.446
 6999TIP3    H220959   5.401   4.635   4.329
 7000TIP3   OH220960   6.198   4.814   4.371
 7000TIP3    H120961   6.137   4.753   4.326
 7000TIP3    H220962   6.285   4.778   4.343
 7001TIP3   OH220963   6.458   5.335   3.957
 7001TIP3    H120964   6.362   5.332   3.969
 7001TIP3    H220965   6.485   5.388   4.035
 7002TIP3   OH220966   6.868   4.407   2.864
 7002TIP3    H120967   6.806   4.363   2.802
 7002TIP3    H220968   6.865   4.497   2.825
 7003TIP3   OH220969   7.087   5.266   3.944
 7003TIP3    H120970   6.989   5.259   3.936
 7003TIP3    H220971   7.114   5.235   3.855
 7004TIP3   OH220972   6.569   5.225   2.773
 7004TIP3    H120973   6.542   5.155   2.833
 7004TIP3    H220974   6.581   5.179   2.688
 7005TIP3   OH220975   6.565   4.855   3.610
 7005TIP3    H120976   6.471   4.831   3.623
 7005TIP3    H220977   6.598   4.775   3.566
 7006TIP3   OH220978   5.692   5.083   3.362
 7006TIP3    H120979   5.688   5.165   3.309
 7006TIP3    H220980   5.599   5.065   3.375
 7007TIP3   OH220981   5.256   4.395   3.062
 7007TIP3    H120982   5.308   4.471   3.093
 7007TIP3    H220983   5.181   4.397   3.127
 7008TIP3   OH220984   5.815   4.839   3.318
 7008TIP3    H120985   5.793   4.933   3.305
 7008TIP3    H220986   5.816   4.836   3.414
 7009TIP3   OH220987   5.961   5.427   3.832
 7009TIP3    H120988   6.003   5.500   3.781
 7009TIP3    H220989   6.038   5.391   3.878
 7010TIP3   OH220990   5.612   5.321   3.217
 7010TIP3    H120991   5.526   5.330   3.264
 7010TIP3    H220992   5.643   5.414   3.219
 7011TIP3   OH220993   6.349   5.060   3.791
 7011TIP3    H120994   6.339   5.058   3.889
 7011TIP3    H220995   6.429   5.007   3.779
 7012TIP3   OH220996   6.325   4.954   2.674
 7012TIP3    H120997   6.377   4.928   2.754
 7012TIP3    H220998   6.236   4.926   2.701
 7013TIP3   OH220999   6.597   5.595   3.842
 7013TIP3    H121000   6.518   5.539   3.834
 7013TIP3    H221001   6.583   5.659   3.769
 7014TIP3   OH221002   6.664   5.427   2.494
 7014TIP3    H121003   6.703   5.501   2.443
 7014TIP3    H221004   6.583   5.472   2.527
 7015TIP3   OH221005   5.681   4.205   4.360
 7015TIP3    H121006   5.584   4.208   4.371
 7015TIP3    H221007   5.707   4.144   4.431
 7016TIP3   OH221008   6.485   4.888   2.892
 7016TIP3    H121009   6.475   4.821   2.963
 7016TIP3    H221010   6.582   4.884   2.879
 7017TIP3   OH221011   5.398   5.293   3.992
 7017TIP3    H121012   5.445   5.212   4.017
 7017TIP3    H221013   5.434   5.355   4.057
 7018TIP3   OH221014   5.690   4.933   2.673
 7018TIP3    H121015   5.703   4.840   2.645
 7018TIP3    H221016   5.669   4.922   2.767
 7019TIP3   OH221017   5.635   4.941   2.944
 7019TIP3    H121018   5.705   4.911   3.003
 7019TIP3    H221019   5.639   5.038   2.952
 7020TIP3   OH221020   5.392   4.633   3.132
 7020TIP3    H121021   5.331   4.652   3.207
 7020TIP3    H221022   5.381   4.714   3.080
 7021TIP3   OH221023   6.519   4.269   4.043
 7021TIP3    H121024   6.601   4.306   4.080
 7021TIP3    H221025   6.506   4.188   4.097
 7022TIP3   OH221026   6.399   4.021   3.208
 7022TIP3    H121027   6.387   4.042   3.114
 7022TIP3    H221028   6.439   4.104   3.243
 7023TIP3   OH221029   5.903   5.137   2.896
 7023TIP3    H121030   5.815   5.162   2.931
 7023TIP3    H221031   5.917   5.209   2.833
 7024TIP3   OH221032   6.085   4.203   3.314
 7024TIP3    H121033   6.151   4.273   3.292
 7024TIP3    H221034   6.096   4.195   3.411
 7025TIP3   OH221035   6.360   4.518   4.116
 7025TIP3    H121036   6.381   4.569   4.196
 7025TIP3    H221037   6.413   4.437   4.128
 7026TIP3   OH221038   6.232   3.929   3.410
 7026TIP3    H121039   6.243   4.002   3.474
 7026TIP3    H221040   6.293   3.959   3.338
 7027TIP3   OH221041   5.647   5.212   2.963
 7027TIP3    H121042   5.615   5.281   2.901
 7027TIP3    H221043   5.629   5.255   3.050
 7028TIP3   OH221044   5.746   3.923   3.200
 7028TIP3    H121045   5.733   4.010   3.239
 7028TIP3    H221046   5.843   3.912   3.208
 7029TIP3   OH221047   6.998   4.420   4.096
 7029TIP3    H121048   6.900   4.418   4.104
 7029TIP3    H221049   7.008   4.372   4.013
 7030TIP3   OH221050   6.649   4.613   3.486
 7030TIP3    H121051   6.574   4.553   3.498
 7030TIP3    H221052   6.721   4.567   3.533
 7031TIP3   OH221053   5.360   4.847   2.950
 7031TIP3    H121054   5.431   4.912   2.961
 7031TIP3    H221055   5.404   4.787   2.885
 7032TIP3   OH221056   5.309   4.121   3.038
 7032TIP3    H121057   5.295   4.212   3.069
 7032TIP3    H221058   5.270   4.069   3.109
 7033TIP3   OH221059   6.618   5.569   3.435
 7033TIP3    H121060   6.575   5.616   3.360
 7033TIP3    H221061   6.712   5.588   3.414
 7034TIP3   OH221062   5.693   3.839   3.960
 7034TIP3    H121063   5.663   3.803   3.874
 7034TIP3    H221064   5.683   3.761   4.019
 7035TIP3   OH221065   5.249   5.075   3.343
 7035TIP3    H121066   5.179   5.077   3.410
 7035TIP3    H221067   5.201   5.105   3.262
 7036TIP3   OH221068   5.390   5.597   4.414
 7036TIP3    H121069   5.476   5.595   4.460
 7036TIP3    H221070   5.367   5.503   4.412
 7037TIP3   OH221071   5.874   5.559   4.460
 7037TIP3    H121072   5.968   5.537   4.461
 7037TIP3    H221073   5.842   5.502   4.387
 7038TIP3   OH221074   5.853   5.137   2.586
 7038TIP3    H121075   5.796   5.065   2.623
 7038TIP3    H221076   5.929   5.084   2.554
 7039TIP3   OH221077   6.507   5.472   4.195
 7039TIP3    H121078   6.500   5.399   4.262
 7039TIP3    H221079   6.587   5.519   4.223
 7040TIP3   OH221080   6.289   5.178   2.498
 7040TIP3    H121081   6.333   5.114   2.558
 7040TIP3    H221082   6.346   5.175   2.419
 7041TIP3   OH221083   5.520   5.004   4.614
 7041TIP3    H121084   5.536   4.908   4.619
 7041TIP3    H221085   5.434   5.007   4.568
 7042TIP3   OH221086   5.494   4.661   2.802
 7042TIP3    H121087   5.536   4.619   2.878
 7042TIP3    H221088   5.567   4.661   2.737
 7043TIP3   OH221089   6.128   5.090   4.387
 7043TIP3    H121090   6.085   5.107   4.301
 7043TIP3    H221091   6.158   4.997   4.379
 7044TIP3   OH221092   6.011   4.854   2.615
 7044TIP3    H121093   6.012   4.865   2.712
 7044TIP3    H221094   6.010   4.756   2.608
 7045TIP3   OH221095   6.621   5.098   3.995
 7045TIP3    H121096   6.696   5.141   3.950
 7045TIP3    H221097   6.551   5.164   3.979
 7046TIP3   OH221098   5.642   4.741   4.596
 7046TIP3    H121099   5.714   4.681   4.575
 7046TIP3    H221100   5.669   4.773   4.685
 7047TIP3   OH221101   5.722   4.550   3.041
 7047TIP3    H121102   5.647   4.502   3.080
 7047TIP3    H221103   5.758   4.482   2.980
 7048TIP3   OH221104   5.977   4.626   4.260
 7048TIP3    H121105   5.897   4.682   4.257
 7048TIP3    H221106   6.027   4.658   4.181
 7049TIP3   OH221107   5.806   4.355   2.867
 7049TIP3    H121108   5.780   4.356   2.773
 7049TIP3    H221109   5.904   4.354   2.859
 7050TIP3   OH221110   6.495   5.026   4.393
 7050TIP3    H121111   6.570   4.994   4.341
 7050TIP3    H221112   6.488   4.957   4.462
 7051TIP3   OH221113   6.628   4.682   2.534
 7051TIP3    H121114   6.607   4.637   2.450
 7051TIP3    H221115   6.595   4.772   2.512
 7052TIP3   OH221116   6.098   4.412   4.384
 7052TIP3    H121117   6.099   4.332   4.327
 7052TIP3    H221118   6.054   4.477   4.326
 7053TIP3   OH221119   6.103   4.200   4.193
 7053TIP3    H121120   6.129   4.238   4.106
 7053TIP3    H221121   6.010   4.174   4.176
 7054TIP3   OH221122   6.127   4.732   4.064
 7054TIP3    H121123   6.212   4.742   4.018
 7054TIP3    H221124   6.071   4.798   4.018
 7055TIP3   OH221125   6.709   4.699   4.444
 7055TIP3    H121126   6.754   4.615   4.462
 7055TIP3    H221127   6.781   4.752   4.407
 7056TIP3   OH221128   6.750   4.955   4.184
 7056TIP3    H121129   6.693   5.008   4.124
 7056TIP3    H221130   6.838   4.974   4.144
 7057TIP3   OH221131   5.976   4.522   4.616
 7057TIP3    H121132   5.908   4.453   4.630
 7057TIP3    H221133   6.010   4.497   4.528
 7058TIP3   OH221134   6.233   3.960   4.258
 7058TIP3    H121135   6.183   4.041   4.237
 7058TIP3    H221136   6.165   3.891   4.247
 7059TIP3   OH221137   6.358   4.466   4.475
 7059TIP3    H121138   6.348   4.450   4.571
 7059TIP3    H221139   6.269   4.441   4.445
 7060TIP3   OH221140   6.598   4.417   4.330
 7060TIP3    H121141   6.524   4.415   4.394
 7060TIP3    H221142   6.673   4.385   4.385
 7061TIP3   OH221143   6.825   4.353   4.478
 7061TIP3    H121144   6.840   4.258   4.496
 7061TIP3    H221145   6.823   4.393   4.568
 7062TIP3   OH221146   5.817   4.302   4.668
 7062TIP3    H121147   5.820   4.211   4.634
 7062TIP3    H221148   5.854   4.288   4.758
 7063TIP3   OH221149   6.327   3.970   4.517
 7063TIP3    H121150   6.394   3.900   4.511
 7063TIP3    H221151   6.288   3.964   4.427
 7064TIP3   OH221152   6.394   4.186   4.675
 7064TIP3    H121153   6.373   4.114   4.611
 7064TIP3    H221154   6.315   4.243   4.668
 7065TIP3   OH221155   5.614   5.415   2.776
 7065TIP3    H121156   5.710   5.408   2.757
 7065TIP3    H221157   5.586   5.464   2.697
 7066TIP3   OH221158   5.090   4.802   2.979
 7066TIP3    H121159   5.186   4.821   2.975
 7066TIP3    H221160   5.088   4.710   2.946
 7067TIP3   OH221161   5.009   5.408   3.405
 7067TIP3    H121162   4.942   5.345   3.370
 7067TIP3    H221163   5.055   5.351   3.471
 7068TIP3   OH221164   5.139   5.258   3.593
 7068TIP3    H121165   5.125   5.180   3.649
 7068TIP3    H221166   5.191   5.314   3.655
 7069TIP3   OH221167   6.871   5.660   3.392
 7069TIP3    H121168   6.901   5.695   3.478
 7069TIP3    H221169   6.935   5.700   3.331
 7070TIP3   OH221170   6.899   5.681   3.676
 7070TIP3    H121171   6.856   5.593   3.669
 7070TIP3    H221172   6.978   5.656   3.727
 7071TIP3   OH221173   6.947   5.358   4.247
 7071TIP3    H121174   6.875   5.366   4.312
 7071TIP3    H221175   6.989   5.446   4.252
 7072TIP3   OH221176   6.763   4.869   2.867
 7072TIP3    H121177   6.830   4.934   2.836
 7072TIP3    H221178   6.808   4.831   2.946
 7073TIP3   OH221179   6.891   4.736   3.071
 7073TIP3    H121180   6.825   4.695   3.130
 7073TIP3    H221181   6.956   4.774   3.134
 7074TIP3   OH221182   6.946   5.130   3.503
 7074TIP3    H121183   6.998   5.063   3.454
 7074TIP3    H221184   6.942   5.203   3.439
 7075TIP3   OH221185   6.776   5.430   3.697
 7075TIP3    H121186   6.703   5.471   3.747
 7075TIP3    H221187   6.728   5.383   3.626
 7076TIP3   OH221188   6.830   4.644   2.716
 7076TIP3    H121189   6.758   4.647   2.648
 7076TIP3    H221190   6.801   4.720   2.772
 7077TIP3   OH221191   6.702   4.317   2.670
 7077TIP3    H121192   6.656   4.355   2.594
 7077TIP3    H221193   6.677   4.222   2.661
 7078TIP3   OH221194   6.705   4.594   3.217
 7078TIP3    H121195   6.712   4.498   3.210
 7078TIP3    H221196   6.691   4.607   3.313
 7079TIP3   OH221197   5.338   4.627   3.971
 7079TIP3    H121198   5.303   4.665   3.886
 7079TIP3    H221199   5.433   4.647   3.965
 7080TIP3   OH221200   6.995   5.019   4.074
 7080TIP3    H121201   7.066   4.952   4.065
 7080TIP3    H221202   7.021   5.085   4.009
 7081TIP3   OH221203   7.179   4.823   4.090
 7081TIP3    H121204   7.104   4.772   4.128
 7081TIP3    H221205   7.252   4.760   4.105
 7082TIP3   OH221206   6.644   4.050   2.654
 7082TIP3    H121207   6.715   4.020   2.713
 7082TIP3    H221208   6.568   3.994   2.678
 7083TIP3   OH221209   6.702   4.309   3.111
 7083TIP3    H121210   6.742   4.220   3.126
 7083TIP3    H221211   6.761   4.341   3.040
 7084TIP3   OH221212   6.862   4.484   3.606
 7084TIP3    H121213   6.948   4.509   3.565
 7084TIP3    H221214   6.877   4.519   3.696
 7085TIP3   OH221215   6.933   4.628   3.837
 7085TIP3    H121216   6.855   4.661   3.886
 7085TIP3    H221217   6.965   4.709   3.793
 7086TIP3   OH221218   5.551   4.355   4.644
 7086TIP3    H121219   5.648   4.346   4.642
 7086TIP3    H221220   5.526   4.268   4.679
 7087TIP3   OH221221   7.379   4.220   4.390
 7087TIP3    H121222   7.441   4.155   4.353
 7087TIP3    H221223   7.355   4.274   4.313
 7088TIP3   OH221224   6.811   4.059   3.148
 7088TIP3    H121225   6.858   4.043   3.233
 7088TIP3    H221226   6.749   3.983   3.148
 7089TIP3   OH221227   5.509   4.049   3.975
 7089TIP3    H121228   5.556   3.964   3.975
 7089TIP3    H221229   5.583   4.111   3.982
 7090TIP3   OH221230   5.308   4.328   4.069
 7090TIP3    H121231   5.364   4.321   3.989
 7090TIP3    H221232   5.312   4.424   4.084
 7091TIP3   OH221233   7.254   4.360   4.193
 7091TIP3    H121234   7.169   4.400   4.218
 7091TIP3    H221235   7.223   4.285   4.139
 7092TIP3   OH221236   6.891   3.994   2.783
 7092TIP3    H121237   6.929   3.923   2.728
 7092TIP3    H221238   6.958   4.064   2.776
 7093TIP3   OH221239   6.456   5.527   3.049
 7093TIP3    H121240   6.506   5.514   2.965
 7093TIP3    H221241   6.510   5.594   3.094
 7094TIP3   OH221242   5.518   3.904   4.359
 7094TIP3    H121243   5.465   3.898   4.440
 7094TIP3    H221244   5.452   3.941   4.297
 7095TIP3   OH221245   5.557   5.332   4.435
 7095TIP3    H121246   5.466   5.304   4.415
 7095TIP3    H221247   5.563   5.310   4.529
 7096TIP3   OH221248   5.736   5.364   3.983
 7096TIP3    H121249   5.685   5.437   3.943
 7096TIP3    H221250   5.821   5.379   3.938
 7097TIP3   OH221251   6.180   5.606   4.122
 7097TIP3    H121252   6.223   5.610   4.210
 7097TIP3    H221253   6.244   5.657   4.068
 7098TIP3   OH221254   6.357   5.759   3.980
 7098TIP3    H121255   6.427   5.710   3.934
 7098TIP3    H221256   6.411   5.816   4.039
 7099TIP3   OH221257   7.154   4.120   4.078
 7099TIP3    H121258   7.062   4.110   4.046
 7099TIP3    H221259   7.187   4.028   4.069
 7100TIP3   OH221260   5.412   5.624   4.003
 7100TIP3    H121261   5.322   5.656   3.979
 7100TIP3    H221262   5.418   5.656   4.094
 7101TIP3   OH221263   5.648   5.599   3.863
 7101TIP3    H121264   5.562   5.612   3.907
 7101TIP3    H221265   5.629   5.630   3.773
 7102TIP3   OH221266   6.073   5.626   3.661
 7102TIP3    H121267   6.003   5.644   3.595
 7102TIP3    H221268   6.084   5.715   3.702
 7103TIP3   OH221269   6.342   5.566   3.715
 7103TIP3    H121270   6.248   5.584   3.693
 7103TIP3    H221271   6.386   5.639   3.669
 7104TIP3   OH221272   6.549   5.757   3.627
 7104TIP3    H121273   6.535   5.842   3.579
 7104TIP3    H221274   6.576   5.697   3.554
 7105TIP3   OH221275   5.322   5.415   3.752
 7105TIP3    H121276   5.352   5.389   3.842
 7105TIP3    H221277   5.391   5.369   3.699
 7106TIP3   OH221278   5.515   5.286   3.609
 7106TIP3    H121279   5.530   5.203   3.659
 7106TIP3    H221280   5.607   5.321   3.604
 7107TIP3   OH221281   5.783   5.380   3.611
 7107TIP3    H121282   5.815   5.289   3.600
 7107TIP3    H221283   5.827   5.402   3.695
 7108TIP3   OH221284   6.347   4.032   3.687
 7108TIP3    H121285   6.311   3.964   3.747
 7108TIP3    H221286   6.426   3.988   3.651
 7109TIP3   OH221287   6.880   3.918   3.603
 7109TIP3    H121288   6.915   3.969   3.527
 7109TIP3    H221289   6.784   3.932   3.594
 7110TIP3   OH221290   6.975   4.017   3.366
 7110TIP3    H121291   7.049   3.965   3.327
 7110TIP3    H221292   7.008   4.109   3.351
 7111TIP3   OH221293   5.605   3.744   3.715
 7111TIP3    H121294   5.514   3.708   3.713
 7111TIP3    H221295   5.657   3.661   3.708
 7112TIP3   OH221296   5.406   3.628   3.363
 7112TIP3    H121297   5.428   3.676   3.281
 7112TIP3    H221298   5.311   3.644   3.368
 7113TIP3   OH221299   6.051   3.780   3.595
 7113TIP3    H121300   6.111   3.825   3.533
 7113TIP3    H221301   6.084   3.811   3.680
 7114TIP3   OH221302   6.595   3.924   3.577
 7114TIP3    H121303   6.596   3.882   3.490
 7114TIP3    H221304   6.584   3.846   3.636
 7115TIP3   OH221305   6.627   3.846   3.141
 7115TIP3    H121306   6.539   3.885   3.152
 7115TIP3    H221307   6.614   3.760   3.188
 7116TIP3   OH221308   5.111   5.180   3.137
 7116TIP3    H121309   5.026   5.147   3.100
 7116TIP3    H221310   5.096   5.275   3.133
 7117TIP3   OH221311   5.514   3.772   3.122
 7117TIP3    H121312   5.560   3.711   3.062
 7117TIP3    H221313   5.587   3.823   3.160
 7118TIP3   OH221314   6.020   3.954   3.222
 7118TIP3    H121315   6.076   3.900   3.280
 7118TIP3    H221316   6.048   4.044   3.250
 7119TIP3   OH221317   5.882   5.373   2.723
 7119TIP3    H121318   5.970   5.396   2.687
 7119TIP3    H221319   5.860   5.299   2.663
 7120TIP3   OH221320   6.600   5.492   2.816
 7120TIP3    H121321   6.593   5.395   2.805
 7120TIP3    H221322   6.556   5.524   2.735
 7121TIP3   OH221323   5.814   4.029   4.607
 7121TIP3    H121324   5.778   3.956   4.660
 7121TIP3    H221325   5.908   4.026   4.634
 7122TIP3   OH221326   6.065   4.023   4.724
 7122TIP3    H121327   6.149   3.998   4.684
 7122TIP3    H221328   6.053   3.952   4.791
 7123TIP3   OH221329   5.189   5.215   2.781
 7123TIP3    H121330   5.188   5.224   2.877
 7123TIP3    H221331   5.275   5.170   2.765
 7124TIP3   OH221332   6.889   4.084   4.512
 7124TIP3    H121333   6.907   4.052   4.603
 7124TIP3    H221334   6.979   4.078   4.472
 7125TIP3   OH221335   6.824   5.636   4.007
 7125TIP3    H121336   6.748   5.605   3.954
 7125TIP3    H221337   6.807   5.732   4.007
 7126TIP3   OH221338   7.391   4.903   3.516
 7126TIP3    H121339   7.419   4.837   3.582
 7126TIP3    H221340   7.468   4.962   3.515
 7127TIP3   OH221341   7.362   5.314   3.242
 7127TIP3    H121342   7.355   5.216   3.243
 7127TIP3    H221343   7.458   5.325   3.233
 7128TIP3   OH221344   7.072   4.516   3.023
 7128TIP3    H121345   7.023   4.599   3.041
 7128TIP3    H221346   7.000   4.462   2.985
 7129TIP3   OH221347   7.128   4.804   3.198
 7129TIP3    H121348   7.177   4.727   3.234
 7129TIP3    H221349   7.188   4.837   3.131
 7130TIP3   OH221350   7.881   5.231   3.199
 7130TIP3    H121351   7.910   5.163   3.136
 7130TIP3    H221352   7.966   5.271   3.225
 7131TIP3   OH221353   7.623   4.397   3.201
 7131TIP3    H121354   7.606   4.468   3.136
 7131TIP3    H221355   7.581   4.321   3.156
 7132TIP3   OH221356   7.275   4.598   3.301
 7132TIP3    H121357   7.356   4.578   3.353
 7132TIP3    H221358   7.290   4.541   3.223
 7133TIP3   OH221359   7.708   4.792   3.096
 7133TIP3    H121360   7.802   4.770   3.097
 7133TIP3    H221361   7.667   4.708   3.065
 7134TIP3   OH221362   7.633   4.380   3.638
 7134TIP3    H121363   7.575   4.418   3.569
 7134TIP3    H221364   7.582   4.401   3.718
 7135TIP3   OH221365   7.744   5.155   3.434
 7135TIP3    H121366   7.681   5.221   3.472
 7135TIP3    H221367   7.785   5.207   3.362
 7136TIP3   OH221368   7.501   4.494   3.423
 7136TIP3    H121369   7.561   4.568   3.445
 7136TIP3    H221370   7.551   4.453   3.348
 7137TIP3   OH221371   7.571   5.348   3.524
 7137TIP3    H121372   7.548   5.435   3.485
 7137TIP3    H221373   7.491   5.334   3.579
 7138TIP3   OH221374   6.967   5.038   2.759
 7138TIP3    H121375   6.927   5.067   2.675
 7138TIP3    H221376   6.998   5.123   2.796
 7139TIP3   OH221377   7.498   4.939   2.990
 7139TIP3    H121378   7.460   4.882   2.920
 7139TIP3    H221379   7.576   4.887   3.019
 7140TIP3   OH221380   7.627   5.348   3.139
 7140TIP3    H121381   7.609   5.315   3.050
 7140TIP3    H221382   7.716   5.313   3.158
 7141TIP3   OH221383   7.635   4.921   3.339
 7141TIP3    H121384   7.671   4.897   3.252
 7141TIP3    H221385   7.683   5.004   3.361
 7142TIP3   OH221386   7.776   5.470   3.670
 7142TIP3    H121387   7.713   5.532   3.714
 7142TIP3    H221388   7.713   5.416   3.618
 7143TIP3   OH221389   7.533   5.026   3.768
 7143TIP3    H121390   7.537   5.113   3.812
 7143TIP3    H221391   7.438   5.004   3.782
 7144TIP3   OH221392   7.571   5.640   3.755
 7144TIP3    H121393   7.538   5.640   3.663
 7144TIP3    H221394   7.490   5.616   3.806
 7145TIP3   OH221395   7.372   4.779   2.789
 7145TIP3    H121396   7.307   4.829   2.735
 7145TIP3    H221397   7.322   4.699   2.809
 7146TIP3   OH221398   7.151   5.168   3.701
 7146TIP3    H121399   7.086   5.146   3.632
 7146TIP3    H221400   7.189   5.080   3.724
 7147TIP3   OH221401   7.006   5.359   3.335
 7147TIP3    H121402   7.102   5.354   3.323
 7147TIP3    H221403   6.998   5.440   3.389
 7148TIP3   OH221404   7.955   5.604   3.512
 7148TIP3    H121405   7.964   5.690   3.556
 7148TIP3    H221406   7.898   5.555   3.575
 7149TIP3   OH221407   7.663   5.734   2.465
 7149TIP3    H121408   7.724   5.736   2.390
 7149TIP3    H221409   7.686   5.817   2.509
 7150TIP3   OH221410   7.172   5.577   2.862
 7150TIP3    H121411   7.223   5.568   2.946
 7150TIP3    H221412   7.117   5.496   2.866
 7151TIP3   OH221413   7.355   5.351   3.690
 7151TIP3    H121414   7.406   5.332   3.772
 7151TIP3    H221415   7.281   5.287   3.697
 7152TIP3   OH221416   7.751   4.181   3.489
 7152TIP3    H121417   7.665   4.149   3.457
 7152TIP3    H221418   7.721   4.260   3.539
 7153TIP3   OH221419   7.663   4.700   3.490
 7153TIP3    H121420   7.617   4.720   3.574
 7153TIP3    H221421   7.651   4.783   3.440
 7154TIP3   OH221422   7.571   4.571   2.998
 7154TIP3    H121423   7.477   4.550   3.021
 7154TIP3    H221424   7.581   4.522   2.915
 7155TIP3   OH221425   7.499   4.721   3.709
 7155TIP3    H121426   7.534   4.780   3.777
 7155TIP3    H221427   7.492   4.636   3.758
 7156TIP3   OH221428   7.567   4.231   2.425
 7156TIP3    H121429   7.525   4.191   2.502
 7156TIP3    H221430   7.490   4.261   2.375
 7157TIP3   OH221431   7.099   4.240   3.280
 7157TIP3    H121432   7.174   4.272   3.335
 7157TIP3    H221433   7.141   4.207   3.200
 7158TIP3   OH221434   7.073   4.222   2.802
 7158TIP3    H121435   7.116   4.260   2.722
 7158TIP3    H221436   7.010   4.294   2.822
 7159TIP3   OH221437   7.882   4.416   3.112
 7159TIP3    H121438   7.791   4.405   3.144
 7159TIP3    H221439   7.930   4.411   3.195
 7160TIP3   OH221440   7.332   4.456   3.071
 7160TIP3    H121441   7.237   4.465   3.047
 7160TIP3    H221442   7.349   4.361   3.055
 7161TIP3   OH221443   7.616   4.442   2.744
 7161TIP3    H121444   7.676   4.507   2.707
 7161TIP3    H221445   7.539   4.454   2.682
 7162TIP3   OH221446   7.438   4.486   2.551
 7162TIP3    H121447   7.366   4.439   2.506
 7162TIP3    H221448   7.490   4.516   2.474
 7163TIP3   OH221449   7.517   5.273   3.910
 7163TIP3    H121450   7.598   5.301   3.956
 7163TIP3    H221451   7.454   5.270   3.984
 7164TIP3   OH221452   7.501   4.211   3.042
 7164TIP3    H121453   7.462   4.138   3.094
 7164TIP3    H221454   7.528   4.166   2.961
 7165TIP3   OH221455   7.900   4.575   3.445
 7165TIP3    H121456   7.817   4.626   3.457
 7165TIP3    H221457   7.967   4.644   3.435
 7166TIP3   OH221458   7.693   5.010   2.570
 7166TIP3    H121459   7.618   4.951   2.548
 7166TIP3    H221460   7.667   5.049   2.656
 7167TIP3   OH221461   8.076   5.315   3.574
 7167TIP3    H121462   8.127   5.335   3.653
 7167TIP3    H221463   8.061   5.402   3.536
 7168TIP3   OH221464   7.384   5.035   3.226
 7168TIP3    H121465   7.422   5.007   3.140
 7168TIP3    H221466   7.430   4.977   3.288
 7169TIP3   OH221467   7.268   4.957   3.839
 7169TIP3    H121468   7.289   4.942   3.934
 7169TIP3    H221469   7.201   4.888   3.823
 7170TIP3   OH221470   7.990   5.069   3.865
 7170TIP3    H121471   7.942   5.000   3.816
 7170TIP3    H221472   8.084   5.044   3.848
 7171TIP3   OH221473   7.489   5.342   2.852
 7171TIP3    H121474   7.487   5.423   2.796
 7171TIP3    H221475   7.394   5.324   2.859
 7172TIP3   OH221476   7.053   4.643   2.555
 7172TIP3    H121477   7.097   4.729   2.574
 7172TIP3    H221478   6.976   4.648   2.615
 7173TIP3   OH221479   7.628   5.110   2.813
 7173TIP3    H121480   7.587   5.198   2.822
 7173TIP3    H221481   7.582   5.059   2.882
 7174TIP3   OH221482   7.755   5.677   3.319
 7174TIP3    H121483   7.796   5.747   3.263
 7174TIP3    H221484   7.833   5.649   3.371
 7175TIP3   OH221485   7.410   5.577   2.706
 7175TIP3    H121486   7.323   5.591   2.749
 7175TIP3    H221487   7.444   5.668   2.704
 7176TIP3   OH221488   7.477   4.464   3.849
 7176TIP3    H121489   7.380   4.464   3.861
 7176TIP3    H221490   7.506   4.403   3.919
 7177TIP3   OH221491   7.194   5.545   3.479
 7177TIP3    H121492   7.249   5.471   3.509
 7177TIP3    H221493   7.228   5.617   3.534
 7178TIP3   OH221494   7.487   5.187   2.162
 7178TIP3    H121495   7.502   5.094   2.136
 7178TIP3    H221496   7.469   5.178   2.257
 7179TIP3   OH221497   7.434   5.192   2.434
 7179TIP3    H121498   7.521   5.172   2.473
 7179TIP3    H221499   7.433   5.290   2.442
 7180TIP3   OH221500   7.168   4.890   2.638
 7180TIP3    H121501   7.100   4.935   2.693
 7180TIP3    H221502   7.181   4.958   2.569
 7181TIP3   OH221503   7.699   5.390   2.377
 7181TIP3    H121504   7.619   5.423   2.420
 7181TIP3    H221505   7.708   5.451   2.304
 7182TIP3   OH221506   7.437   5.462   2.453
 7182TIP3    H121507   7.418   5.533   2.387
 7182TIP3    H221508   7.429   5.511   2.537
 7183TIP3   OH221509   7.524   4.169   2.702
 7183TIP3    H121510   7.542   4.263   2.723
 7183TIP3    H221511   7.611   4.135   2.679
 7184TIP3   OH221512   7.159   5.098   2.443
 7184TIP3    H121513   7.227   5.166   2.454
 7184TIP3    H221514   7.203   5.043   2.375
 7185TIP3   OH221515   7.104   4.374   2.576
 7185TIP3    H121516   7.102   4.472   2.573
 7185TIP3    H221517   7.022   4.352   2.531
 7186TIP3   OH221518   7.485   4.095   3.448
 7186TIP3    H121519   7.455   4.058   3.362
 7186TIP3    H221520   7.476   4.019   3.508
 7187TIP3   OH221521   7.028   5.308   2.828
 7187TIP3    H121522   6.958   5.342   2.885
 7187TIP3    H221523   7.005   5.350   2.743
 7188TIP3   OH221524   7.186   5.853   3.905
 7188TIP3    H121525   7.274   5.851   3.947
 7188TIP3    H221526   7.167   5.758   3.898
 7189TIP3   OH221527   7.666   5.818   3.947
 7189TIP3    H121528   7.760   5.796   3.954
 7189TIP3    H221529   7.639   5.760   3.873
 7190TIP3   OH221530   7.656   5.380   2.073
 7190TIP3    H121531   7.584   5.327   2.115
 7190TIP3    H221532   7.728   5.317   2.079
 7191TIP3   OH221533   7.316   5.262   4.103
 7191TIP3    H121534   7.333   5.166   4.109
 7191TIP3    H221535   7.230   5.263   4.055
 7192TIP3   OH221536   7.292   4.910   2.297
 7192TIP3    H121537   7.351   4.884   2.369
 7192TIP3    H221538   7.356   4.915   2.223
 7193TIP3   OH221539   7.915   5.343   3.876
 7193TIP3    H121540   7.888   5.366   3.785
 7193TIP3    H221541   7.950   5.253   3.865
 7194TIP3   OH221542   7.438   4.996   4.081
 7194TIP3    H121543   7.513   4.940   4.059
 7194TIP3    H221544   7.464   5.028   4.170
 7195TIP3   OH221545   7.496   4.814   2.518
 7195TIP3    H121546   7.465   4.774   2.601
 7195TIP3    H221547   7.530   4.736   2.468
 7196TIP3   OH221548   7.767   4.877   3.744
 7196TIP3    H121549   7.692   4.940   3.748
 7196TIP3    H221550   7.818   4.910   3.668
 7197TIP3   OH221551   7.595   4.604   2.356
 7197TIP3    H121552   7.557   4.605   2.266
 7197TIP3    H221553   7.682   4.640   2.337
 7198TIP3   OH221554   7.861   4.658   3.878
 7198TIP3    H121555   7.872   4.578   3.822
 7198TIP3    H221556   7.823   4.722   3.814
 7199TIP3   OH221557   7.889   4.460   3.694
 7199TIP3    H121558   7.905   4.489   3.602
 7199TIP3    H221559   7.805   4.413   3.683
 7200TIP3   OH221560   7.922   4.985   3.551
 7200TIP3    H121561   7.997   5.009   3.496
 7200TIP3    H221562   7.857   5.053   3.522
 7201TIP3   OH221563   7.759   4.787   4.099
 7201TIP3    H121564   7.696   4.715   4.119
 7201TIP3    H221565   7.793   4.757   4.012
 7202TIP3   OH221566   8.126   4.744   3.890
 7202TIP3    H121567   8.170   4.683   3.952
 7202TIP3    H221568   8.034   4.711   3.893
 7203TIP3   OH221569   7.611   4.560   4.155
 7203TIP3    H121570   7.617   4.470   4.118
 7203TIP3    H221571   7.647   4.545   4.245
 7204TIP3   OH221572   7.417   5.654   2.262
 7204TIP3    H121573   7.503   5.698   2.268
 7204TIP3    H221574   7.380   5.696   2.181
 7205TIP3   OH221575   6.890   5.053   2.478
 7205TIP3    H121576   6.984   5.075   2.464
 7205TIP3    H221577   6.885   4.964   2.437
 7206TIP3   OH221578   6.805   5.665   2.892
 7206TIP3    H121579   6.739   5.603   2.854
 7206TIP3    H221580   6.850   5.607   2.957
 7207TIP3   OH221581   6.940   5.515   3.078
 7207TIP3    H121582   6.929   5.442   3.142
 7207TIP3    H221583   6.994   5.576   3.132
 7208TIP3   OH221584   7.127   4.923   3.451
 7208TIP3    H121585   7.124   4.892   3.358
 7208TIP3    H221586   7.224   4.925   3.467
 7209TIP3   OH221587   7.346   4.613   4.127
 7209TIP3    H121588   7.444   4.605   4.128
 7209TIP3    H221589   7.321   4.525   4.164
 7210TIP3   OH221590   7.302   4.303   3.454
 7210TIP3    H121591   7.364   4.227   3.465
 7210TIP3    H221592   7.366   4.377   3.452
 7211TIP3   OH221593   7.108   4.576   3.527
 7211TIP3    H121594   7.158   4.572   3.443
 7211TIP3    H221595   7.139   4.660   3.563
 7212TIP3   OH221596   7.094   4.079   3.030
 7212TIP3    H121597   7.001   4.073   3.058
 7212TIP3    H221598   7.089   4.138   2.952
 7213TIP3   OH221599   7.312   4.163   3.844
 7213TIP3    H121600   7.261   4.155   3.926
 7213TIP3    H221601   7.244   4.198   3.783
 7214TIP3   OH221602   7.351   5.591   3.920
 7214TIP3    H121603   7.260   5.560   3.902
 7214TIP3    H221604   7.364   5.565   4.012
 7215TIP3   OH221605   7.531   5.620   3.469
 7215TIP3    H121606   7.485   5.697   3.428
 7215TIP3    H221607   7.618   5.632   3.424
 7216TIP3   OH221608   7.988   5.871   3.616
 7216TIP3    H121609   8.020   5.870   3.709
 7216TIP3    H221610   8.063   5.911   3.570
 7217TIP3   OH221611   7.205   5.875   3.493
 7217TIP3    H121612   7.116   5.909   3.468
 7217TIP3    H221613   7.216   5.917   3.579
 7218TIP3   OH221614   7.443   5.853   3.351
 7218TIP3    H121615   7.355   5.867   3.393
 7218TIP3    H221616   7.427   5.886   3.260
 7219TIP3   OH221617   7.855   5.866   3.151
 7219TIP3    H121618   7.797   5.900   3.081
 7219TIP3    H221619   7.891   5.947   3.192
 7220TIP3   OH221620   7.117   5.669   3.237
 7220TIP3    H121621   7.145   5.644   3.327
 7220TIP3    H221622   7.189   5.626   3.186
 7221TIP3   OH221623   7.311   5.541   3.094
 7221TIP3    H121624   7.328   5.458   3.144
 7221TIP3    H221625   7.401   5.579   3.089
 7222TIP3   OH221626   7.574   5.636   3.101
 7222TIP3    H121627   7.608   5.546   3.087
 7222TIP3    H221628   7.625   5.660   3.181
 7223TIP3   OH221629   7.395   4.005   3.193
 7223TIP3    H121630   7.301   3.980   3.197
 7223TIP3    H221631   7.435   3.916   3.199
 7224TIP3   OH221632   7.193   3.872   2.842
 7224TIP3    H121633   7.216   3.934   2.771
 7224TIP3    H221634   7.162   3.932   2.912
 7225TIP3   OH221635   6.906   5.443   2.629
 7225TIP3    H121636   6.820   5.411   2.595
 7225TIP3    H221637   6.897   5.537   2.609
 7226TIP3   OH221638   7.298   4.030   2.612
 7226TIP3    H121639   7.346   3.967   2.555
 7226TIP3    H221640   7.370   4.080   2.654
 7227TIP3   OH221641   7.607   4.283   4.089
 7227TIP3    H121642   7.571   4.213   4.146
 7227TIP3    H221643   7.700   4.283   4.119
 7228TIP3   OH221644   7.853   4.284   4.218
 7228TIP3    H121645   7.938   4.265   4.177
 7228TIP3    H221646   7.847   4.214   4.287
 7229TIP3   OH221647   6.980   5.465   2.267
 7229TIP3    H121648   6.985   5.492   2.359
 7229TIP3    H221649   7.069   5.425   2.252
 7230TIP3   OH221650   0.589   5.806   4.464
 7230TIP3    H121651   0.527   5.883   4.453
 7230TIP3    H221652   0.522   5.737   4.476
 7231TIP3   OH221653   0.554   5.781   4.826
 7231TIP3    H121654   0.563   5.785   4.923
 7231TIP3    H221655   0.486   5.713   4.817
 7232TIP3   OH221656   1.360   5.342   4.887
 7232TIP3    H121657   1.387   5.425   4.931
 7232TIP3    H221658   1.375   5.365   4.794
 7233TIP3   OH221659   0.756   5.527   4.914
 7233TIP3    H121660   0.797   5.441   4.937
 7233TIP3    H221661   0.741   5.515   4.818
 7234TIP3   OH221662   0.791   5.276   4.506
 7234TIP3    H121663   0.860   5.257   4.574
 7234TIP3    H221664   0.847   5.310   4.435
 7235TIP3   OH221665   1.430   5.548   5.060
 7235TIP3    H121666   1.348   5.596   5.038
 7235TIP3    H221667   1.453   5.587   5.146
 7236TIP3   OH221668   0.479   6.020   4.323
 7236TIP3    H121669   0.411   5.982   4.268
 7236TIP3    H221670   0.440   6.105   4.350
 7237TIP3   OH221671   0.998   5.277   4.681
 7237TIP3    H121672   0.982   5.236   4.767
 7237TIP3    H221673   1.044   5.359   4.706
 7238TIP3   OH221674   0.857   6.348   4.697
 7238TIP3    H121675   0.763   6.338   4.720
 7238TIP3    H221676   0.856   6.432   4.647
 7239TIP3   OH221677   1.151   5.240   5.051
 7239TIP3    H121678   1.063   5.270   5.021
 7239TIP3    H221679   1.210   5.275   4.981
 7240TIP3   OH221680   0.482   4.874   5.024
 7240TIP3    H121681   0.468   4.779   5.040
 7240TIP3    H221682   0.390   4.902   5.037
 7241TIP3   OH221683   0.553   6.378   4.347
 7241TIP3    H121684   0.614   6.313   4.309
 7241TIP3    H221685   0.604   6.460   4.331
 7242TIP3   OH221686   0.715   6.177   4.253
 7242TIP3    H121687   0.667   6.104   4.211
 7242TIP3    H221688   0.726   6.147   4.342
 7243TIP3   OH221689   1.088   6.255   5.035
 7243TIP3    H121690   1.083   6.180   4.973
 7243TIP3    H221691   1.072   6.332   4.976
 7244TIP3   OH221692   0.384   5.659   4.283
 7244TIP3    H121693   0.308   5.710   4.253
 7244TIP3    H221694   0.431   5.640   4.199
 7245TIP3   OH221695   0.349   5.436   4.026
 7245TIP3    H121696   0.428   5.486   4.053
 7245TIP3    H221697   0.390   5.367   3.971
 7246TIP3   OH221698   1.280   5.877   4.873
 7246TIP3    H121699   1.208   5.942   4.883
 7246TIP3    H221700   1.318   5.907   4.787
 7247TIP3   OH221701   0.749   5.723   4.263
 7247TIP3    H121702   0.677   5.743   4.326
 7247TIP3    H221703   0.782   5.638   4.295
 7248TIP3   OH221704   0.963   5.771   5.178
 7248TIP3    H121705   0.961   5.853   5.231
 7248TIP3    H221706   0.871   5.770   5.143
 7249TIP3   OH221707   0.616   6.334   4.825
 7249TIP3    H121708   0.650   6.398   4.888
 7249TIP3    H221709   0.638   6.251   4.872
 7250TIP3   OH221710   0.570   5.600   4.087
 7250TIP3    H121711   0.637   5.660   4.123
 7250TIP3    H221712   0.587   5.613   3.990
 7251TIP3   OH221713   1.081   4.828   4.135
 7251TIP3    H121714   1.000   4.848   4.187
 7251TIP3    H221715   1.095   4.913   4.088
 7252TIP3   OH221716   0.880   6.196   3.683
 7252TIP3    H121717   0.888   6.293   3.669
 7252TIP3    H221718   0.973   6.168   3.672
 7253TIP3   OH221719   1.319   6.603   5.074
 7253TIP3    H121720   1.325   6.506   5.087
 7253TIP3    H221721   1.239   6.624   5.126
 7254TIP3   OH221722   0.396   6.419   3.792
 7254TIP3    H121723   0.454   6.346   3.762
 7254TIP3    H221724   0.417   6.425   3.887
 7255TIP3   OH221725   0.454   6.458   4.068
 7255TIP3    H121726   0.357   6.474   4.079
 7255TIP3    H221727   0.482   6.441   4.159
 7256TIP3   OH221728   1.207   5.724   5.355
 7256TIP3    H121729   1.128   5.739   5.302
 7256TIP3    H221730   1.222   5.628   5.343
 7257TIP3   OH221731   0.745   5.078   5.359
 7257TIP3    H121732   0.810   5.048   5.426
 7257TIP3    H221733   0.659   5.060   5.402
 7258TIP3   OH221734   0.978   5.503   5.273
 7258TIP3    H121735   0.929   5.500   5.359
 7258TIP3    H221736   0.956   5.593   5.241
 7259TIP3   OH221737   0.649   5.635   3.837
 7259TIP3    H121738   0.608   5.610   3.751
 7259TIP3    H221739   0.730   5.681   3.806
 7260TIP3   OH221740   0.337   5.012   4.123
 7260TIP3    H121741   0.314   5.013   4.219
 7260TIP3    H221742   0.308   4.922   4.101
 7261TIP3   OH221743   0.530   5.470   4.417
 7261TIP3    H121744   0.465   5.527   4.371
 7261TIP3    H221745   0.577   5.428   4.342
 7262TIP3   OH221746   0.705   5.735   5.506
 7262TIP3    H121747   0.668   5.670   5.569
 7262TIP3    H221748   0.797   5.742   5.538
 7263TIP3   OH221749   0.668   5.477   4.656
 7263TIP3    H121750   0.602   5.484   4.585
 7263TIP3    H221751   0.718   5.400   4.622
 7264TIP3   OH221752   0.702   5.736   5.076
 7264TIP3    H121753   0.720   5.653   5.027
 7264TIP3    H221754   0.656   5.698   5.155
 7265TIP3   OH221755   0.376   5.114   4.782
 7265TIP3    H121756   0.308   5.178   4.758
 7265TIP3    H221757   0.442   5.168   4.827
 7266TIP3   OH221758   0.846   5.264   4.959
 7266TIP3    H121759   0.813   5.276   5.051
 7266TIP3    H221760   0.779   5.199   4.928
 7267TIP3   OH221761   1.014   6.950   5.178
 7267TIP3    H121762   1.013   6.973   5.084
 7267TIP3    H221763   1.094   6.997   5.210
 7268TIP3   OH221764   0.450   5.472   4.837
 7268TIP3    H121765   0.539   5.472   4.798
 7268TIP3    H221766   0.464   5.502   4.927
 7269TIP3   OH221767   1.054   6.044   4.863
 7269TIP3    H121768   1.088   6.090   4.782
 7269TIP3    H221769   0.961   6.034   4.842
 7270TIP3   OH221770   0.597   5.117   4.099
 7270TIP3    H121771   0.500   5.101   4.108
 7270TIP3    H221772   0.607   5.209   4.131
 7271TIP3   OH221773   0.672   5.364   4.207
 7271TIP3    H121774   0.768   5.354   4.222
 7271TIP3    H221775   0.667   5.436   4.142
 7272TIP3   OH221776   0.700   6.408   5.116
 7272TIP3    H121777   0.613   6.379   5.146
 7272TIP3    H221778   0.739   6.438   5.202
 7273TIP3   OH221779   1.114   5.456   4.041
 7273TIP3    H121780   1.052   5.409   3.981
 7273TIP3    H221781   1.110   5.544   3.996
 7274TIP3   OH221782   1.343   6.313   5.116
 7274TIP3    H121783   1.247   6.301   5.099
 7274TIP3    H221784   1.382   6.258   5.045
 7275TIP3   OH221785   0.821   6.272   3.948
 7275TIP3    H121786   0.790   6.204   4.009
 7275TIP3    H221787   0.831   6.224   3.863
 7276TIP3   OH221788   0.806   5.855   4.769
 7276TIP3    H121789   0.715   5.826   4.794
 7276TIP3    H221790   0.858   5.807   4.836
 7277TIP3   OH221791   0.677   6.114   4.972
 7277TIP3    H121792   0.673   6.095   5.067
 7277TIP3    H221793   0.709   6.031   4.937
 7278TIP3   OH221794   0.575   5.993   3.844
 7278TIP3    H121795   0.618   5.970   3.929
 7278TIP3    H221796   0.484   5.960   3.859
 7279TIP3   OH221797   0.863   6.633   5.012
 7279TIP3    H121798   0.781   6.599   5.050
 7279TIP3    H221799   0.831   6.704   4.953
 7280TIP3   OH221800   0.912   6.472   3.671
 7280TIP3    H121801   0.951   6.548   3.624
 7280TIP3    H221802   0.829   6.515   3.702
 7281TIP3   OH221803   0.733   5.930   4.073
 7281TIP3    H121804   0.740   5.860   4.140
 7281TIP3    H221805   0.828   5.937   4.047
 7282TIP3   OH221806   0.765   5.311   5.217
 7282TIP3    H121807   0.843   5.354   5.254
 7282TIP3    H221808   0.759   5.229   5.271
 7283TIP3   OH221809   0.674   5.053   4.377
 7283TIP3    H121810   0.641   5.082   4.290
 7283TIP3    H221811   0.699   5.138   4.419
 7284TIP3   OH221812   0.414   5.211   4.436
 7284TIP3    H121813   0.466   5.293   4.428
 7284TIP3    H221814   0.348   5.240   4.503
 7285TIP3   OH221815   0.624   5.584   5.288
 7285TIP3    H121816   0.640   5.639   5.368
 7285TIP3    H221817   0.667   5.501   5.312
 7286TIP3   OH221818   0.485   4.959   4.584
 7286TIP3    H121819   0.464   5.025   4.654
 7286TIP3    H221820   0.537   5.013   4.521
 7287TIP3   OH221821   1.246   5.460   5.277
 7287TIP3    H121822   1.148   5.456   5.281
 7287TIP3    H221823   1.262   5.431   5.187
 7288TIP3   OH221824   0.864   6.610   4.606
 7288TIP3    H121825   0.821   6.661   4.534
 7288TIP3    H221826   0.958   6.633   4.589
 7289TIP3   OH221827   0.756   6.510   5.369
 7289TIP3    H121828   0.765   6.434   5.429
 7289TIP3    H221829   0.830   6.568   5.398
 7290TIP3   OH221830   0.536   6.214   3.670
 7290TIP3    H121831   0.584   6.154   3.730
 7290TIP3    H221832   0.593   6.216   3.591
 7291TIP3   OH221833   0.316   5.901   3.890
 7291TIP3    H121834   0.220   5.915   3.881
 7291TIP3    H221835   0.320   5.805   3.871
 7292TIP3   OH221836   0.880   6.146   5.181
 7292TIP3    H121837   0.960   6.185   5.140
 7292TIP3    H221838   0.815   6.216   5.162
 7293TIP3   OH221839   0.772   6.082   5.575
 7293TIP3    H121840   0.833   6.031   5.521
 7293TIP3    H221841   0.741   6.015   5.639
 7294TIP3   OH221842   0.877   5.727   3.711
 7294TIP3    H121843   0.858   5.682   3.627
 7294TIP3    H221844   0.845   5.817   3.688
 7295TIP3   OH221845   0.960   5.744   5.623
 7295TIP3    H121846   1.011   5.663   5.635
 7295TIP3    H221847   1.025   5.803   5.583
 7296TIP3   OH221848   1.005   5.993   5.365
 7296TIP3    H121849   0.949   6.051   5.308
 7296TIP3    H221850   1.093   6.013   5.326
 7297TIP3   OH221851   0.478   5.029   5.426
 7297TIP3    H121852   0.430   5.112   5.406
 7297TIP3    H221853   0.404   4.969   5.442
 7298TIP3   OH221854   0.615   5.529   5.659
 7298TIP3    H121855   0.649   5.510   5.748
 7298TIP3    H221856   0.543   5.462   5.650
 7299TIP3   OH221857   0.848   5.455   5.504
 7299TIP3    H121858   0.776   5.468   5.568
 7299TIP3    H221859   0.922   5.427   5.560
 7300TIP3   OH221860   1.075   5.399   5.657
 7300TIP3    H121861   1.088   5.304   5.675
 7300TIP3    H221862   1.071   5.439   5.746
 7301TIP3   OH221863   0.617   5.026   5.668
 7301TIP3    H121864   0.667   4.942   5.663
 7301TIP3    H221865   0.559   5.019   5.590
 7302TIP3   OH221866   0.606   5.230   5.842
 7302TIP3    H121867   0.622   5.153   5.782
 7302TIP3    H221868   0.535   5.272   5.790
 7303TIP3   OH221869   1.116   6.707   4.569
 7303TIP3    H121870   1.145   6.736   4.658
 7303TIP3    H221871   1.182   6.748   4.512
 7304TIP3   OH221872   1.154   6.723   4.850
 7304TIP3    H121873   1.111   6.635   4.846
 7304TIP3    H221874   1.229   6.701   4.908
 7305TIP3   OH221875   1.199   6.400   5.421
 7305TIP3    H121876   1.127   6.411   5.487
 7305TIP3    H221877   1.240   6.489   5.422
 7306TIP3   OH221878   1.010   5.915   4.045
 7306TIP3    H121879   1.078   5.978   4.014
 7306TIP3    H221880   1.051   5.881   4.128
 7307TIP3   OH221881   1.127   5.791   4.267
 7307TIP3    H121882   1.121   5.720   4.333
 7307TIP3    H221883   1.214   5.829   4.290
 7308TIP3   OH221884   1.165   6.157   4.647
 7308TIP3    H121885   1.252   6.116   4.638
 7308TIP3    H221886   1.178   6.243   4.603
 7309TIP3   OH221887   1.033   6.471   4.873
 7309TIP3    H121888   0.966   6.522   4.922
 7309TIP3    H221889   0.978   6.426   4.804
 7310TIP3   OH221890   1.077   5.690   3.895
 7310TIP3    H121891   1.007   5.691   3.825
 7310TIP3    H221892   1.049   5.767   3.948
 7311TIP3   OH221893   0.946   5.363   3.849
 7311TIP3    H121894   0.907   5.400   3.770
 7311TIP3    H221895   0.923   5.268   3.839
 7312TIP3   OH221896   1.245   6.060   5.251
 7312TIP3    H121897   1.319   5.997   5.244
 7312TIP3    H221898   1.272   6.125   5.184
 7313TIP3   OH221899   1.430   5.867   5.311
 7313TIP3    H121900   1.351   5.812   5.328
 7313TIP3    H221901   1.499   5.798   5.299
 7314TIP3   OH221902   0.892   5.096   3.832
 7314TIP3    H121903   0.968   5.067   3.887
 7314TIP3    H221904   0.820   5.036   3.857
 7315TIP3   OH221905   0.941   5.347   4.274
 7315TIP3    H121906   0.984   5.260   4.294
 7315TIP3    H221907   1.009   5.385   4.216
 7316TIP3   OH221908   1.112   5.524   4.778
 7316TIP3    H121909   1.196   5.553   4.738
 7316TIP3    H221910   1.120   5.565   4.866
 7317TIP3   OH221911   1.180   5.667   5.014
 7317TIP3    H121912   1.106   5.706   5.065
 7317TIP3    H221913   1.215   5.746   4.967
 7318TIP3   OH221914   1.633   5.264   5.571
 7318TIP3    H121915   1.693   5.199   5.528
 7318TIP3    H221916   1.602   5.317   5.495
 7319TIP3   OH221917   1.058   5.105   4.326
 7319TIP3    H121918   1.106   5.091   4.410
 7319TIP3    H221919   0.998   5.028   4.325
 7320TIP3   OH221920   1.502   5.401   5.378
 7320TIP3    H121921   1.417   5.445   5.400
 7320TIP3    H221922   1.468   5.331   5.318
 7321TIP3   OH221923   1.138   5.039   3.958
 7321TIP3    H121924   1.180   4.968   3.906
 7321TIP3    H221925   1.206   5.109   3.956
 7322TIP3   OH221926   0.711   6.565   4.233
 7322TIP3    H121927   0.756   6.553   4.146
 7322TIP3    H221928   0.760   6.640   4.269
 7323TIP3   OH221929   1.402   5.166   5.254
 7323TIP3    H121930   1.311   5.163   5.219
 7323TIP3    H221931   1.431   5.073   5.243
 7324TIP3   OH221932   0.815   6.811   4.805
 7324TIP3    H121933   0.789   6.890   4.752
 7324TIP3    H221934   0.829   6.744   4.735
 7325TIP3   OH221935   0.642   5.084   4.894
 7325TIP3    H121936   0.583   5.014   4.930
 7325TIP3    H221937   0.703   5.032   4.839
 7326TIP3   OH221938   1.132   4.956   4.776
 7326TIP3    H121939   1.167   5.012   4.703
 7326TIP3    H221940   1.037   4.975   4.772
 7327TIP3   OH221941   1.226   5.059   4.540
 7327TIP3    H121942   1.301   5.011   4.500
 7327TIP3    H221943   1.257   5.152   4.528
 7328TIP3   OH221944   0.305   4.808   4.761
 7328TIP3    H121945   0.356   4.874   4.712
 7328TIP3    H221946   0.304   4.847   4.850
 7329TIP3   OH221947   0.854   4.964   4.748
 7329TIP3    H121948   0.840   4.925   4.661
 7329TIP3    H221949   0.837   4.887   4.807
 7330TIP3   OH221950   0.881   4.887   4.315
 7330TIP3    H121951   0.800   4.939   4.335
 7330TIP3    H221952   0.860   4.804   4.362
 7331TIP3   OH221953   0.264   4.986   4.387
 7331TIP3    H121954   0.304   4.932   4.457
 7331TIP3    H221955   0.310   5.071   4.404
 7332TIP3   OH221956   0.849   6.539   3.992
 7332TIP3    H121957   0.841   6.441   3.982
 7332TIP3    H221958   0.803   6.569   3.912
 7333TIP3   OH221959   1.138   5.128   5.688
 7333TIP3    H121960   1.157   5.098   5.780
 7333TIP3    H221961   1.227   5.124   5.648
 7334TIP3   OH221962   1.077   6.682   5.183
 7334TIP3    H121963   1.005   6.652   5.124
 7334TIP3    H221964   1.057   6.778   5.188
 7335TIP3   OH221965   2.343   6.052   3.945
 7335TIP3    H121966   2.315   6.144   3.927
 7335TIP3    H221967   2.264   6.004   3.915
 7336TIP3   OH221968   2.345   6.052   4.326
 7336TIP3    H121969   2.375   6.027   4.415
 7336TIP3    H221970   2.299   5.972   4.296
 7337TIP3   OH221971   2.586   6.356   4.009
 7337TIP3    H121972   2.570   6.288   4.077
 7337TIP3    H221973   2.614   6.432   4.063
 7338TIP3   OH221974   1.608   6.358   4.408
 7338TIP3    H121975   1.589   6.283   4.469
 7338TIP3    H221976   1.704   6.363   4.415
 7339TIP3   OH221977   1.320   5.548   4.200
 7339TIP3    H121978   1.295   5.641   4.210
 7339TIP3    H221979   1.242   5.510   4.155
 7340TIP3   OH221980   1.382   5.840   4.344
 7340TIP3    H121981   1.428   5.771   4.396
 7340TIP3    H221982   1.454   5.907   4.337
 7341TIP3   OH221983   2.233   6.818   4.024
 7341TIP3    H121984   2.280   6.746   3.976
 7341TIP3    H221985   2.226   6.782   4.113
 7342TIP3   OH221986   2.140   6.281   4.373
 7342TIP3    H121987   2.179   6.204   4.328
 7342TIP3    H221988   2.224   6.326   4.399
 7343TIP3   OH221989   3.154   5.599   4.374
 7343TIP3    H121990   3.183   5.682   4.417
 7343TIP3    H221991   3.175   5.617   4.281
 7344TIP3   OH221992   2.553   5.780   4.408
 7344TIP3    H121993   2.595   5.694   4.428
 7344TIP3    H221994   2.521   5.764   4.317
 7345TIP3   OH221995   1.892   5.439   4.373
 7345TIP3    H121996   1.872   5.513   4.312
 7345TIP3    H221997   1.842   5.367   4.329
 7346TIP3   OH221998   2.586   5.531   3.994
 7346TIP3    H121999   2.657   5.515   4.061
 7346TIP3    H222000   2.639   5.567   3.921
 7347TIP3   OH222001   1.522   5.642   4.479
 7347TIP3    H122002   1.605   5.629   4.528
 7347TIP3    H222003   1.540   5.589   4.399
 7348TIP3   OH222004   1.969   5.839   4.264
 7348TIP3    H122005   2.061   5.812   4.284
 7348TIP3    H222006   1.928   5.754   4.238
 7349TIP3   OH222007   3.227   5.807   4.545
 7349TIP3    H122008   3.144   5.854   4.524
 7349TIP3    H222009   3.244   5.839   4.634
 7350TIP3   OH222010   1.886   5.423   4.809
 7350TIP3    H122011   1.828   5.464   4.741
 7350TIP3    H222012   1.834   5.443   4.890
 7351TIP3   OH222013   2.235   6.276   3.814
 7351TIP3    H122014   2.190   6.258   3.731
 7351TIP3    H222015   2.191   6.358   3.842
 7352TIP3   OH222016   1.993   6.195   4.605
 7352TIP3    H122017   1.930   6.257   4.647
 7352TIP3    H222018   2.030   6.251   4.534
 7353TIP3   OH222019   2.795   5.533   4.168
 7353TIP3    H122020   2.780   5.491   4.254
 7353TIP3    H222021   2.847   5.612   4.194
 7354TIP3   OH222022   1.758   5.539   4.592
 7354TIP3    H122023   1.818   5.613   4.617
 7354TIP3    H222024   1.809   5.501   4.517
 7355TIP3   OH222025   1.827   6.390   4.707
 7355TIP3    H122026   1.784   6.475   4.686
 7355TIP3    H222027   1.750   6.330   4.712
 7356TIP3   OH222028   1.212   6.082   3.936
 7356TIP3    H122029   1.175   6.113   3.852
 7356TIP3    H222030   1.246   6.166   3.975
 7357TIP3   OH222031   2.656   6.599   4.175
 7357TIP3    H122032   2.566   6.590   4.215
 7357TIP3    H222033   2.647   6.686   4.130
 7358TIP3   OH222034   2.947   5.497   4.539
 7358TIP3    H122035   2.860   5.527   4.508
 7358TIP3    H222036   3.007   5.531   4.469
 7359TIP3   OH222037   2.244   5.144   4.520
 7359TIP3    H122038   2.227   5.049   4.537
 7359TIP3    H222039   2.167   5.184   4.566
 7360TIP3   OH222040   2.358   6.643   3.850
 7360TIP3    H122041   2.408   6.561   3.830
 7360TIP3    H222042   2.419   6.709   3.810
 7361TIP3   OH222043   2.502   6.429   3.757
 7361TIP3    H122044   2.458   6.350   3.721
 7361TIP3    H222045   2.538   6.394   3.842
 7362TIP3   OH222046   2.882   6.511   4.521
 7362TIP3    H122047   2.869   6.434   4.461
 7362TIP3    H222048   2.863   6.586   4.460
 7363TIP3   OH222049   2.172   5.903   3.777
 7363TIP3    H122050   2.093   5.957   3.757
 7363TIP3    H222051   2.218   5.903   3.692
 7364TIP3   OH222052   2.131   5.690   3.492
 7364TIP3    H122053   2.197   5.742   3.542
 7364TIP3    H222054   2.191   5.628   3.445
 7365TIP3   OH222055   3.076   6.148   4.365
 7365TIP3    H122056   2.993   6.200   4.370
 7365TIP3    H222057   3.107   6.173   4.275
 7366TIP3   OH222058   2.521   5.987   3.748
 7366TIP3    H122059   2.466   6.011   3.826
 7366TIP3    H222060   2.605   5.964   3.792
 7367TIP3   OH222061   2.755   6.026   4.662
 7367TIP3    H122062   2.752   6.110   4.711
 7367TIP3    H222063   2.668   6.030   4.617
 7368TIP3   OH222064   1.764   5.989   4.157
 7368TIP3    H122065   1.718   5.928   4.096
 7368TIP3    H222066   1.838   5.933   4.190
 7369TIP3   OH222067   1.889   6.402   4.312
 7369TIP3    H122068   1.864   6.357   4.230
 7369TIP3    H222069   1.978   6.365   4.329
 7370TIP3   OH222070   1.894   5.951   4.518
 7370TIP3    H122071   1.924   5.942   4.427
 7370TIP3    H222072   1.923   6.041   4.544
 7371TIP3   OH222073   2.415   6.594   4.297
 7371TIP3    H122074   2.401   6.675   4.349
 7371TIP3    H222075   2.398   6.522   4.361
 7372TIP3   OH222076   2.030   6.515   4.847
 7372TIP3    H122077   1.968   6.576   4.893
 7372TIP3    H222078   1.965   6.461   4.798
 7373TIP3   OH222079   2.361   5.845   3.575
 7373TIP3    H122080   2.419   5.906   3.625
 7373TIP3    H222081   2.387   5.868   3.482
 7374TIP3   OH222082   2.105   6.524   3.848
 7374TIP3    H122083   2.185   6.577   3.865
 7374TIP3    H222084   2.044   6.589   3.811
 7375TIP3   OH222085   1.822   6.683   4.932
 7375TIP3    H122086   1.785   6.681   4.841
 7375TIP3    H222087   1.743   6.661   4.986
 7376TIP3   OH222088   2.876   5.086   3.623
 7376TIP3    H122089   2.795   5.108   3.673
 7376TIP3    H222090   2.892   5.169   3.574
 7377TIP3   OH222091   1.623   5.825   3.962
 7377TIP3    H122092   1.553   5.871   3.912
 7377TIP3    H222093   1.579   5.743   3.987
 7378TIP3   OH222094   2.676   6.453   3.171
 7378TIP3    H122095   2.684   6.550   3.157
 7378TIP3    H222096   2.769   6.424   3.159
 7379TIP3   OH222097   1.252   6.403   4.514
 7379TIP3    H122098   1.348   6.387   4.508
 7379TIP3    H222099   1.251   6.483   4.569
 7380TIP3   OH222100   3.119   6.857   4.568
 7380TIP3    H122101   3.117   6.761   4.581
 7380TIP3    H222102   3.036   6.883   4.613
 7381TIP3   OH222103   2.225   6.641   4.702
 7381TIP3    H122104   2.223   6.734   4.733
 7381TIP3    H222105   2.153   6.602   4.756
 7382TIP3   OH222106   1.985   6.769   3.654
 7382TIP3    H122107   1.940   6.757   3.568
 7382TIP3    H222108   1.957   6.858   3.681
 7383TIP3   OH222109   1.423   6.618   4.039
 7383TIP3    H122110   1.474   6.612   4.122
 7383TIP3    H222111   1.364   6.542   4.049
 7384TIP3   OH222112   2.185   6.672   3.292
 7384TIP3    H122113   2.245   6.603   3.256
 7384TIP3    H222114   2.220   6.683   3.383
 7385TIP3   OH222115   2.237   6.720   3.562
 7385TIP3    H122116   2.149   6.729   3.605
 7385TIP3    H222117   2.289   6.683   3.635
 7386TIP3   OH222118   3.008   5.986   4.842
 7386TIP3    H122119   2.926   5.999   4.792
 7386TIP3    H222120   3.023   5.890   4.830
 7387TIP3   OH222121   1.578   6.402   4.893
 7387TIP3    H122122   1.651   6.382   4.955
 7387TIP3    H222123   1.576   6.320   4.838
 7388TIP3   OH222124   2.006   5.217   4.652
 7388TIP3    H122125   1.916   5.189   4.624
 7388TIP3    H222126   1.982   5.301   4.697
 7389TIP3   OH222127   2.539   5.332   4.845
 7389TIP3    H122128   2.608   5.306   4.910
 7389TIP3    H222129   2.456   5.314   4.893
 7390TIP3   OH222130   2.776   5.763   4.763
 7390TIP3    H122131   2.725   5.760   4.847
 7390TIP3    H222132   2.753   5.850   4.727
 7391TIP3   OH222133   2.437   5.890   3.319
 7391TIP3    H122134   2.403   5.867   3.230
 7391TIP3    H222135   2.518   5.939   3.295
 7392TIP3   OH222136   2.148   5.267   3.622
 7392TIP3    H122137   2.116   5.263   3.714
 7392TIP3    H222138   2.110   5.184   3.588
 7393TIP3   OH222139   1.940   5.732   4.667
 7393TIP3    H122140   1.887   5.749   4.748
 7393TIP3    H222141   1.920   5.814   4.615
 7394TIP3   OH222142   1.822   5.618   4.183
 7394TIP3    H122143   1.728   5.596   4.202
 7394TIP3    H222144   1.832   5.577   4.094
 7395TIP3   OH222145   2.310   5.704   3.910
 7395TIP3    H122146   2.258   5.776   3.869
 7395TIP3    H222147   2.365   5.674   3.835
 7396TIP3   OH222148   2.486   5.983   4.996
 7396TIP3    H122149   2.464   5.911   5.059
 7396TIP3    H222150   2.579   5.998   5.018
 7397TIP3   OH222151   2.467   5.733   4.150
 7397TIP3    H122152   2.406   5.765   4.080
 7397TIP3    H222153   2.500   5.653   4.105
 7398TIP3   OH222154   1.774   5.740   4.882
 7398TIP3    H122155   1.743   5.819   4.928
 7398TIP3    H222156   1.754   5.668   4.944
 7399TIP3   OH222157   1.803   5.239   3.587
 7399TIP3    H122158   1.796   5.240   3.684
 7399TIP3    H222159   1.727   5.295   3.562
 7400TIP3   OH222160   1.350   5.282   4.457
 7400TIP3    H122161   1.421   5.319   4.514
 7400TIP3    H222162   1.397   5.258   4.376
 7401TIP3   OH222163   1.318   5.265   3.978
 7401TIP3    H122164   1.364   5.302   3.900
 7401TIP3    H222165   1.260   5.340   3.999
 7402TIP3   OH222166   2.478   5.980   4.572
 7402TIP3    H122167   2.511   5.908   4.513
 7402TIP3    H222168   2.447   5.927   4.648
 7403TIP3   OH222169   2.149   5.440   4.243
 7403TIP3    H122170   2.066   5.439   4.294
 7403TIP3    H222171   2.216   5.443   4.313
 7404TIP3   OH222172   1.582   5.498   4.252
 7404TIP3    H122173   1.487   5.502   4.226
 7404TIP3    H222174   1.607   5.407   4.228
 7405TIP3   OH222175   1.850   5.491   3.941
 7405TIP3    H122176   1.944   5.509   3.920
 7405TIP3    H222177   1.803   5.515   3.858
 7406TIP3   OH222178   2.640   5.517   4.444
 7406TIP3    H122179   2.608   5.531   4.536
 7406TIP3    H222180   2.570   5.458   4.410
 7407TIP3   OH222181   1.694   5.526   3.718
 7407TIP3    H122182   1.623   5.483   3.667
 7407TIP3    H222183   1.746   5.565   3.645
 7408TIP3   OH222184   2.810   7.206   4.666
 7408TIP3    H122185   2.806   7.231   4.572
 7408TIP3    H222186   2.889   7.256   4.696
 7409TIP3   OH222187   1.769   6.342   5.090
 7409TIP3    H122188   1.849   6.359   5.144
 7409TIP3    H222189   1.703   6.322   5.159
 7410TIP3   OH222190   2.230   5.769   4.341
 7410TIP3    H122191   2.306   5.733   4.293
 7410TIP3    H222192   2.238   5.727   4.429
 7411TIP3   OH222193   1.750   5.259   4.220
 7411TIP3    H122194   1.720   5.179   4.267
 7411TIP3    H222195   1.810   5.222   4.154
 7412TIP3   OH222196   2.207   5.666   4.634
 7412TIP3    H122197   2.116   5.703   4.644
 7412TIP3    H222198   2.262   5.731   4.682
 7413TIP3   OH222199   1.944   6.056   3.724
 7413TIP3    H122200   1.870   5.992   3.715
 7413TIP3    H222201   1.926   6.092   3.814
 7414TIP3   OH222202   2.844   6.293   4.355
 7414TIP3    H122203   2.867   6.345   4.275
 7414TIP3    H222204   2.758   6.252   4.329
 7415TIP3   OH222205   2.401   5.369   3.589
 7415TIP3    H122206   2.304   5.353   3.597
 7415TIP3    H222207   2.411   5.463   3.613
 7416TIP3   OH222208   2.345   6.378   4.723
 7416TIP3    H122209   2.364   6.356   4.814
 7416TIP3    H222210   2.304   6.466   4.729
 7417TIP3   OH222211   2.471   5.617   3.692
 7417TIP3    H122212   2.567   5.625   3.709
 7417TIP3    H222213   2.452   5.699   3.641
 7418TIP3   OH222214   1.597   6.013   4.387
 7418TIP3    H122215   1.665   6.026   4.318
 7418TIP3    H222216   1.642   6.046   4.467
 7419TIP3   OH222217   2.088   6.206   3.546
 7419TIP3    H122218   2.040   6.292   3.551
 7419TIP3    H222219   2.034   6.152   3.608
 7420TIP3   OH222220   1.456   6.041   5.063
 7420TIP3    H122221   1.530   6.012   5.119
 7420TIP3    H222222   1.446   5.969   4.999
 7421TIP3   OH222223   2.244   6.114   5.034
 7421TIP3    H122224   2.184   6.055   4.986
 7421TIP3    H222225   2.331   6.080   5.006
 7422TIP3   OH222226   2.503   6.635   4.620
 7422TIP3    H122227   2.407   6.633   4.633
 7422TIP3    H222228   2.531   6.688   4.697
 7423TIP3   OH222229   2.912   5.709   3.529
 7423TIP3    H122230   2.850   5.665   3.466
 7423TIP3    H222231   2.909   5.799   3.489
 7424TIP3   OH222232   3.132   6.566   4.609
 7424TIP3    H122233   3.034   6.561   4.600
 7424TIP3    H222234   3.158   6.536   4.519
 7425TIP3   OH222235   2.613   6.527   3.436
 7425TIP3    H122236   2.587   6.458   3.499
 7425TIP3    H222237   2.626   6.479   3.353
 7426TIP3   OH222238   2.610   6.156   4.274
 7426TIP3    H122239   2.516   6.132   4.287
 7426TIP3    H222240   2.642   6.076   4.228
 7427TIP3   OH222241   1.737   6.383   4.022
 7427TIP3    H122242   1.734   6.465   3.970
 7427TIP3    H222243   1.645   6.370   4.044
 7428TIP3   OH222244   1.302   5.688   3.731
 7428TIP3    H122245   1.347   5.772   3.752
 7428TIP3    H222246   1.225   5.693   3.792
 7429TIP3   OH222247   1.878   6.152   3.966
 7429TIP3    H122248   1.840   6.239   3.986
 7429TIP3    H222249   1.843   6.098   4.040
 7430TIP3   OH222250   2.005   6.729   4.495
 7430TIP3    H122251   2.048   6.801   4.445
 7430TIP3    H222252   2.080   6.691   4.543
 7431TIP3   OH222253   1.655   6.624   3.877
 7431TIP3    H122254   1.571   6.632   3.926
 7431TIP3    H222255   1.688   6.717   3.881
 7432TIP3   OH222256   2.393   6.360   4.455
 7432TIP3    H122257   2.383   6.360   4.553
 7432TIP3    H222258   2.475   6.309   4.444
 7433TIP3   OH222259   2.369   6.254   3.338
 7433TIP3    H122260   2.423   6.228   3.417
 7433TIP3    H222261   2.281   6.229   3.368
 7434TIP3   OH222262   2.643   6.894   4.505
 7434TIP3    H122263   2.562   6.839   4.497
 7434TIP3    H222264   2.627   6.959   4.432
 7435TIP3   OH222265   2.709   6.728   3.158
 7435TIP3    H122266   2.746   6.801   3.106
 7435TIP3    H222267   2.628   6.773   3.191
 7436TIP3   OH222268   1.726   5.499   5.029
 7436TIP3    H122269   1.629   5.503   5.042
 7436TIP3    H222270   1.754   5.441   5.102
 7437TIP3   OH222271   2.530   6.186   3.552
 7437TIP3    H122272   2.520   6.122   3.626
 7437TIP3    H222273   2.627   6.184   3.542
 7438TIP3   OH222274   1.444   6.585   4.655
 7438TIP3    H122275   1.490   6.508   4.692
 7438TIP3    H222276   1.472   6.654   4.716
 7439TIP3   OH222277   1.733   6.235   3.338
 7439TIP3    H122278   1.749   6.143   3.311
 7439TIP3    H222279   1.715   6.225   3.433
 7440TIP3   OH222280   1.679   6.240   3.611
 7440TIP3    H122281   1.752   6.214   3.669
 7440TIP3    H222282   1.683   6.338   3.617
 7441TIP3   OH222283   1.412   5.933   3.814
 7441TIP3    H122284   1.348   5.979   3.871
 7441TIP3    H222285   1.429   6.002   3.747
 7442TIP3   OH222286   2.568   5.567   4.703
 7442TIP3    H122287   2.646   5.609   4.745
 7442TIP3    H222288   2.554   5.488   4.759
 7443TIP3   OH222289   2.448   5.319   3.871
 7443TIP3    H122290   2.433   5.343   3.777
 7443TIP3    H222291   2.485   5.402   3.907
 7444TIP3   OH222292   1.945   6.436   3.556
 7444TIP3    H122293   1.859   6.462   3.594
 7444TIP3    H222294   1.963   6.513   3.500
 7445TIP3   OH222295   2.134   5.500   3.972
 7445TIP3    H122296   2.197   5.573   3.955
 7445TIP3    H222297   2.138   5.493   4.070
 7446TIP3   OH222298   2.403   5.819   4.780
 7446TIP3    H122299   2.423   5.875   4.857
 7446TIP3    H222300   2.458   5.741   4.796
 7447TIP3   OH222301   2.281   5.225   4.075
 7447TIP3    H122302   2.272   5.304   4.132
 7447TIP3    H222303   2.341   5.261   4.005
 7448TIP3   OH222304   1.689   6.512   3.626
 7448TIP3    H122305   1.659   6.583   3.565
 7448TIP3    H222306   1.674   6.555   3.713
 7449TIP3   OH222307   1.790   5.227   3.863
 7449TIP3    H122308   1.787   5.317   3.901
 7449TIP3    H222309   1.886   5.209   3.872
 7450TIP3   OH222310   3.044   5.719   4.763
 7450TIP3    H122311   2.945   5.717   4.769
 7450TIP3    H222312   3.056   5.681   4.675
 7451TIP3   OH222313   2.695   5.914   4.149
 7451TIP3    H122314   2.619   5.855   4.162
 7451TIP3    H222315   2.766   5.867   4.197
 7452TIP3   OH222316   1.407   6.142   3.617
 7452TIP3    H122317   1.475   6.211   3.629
 7452TIP3    H222318   1.453   6.087   3.551
 7453TIP3   OH222319   1.349   5.418   3.753
 7453TIP3    H122320   1.355   5.515   3.750
 7453TIP3    H222321   1.267   5.401   3.705
 7454TIP3   OH222322   2.664   6.869   4.097
 7454TIP3    H122323   2.621   6.916   4.022
 7454TIP3    H222324   2.758   6.888   4.076
 7455TIP3   OH222325   1.741   5.139   4.624
 7455TIP3    H122326   1.710   5.105   4.538
 7455TIP3    H222327   1.729   5.061   4.682
 7456TIP3   OH222328   1.274   6.348   4.003
 7456TIP3    H122329   1.207   6.384   4.063
 7456TIP3    H222330   1.250   6.392   3.919
 7457TIP3   OH222331   1.435   6.898   5.077
 7457TIP3    H122332   1.522   6.896   5.122
 7457TIP3    H222333   1.415   6.802   5.074
 7458TIP3   OH222334   1.916   6.862   5.123
 7458TIP3    H122335   2.011   6.842   5.125
 7458TIP3    H222336   1.887   6.803   5.050
 7459TIP3   OH222337   1.897   6.438   3.248
 7459TIP3    H122338   1.842   6.367   3.287
 7459TIP3    H222339   1.974   6.387   3.217
 7460TIP3   OH222340   2.555   6.770   4.855
 7460TIP3    H122341   2.547   6.700   4.924
 7460TIP3    H222342   2.633   6.821   4.886
 7461TIP3   OH222343   2.333   6.478   3.161
 7461TIP3    H122344   2.379   6.416   3.221
 7461TIP3    H222345   2.390   6.477   3.082
 7462TIP3   OH222346   1.566   6.300   5.279
 7462TIP3    H122347   1.580   6.204   5.274
 7462TIP3    H222348   1.481   6.309   5.230
 7463TIP3   OH222349   1.543   5.955   3.473
 7463TIP3    H122350   1.600   5.924   3.545
 7463TIP3    H222351   1.609   5.960   3.400
 7464TIP3   OH222352   2.172   6.391   5.052
 7464TIP3    H122353   2.129   6.411   4.967
 7464TIP3    H222354   2.201   6.298   5.041
 7465TIP3   OH222355   2.052   6.154   3.278
 7465TIP3    H122356   2.056   6.166   3.375
 7465TIP3    H222357   2.052   6.056   3.272
 7466TIP3   OH222358   2.666   6.398   4.658
 7466TIP3    H122359   2.740   6.444   4.614
 7466TIP3    H222360   2.594   6.463   4.645
 7467TIP3   OH222361   1.692   6.033   5.256
 7467TIP3    H122362   1.772   5.980   5.244
 7467TIP3    H222363   1.709   6.071   5.345
 7468TIP3   OH222364   1.748   5.861   3.692
 7468TIP3    H122365   1.723   5.822   3.777
 7468TIP3    H222366   1.786   5.784   3.644
 7469TIP3   OH222367   2.034   5.929   4.927
 7469TIP3    H122368   1.957   5.988   4.925
 7469TIP3    H222369   2.080   5.954   4.844
 7470TIP3   OH222370   1.851   5.653   3.534
 7470TIP3    H122371   1.826   5.659   3.439
 7470TIP3    H222372   1.949   5.656   3.527
 7471TIP3   OH222373   2.537   6.326   5.057
 7471TIP3    H122374   2.615   6.300   5.006
 7471TIP3    H222375   2.533   6.259   5.127
 7472TIP3   OH222376   2.673   5.983   3.198
 7472TIP3    H122377   2.652   5.939   3.113
 7472TIP3    H222378   2.640   6.074   3.176
 7473TIP3   OH222379   2.145   5.710   5.047
 7473TIP3    H122380   2.142   5.632   4.988
 7473TIP3    H222381   2.102   5.779   4.991
 7474TIP3   OH222382   2.146   5.496   4.854
 7474TIP3    H122383   2.172   5.542   4.772
 7474TIP3    H222384   2.051   5.477   4.836
 7475TIP3   OH222385   2.175   6.035   4.726
 7475TIP3    H122386   2.257   6.050   4.677
 7475TIP3    H222387   2.114   6.097   4.682
 7476TIP3   OH222388   2.754   6.000   5.108
 7476TIP3    H122389   2.806   5.918   5.117
 7476TIP3    H222390   2.820   6.061   5.073
 7477TIP3   OH222391   2.796   6.254   4.845
 7477TIP3    H122392   2.737   6.307   4.786
 7477TIP3    H222393   2.883   6.275   4.806
 7478TIP3   OH222394   2.022   5.822   5.279
 7478TIP3    H122395   1.953   5.754   5.293
 7478TIP3    H222396   2.055   5.798   5.190
 7479TIP3   OH222397   2.277   5.260   4.922
 7479TIP3    H122398   2.229   5.343   4.899
 7479TIP3    H222399   2.207   5.193   4.911
 7480TIP3   OH222400   2.405   5.765   5.138
 7480TIP3    H122401   2.390   5.752   5.234
 7480TIP3    H222402   2.315   5.741   5.105
 7481TIP3   OH222403   2.642   5.713   4.992
 7481TIP3    H122404   2.567   5.718   5.055
 7481TIP3    H222405   2.716   5.685   5.049
 7482TIP3   OH222406   2.872   5.656   5.143
 7482TIP3    H122407   2.884   5.561   5.161
 7482TIP3    H222408   2.868   5.695   5.233
 7483TIP3   OH222409   1.858   5.604   5.332
 7483TIP3    H122410   1.866   5.513   5.296
 7483TIP3    H222411   1.895   5.592   5.422
 7484TIP3   OH222412   2.371   5.270   5.181
 7484TIP3    H122413   2.439   5.200   5.173
 7484TIP3    H222414   2.332   5.266   5.091
 7485TIP3   OH222415   2.438   5.486   5.340
 7485TIP3    H122416   2.416   5.416   5.275
 7485TIP3    H222417   2.360   5.546   5.333
 7486TIP3   OH222418   1.658   6.715   3.437
 7486TIP3    H122419   1.754   6.707   3.422
 7486TIP3    H222420   1.633   6.767   3.358
 7487TIP3   OH222421   1.139   6.098   3.654
 7487TIP3    H122422   1.234   6.119   3.640
 7487TIP3    H222423   1.133   6.008   3.615
 7488TIP3   OH222424   1.059   6.706   4.063
 7488TIP3    H122425   0.988   6.646   4.031
 7488TIP3    H222426   1.100   6.650   4.132
 7489TIP3   OH222427   1.191   6.558   4.255
 7489TIP3    H122428   1.181   6.487   4.321
 7489TIP3    H222429   1.243   6.622   4.308
 7490TIP3   OH222430   2.917   6.959   4.055
 7490TIP3    H122431   2.942   6.993   4.143
 7490TIP3    H222432   2.978   7.007   3.997
 7491TIP3   OH222433   2.944   6.979   4.336
 7491TIP3    H122434   2.902   6.890   4.333
 7491TIP3    H222435   3.021   6.958   4.392
 7492TIP3   OH222436   2.993   6.657   4.911
 7492TIP3    H122437   2.919   6.667   4.975
 7492TIP3    H222438   3.034   6.745   4.914
 7493TIP3   OH222439   2.809   6.170   3.530
 7493TIP3    H122440   2.875   6.235   3.500
 7493TIP3    H222441   2.853   6.133   3.609
 7494TIP3   OH222442   2.936   6.037   3.734
 7494TIP3    H122443   2.870   5.997   3.793
 7494TIP3    H222444   3.001   6.075   3.797
 7495TIP3   OH222445   2.991   6.431   4.167
 7495TIP3    H122446   3.043   6.365   4.116
 7495TIP3    H222447   2.985   6.505   4.103
 7496TIP3   OH222448   2.821   6.730   4.361
 7496TIP3    H122449   2.749   6.774   4.411
 7496TIP3    H222450   2.771   6.684   4.290
 7497TIP3   OH222451   2.874   5.945   3.380
 7497TIP3    H122452   2.803   5.948   3.312
 7497TIP3    H222453   2.846   6.021   3.435
 7498TIP3   OH222454   2.746   5.618   3.334
 7498TIP3    H122455   2.701   5.658   3.258
 7498TIP3    H222456   2.721   5.524   3.324
 7499TIP3   OH222457   2.750   5.896   3.880
 7499TIP3    H122458   2.758   5.799   3.874
 7499TIP3    H222459   2.735   5.910   3.976
 7500TIP3   OH222460   1.381   5.958   4.633
 7500TIP3    H122461   1.399   5.946   4.539
 7500TIP3    H222462   1.456   6.019   4.657
 7501TIP3   OH222463   3.039   6.320   4.737
 7501TIP3    H122464   3.112   6.254   4.727
 7501TIP3    H222465   3.065   6.389   4.674
 7502TIP3   OH222466   3.223   6.123   4.752
 7502TIP3    H122467   3.149   6.073   4.792
 7502TIP3    H222468   3.297   6.059   4.767
 7503TIP3   OH222469   2.689   5.352   3.318
 7503TIP3    H122470   2.763   5.322   3.375
 7503TIP3    H222471   2.615   5.294   3.343
 7504TIP3   OH222472   2.746   5.611   3.775
 7504TIP3    H122473   2.787   5.522   3.789
 7504TIP3    H222474   2.805   5.644   3.704
 7505TIP3   OH222475   2.907   5.783   4.270
 7505TIP3    H122476   2.993   5.809   4.229
 7505TIP3    H222477   2.921   5.821   4.359
 7506TIP3   OH222478   2.977   5.929   4.501
 7506TIP3    H122479   2.899   5.963   4.549
 7506TIP3    H222480   3.010   6.010   4.456
 7507TIP3   OH222481   1.591   5.648   5.291
 7507TIP3    H122482   1.689   5.647   5.298
 7507TIP3    H222483   1.569   5.565   5.337
 7508TIP3   OH222484   3.428   5.520   5.058
 7508TIP3    H122485   3.488   5.455   5.016
 7508TIP3    H222486   3.399   5.573   4.981
 7509TIP3   OH222487   2.856   5.361   3.812
 7509TIP3    H122488   2.904   5.346   3.896
 7509TIP3    H222489   2.795   5.285   3.812
 7510TIP3   OH222490   1.555   5.347   4.630
 7510TIP3    H122491   1.619   5.274   4.641
 7510TIP3    H222492   1.615   5.423   4.624
 7511TIP3   OH222493   1.357   5.621   4.704
 7511TIP3    H122494   1.412   5.621   4.622
 7511TIP3    H222495   1.374   5.710   4.737
 7512TIP3   OH222496   3.298   5.658   4.863
 7512TIP3    H122497   3.213   5.701   4.883
 7512TIP3    H222498   3.267   5.587   4.804
 7513TIP3   OH222499   2.935   5.295   3.446
 7513TIP3    H122500   2.976   5.224   3.393
 7513TIP3    H222501   3.002   5.366   3.442
 7514TIP3   OH222502   1.341   5.115   4.201
 7514TIP3    H122503   1.250   5.118   4.235
 7514TIP3    H222504   1.338   5.179   4.127
 7515TIP3   OH222505   2.500   6.827   3.711
 7515TIP3    H122506   2.553   6.817   3.629
 7515TIP3    H222507   2.550   6.894   3.760
 7516TIP3   OH222508   1.560   5.198   5.017
 7516TIP3    H122509   1.511   5.199   5.101
 7516TIP3    H222510   1.496   5.242   4.957
 7517TIP3   OH222511   1.603   6.645   5.101
 7517TIP3    H122512   1.525   6.599   5.066
 7517TIP3    H222513   1.608   6.612   5.191
 7518TIP3   OH222514   1.776   6.667   4.647
 7518TIP3    H122515   1.731   6.743   4.606
 7518TIP3    H222516   1.862   6.675   4.602
 7519TIP3   OH222517   2.224   6.908   4.783
 7519TIP3    H122518   2.266   6.909   4.872
 7519TIP3    H222519   2.289   6.959   4.731
 7520TIP3   OH222520   2.402   7.061   4.642
 7520TIP3    H122521   2.473   7.011   4.599
 7520TIP3    H222522   2.455   7.118   4.703
 7521TIP3   OH222523   3.198   5.422   4.742
 7521TIP3    H122524   3.108   5.416   4.706
 7521TIP3    H222525   3.229   5.329   4.731
 7522TIP3   OH222526   1.457   6.921   4.667
 7522TIP3    H122527   1.367   6.955   4.646
 7522TIP3    H222528   1.467   6.955   4.756
 7523TIP3   OH222529   1.693   6.901   4.526
 7523TIP3    H122530   1.605   6.914   4.570
 7523TIP3    H222531   1.673   6.934   4.436
 7524TIP3   OH222532   2.119   6.928   4.323
 7524TIP3    H122533   2.049   6.947   4.258
 7524TIP3    H222534   2.130   7.016   4.365
 7525TIP3   OH222535   2.387   6.866   4.376
 7525TIP3    H122536   2.293   6.885   4.356
 7525TIP3    H222537   2.432   6.941   4.334
 7526TIP3   OH222538   2.593   7.057   4.291
 7526TIP3    H122539   2.580   7.143   4.245
 7526TIP3    H222540   2.620   6.998   4.217
 7527TIP3   OH222541   1.366   6.711   4.413
 7527TIP3    H122542   1.393   6.687   4.504
 7527TIP3    H222543   1.439   6.669   4.364
 7528TIP3   OH222544   1.562   6.587   4.268
 7528TIP3    H122545   1.575   6.501   4.316
 7528TIP3    H222546   1.653   6.622   4.267
 7529TIP3   OH222547   1.828   6.678   4.274
 7529TIP3    H122548   1.859   6.586   4.266
 7529TIP3    H222549   1.872   6.703   4.358
 7530TIP3   OH222550   2.405   5.338   4.361
 7530TIP3    H122551   2.360   5.268   4.411
 7530TIP3    H222552   2.478   5.290   4.318
 7531TIP3   OH222553   2.925   5.214   4.264
 7531TIP3    H122554   2.962   5.268   4.191
 7531TIP3    H222555   2.830   5.237   4.260
 7532TIP3   OH222556   3.020   5.316   4.029
 7532TIP3    H122557   3.094   5.265   3.990
 7532TIP3    H222558   3.053   5.408   4.015
 7533TIP3   OH222559   1.657   5.041   4.377
 7533TIP3    H122560   1.564   5.009   4.380
 7533TIP3    H222561   1.704   4.956   4.363
 7534TIP3   OH222562   1.443   4.917   4.023
 7534TIP3    H122563   1.469   4.977   3.951
 7534TIP3    H222564   1.411   4.980   4.091
 7535TIP3   OH222565   2.086   5.099   4.247
 7535TIP3    H122566   2.153   5.143   4.193
 7535TIP3    H222567   2.114   5.122   4.337
 7536TIP3   OH222568   2.640   5.225   4.242
 7536TIP3    H122569   2.642   5.188   4.153
 7536TIP3    H222570   2.627   5.144   4.297
 7537TIP3   OH222571   2.671   5.148   3.803
 7537TIP3    H122572   2.586   5.193   3.817
 7537TIP3    H222573   2.656   5.063   3.850
 7538TIP3   OH222574   1.157   6.485   3.803
 7538TIP3    H122575   1.071   6.454   3.768
 7538TIP3    H222576   1.142   6.581   3.798
 7539TIP3   OH222577   1.556   5.073   3.790
 7539TIP3    H122578   1.605   5.015   3.729
 7539TIP3    H222579   1.628   5.130   3.825
 7540TIP3   OH222580   2.068   5.249   3.888
 7540TIP3    H122581   2.126   5.203   3.951
 7540TIP3    H222582   2.089   5.342   3.912
 7541TIP3   OH222583   1.926   6.675   3.386
 7541TIP3    H122584   2.015   6.697   3.351
 7541TIP3    H222585   1.905   6.599   3.326
 7542TIP3   OH222586   2.647   6.794   3.479
 7542TIP3    H122587   2.638   6.697   3.469
 7542TIP3    H222588   2.601   6.825   3.399
 7543TIP3   OH222589   1.859   5.324   5.265
 7543TIP3    H122590   1.822   5.256   5.324
 7543TIP3    H222591   1.952   5.325   5.295
 7544TIP3   OH222592   2.108   5.323   5.387
 7544TIP3    H122593   2.194   5.300   5.348
 7544TIP3    H222594   2.097   5.252   5.453
 7545TIP3   OH222595   1.234   6.515   3.445
 7545TIP3    H122596   1.234   6.523   3.542
 7545TIP3    H222597   1.320   6.472   3.428
 7546TIP3   OH222598   2.934   5.385   5.174
 7546TIP3    H122599   2.953   5.354   5.266
 7546TIP3    H222600   3.023   5.381   5.133
 7547TIP3   OH222601   2.872   6.938   4.667
 7547TIP3    H122602   2.793   6.907   4.617
 7547TIP3    H222603   2.852   7.033   4.671
 7548TIP3   OH222604   4.138   6.309   3.431
 7548TIP3    H122605   4.112   6.402   3.413
 7548TIP3    H222606   4.058   6.263   3.403
 7549TIP3   OH222607   4.139   6.308   3.813
 7549TIP3    H122608   4.171   6.285   3.902
 7549TIP3    H222609   4.096   6.226   3.785
 7550TIP3   OH222610   3.437   6.205   4.179
 7550TIP3    H122611   3.467   6.136   4.241
 7550TIP3    H222612   3.515   6.262   4.174
 7551TIP3   OH222613   4.381   6.611   3.497
 7551TIP3    H122614   4.367   6.545   3.565
 7551TIP3    H222615   4.411   6.688   3.548
 7552TIP3   OH222616   3.408   6.615   3.903
 7552TIP3    H122617   3.400   6.517   3.905
 7552TIP3    H222618   3.505   6.624   3.897
 7553TIP3   OH222619   3.116   5.816   3.687
 7553TIP3    H122620   3.070   5.899   3.705
 7553TIP3    H222621   3.044   5.764   3.647
 7554TIP3   OH222622   3.173   6.105   3.861
 7554TIP3    H122623   3.223   6.027   3.897
 7554TIP3    H222624   3.234   6.139   3.795
 7555TIP3   OH222625   4.028   7.073   3.510
 7555TIP3    H122626   4.075   7.001   3.463
 7555TIP3    H222627   4.023   7.038   3.600
 7556TIP3   OH222628   3.936   6.536   3.863
 7556TIP3    H122629   3.976   6.460   3.817
 7556TIP3    H222630   4.019   6.582   3.888
 7557TIP3   OH222631   4.950   5.856   3.860
 7557TIP3    H122632   4.980   5.939   3.903
 7557TIP3    H222633   4.972   5.875   3.767
 7558TIP3   OH222634   4.349   6.037   3.894
 7558TIP3    H122635   4.392   5.952   3.916
 7558TIP3    H222636   4.318   6.020   3.804
 7559TIP3   OH222637   3.688   5.696   3.859
 7559TIP3    H122638   3.667   5.769   3.797
 7559TIP3    H222639   3.639   5.623   3.816
 7560TIP3   OH222640   4.381   5.786   3.480
 7560TIP3    H122641   4.450   5.771   3.549
 7560TIP3    H222642   4.437   5.823   3.409
 7561TIP3   OH222643   3.320   5.898   3.966
 7561TIP3    H122644   3.403   5.880   4.015
 7561TIP3    H222645   3.335   5.842   3.887
 7562TIP3   OH222646   3.761   6.096   3.759
 7562TIP3    H122647   3.855   6.070   3.773
 7562TIP3    H222648   3.722   6.011   3.728
 7563TIP3   OH222649   5.024   6.064   4.030
 7563TIP3    H122650   4.940   6.111   4.009
 7563TIP3    H222651   5.038   6.093   4.121
 7564TIP3   OH222652   3.683   5.680   4.294
 7564TIP3    H122653   3.623   5.717   4.227
 7564TIP3    H222654   3.632   5.698   4.375
 7565TIP3   OH222655   4.031   6.532   3.300
 7565TIP3    H122656   3.985   6.517   3.215
 7565TIP3    H222657   3.987   6.615   3.329
 7566TIP3   OH222658   3.790   6.456   4.089
 7566TIP3    H122659   3.729   6.522   4.126
 7566TIP3    H222660   3.832   6.506   4.016
 7567TIP3   OH222661   4.588   5.792   3.654
 7567TIP3    H122662   4.580   5.743   3.736
 7567TIP3    H222663   4.642   5.869   3.682
 7568TIP3   OH222664   3.554   5.795   4.078
 7568TIP3    H122665   3.616   5.867   4.103
 7568TIP3    H222666   3.604   5.755   4.003
 7569TIP3   OH222667   3.618   6.650   4.187
 7569TIP3    H122668   3.593   6.737   4.149
 7569TIP3    H222669   3.538   6.634   4.242
 7570TIP3   OH222670   3.012   6.339   3.423
 7570TIP3    H122671   2.971   6.369   3.339
 7570TIP3    H222672   3.043   6.424   3.460
 7571TIP3   OH222673   4.451   6.855   3.661
 7571TIP3    H122674   4.362   6.847   3.701
 7571TIP3    H222675   4.443   6.942   3.617
 7572TIP3   OH222676   4.743   5.756   4.026
 7572TIP3    H122677   4.656   5.785   3.994
 7572TIP3    H222678   4.803   5.789   3.956
 7573TIP3   OH222679   4.038   5.398   4.007
 7573TIP3    H122680   4.025   5.303   4.026
 7573TIP3    H222681   3.961   5.436   4.055
 7574TIP3   OH222682   4.155   6.899   3.337
 7574TIP3    H122683   4.205   6.817   3.316
 7574TIP3    H222684   4.215   6.965   3.297
 7575TIP3   OH222685   4.298   6.684   3.244
 7575TIP3    H122686   4.250   6.607   3.211
 7575TIP3    H222687   4.335   6.650   3.329
 7576TIP3   OH222688   4.677   6.767   4.008
 7576TIP3    H122689   4.666   6.690   3.947
 7576TIP3    H222690   4.659   6.842   3.948
 7577TIP3   OH222691   3.967   6.158   3.262
 7577TIP3    H122692   3.887   6.213   3.247
 7577TIP3    H222693   4.013   6.166   3.177
 7578TIP3   OH222694   3.929   5.949   2.971
 7578TIP3    H122695   3.992   5.999   3.026
 7578TIP3    H222696   3.980   5.870   2.950
 7579TIP3   OH222697   4.872   6.404   3.851
 7579TIP3    H122698   4.789   6.456   3.856
 7579TIP3    H222699   4.903   6.430   3.762
 7580TIP3   OH222700   4.316   6.241   3.236
 7580TIP3    H122701   4.262   6.267   3.314
 7580TIP3    H222702   4.401   6.220   3.280
 7581TIP3   OH222703   4.551   6.283   4.149
 7581TIP3    H122704   4.549   6.367   4.199
 7581TIP3    H222705   4.465   6.288   4.103
 7582TIP3   OH222706   3.549   6.241   3.653
 7582TIP3    H122707   3.508   6.184   3.585
 7582TIP3    H222708   3.626   6.188   3.682
 7583TIP3   OH222709   3.678   6.651   3.802
 7583TIP3    H122710   3.659   6.614   3.715
 7583TIP3    H222711   3.768   6.617   3.820
 7584TIP3   OH222712   3.686   6.213   4.007
 7584TIP3    H122713   3.719   6.191   3.917
 7584TIP3    H222714   3.729   6.299   4.026
 7585TIP3   OH222715   4.211   6.851   3.784
 7585TIP3    H122716   4.197   6.932   3.835
 7585TIP3    H222717   4.194   6.780   3.848
 7586TIP3   OH222718   3.824   6.769   4.331
 7586TIP3    H122719   3.763   6.831   4.377
 7586TIP3    H222720   3.759   6.716   4.281
 7587TIP3   OH222721   4.161   6.097   3.062
 7587TIP3    H122722   4.215   6.160   3.114
 7587TIP3    H222723   4.187   6.123   2.970
 7588TIP3   OH222724   3.578   6.325   4.434
 7588TIP3    H122725   3.583   6.413   4.476
 7588TIP3    H222726   3.483   6.305   4.445
 7589TIP3   OH222727   3.901   6.781   3.338
 7589TIP3    H122728   3.981   6.835   3.352
 7589TIP3    H222729   3.840   6.843   3.297
 7590TIP3   OH222730   3.618   6.937   4.418
 7590TIP3    H122731   3.582   6.939   4.327
 7590TIP3    H222732   3.538   6.915   4.471
 7591TIP3   OH222733   4.670   5.346   3.106
 7591TIP3    H122734   4.590   5.360   3.161
 7591TIP3    H222735   4.680   5.433   3.065
 7592TIP3   OH222736   3.417   6.084   3.454
 7592TIP3    H122737   3.349   6.130   3.400
 7592TIP3    H222738   3.374   5.999   3.470
 7593TIP3   OH222739   4.472   6.709   2.657
 7593TIP3    H122740   4.479   6.806   2.644
 7593TIP3    H222741   4.565   6.681   2.646
 7594TIP3   OH222742   3.196   6.469   4.365
 7594TIP3    H122743   3.129   6.448   4.296
 7594TIP3    H222744   3.233   6.381   4.387
 7595TIP3   OH222745   3.050   6.661   3.998
 7595TIP3    H122746   3.147   6.658   3.989
 7595TIP3    H222747   3.039   6.741   4.051
 7596TIP3   OH222748   4.914   7.114   4.054
 7596TIP3    H122749   4.913   7.018   4.067
 7596TIP3    H222750   4.831   7.140   4.100
 7597TIP3   OH222751   4.021   6.898   4.189
 7597TIP3    H122752   4.019   6.991   4.221
 7597TIP3    H222753   3.949   6.858   4.242
 7598TIP3   OH222754   3.783   7.026   3.141
 7598TIP3    H122755   3.737   7.012   3.056
 7598TIP3    H222756   3.753   7.115   3.168
 7599TIP3   OH222757   3.219   6.878   3.525
 7599TIP3    H122758   3.268   6.869   3.610
 7599TIP3    H222759   3.162   6.800   3.530
 7600TIP3   OH222760   3.982   6.929   2.779
 7600TIP3    H122761   4.042   6.859   2.743
 7600TIP3    H222762   4.017   6.939   2.870
 7601TIP3   OH222763   4.033   6.977   3.049
 7601TIP3    H122764   3.945   6.986   3.090
 7601TIP3    H222765   4.085   6.941   3.123
 7602TIP3   OH222766   4.804   6.242   4.329
 7602TIP3    H122767   4.722   6.256   4.279
 7602TIP3    H222768   4.819   6.146   4.317
 7603TIP3   OH222769   3.401   6.651   4.352
 7603TIP3    H122770   3.450   6.635   4.435
 7603TIP3    H222771   3.326   6.588   4.360
 7604TIP3   OH222772   3.801   5.475   4.137
 7604TIP3    H122773   3.712   5.444   4.110
 7604TIP3    H222774   3.775   5.556   4.185
 7605TIP3   OH222775   4.335   5.590   4.332
 7605TIP3    H122776   4.404   5.561   4.395
 7605TIP3    H222777   4.252   5.570   4.379
 7606TIP3   OH222778   4.573   6.020   4.250
 7606TIP3    H122779   4.522   6.016   4.334
 7606TIP3    H222780   4.550   6.107   4.214
 7607TIP3   OH222781   4.234   6.138   2.806
 7607TIP3    H122782   4.201   6.121   2.715
 7607TIP3    H222783   4.310   6.196   2.786
 7608TIP3   OH222784   3.956   5.520   3.112
 7608TIP3    H122785   3.918   5.518   3.203
 7608TIP3    H222786   3.911   5.441   3.076
 7609TIP3   OH222787   3.732   5.991   4.156
 7609TIP3    H122788   3.682   6.013   4.237
 7609TIP3    H222789   3.717   6.072   4.102
 7610TIP3   OH222790   3.616   5.876   3.670
 7610TIP3    H122791   3.523   5.851   3.688
 7610TIP3    H222792   3.628   5.835   3.581
 7611TIP3   OH222793   4.106   5.962   3.398
 7611TIP3    H122794   4.053   6.034   3.356
 7611TIP3    H222795   4.162   5.934   3.323
 7612TIP3   OH222796   4.281   6.239   4.482
 7612TIP3    H122797   4.260   6.167   4.545
 7612TIP3    H222798   4.375   6.255   4.505
 7613TIP3   OH222799   4.263   5.990   3.637
 7613TIP3    H122800   4.203   6.021   3.567
 7613TIP3    H222801   4.296   5.909   3.593
 7614TIP3   OH222802   3.551   6.019   4.364
 7614TIP3    H122803   3.579   6.084   4.431
 7614TIP3    H222804   3.541   5.938   4.417
 7615TIP3   OH222805   3.604   5.500   3.073
 7615TIP3    H122806   3.593   5.496   3.170
 7615TIP3    H222807   3.524   5.551   3.048
 7616TIP3   OH222808   3.145   5.539   3.945
 7616TIP3    H122809   3.219   5.573   4.000
 7616TIP3    H222810   3.188   5.510   3.864
 7617TIP3   OH222811   3.115   5.522   3.464
 7617TIP3    H122812   3.162   5.559   3.386
 7617TIP3    H222813   3.055   5.596   3.484
 7618TIP3   OH222814   4.272   6.236   4.058
 7618TIP3    H122815   4.306   6.165   4.000
 7618TIP3    H222816   4.243   6.183   4.135
 7619TIP3   OH222817   3.944   5.699   3.730
 7619TIP3    H122818   3.862   5.698   3.784
 7619TIP3    H222819   4.012   5.696   3.798
 7620TIP3   OH222820   3.378   5.755   3.738
 7620TIP3    H122821   3.283   5.763   3.711
 7620TIP3    H222822   3.400   5.663   3.716
 7621TIP3   OH222823   3.646   5.749   3.428
 7621TIP3    H122824   3.739   5.766   3.406
 7621TIP3    H222825   3.598   5.772   3.345
 7622TIP3   OH222826   4.435   5.775   3.932
 7622TIP3    H122827   4.403   5.788   4.024
 7622TIP3    H222828   4.369   5.713   3.898
 7623TIP3   OH222829   3.491   5.783   3.207
 7623TIP3    H122830   3.417   5.740   3.160
 7623TIP3    H222831   3.541   5.820   3.131
 7624TIP3   OH222832   4.606   7.464   4.153
 7624TIP3    H122833   4.603   7.487   4.058
 7624TIP3    H222834   4.685   7.512   4.182
 7625TIP3   OH222835   3.563   6.573   4.573
 7625TIP3    H122836   3.643   6.603   4.621
 7625TIP3    H222837   3.498   6.573   4.646
 7626TIP3   OH222838   4.026   6.026   3.828
 7626TIP3    H122839   4.101   5.988   3.780
 7626TIP3    H222840   4.033   5.984   3.916
 7627TIP3   OH222841   3.548   5.514   3.708
 7627TIP3    H122842   3.513   5.437   3.756
 7627TIP3    H222843   3.600   5.473   3.638
 7628TIP3   OH222844   4.003   5.925   4.118
 7628TIP3    H122845   3.913   5.961   4.132
 7628TIP3    H222846   4.060   5.986   4.168
 7629TIP3   OH222847   3.741   6.313   3.214
 7629TIP3    H122848   3.667   6.249   3.202
 7629TIP3    H222849   3.720   6.348   3.304
 7630TIP3   OH222850   4.640   6.550   3.842
 7630TIP3    H122851   4.664   6.601   3.761
 7630TIP3    H222852   4.555   6.509   3.815
 7631TIP3   OH222853   4.178   5.655   3.030
 7631TIP3    H122854   4.099   5.613   3.073
 7631TIP3    H222855   4.205   5.724   3.095
 7632TIP3   OH222856   4.137   6.632   4.211
 7632TIP3    H122857   4.166   6.615   4.301
 7632TIP3    H222858   4.101   6.722   4.216
 7633TIP3   OH222859   4.270   5.868   3.177
 7633TIP3    H122860   4.365   5.877   3.200
 7633TIP3    H222861   4.252   5.954   3.133
 7634TIP3   OH222862   3.431   6.335   3.889
 7634TIP3    H122863   3.470   6.308   3.803
 7634TIP3    H222864   3.475   6.275   3.951
 7635TIP3   OH222865   3.885   6.463   3.037
 7635TIP3    H122866   3.837   6.549   3.038
 7635TIP3    H222867   3.830   6.410   3.097
 7636TIP3   OH222868   3.314   6.256   4.502
 7636TIP3    H122869   3.332   6.243   4.597
 7636TIP3    H222870   3.244   6.190   4.487
 7637TIP3   OH222871   4.039   6.371   4.522
 7637TIP3    H122872   3.979   6.312   4.474
 7637TIP3    H222873   4.127   6.337   4.493
 7638TIP3   OH222874   4.299   6.888   4.108
 7638TIP3    H122875   4.202   6.891   4.120
 7638TIP3    H222876   4.328   6.943   4.185
 7639TIP3   OH222877   4.708   5.968   3.020
 7639TIP3    H122878   4.642   5.924   2.961
 7639TIP3    H222879   4.707   6.057   2.978
 7640TIP3   OH222880   4.928   6.822   4.096
 7640TIP3    H122881   4.830   6.817   4.087
 7640TIP3    H222882   4.954   6.792   4.006
 7641TIP3   OH222883   4.411   6.785   2.923
 7641TIP3    H122884   4.383   6.716   2.986
 7641TIP3    H222885   4.422   6.736   2.840
 7642TIP3   OH222886   4.405   6.413   3.760
 7642TIP3    H122887   4.312   6.389   3.774
 7642TIP3    H222888   4.438   6.333   3.715
 7643TIP3   OH222889   3.534   6.640   3.512
 7643TIP3    H122890   3.533   6.722   3.459
 7643TIP3    H222891   3.440   6.625   3.525
 7644TIP3   OH222892   3.098   5.944   3.218
 7644TIP3    H122893   3.142   6.029   3.238
 7644TIP3    H222894   3.020   5.949   3.279
 7645TIP3   OH222895   3.670   6.405   3.457
 7645TIP3    H122896   3.635   6.495   3.475
 7645TIP3    H222897   3.634   6.355   3.533
 7646TIP3   OH222898   3.802   6.985   3.982
 7646TIP3    H122899   3.843   7.058   3.932
 7646TIP3    H222900   3.879   6.950   4.030
 7647TIP3   OH222901   3.453   6.880   3.366
 7647TIP3    H122902   3.367   6.890   3.412
 7647TIP3    H222903   3.486   6.972   3.369
 7648TIP3   OH222904   4.189   6.616   3.942
 7648TIP3    H122905   4.179   6.615   4.040
 7648TIP3    H222906   4.271   6.567   3.931
 7649TIP3   OH222907   4.165   6.508   2.824
 7649TIP3    H122908   4.217   6.483   2.904
 7649TIP3    H222909   4.075   6.487   2.853
 7650TIP3   OH222910   4.438   7.151   3.991
 7650TIP3    H122911   4.357   7.097   3.981
 7650TIP3    H222912   4.424   7.217   3.919
 7651TIP3   OH222913   4.504   6.985   2.644
 7651TIP3    H122914   4.540   7.059   2.592
 7651TIP3    H222915   4.424   7.029   2.679
 7652TIP3   OH222916   3.524   5.762   4.510
 7652TIP3    H122917   3.427   5.765   4.523
 7652TIP3    H222918   3.552   5.703   4.582
 7653TIP3   OH222919   4.326   6.438   3.038
 7653TIP3    H122920   4.317   6.377   3.114
 7653TIP3    H222921   4.423   6.440   3.028
 7654TIP3   OH222922   3.241   6.845   4.141
 7654TIP3    H122923   3.295   6.773   4.176
 7654TIP3    H222924   3.268   6.919   4.198
 7655TIP3   OH222925   3.532   6.492   2.825
 7655TIP3    H122926   3.544   6.400   2.796
 7655TIP3    H222927   3.512   6.480   2.919
 7656TIP3   OH222928   3.476   6.496   3.097
 7656TIP3    H122929   3.549   6.473   3.157
 7656TIP3    H222930   3.478   6.595   3.102
 7657TIP3   OH222931   3.211   6.190   3.300
 7657TIP3    H122932   3.145   6.235   3.357
 7657TIP3    H222933   3.224   6.259   3.232
 7658TIP3   OH222934   4.363   5.826   4.191
 7658TIP3    H122935   4.442   5.864   4.231
 7658TIP3    H222936   4.348   5.746   4.246
 7659TIP3   OH222937   4.246   5.579   3.358
 7659TIP3    H122938   4.228   5.616   3.271
 7659TIP3    H222939   4.286   5.656   3.403
 7660TIP3   OH222940   3.743   6.692   3.045
 7660TIP3    H122941   3.656   6.719   3.081
 7660TIP3    H222942   3.759   6.766   2.984
 7661TIP3   OH222943   3.931   5.758   3.459
 7661TIP3    H122944   3.993   5.832   3.445
 7661TIP3    H222945   3.934   5.749   3.557
 7662TIP3   OH222946   4.199   6.075   4.267
 7662TIP3    H122947   4.222   6.129   4.345
 7662TIP3    H222948   4.254   5.996   4.280
 7663TIP3   OH222949   4.073   5.483   3.560
 7663TIP3    H122950   4.070   5.558   3.623
 7663TIP3    H222951   4.135   5.519   3.493
 7664TIP3   OH222952   3.486   6.768   3.113
 7664TIP3    H122953   3.456   6.838   3.050
 7664TIP3    H222954   3.471   6.812   3.200
 7665TIP3   OH222955   3.586   5.483   3.349
 7665TIP3    H122956   3.583   5.573   3.388
 7665TIP3    H222957   3.682   5.465   3.359
 7666TIP3   OH222958   4.840   5.976   4.248
 7666TIP3    H122959   4.742   5.974   4.256
 7666TIP3    H222960   4.851   5.933   4.162
 7667TIP3   OH222961   4.491   6.171   3.636
 7667TIP3    H122962   4.415   6.111   3.650
 7667TIP3    H222963   4.563   6.125   3.684
 7668TIP3   OH222964   3.203   6.398   3.105
 7668TIP3    H122965   3.268   6.469   3.115
 7668TIP3    H222966   3.249   6.344   3.037
 7669TIP3   OH222967   3.147   5.675   3.238
 7669TIP3    H122968   3.148   5.772   3.236
 7669TIP3    H222969   3.063   5.655   3.196
 7670TIP3   OH222970   4.460   7.125   3.584
 7670TIP3    H122971   4.417   7.172   3.509
 7670TIP3    H222972   4.554   7.145   3.563
 7671TIP3   OH222973   3.535   5.395   4.112
 7671TIP3    H122974   3.505   5.360   4.025
 7671TIP3    H222975   3.525   5.317   4.170
 7672TIP3   OH222976   3.073   6.609   3.491
 7672TIP3    H122977   3.005   6.642   3.551
 7672TIP3    H222978   3.046   6.652   3.406
 7673TIP3   OH222979   3.232   7.156   4.565
 7673TIP3    H122980   3.318   7.156   4.611
 7673TIP3    H222981   3.211   7.061   4.563
 7674TIP3   OH222982   3.711   7.119   4.610
 7674TIP3    H122983   3.806   7.101   4.615
 7674TIP3    H222984   3.686   7.059   4.537
 7675TIP3   OH222985   3.694   6.697   2.737
 7675TIP3    H122986   3.640   6.622   2.772
 7675TIP3    H222987   3.769   6.648   2.696
 7676TIP3   OH222988   4.352   7.026   4.342
 7676TIP3    H122989   4.343   6.957   4.411
 7676TIP3    H222990   4.429   7.077   4.373
 7677TIP3   OH222991   4.132   6.736   2.648
 7677TIP3    H122992   4.179   6.674   2.706
 7677TIP3    H222993   4.185   6.735   2.567
 7678TIP3   OH222994   3.362   6.561   4.765
 7678TIP3    H122995   3.377   6.465   4.770
 7678TIP3    H222996   3.274   6.565   4.720
 7679TIP3   OH222997   3.338   6.212   2.958
 7679TIP3    H122998   3.395   6.182   3.031
 7679TIP3    H222999   3.405   6.217   2.886
 7680TIP3   OH223000   3.968   6.647   4.539
 7680TIP3    H123001   3.928   6.666   4.452
 7680TIP3    H223002   3.999   6.555   4.528
 7681TIP3   OH223003   3.853   6.410   2.767
 7681TIP3    H123004   3.852   6.422   2.864
 7681TIP3    H223005   3.847   6.312   2.761
 7682TIP3   OH223006   4.461   6.656   4.144
 7682TIP3    H123007   4.537   6.699   4.101
 7682TIP3    H223008   4.392   6.724   4.130
 7683TIP3   OH223009   3.481   6.295   4.747
 7683TIP3    H123010   3.558   6.243   4.723
 7683TIP3    H223011   3.508   6.330   4.835
 7684TIP3   OH223012   3.548   6.116   3.181
 7684TIP3    H123013   3.518   6.077   3.264
 7684TIP3    H223014   3.581   6.038   3.132
 7685TIP3   OH223015   3.816   6.180   4.408
 7685TIP3    H123016   3.738   6.239   4.408
 7685TIP3    H223017   3.867   6.214   4.331
 7686TIP3   OH223018   3.647   5.908   3.019
 7686TIP3    H123019   3.618   5.916   2.926
 7686TIP3    H223020   3.743   5.918   3.011
 7687TIP3   OH223021   4.332   6.582   4.543
 7687TIP3    H123022   4.412   6.557   4.495
 7687TIP3    H223023   4.329   6.516   4.614
 7688TIP3   OH223024   4.471   6.239   2.683
 7688TIP3    H123025   4.447   6.198   2.598
 7688TIP3    H223026   4.439   6.330   2.665
 7689TIP3   OH223027   3.940   5.969   4.533
 7689TIP3    H123028   3.940   5.890   4.476
 7689TIP3    H223029   3.896   6.036   4.476
 7690TIP3   OH223030   3.942   5.756   4.342
 7690TIP3    H123031   3.970   5.797   4.258
 7690TIP3    H223032   3.848   5.733   4.323
 7691TIP3   OH223033   3.968   6.289   4.215
 7691TIP3    H123034   4.052   6.302   4.171
 7691TIP3    H223035   3.911   6.356   4.170
 7692TIP3   OH223036   4.550   6.257   4.595
 7692TIP3    H123037   4.600   6.175   4.604
 7692TIP3    H223038   4.617   6.318   4.561
 7693TIP3   OH223039   4.592   6.510   4.331
 7693TIP3    H123040   4.533   6.564   4.272
 7693TIP3    H223041   4.679   6.532   4.291
 7694TIP3   OH223042   3.817   6.079   4.766
 7694TIP3    H123043   3.749   6.010   4.780
 7694TIP3    H223044   3.851   6.055   4.678
 7695TIP3   OH223045   4.074   5.518   4.409
 7695TIP3    H123046   4.024   5.599   4.387
 7695TIP3    H223047   4.006   5.449   4.398
 7696TIP3   OH223048   4.200   6.022   4.625
 7696TIP3    H123049   4.187   6.009   4.721
 7696TIP3    H223050   4.111   5.998   4.593
 7697TIP3   OH223051   4.439   5.972   4.480
 7697TIP3    H123052   4.364   5.974   4.543
 7697TIP3    H223053   4.513   5.942   4.536
 7698TIP3   OH223054   4.670   5.914   4.630
 7698TIP3    H123055   4.681   5.818   4.647
 7698TIP3    H223056   4.665   5.951   4.720
 7699TIP3   OH223057   3.656   5.860   4.818
 7699TIP3    H123058   3.661   5.768   4.784
 7699TIP3    H223059   3.693   5.848   4.908
 7700TIP3   OH223060   4.168   5.528   4.667
 7700TIP3    H123061   4.235   5.457   4.661
 7700TIP3    H223062   4.128   5.523   4.578
 7701TIP3   OH223063   4.234   5.743   4.826
 7701TIP3    H123064   4.213   5.672   4.762
 7701TIP3    H223065   4.156   5.801   4.819
 7702TIP3   OH223066   3.454   6.970   2.925
 7702TIP3    H123067   3.550   6.965   2.908
 7702TIP3    H223068   3.427   7.022   2.846
 7703TIP3   OH223069   2.934   6.354   3.141
 7703TIP3    H123070   3.029   6.376   3.127
 7703TIP3    H223071   2.929   6.265   3.101
 7704TIP3   OH223072   2.851   6.967   3.555
 7704TIP3    H123073   2.784   6.906   3.518
 7704TIP3    H223074   2.895   6.909   3.621
 7705TIP3   OH223075   2.987   6.816   3.741
 7705TIP3    H123076   2.973   6.744   3.805
 7705TIP3    H223077   3.038   6.878   3.796
 7706TIP3   OH223078   4.713   7.217   3.542
 7706TIP3    H123079   4.740   7.249   3.630
 7706TIP3    H223080   4.775   7.262   3.483
 7707TIP3   OH223081   4.740   7.236   3.824
 7707TIP3    H123082   4.698   7.148   3.819
 7707TIP3    H223083   4.819   7.214   3.876
 7708TIP3   OH223084   4.788   6.913   4.398
 7708TIP3    H123085   4.715   6.923   4.463
 7708TIP3    H223086   4.830   7.001   4.401
 7709TIP3   OH223087   4.605   6.425   3.016
 7709TIP3    H123088   4.671   6.492   2.986
 7709TIP3    H223089   4.650   6.389   3.096
 7710TIP3   OH223090   4.732   6.293   3.220
 7710TIP3    H123091   4.666   6.254   3.281
 7710TIP3    H223092   4.799   6.331   3.281
 7711TIP3   OH223093   4.787   6.687   3.652
 7711TIP3    H123094   4.839   6.622   3.602
 7711TIP3    H223095   4.782   6.762   3.590
 7712TIP3   OH223096   4.617   6.986   3.848
 7712TIP3    H123097   4.545   7.031   3.898
 7712TIP3    H223098   4.567   6.941   3.777
 7713TIP3   OH223099   4.669   6.200   2.867
 7713TIP3    H123100   4.599   6.207   2.798
 7713TIP3    H223101   4.644   6.276   2.923
 7714TIP3   OH223102   4.535   5.875   2.832
 7714TIP3    H123103   4.526   5.929   2.752
 7714TIP3    H223104   4.513   5.785   2.800
 7715TIP3   OH223105   4.545   6.152   3.368
 7715TIP3    H123106   4.556   6.056   3.365
 7715TIP3    H223107   4.531   6.168   3.464
 7716TIP3   OH223108   3.172   6.222   4.115
 7716TIP3    H123109   3.170   6.193   4.022
 7716TIP3    H223110   3.269   6.225   4.131
 7717TIP3   OH223111   4.835   6.576   4.224
 7717TIP3    H123112   4.908   6.511   4.214
 7717TIP3    H223113   4.861   6.646   4.161
 7718TIP3   OH223114   5.019   6.379   4.239
 7718TIP3    H123115   4.945   6.330   4.279
 7718TIP3    H223116   5.092   6.316   4.254
 7719TIP3   OH223117   4.477   5.605   2.777
 7719TIP3    H123118   4.562   5.594   2.826
 7719TIP3    H223119   4.418   5.550   2.831
 7720TIP3   OH223120   4.541   5.865   3.261
 7720TIP3    H123121   4.583   5.777   3.276
 7720TIP3    H223122   4.602   5.902   3.195
 7721TIP3   OH223123   4.704   6.041   3.756
 7721TIP3    H123124   4.790   6.066   3.716
 7721TIP3    H223125   4.717   6.078   3.846
 7722TIP3   OH223126   4.773   6.185   3.988
 7722TIP3    H123127   4.696   6.219   4.036
 7722TIP3    H223128   4.806   6.266   3.943
 7723TIP3   OH223129   3.389   5.910   4.787
 7723TIP3    H123130   3.487   5.905   4.790
 7723TIP3    H223131   3.366   5.824   4.828
 7724TIP3   OH223132   5.228   5.779   4.545
 7724TIP3    H123133   5.286   5.712   4.501
 7724TIP3    H223134   5.196   5.830   4.468
 7725TIP3   OH223135   4.651   5.616   3.297
 7725TIP3    H123136   4.701   5.603   3.381
 7725TIP3    H223137   4.591   5.539   3.300
 7726TIP3   OH223138   3.350   5.604   4.119
 7726TIP3    H123139   3.412   5.528   4.129
 7726TIP3    H223140   3.413   5.678   4.112
 7727TIP3   OH223141   3.154   5.876   4.192
 7727TIP3    H123142   3.203   5.873   4.108
 7727TIP3    H223143   3.179   5.963   4.226
 7728TIP3   OH223144   5.094   5.914   4.350
 7728TIP3    H123145   5.009   5.957   4.370
 7728TIP3    H223146   5.063   5.843   4.291
 7729TIP3   OH223147   4.721   5.564   2.910
 7729TIP3    H123148   4.771   5.485   2.883
 7729TIP3    H223149   4.792   5.629   2.923
 7730TIP3   OH223150   3.138   5.379   3.691
 7730TIP3    H123151   3.045   5.376   3.720
 7730TIP3    H223152   3.134   5.439   3.614
 7731TIP3   OH223153   4.298   7.082   3.198
 7731TIP3    H123154   4.350   7.074   3.117
 7731TIP3    H223155   4.345   7.151   3.247
 7732TIP3   OH223156   3.358   5.461   4.507
 7732TIP3    H123157   3.307   5.457   4.590
 7732TIP3    H223158   3.292   5.498   4.446
 7733TIP3   OH223159   3.398   6.888   4.584
 7733TIP3    H123160   3.305   6.862   4.567
 7733TIP3    H223161   3.406   6.871   4.678
 7734TIP3   OH223162   3.576   6.921   4.131
 7734TIP3    H123163   3.528   6.997   4.092
 7734TIP3    H223164   3.662   6.935   4.087
 7735TIP3   OH223165   4.019   7.165   4.269
 7735TIP3    H123166   4.062   7.165   4.358
 7735TIP3    H223167   4.085   7.216   4.217
 7736TIP3   OH223168   4.199   7.317   4.130
 7736TIP3    H123169   4.270   7.268   4.086
 7736TIP3    H223170   4.251   7.374   4.191
 7737TIP3   OH223171   4.994   5.678   4.229
 7737TIP3    H123172   4.903   5.669   4.194
 7737TIP3    H223173   5.026   5.585   4.218
 7738TIP3   OH223174   3.253   7.175   4.157
 7738TIP3    H123175   3.163   7.208   4.133
 7738TIP3    H223176   3.263   7.217   4.243
 7739TIP3   OH223177   3.488   7.155   4.013
 7739TIP3    H123178   3.401   7.168   4.057
 7739TIP3    H223179   3.470   7.189   3.924
 7740TIP3   OH223180   3.914   7.184   3.811
 7740TIP3    H123181   3.845   7.202   3.744
 7740TIP3    H223182   3.926   7.273   3.851
 7741TIP3   OH223183   4.183   7.123   3.863
 7741TIP3    H123184   4.089   7.141   3.843
 7741TIP3    H223185   4.227   7.198   3.820
 7742TIP3   OH223186   4.389   7.314   3.778
 7742TIP3    H123187   4.376   7.400   3.732
 7742TIP3    H223188   4.416   7.256   3.703
 7743TIP3   OH223189   3.163   6.970   3.899
 7743TIP3    H123190   3.189   6.945   3.990
 7743TIP3    H223191   3.235   6.926   3.849
 7744TIP3   OH223192   3.357   6.842   3.757
 7744TIP3    H123193   3.373   6.759   3.807
 7744TIP3    H223194   3.448   6.879   3.753
 7745TIP3   OH223195   3.622   6.936   3.762
 7745TIP3    H123196   3.655   6.845   3.751
 7745TIP3    H223197   3.668   6.960   3.845
 7746TIP3   OH223198   4.197   5.591   3.843
 7746TIP3    H123199   4.155   5.523   3.898
 7746TIP3    H223200   4.273   5.544   3.804
 7747TIP3   OH223201   4.721   5.474   3.751
 7747TIP3    H123202   4.757   5.526   3.676
 7747TIP3    H223203   4.625   5.492   3.745
 7748TIP3   OH223204   4.815   5.575   3.514
 7748TIP3    H123205   4.890   5.522   3.478
 7748TIP3    H223206   4.851   5.665   3.501
 7749TIP3   OH223207   3.448   5.302   3.863
 7749TIP3    H123208   3.355   5.270   3.866
 7749TIP3    H223209   3.496   5.216   3.860
 7750TIP3   OH223210   3.232   5.172   3.511
 7750TIP3    H123211   3.263   5.230   3.439
 7750TIP3    H223212   3.206   5.238   3.579
 7751TIP3   OH223213   3.891   5.335   3.745
 7751TIP3    H123214   3.949   5.384   3.685
 7751TIP3    H223215   3.915   5.372   3.831
 7752TIP3   OH223216   4.436   5.480   3.727
 7752TIP3    H123217   4.442   5.437   3.641
 7752TIP3    H223218   4.424   5.403   3.787
 7753TIP3   OH223219   4.466   5.403   3.289
 7753TIP3    H123220   4.381   5.446   3.310
 7753TIP3    H223221   4.456   5.318   3.336
 7754TIP3   OH223222   2.952   6.744   3.291
 7754TIP3    H123223   2.866   6.711   3.258
 7754TIP3    H223224   2.942   6.838   3.272
 7755TIP3   OH223225   3.352   5.331   3.274
 7755TIP3    H123226   3.400   5.268   3.218
 7755TIP3    H223227   3.424   5.385   3.310
 7756TIP3   OH223228   3.864   5.508   3.372
 7756TIP3    H123229   3.921   5.460   3.434
 7756TIP3    H223230   3.885   5.600   3.400
 7757TIP3   OH223231   3.723   6.932   2.874
 7757TIP3    H123232   3.811   6.955   2.838
 7757TIP3    H223233   3.701   6.857   2.814
 7758TIP3   OH223234   4.445   7.052   2.966
 7758TIP3    H123235   4.435   6.954   2.955
 7758TIP3    H223236   4.396   7.083   2.886
 7759TIP3   OH223237   3.655   5.584   4.755
 7759TIP3    H123238   3.619   5.513   4.811
 7759TIP3    H223239   3.749   5.583   4.783
 7760TIP3   OH223240   3.905   5.581   4.874
 7760TIP3    H123241   3.990   5.556   4.834
 7760TIP3    H223242   3.893   5.510   4.940
 7761TIP3   OH223243   3.026   6.767   2.928
 7761TIP3    H123244   3.029   6.793   3.022
 7761TIP3    H223245   3.115   6.726   2.916
 7762TIP3   OH223246   4.731   5.642   4.661
 7762TIP3    H123247   4.749   5.610   4.752
 7762TIP3    H223248   4.819   5.636   4.620
 7763TIP3   OH223249   4.667   7.194   4.154
 7763TIP3    H123250   4.589   7.163   4.103
 7763TIP3    H223251   4.648   7.290   4.158
 7764TIP3   OH223252   5.935   6.566   2.919
 7764TIP3    H123253   5.907   6.658   2.900
 7764TIP3    H223254   5.857   6.517   2.888
 7765TIP3   OH223255   5.941   6.564   3.296
 7765TIP3    H123256   5.967   6.540   3.387
 7765TIP3    H223257   5.893   6.485   3.267
 7766TIP3   OH223258   5.233   6.462   3.667
 7766TIP3    H123259   5.266   6.394   3.728
 7766TIP3    H223260   5.310   6.521   3.661
 7767TIP3   OH223261   6.180   6.868   2.983
 7767TIP3    H123262   6.160   6.801   3.049
 7767TIP3    H223263   6.204   6.945   3.038
 7768TIP3   OH223264   5.199   6.870   3.392
 7768TIP3    H123265   5.195   6.772   3.394
 7768TIP3    H223266   5.295   6.883   3.377
 7769TIP3   OH223267   4.914   6.072   3.175
 7769TIP3    H123268   4.869   6.157   3.193
 7769TIP3    H223269   4.840   6.022   3.136
 7770TIP3   OH223270   4.969   6.360   3.346
 7770TIP3    H123271   5.019   6.284   3.383
 7770TIP3    H223272   5.033   6.401   3.287
 7771TIP3   OH223273   5.821   7.335   2.991
 7771TIP3    H123274   5.872   7.257   2.961
 7771TIP3    H223275   5.804   7.317   3.085
 7772TIP3   OH223276   5.734   6.782   3.351
 7772TIP3    H123277   5.784   6.714   3.303
 7772TIP3    H223278   5.808   6.841   3.376
 7773TIP3   OH223279   6.747   6.112   3.347
 7773TIP3    H123280   6.776   6.195   3.388
 7773TIP3    H223281   6.769   6.127   3.254
 7774TIP3   OH223282   6.145   6.292   3.382
 7774TIP3    H123283   6.188   6.207   3.401
 7774TIP3    H223284   6.114   6.278   3.291
 7775TIP3   OH223285   5.484   5.952   3.346
 7775TIP3    H123286   5.464   6.026   3.284
 7775TIP3    H223287   5.435   5.880   3.302
 7776TIP3   OH223288   6.178   6.045   2.968
 7776TIP3    H123289   6.249   6.029   3.034
 7776TIP3    H223290   6.231   6.080   2.894
 7777TIP3   OH223291   5.116   6.155   3.453
 7777TIP3    H123292   5.199   6.137   3.502
 7777TIP3    H223293   5.131   6.100   3.374
 7778TIP3   OH223294   5.557   6.352   3.246
 7778TIP3    H123295   5.651   6.327   3.259
 7778TIP3    H223296   5.519   6.268   3.214
 7779TIP3   OH223297   6.820   6.320   3.518
 7779TIP3    H123298   6.737   6.367   3.496
 7779TIP3    H223299   6.835   6.353   3.608
 7780TIP3   OH223300   5.480   5.937   3.781
 7780TIP3    H123301   5.420   5.974   3.714
 7780TIP3    H223302   5.428   5.954   3.862
 7781TIP3   OH223303   5.828   6.789   2.787
 7781TIP3    H123304   5.782   6.771   2.704
 7781TIP3    H223305   5.785   6.873   2.814
 7782TIP3   OH223306   5.586   6.713   3.577
 7782TIP3    H123307   5.525   6.781   3.612
 7782TIP3    H223308   5.626   6.761   3.501
 7783TIP3   OH223309   6.386   6.047   3.141
 7783TIP3    H123310   6.375   6.001   3.225
 7783TIP3    H223311   6.439   6.125   3.168
 7784TIP3   OH223312   5.351   6.052   3.565
 7784TIP3    H123313   5.412   6.124   3.589
 7784TIP3    H223314   5.400   6.011   3.490
 7785TIP3   OH223315   5.409   6.902   3.670
 7785TIP3    H123316   5.393   6.989   3.628
 7785TIP3    H223317   5.330   6.896   3.727
 7786TIP3   OH223318   4.808   6.596   2.910
 7786TIP3    H123319   4.767   6.627   2.827
 7786TIP3    H223320   4.840   6.681   2.948
 7787TIP3   OH223321   6.253   7.113   3.148
 7787TIP3    H123322   6.166   7.101   3.194
 7787TIP3    H223323   6.237   7.199   3.103
 7788TIP3   OH223324   6.539   6.012   3.513
 7788TIP3    H123325   6.452   6.039   3.481
 7788TIP3    H223326   6.599   6.045   3.443
 7789TIP3   OH223327   5.835   5.655   3.497
 7789TIP3    H123328   5.819   5.560   3.513
 7789TIP3    H223329   5.758   5.694   3.542
 7790TIP3   OH223330   5.955   7.154   2.829
 7790TIP3    H123331   6.004   7.072   2.805
 7790TIP3    H223332   6.010   7.220   2.782
 7791TIP3   OH223333   6.095   6.941   2.731
 7791TIP3    H123334   6.051   6.864   2.694
 7791TIP3    H223335   6.131   6.906   2.815
 7792TIP3   OH223336   6.474   7.027   3.494
 7792TIP3    H123337   6.462   6.949   3.435
 7792TIP3    H223338   6.455   7.101   3.432
 7793TIP3   OH223339   5.765   6.417   2.751
 7793TIP3    H123340   5.685   6.471   2.731
 7793TIP3    H223341   5.811   6.416   2.666
 7794TIP3   OH223342   5.723   6.203   2.465
 7794TIP3    H123343   5.789   6.255   2.515
 7794TIP3    H223344   5.783   6.141   2.419
 7795TIP3   OH223345   6.669   6.661   3.338
 7795TIP3    H123346   6.586   6.713   3.343
 7795TIP3    H223347   6.700   6.686   3.248
 7796TIP3   OH223348   6.113   6.500   2.721
 7796TIP3    H123349   6.059   6.524   2.800
 7796TIP3    H223350   6.198   6.477   2.765
 7797TIP3   OH223351   6.347   6.540   3.635
 7797TIP3    H123352   6.344   6.626   3.681
 7797TIP3    H223353   6.260   6.541   3.590
 7798TIP3   OH223354   5.345   6.498   3.140
 7798TIP3    H123355   5.306   6.440   3.071
 7798TIP3    H223356   5.423   6.445   3.169
 7799TIP3   OH223357   5.455   6.900   3.288
 7799TIP3    H123358   5.471   6.854   3.205
 7799TIP3    H223359   5.546   6.907   3.325
 7800TIP3   OH223360   5.483   6.471   3.493
 7800TIP3    H123361   5.515   6.451   3.404
 7800TIP3    H223362   5.525   6.558   3.512
 7801TIP3   OH223363   6.017   7.103   3.274
 7801TIP3    H123364   5.977   7.182   3.314
 7801TIP3    H223365   5.986   7.031   3.331
 7802TIP3   OH223366   5.610   6.996   3.842
 7802TIP3    H123367   5.566   7.082   3.859
 7802TIP3    H223368   5.553   6.960   3.772
 7803TIP3   OH223369   5.953   6.359   2.548
 7803TIP3    H123370   6.011   6.419   2.599
 7803TIP3    H223371   5.979   6.381   2.456
 7804TIP3   OH223372   5.375   6.577   3.923
 7804TIP3    H123373   5.381   6.667   3.961
 7804TIP3    H223374   5.279   6.561   3.932
 7805TIP3   OH223375   5.699   7.036   2.819
 7805TIP3    H123376   5.776   7.091   2.843
 7805TIP3    H223377   5.635   7.101   2.788
 7806TIP3   OH223378   5.413   7.205   3.906
 7806TIP3    H123379   5.385   7.202   3.812
 7806TIP3    H223380   5.332   7.174   3.953
 7807TIP3   OH223381   6.469   5.599   2.597
 7807TIP3    H123382   6.387   5.621   2.647
 7807TIP3    H223383   6.483   5.683   2.547
 7808TIP3   OH223384   5.214   6.340   2.940
 7808TIP3    H123385   5.146   6.386   2.886
 7808TIP3    H223386   5.171   6.256   2.958
 7809TIP3   OH223387   6.273   6.961   2.143
 7809TIP3    H123388   6.260   7.057   2.126
 7809TIP3    H223389   6.368   6.951   2.121
 7810TIP3   OH223390   4.992   6.725   3.853
 7810TIP3    H123391   4.927   6.704   3.782
 7810TIP3    H223392   5.030   6.637   3.874
 7811TIP3   OH223393   4.848   6.917   3.485
 7811TIP3    H123394   4.944   6.911   3.474
 7811TIP3    H223395   4.840   6.997   3.540
 7812TIP3   OH223396   6.680   7.366   3.518
 7812TIP3    H123397   6.683   7.273   3.546
 7812TIP3    H223398   6.605   7.398   3.572
 7813TIP3   OH223399   5.577   7.283   2.626
 7813TIP3    H123400   5.529   7.270   2.543
 7813TIP3    H223401   5.546   7.371   2.655
 7814TIP3   OH223402   5.016   7.135   3.013
 7814TIP3    H123403   5.067   7.126   3.097
 7814TIP3    H223404   4.958   7.057   3.020
 7815TIP3   OH223405   5.779   7.185   2.266
 7815TIP3    H123406   5.837   7.115   2.229
 7815TIP3    H223407   5.810   7.190   2.358
 7816TIP3   OH223408   5.826   7.223   2.537
 7816TIP3    H123409   5.738   7.234   2.581
 7816TIP3    H223410   5.879   7.188   2.610
 7817TIP3   OH223411   6.598   6.498   3.817
 7817TIP3    H123412   6.519   6.513   3.764
 7817TIP3    H223413   6.614   6.403   3.802
 7818TIP3   OH223414   5.196   6.909   3.841
 7818TIP3    H123415   5.248   6.890   3.921
 7818TIP3    H223416   5.122   6.846   3.848
 7819TIP3   OH223417   5.597   5.731   3.624
 7819TIP3    H123418   5.508   5.700   3.596
 7819TIP3    H223419   5.571   5.813   3.671
 7820TIP3   OH223420   6.130   5.847   3.819
 7820TIP3    H123421   6.198   5.817   3.883
 7820TIP3    H223422   6.046   5.827   3.865
 7821TIP3   OH223423   6.370   6.277   3.738
 7821TIP3    H123424   6.318   6.274   3.821
 7821TIP3    H223425   6.346   6.363   3.700
 7822TIP3   OH223426   6.028   6.403   2.292
 7822TIP3    H123427   5.995   6.379   2.203
 7822TIP3    H223428   6.110   6.452   2.269
 7823TIP3   OH223429   5.741   5.781   2.596
 7823TIP3    H123430   5.708   5.776   2.687
 7823TIP3    H223431   5.703   5.698   2.561
 7824TIP3   OH223432   5.529   6.248   3.642
 7824TIP3    H123433   5.478   6.269   3.723
 7824TIP3    H223434   5.514   6.330   3.589
 7825TIP3   OH223435   5.413   6.132   3.156
 7825TIP3    H123436   5.320   6.108   3.175
 7825TIP3    H223437   5.425   6.092   3.068
 7826TIP3   OH223438   5.903   6.218   2.885
 7826TIP3    H123439   5.851   6.290   2.842
 7826TIP3    H223440   5.958   6.187   2.810
 7827TIP3   OH223441   6.078   6.496   3.970
 7827TIP3    H123442   6.055   6.424   4.033
 7827TIP3    H223443   6.172   6.509   3.991
 7828TIP3   OH223444   6.059   6.247   3.124
 7828TIP3    H123445   5.999   6.278   3.054
 7828TIP3    H223446   6.093   6.166   3.079
 7829TIP3   OH223447   5.349   6.276   3.851
 7829TIP3    H123448   5.372   6.343   3.917
 7829TIP3    H223449   5.338   6.195   3.905
 7830TIP3   OH223450   5.396   5.754   2.561
 7830TIP3    H123451   5.389   5.752   2.658
 7830TIP3    H223452   5.319   5.808   2.537
 7831TIP3   OH223453   4.943   5.796   3.429
 7831TIP3    H123454   5.014   5.831   3.487
 7831TIP3    H223455   4.990   5.765   3.351
 7832TIP3   OH223456   4.908   5.777   2.951
 7832TIP3    H123457   4.958   5.812   2.874
 7832TIP3    H223458   4.852   5.854   2.970
 7833TIP3   OH223459   6.073   6.493   3.547
 7833TIP3    H123460   6.104   6.421   3.487
 7833TIP3    H223461   6.040   6.439   3.622
 7834TIP3   OH223462   5.741   5.954   3.217
 7834TIP3    H123463   5.658   5.953   3.269
 7834TIP3    H223464   5.808   5.955   3.287
 7835TIP3   OH223465   5.175   6.011   3.226
 7835TIP3    H123466   5.080   6.019   3.198
 7835TIP3    H223467   5.198   5.919   3.203
 7836TIP3   OH223468   5.442   6.006   2.914
 7836TIP3    H123469   5.536   6.022   2.893
 7836TIP3    H223470   5.395   6.029   2.831
 7837TIP3   OH223471   6.232   6.030   3.420
 7837TIP3    H123472   6.198   6.044   3.511
 7837TIP3    H223473   6.165   5.970   3.384
 7838TIP3   OH223474   5.286   6.040   2.692
 7838TIP3    H123475   5.214   5.997   2.643
 7838TIP3    H223476   5.338   6.078   2.618
 7839TIP3   OH223477   6.396   7.719   3.631
 7839TIP3    H123478   6.393   7.739   3.535
 7839TIP3    H223479   6.479   7.761   3.657
 7840TIP3   OH223480   5.357   6.827   4.059
 7840TIP3    H123481   5.438   6.862   4.102
 7840TIP3    H223482   5.295   6.829   4.134
 7841TIP3   OH223483   5.822   6.282   3.315
 7841TIP3    H123484   5.897   6.246   3.265
 7841TIP3    H223485   5.831   6.240   3.402
 7842TIP3   OH223486   5.344   5.771   3.195
 7842TIP3    H123487   5.309   5.693   3.243
 7842TIP3    H223488   5.395   5.730   3.124
 7843TIP3   OH223489   5.799   6.180   3.607
 7843TIP3    H123490   5.709   6.217   3.618
 7843TIP3    H223491   5.855   6.243   3.655
 7844TIP3   OH223492   5.536   6.570   2.699
 7844TIP3    H123493   5.463   6.506   2.688
 7844TIP3    H223494   5.518   6.605   2.790
 7845TIP3   OH223495   6.436   6.807   3.329
 7845TIP3    H123496   6.458   6.858   3.248
 7845TIP3    H223497   6.351   6.764   3.305
 7846TIP3   OH223498   5.993   5.883   2.562
 7846TIP3    H123499   5.897   5.865   2.571
 7846TIP3    H223500   6.002   5.977   2.587
 7847TIP3   OH223501   5.938   6.891   3.699
 7847TIP3    H123502   5.953   6.865   3.790
 7847TIP3    H223503   5.867   6.957   3.707
 7848TIP3   OH223504   6.063   6.131   2.666
 7848TIP3    H123505   6.159   6.137   2.683
 7848TIP3    H223506   6.045   6.212   2.615
 7849TIP3   OH223507   5.223   6.586   3.375
 7849TIP3    H123508   5.265   6.564   3.290
 7849TIP3    H223509   5.273   6.532   3.437
 7850TIP3   OH223510   5.680   6.719   2.519
 7850TIP3    H123511   5.632   6.805   2.524
 7850TIP3    H223512   5.626   6.665   2.582
 7851TIP3   OH223513   5.110   6.512   3.989
 7851TIP3    H123514   5.128   6.499   4.084
 7851TIP3    H223515   5.039   6.446   3.974
 7852TIP3   OH223516   5.834   6.625   4.010
 7852TIP3    H123517   5.772   6.569   3.960
 7852TIP3    H223518   5.920   6.591   3.979
 7853TIP3   OH223519   6.108   7.143   3.598
 7853TIP3    H123520   6.014   7.156   3.578
 7853TIP3    H223521   6.120   7.200   3.676
 7854TIP3   OH223522   6.504   6.222   2.502
 7854TIP3    H123523   6.442   6.178   2.440
 7854TIP3    H223524   6.499   6.312   2.463
 7855TIP3   OH223525   6.723   7.076   3.588
 7855TIP3    H123526   6.625   7.072   3.578
 7855TIP3    H223527   6.749   7.047   3.498
 7856TIP3   OH223528   6.192   7.025   2.405
 7856TIP3    H123529   6.180   6.954   2.469
 7856TIP3    H223530   6.218   6.978   2.324
 7857TIP3   OH223531   6.204   6.669   3.248
 7857TIP3    H123532   6.110   6.645   3.261
 7857TIP3    H223533   6.235   6.589   3.202
 7858TIP3   OH223534   5.328   6.893   2.986
 7858TIP3    H123535   5.326   6.979   2.941
 7858TIP3    H223536   5.237   6.884   3.017
 7859TIP3   OH223537   4.892   6.202   2.701
 7859TIP3    H123538   4.938   6.286   2.722
 7859TIP3    H223539   4.816   6.207   2.764
 7860TIP3   OH223540   5.467   6.660   2.943
 7860TIP3    H123541   5.430   6.749   2.958
 7860TIP3    H223542   5.432   6.612   3.020
 7861TIP3   OH223543   5.247   7.139   2.850
 7861TIP3    H123544   5.162   7.146   2.899
 7861TIP3    H223545   5.279   7.231   2.856
 7862TIP3   OH223546   5.987   6.870   3.430
 7862TIP3    H123547   5.977   6.874   3.527
 7862TIP3    H223548   6.068   6.820   3.419
 7863TIP3   OH223549   5.961   6.766   2.312
 7863TIP3    H123550   6.015   6.742   2.390
 7863TIP3    H223551   5.873   6.741   2.343
 7864TIP3   OH223552   6.233   7.406   3.479
 7864TIP3    H123553   6.152   7.354   3.464
 7864TIP3    H223554   6.224   7.472   3.407
 7865TIP3   OH223555   6.250   7.233   2.105
 7865TIP3    H123556   6.343   7.260   2.091
 7865TIP3    H223557   6.211   7.311   2.148
 7866TIP3   OH223558   5.319   6.019   3.997
 7866TIP3    H123559   5.222   6.022   4.009
 7866TIP3    H223560   5.346   5.958   4.068
 7867TIP3   OH223561   6.122   6.700   2.526
 7867TIP3    H123562   6.111   6.635   2.599
 7867TIP3    H223563   6.220   6.697   2.515
 7868TIP3   OH223564   5.035   7.103   3.629
 7868TIP3    H123565   5.093   7.030   3.656
 7868TIP3    H223566   5.074   7.176   3.680
 7869TIP3   OH223567   5.326   6.749   2.311
 7869TIP3    H123568   5.341   6.656   2.284
 7869TIP3    H223569   5.308   6.739   2.406
 7870TIP3   OH223570   5.273   6.753   2.582
 7870TIP3    H123571   5.343   6.727   2.644
 7870TIP3    H223572   5.275   6.851   2.590
 7871TIP3   OH223573   5.006   6.446   2.787
 7871TIP3    H123574   4.940   6.491   2.844
 7871TIP3    H223575   5.020   6.515   2.719
 7872TIP3   OH223576   6.158   6.084   3.680
 7872TIP3    H123577   6.240   6.120   3.718
 7872TIP3    H223578   6.144   6.003   3.733
 7873TIP3   OH223579   6.038   5.833   2.845
 7873TIP3    H123580   6.025   5.856   2.751
 7873TIP3    H223581   6.077   5.916   2.881
 7874TIP3   OH223582   5.537   6.949   2.529
 7874TIP3    H123583   5.452   6.974   2.568
 7874TIP3    H223584   5.555   7.027   2.475
 7875TIP3   OH223585   5.726   6.014   2.946
 7875TIP3    H123586   5.790   6.087   2.929
 7875TIP3    H223587   5.731   6.007   3.044
 7876TIP3   OH223588   5.994   6.332   3.753
 7876TIP3    H123589   6.016   6.386   3.831
 7876TIP3    H223590   6.049   6.253   3.766
 7877TIP3   OH223591   5.870   5.740   3.048
 7877TIP3    H123592   5.861   5.818   3.106
 7877TIP3    H223593   5.931   5.775   2.979
 7878TIP3   OH223594   5.282   7.026   2.600
 7878TIP3    H123595   5.251   7.096   2.539
 7878TIP3    H223596   5.266   7.068   2.687
 7879TIP3   OH223597   5.382   5.740   2.837
 7879TIP3    H123598   5.381   5.831   2.874
 7879TIP3    H223599   5.478   5.721   2.845
 7880TIP3   OH223600   6.637   6.232   3.737
 7880TIP3    H123601   6.539   6.231   3.743
 7880TIP3    H223602   6.649   6.194   3.649
 7881TIP3   OH223603   6.287   6.427   3.123
 7881TIP3    H123604   6.211   6.368   3.135
 7881TIP3    H223605   6.359   6.379   3.171
 7882TIP3   OH223606   4.999   6.654   2.592
 7882TIP3    H123607   5.065   6.725   2.603
 7882TIP3    H223608   5.046   6.601   2.525
 7883TIP3   OH223609   4.944   5.933   2.729
 7883TIP3    H123610   4.949   6.031   2.723
 7883TIP3    H223611   4.865   5.915   2.678
 7884TIP3   OH223612   6.264   7.385   3.065
 7884TIP3    H123613   6.217   7.424   2.988
 7884TIP3    H223614   6.356   7.394   3.034
 7885TIP3   OH223615   5.332   5.651   3.598
 7885TIP3    H123616   5.301   5.616   3.512
 7885TIP3    H223617   5.321   5.574   3.656
 7886TIP3   OH223618   4.867   6.864   2.977
 7886TIP3    H123619   4.801   6.898   3.038
 7886TIP3    H223620   4.841   6.908   2.893
 7887TIP3   OH223621   5.027   7.413   4.051
 7887TIP3    H123622   5.114   7.411   4.096
 7887TIP3    H223623   5.006   7.318   4.048
 7888TIP3   OH223624   5.512   7.374   4.099
 7888TIP3    H123625   5.606   7.352   4.093
 7888TIP3    H223626   5.477   7.320   4.025
 7889TIP3   OH223627   5.490   6.952   2.221
 7889TIP3    H123628   5.433   6.881   2.261
 7889TIP3    H223629   5.566   6.898   2.193
 7890TIP3   OH223630   6.142   7.289   3.833
 7890TIP3    H123631   6.138   7.215   3.899
 7890TIP3    H223632   6.223   7.336   3.860
 7891TIP3   OH223633   5.925   6.991   2.138
 7891TIP3    H123634   5.970   6.930   2.199
 7891TIP3    H223635   5.982   6.990   2.059
 7892TIP3   OH223636   5.157   6.818   4.253
 7892TIP3    H123637   5.173   6.722   4.256
 7892TIP3    H223638   5.071   6.822   4.207
 7893TIP3   OH223639   5.136   6.468   2.445
 7893TIP3    H123640   5.192   6.438   2.519
 7893TIP3    H223641   5.203   6.473   2.374
 7894TIP3   OH223642   5.772   6.903   4.032
 7894TIP3    H123643   5.717   6.926   3.953
 7894TIP3    H223644   5.794   6.809   4.016
 7895TIP3   OH223645   5.645   6.668   2.251
 7895TIP3    H123646   5.648   6.680   2.348
 7895TIP3    H223647   5.645   6.570   2.245
 7896TIP3   OH223648   6.260   6.909   3.633
 7896TIP3    H123649   6.332   6.957   3.588
 7896TIP3    H223650   6.187   6.974   3.623
 7897TIP3   OH223651   5.275   6.552   4.235
 7897TIP3    H123652   5.353   6.502   4.209
 7897TIP3    H223653   5.304   6.586   4.323
 7898TIP3   OH223654   5.341   6.374   2.666
 7898TIP3    H123655   5.315   6.334   2.751
 7898TIP3    H223656   5.379   6.297   2.617
 7899TIP3   OH223657   5.614   6.437   3.896
 7899TIP3    H123658   5.535   6.495   3.896
 7899TIP3    H223659   5.663   6.472   3.818
 7900TIP3   OH223660   5.444   6.166   2.507
 7900TIP3    H123661   5.419   6.173   2.413
 7900TIP3    H223662   5.541   6.169   2.501
 7901TIP3   OH223663   6.132   6.840   4.033
 7901TIP3    H123664   6.203   6.810   3.975
 7901TIP3    H223665   6.125   6.768   4.098
 7902TIP3   OH223666   6.263   6.496   2.171
 7902TIP3    H123667   6.244   6.452   2.087
 7902TIP3    H223668   6.231   6.587   2.149
 7903TIP3   OH223669   5.738   6.227   4.019
 7903TIP3    H123670   5.736   6.147   3.962
 7903TIP3    H223671   5.693   6.293   3.962
 7904TIP3   OH223672   5.738   6.011   3.829
 7904TIP3    H123673   5.766   6.054   3.746
 7904TIP3    H223674   5.644   5.989   3.810
 7905TIP3   OH223675   5.765   6.549   3.703
 7905TIP3    H123676   5.847   6.562   3.653
 7905TIP3    H223677   5.705   6.614   3.659
 7906TIP3   OH223678   6.349   6.513   4.084
 7906TIP3    H123679   6.398   6.430   4.084
 7906TIP3    H223680   6.414   6.574   4.044
 7907TIP3   OH223681   6.388   6.768   3.822
 7907TIP3    H123682   6.330   6.820   3.762
 7907TIP3    H223683   6.475   6.788   3.782
 7908TIP3   OH223684   5.617   6.334   4.254
 7908TIP3    H123685   5.547   6.267   4.267
 7908TIP3    H223686   5.647   6.313   4.164
 7909TIP3   OH223687   5.870   5.775   3.897
 7909TIP3    H123688   5.820   5.856   3.873
 7909TIP3    H223689   5.802   5.706   3.885
 7910TIP3   OH223690   5.996   6.278   4.112
 7910TIP3    H123691   5.978   6.265   4.207
 7910TIP3    H223692   5.908   6.255   4.076
 7911TIP3   OH223693   6.235   6.231   3.968
 7911TIP3    H123694   6.159   6.231   4.029
 7911TIP3    H223695   6.308   6.199   4.025
 7912TIP3   OH223696   6.468   6.171   4.118
 7912TIP3    H123697   6.478   6.075   4.134
 7912TIP3    H223698   6.463   6.208   4.209
 7913TIP3   OH223699   5.452   6.117   4.305
 7913TIP3    H123700   5.455   6.025   4.270
 7913TIP3    H223701   5.488   6.104   4.395
 7914TIP3   OH223702   5.965   5.784   4.154
 7914TIP3    H123703   6.030   5.712   4.146
 7914TIP3    H223704   5.924   5.780   4.065
 7915TIP3   OH223705   6.031   5.999   4.313
 7915TIP3    H123706   6.010   5.929   4.248
 7915TIP3    H223707   5.953   6.058   4.306
 7916TIP3   OH223708   5.251   7.230   2.411
 7916TIP3    H123709   5.347   7.222   2.393
 7916TIP3    H223710   5.223   7.280   2.333
 7917TIP3   OH223711   4.731   6.611   2.627
 7917TIP3    H123712   4.826   6.633   2.614
 7917TIP3    H223713   4.725   6.522   2.587
 7918TIP3   OH223714   4.649   7.224   3.041
 7918TIP3    H123715   4.581   7.164   3.004
 7918TIP3    H223716   4.692   7.166   3.107
 7919TIP3   OH223717   4.784   7.072   3.228
 7919TIP3    H123718   4.769   7.001   3.292
 7919TIP3    H223719   4.836   7.134   3.282
 7920TIP3   OH223720   6.527   7.469   3.007
 7920TIP3    H123721   6.529   7.493   3.102
 7920TIP3    H223722   6.538   7.554   2.962
 7921TIP3   OH223723   6.552   7.485   3.289
 7921TIP3    H123724   6.497   7.404   3.295
 7921TIP3    H223725   6.612   7.466   3.364
 7922TIP3   OH223726   6.587   7.170   3.888
 7922TIP3    H123727   6.511   7.181   3.948
 7922TIP3    H223728   6.629   7.258   3.894
 7923TIP3   OH223729   6.398   6.683   2.504
 7923TIP3    H123730   6.467   6.746   2.475
 7923TIP3    H223731   6.442   6.643   2.583
 7924TIP3   OH223732   6.525   6.549   2.705
 7924TIP3    H123733   6.462   6.509   2.767
 7924TIP3    H223734   6.595   6.584   2.764
 7925TIP3   OH223735   6.585   6.943   3.139
 7925TIP3    H123736   6.635   6.875   3.090
 7925TIP3    H223737   6.560   7.006   3.069
 7926TIP3   OH223738   6.412   7.248   3.331
 7926TIP3    H123739   6.341   7.287   3.385
 7926TIP3    H223740   6.361   7.198   3.264
 7927TIP3   OH223741   6.461   6.456   2.356
 7927TIP3    H123742   6.391   6.462   2.288
 7927TIP3    H223743   6.437   6.533   2.410
 7928TIP3   OH223744   6.338   6.131   2.307
 7928TIP3    H123745   6.293   6.170   2.232
 7928TIP3    H223746   6.313   6.037   2.298
 7929TIP3   OH223747   6.341   6.409   2.854
 7929TIP3    H123748   6.350   6.312   2.848
 7929TIP3    H223749   6.327   6.422   2.951
 7930TIP3   OH223750   4.968   6.479   3.602
 7930TIP3    H123751   4.967   6.450   3.508
 7930TIP3    H223752   5.066   6.482   3.618
 7931TIP3   OH223753   6.631   6.832   3.712
 7931TIP3    H123754   6.704   6.767   3.701
 7931TIP3    H223755   6.657   6.902   3.650
 7932TIP3   OH223756   6.814   6.636   3.729
 7932TIP3    H123757   6.740   6.585   3.768
 7932TIP3    H223758   6.888   6.573   3.743
 7933TIP3   OH223759   6.281   5.865   2.291
 7933TIP3    H123760   6.355   5.835   2.347
 7933TIP3    H223761   6.208   5.806   2.316
 7934TIP3   OH223762   6.339   6.124   2.748
 7934TIP3    H123763   6.379   6.035   2.763
 7934TIP3    H223764   6.397   6.157   2.678
 7935TIP3   OH223765   6.500   6.296   3.244
 7935TIP3    H123766   6.586   6.322   3.203
 7935TIP3    H223767   6.514   6.334   3.333
 7936TIP3   OH223768   6.571   6.442   3.476
 7936TIP3    H123769   6.491   6.477   3.522
 7936TIP3    H223770   6.603   6.523   3.429
 7937TIP3   OH223771   5.185   6.167   4.276
 7937TIP3    H123772   5.283   6.161   4.277
 7937TIP3    H223773   5.162   6.080   4.316
 7938TIP3   OH223774   7.023   6.033   4.033
 7938TIP3    H123775   7.082   5.968   3.989
 7938TIP3    H223776   6.992   6.086   3.956
 7939TIP3   OH223777   6.448   5.874   2.786
 7939TIP3    H123778   6.496   5.859   2.869
 7939TIP3    H223779   6.387   5.797   2.785
 7940TIP3   OH223780   5.146   5.860   3.605
 7940TIP3    H123781   5.208   5.785   3.615
 7940TIP3    H223782   5.209   5.934   3.598
 7941TIP3   OH223783   4.950   6.133   3.678
 7941TIP3    H123784   5.000   6.131   3.594
 7941TIP3    H223785   4.975   6.219   3.713
 7942TIP3   OH223786   6.889   6.170   3.839
 7942TIP3    H123787   6.802   6.213   3.851
 7942TIP3    H223788   6.863   6.099   3.778
 7943TIP3   OH223789   6.527   5.808   2.419
 7943TIP3    H123790   6.568   5.737   2.366
 7943TIP3    H223791   6.595   5.878   2.416
 7944TIP3   OH223792   4.934   5.633   3.177
 7944TIP3    H123793   4.843   5.634   3.211
 7944TIP3    H223794   4.929   5.694   3.101
 7945TIP3   OH223795   6.084   7.337   2.676
 7945TIP3    H123796   6.137   7.322   2.596
 7945TIP3    H223797   6.141   7.398   2.727
 7946TIP3   OH223798   5.155   5.721   3.995
 7946TIP3    H123799   5.103   5.712   4.076
 7946TIP3    H223800   5.088   5.755   3.933
 7947TIP3   OH223801   5.192   7.145   4.075
 7947TIP3    H123802   5.102   7.118   4.053
 7947TIP3    H223803   5.198   7.124   4.169
 7948TIP3   OH223804   5.366   7.179   3.629
 7948TIP3    H123805   5.335   7.258   3.581
 7948TIP3    H223806   5.456   7.172   3.587
 7949TIP3   OH223807   5.811   7.454   3.776
 7949TIP3    H123808   5.868   7.426   3.850
 7949TIP3    H223809   5.876   7.476   3.707
 7950TIP3   OH223810   5.998   7.572   3.611
 7950TIP3    H123811   6.069   7.522   3.569
 7950TIP3    H223812   6.048   7.629   3.673
 7951TIP3   OH223813   6.789   5.935   3.717
 7951TIP3    H123814   6.700   5.928   3.679
 7951TIP3    H223815   6.821   5.842   3.705
 7952TIP3   OH223816   5.047   7.433   3.640
 7952TIP3    H123817   4.957   7.468   3.620
 7952TIP3    H223818   5.058   7.465   3.730
 7953TIP3   OH223819   5.285   7.415   3.502
 7953TIP3    H123820   5.197   7.426   3.544
 7953TIP3    H223821   5.268   7.443   3.411
 7954TIP3   OH223822   5.742   7.480   3.248
 7954TIP3    H123823   5.649   7.464   3.226
 7954TIP3    H223824   5.735   7.542   3.323
 7955TIP3   OH223825   5.981   7.378   3.353
 7955TIP3    H123826   5.885   7.386   3.335
 7955TIP3    H223827   6.012   7.459   3.312
 7956TIP3   OH223828   6.196   7.567   3.269
 7956TIP3    H123829   6.172   7.654   3.231
 7956TIP3    H223830   6.212   7.512   3.190
 7957TIP3   OH223831   4.960   7.226   3.386
 7957TIP3    H123832   4.985   7.202   3.478
 7957TIP3    H223833   5.034   7.182   3.337
 7958TIP3   OH223834   5.156   7.099   3.244
 7958TIP3    H123835   5.171   7.016   3.295
 7958TIP3    H223836   5.246   7.137   3.243
 7959TIP3   OH223837   5.418   7.197   3.241
 7959TIP3    H123838   5.445   7.105   3.231
 7959TIP3    H223839   5.476   7.217   3.318
 7960TIP3   OH223840   5.997   5.851   3.337
 7960TIP3    H123841   5.952   5.781   3.387
 7960TIP3    H223842   6.068   5.802   3.292
 7961TIP3   OH223843   6.518   5.731   3.241
 7961TIP3    H123844   6.554   5.782   3.165
 7961TIP3    H223845   6.422   5.748   3.233
 7962TIP3   OH223846   6.612   5.829   3.004
 7962TIP3    H123847   6.686   5.778   2.963
 7962TIP3    H223848   6.646   5.921   2.989
 7963TIP3   OH223849   5.242   5.559   3.350
 7963TIP3    H123850   5.150   5.524   3.355
 7963TIP3    H223851   5.292   5.474   3.347
 7964TIP3   OH223852   5.010   5.433   2.990
 7964TIP3    H123853   5.055   5.487   2.924
 7964TIP3    H223854   4.998   5.497   3.063
 7965TIP3   OH223855   5.688   5.590   3.231
 7965TIP3    H123856   5.745   5.640   3.170
 7965TIP3    H223857   5.708   5.631   3.316
 7966TIP3   OH223858   6.234   5.738   3.214
 7966TIP3    H123859   6.233   5.700   3.125
 7966TIP3    H223860   6.221   5.658   3.270
 7967TIP3   OH223861   6.264   5.661   2.777
 7967TIP3    H123862   6.177   5.704   2.791
 7967TIP3    H223863   6.249   5.576   2.823
 7968TIP3   OH223864   4.748   7.000   2.777
 7968TIP3    H123865   4.662   6.968   2.744
 7968TIP3    H223866   4.738   7.095   2.759
 7969TIP3   OH223867   5.148   5.590   2.760
 7969TIP3    H123868   5.196   5.525   2.704
 7969TIP3    H223869   5.222   5.643   2.795
 7970TIP3   OH223870   5.660   5.764   2.860
 7970TIP3    H123871   5.719   5.716   2.920
 7970TIP3    H223872   5.682   5.856   2.886
 7971TIP3   OH223873   5.519   7.188   2.358
 7971TIP3    H123874   5.608   7.209   2.324
 7971TIP3    H223875   5.497   7.112   2.299
 7972TIP3   OH223876   6.219   7.291   2.442
 7972TIP3    H123877   6.214   7.193   2.432
 7972TIP3    H223878   6.185   7.320   2.356
 7973TIP3   OH223879   5.451   5.842   4.244
 7973TIP3    H123880   5.415   5.770   4.298
 7973TIP3    H223881   5.545   5.841   4.271
 7974TIP3   OH223882   5.702   5.839   4.362
 7974TIP3    H123883   5.785   5.810   4.320
 7974TIP3    H223884   5.688   5.768   4.428
 7975TIP3   OH223885   4.823   7.025   2.416
 7975TIP3    H123886   4.821   7.049   2.509
 7975TIP3    H223887   4.912   6.984   2.405
 7976TIP3   OH223888   6.527   5.899   4.148
 7976TIP3    H123889   6.547   5.867   4.238
 7976TIP3    H223890   6.615   5.894   4.105
 7977TIP3   OH223891   6.453   7.451   3.646
 7977TIP3    H123892   6.375   7.419   3.595
 7977TIP3    H223893   6.435   7.547   3.646
 7978TIP3   OH223894   7.029   6.720   3.158
 7978TIP3    H123895   7.065   6.653   3.219
 7978TIP3    H223896   7.104   6.781   3.150
 7979TIP3   OH223897   6.708   6.325   2.661
 7979TIP3    H123898   6.666   6.411   2.678
 7979TIP3    H223899   6.634   6.278   2.620
 7980TIP3   OH223900   6.760   6.613   2.831
 7980TIP3    H123901   6.811   6.538   2.868
 7980TIP3    H223902   6.829   6.664   2.786
 7981TIP3   OH223903   7.271   6.206   2.837
 7981TIP3    H123904   7.256   6.280   2.774
 7981TIP3    H223905   7.223   6.134   2.790
 7982TIP3   OH223906   6.911   6.412   2.941
 7982TIP3    H123907   6.995   6.393   2.988
 7982TIP3    H223908   6.926   6.358   2.860
 7983TIP3   OH223909   7.354   6.603   2.749
 7983TIP3    H123910   7.443   6.593   2.714
 7983TIP3    H223911   7.307   6.528   2.709
 7984TIP3   OH223912   7.271   6.193   3.268
 7984TIP3    H123913   7.212   6.230   3.200
 7984TIP3    H223914   7.219   6.212   3.349
 7985TIP3   OH223915   7.145   6.310   3.054
 7985TIP3    H123916   7.209   6.382   3.074
 7985TIP3    H223917   7.191   6.267   2.978
 7986TIP3   OH223918   6.596   6.852   2.399
 7986TIP3    H123919   6.544   6.897   2.332
 7986TIP3    H223920   6.628   6.930   2.450
 7987TIP3   OH223921   7.619   5.905   2.981
 7987TIP3    H123922   7.609   5.811   3.004
 7987TIP3    H223923   7.544   5.945   3.030
 7988TIP3   OH223924   7.129   6.744   2.641
 7988TIP3    H123925   7.094   6.696   2.563
 7988TIP3    H223926   7.221   6.715   2.644
 7989TIP3   OH223927   7.279   6.737   2.988
 7989TIP3    H123928   7.312   6.711   2.899
 7989TIP3    H223929   7.307   6.831   2.996
 7990TIP3   OH223930   7.162   6.841   3.408
 7990TIP3    H123931   7.167   6.928   3.455
 7990TIP3    H223932   7.066   6.824   3.413
 7991TIP3   OH223933   7.005   6.593   2.445
 7991TIP3    H123934   6.970   6.652   2.377
 7991TIP3    H223935   6.948   6.516   2.437
 7992TIP3   OH223936   6.776   6.976   3.344
 7992TIP3    H123937   6.713   6.957   3.272
 7992TIP3    H223938   6.817   6.889   3.362
 7993TIP3   OH223939   6.636   7.178   2.963
 7993TIP3    H123940   6.726   7.152   2.986
 7993TIP3    H223941   6.619   7.253   3.021
 7994TIP3   OH223942   6.995   7.136   3.319
 7994TIP3    H123943   7.033   7.154   3.407
 7994TIP3    H223944   6.921   7.077   3.341
 7995TIP3   OH223945   7.390   5.987   3.115
 7995TIP3    H123946   7.302   5.957   3.085
 7995TIP3    H223947   7.364   6.070   3.160
 7996TIP3   OH223948   7.925   6.085   3.313
 7996TIP3    H123949   7.952   6.138   3.389
 7996TIP3    H223950   7.832   6.066   3.334
 7997TIP3   OH223951   7.492   6.022   2.051
 7997TIP3    H123952   7.562   6.036   2.118
 7997TIP3    H223953   7.467   5.928   2.063
 7998TIP3   OH223954   7.321   6.508   3.126
 7998TIP3    H123955   7.264   6.525   3.204
 7998TIP3    H223956   7.308   6.591   3.074
 7999TIP3   OH223957   7.213   6.388   2.644
 7999TIP3    H123958   7.118   6.371   2.659
 7999TIP3    H223959   7.224   6.351   2.554
 8000TIP3   OH223960   7.145   6.530   3.338
 8000TIP3    H123961   7.162   6.593   3.410
 8000TIP3    H223962   7.135   6.447   3.388
 8001TIP3   OH223963   7.177   5.999   2.039
 8001TIP3    H123964   7.186   6.003   2.136
 8001TIP3    H223965   7.104   6.062   2.024
 8002TIP3   OH223966   6.737   6.052   2.920
 8002TIP3    H123967   6.812   6.087   2.973
 8002TIP3    H223968   6.779   6.025   2.837
 8003TIP3   OH223969   6.707   6.034   2.438
 8003TIP3    H123970   6.755   6.071   2.361
 8003TIP3    H223971   6.647   6.109   2.458
 8004TIP3   OH223972   7.525   6.196   2.723
 8004TIP3    H123973   7.437   6.179   2.762
 8004TIP3    H223974   7.573   6.229   2.799
 8005TIP3   OH223975   6.970   6.268   2.714
 8005TIP3    H123976   6.876   6.276   2.686
 8005TIP3    H223977   6.993   6.177   2.689
 8006TIP3   OH223978   7.243   6.273   2.394
 8006TIP3    H123979   7.328   6.296   2.356
 8006TIP3    H223980   7.182   6.285   2.317
 8007TIP3   OH223981   7.091   6.297   2.172
 8007TIP3    H123982   7.005   6.253   2.165
 8007TIP3    H223983   7.110   6.312   2.079
 8008TIP3   OH223984   7.167   7.072   3.562
 8008TIP3    H123985   7.226   7.145   3.578
 8008TIP3    H223986   7.094   7.089   3.624
 8009TIP3   OH223987   7.142   6.027   2.678
 8009TIP3    H123988   7.108   5.949   2.726
 8009TIP3    H223989   7.204   5.986   2.616
 8010TIP3   OH223990   7.585   6.415   3.110
 8010TIP3    H123991   7.494   6.446   3.095
 8010TIP3    H223992   7.635   6.498   3.106
 8011TIP3   OH223993   6.998   6.791   2.867
 8011TIP3    H123994   7.043   6.773   2.781
 8011TIP3    H223995   7.058   6.748   2.929
 8012TIP3   OH223996   6.903   6.768   3.475
 8012TIP3    H123997   6.925   6.754   3.569
 8012TIP3    H223998   6.833   6.703   3.459
 8013TIP3   OH223999   6.678   6.445   2.189
 8013TIP3    H124000   6.717   6.534   2.205
 8013TIP3    H224001   6.602   6.449   2.251
 8014TIP3   OH224002   7.113   6.277   3.484
 8014TIP3    H124003   7.017   6.277   3.496
 8014TIP3    H224004   7.142   6.217   3.554
 8015TIP3   OH224005   6.773   6.689   2.257
 8015TIP3    H124006   6.725   6.742   2.324
 8015TIP3    H224007   6.853   6.744   2.241
 8016TIP3   OH224008   7.668   6.014   2.547
 8016TIP3    H124009   7.630   6.088   2.598
 8016TIP3    H224010   7.736   6.058   2.494
 8017TIP3   OH224011   7.175   5.996   2.320
 8017TIP3    H124012   7.177   6.082   2.365
 8017TIP3    H224013   7.268   5.970   2.334
 8018TIP3   OH224014   6.747   6.184   2.212
 8018TIP3    H124015   6.739   6.282   2.209
 8018TIP3    H224016   6.663   6.158   2.172
 8019TIP3   OH224017   7.125   5.909   3.086
 8019TIP3    H124018   7.097   5.875   2.998
 8019TIP3    H224019   7.116   5.830   3.143
 8020TIP3   OH224020   6.655   7.099   2.495
 8020TIP3    H124021   6.597   7.165   2.535
 8020TIP3    H224022   6.695   7.155   2.425
 8021TIP3   OH224023   6.953   7.063   3.749
 8021TIP3    H124024   6.968   6.967   3.737
 8021TIP3    H224025   6.871   7.077   3.696
 8022TIP3   OH224026   7.070   6.799   3.719
 8022TIP3    H124027   7.152   6.754   3.691
 8022TIP3    H224028   7.096   6.834   3.806
 8023TIP3   OH224029   7.388   6.702   3.378
 8023TIP3    H124030   7.306   6.755   3.391
 8023TIP3    H224031   7.400   6.706   3.283
 8024TIP3   OH224032   7.485   6.475   3.506
 8024TIP3    H124033   7.502   6.399   3.446
 8024TIP3    H224034   7.455   6.544   3.443
 8025TIP3   OH224035   7.526   6.262   3.330
 8025TIP3    H124036   7.559   6.309   3.250
 8025TIP3    H224037   7.434   6.240   3.303
 8026TIP3   OH224038   7.398   6.597   3.737
 8026TIP3    H124039   7.335   6.524   3.757
 8026TIP3    H224040   7.431   6.567   3.649
 8027TIP3   OH224041   7.665   6.031   3.381
 8027TIP3    H124042   7.612   6.113   3.366
 8027TIP3    H224043   7.598   5.961   3.369
 8028TIP3   OH224044   7.766   6.452   3.539
 8028TIP3    H124045   7.796   6.515   3.606
 8028TIP3    H224046   7.671   6.444   3.559
 8029TIP3   OH224047   7.246   6.373   3.795
 8029TIP3    H124048   7.256   6.285   3.755
 8029TIP3    H224049   7.285   6.357   3.883
 8030TIP3   OH224050   7.759   6.035   3.639
 8030TIP3    H124051   7.828   5.967   3.629
 8030TIP3    H224052   7.720   6.035   3.548
 8031TIP3   OH224053   7.818   6.247   3.807
 8031TIP3    H124054   7.799   6.181   3.736
 8031TIP3    H224055   7.749   6.315   3.788
 8032TIP3   OH224056   6.550   6.865   2.096
 8032TIP3    H124057   6.628   6.837   2.145
 8032TIP3    H224058   6.525   6.781   2.053
 8033TIP3   OH224059   6.369   7.454   2.598
 8033TIP3    H124060   6.329   7.389   2.538
 8033TIP3    H224061   6.449   7.407   2.629
 8034TIP3   OH224062   6.586   7.332   2.727
 8034TIP3    H124063   6.588   7.247   2.774
 8034TIP3    H224064   6.575   7.393   2.801
 8035TIP3   OH224065   6.765   6.735   3.087
 8035TIP3    H124066   6.764   6.707   2.993
 8035TIP3    H224067   6.862   6.740   3.103
 8036TIP3   OH224068   6.980   6.423   3.764
 8036TIP3    H124069   7.078   6.418   3.764
 8036TIP3    H224070   6.958   6.336   3.803
 8037TIP3   OH224071   6.942   6.118   3.096
 8037TIP3    H124072   7.003   6.042   3.102
 8037TIP3    H224073   7.005   6.192   3.087
 8038TIP3   OH224074   6.746   6.390   3.167
 8038TIP3    H124075   6.795   6.384   3.082
 8038TIP3    H224076   6.772   6.478   3.197
 8039TIP3   OH224077   6.730   5.893   2.666
 8039TIP3    H124078   6.636   5.890   2.693
 8039TIP3    H224079   6.726   5.952   2.588
 8040TIP3   OH224080   6.950   5.976   3.482
 8040TIP3    H124081   6.897   5.970   3.563
 8040TIP3    H224082   6.885   6.012   3.419
 8041TIP3   OH224083   6.949   7.298   3.555
 8041TIP3    H124084   6.866   7.315   3.507
 8041TIP3    H224085   6.943   7.364   3.626
 8042TIP3   OH224086   7.039   5.817   2.837
 8042TIP3    H124087   6.947   5.784   2.839
 8042TIP3    H224088   7.088   5.732   2.833
 8043TIP3   OH224089   6.825   5.686   2.485
 8043TIP3    H124090   6.857   5.743   2.413
 8043TIP3    H224091   6.799   5.751   2.553
 8044TIP3   OH224092   7.474   5.850   2.727
 8044TIP3    H124093   7.530   5.883   2.655
 8044TIP3    H224094   7.519   5.888   2.805
 8045TIP3   OH224095   6.944   5.844   2.247
 8045TIP3    H124096   6.991   5.781   2.189
 8045TIP3    H224097   7.019   5.898   2.281
 8046TIP3   OH224098   7.444   6.004   2.372
 8046TIP3    H124099   7.513   5.952   2.416
 8046TIP3    H224100   7.491   6.086   2.355
 8047TIP3   OH224101   7.246   6.097   3.728
 8047TIP3    H124102   7.212   6.026   3.785
 8047TIP3    H224103   7.341   6.097   3.755
 8048TIP3   OH224104   7.495   6.094   3.848
 8048TIP3    H124105   7.581   6.077   3.804
 8048TIP3    H224106   7.490   6.019   3.910
 8049TIP3   OH224107   0.996   7.136   4.528
 8049TIP3    H124108   1.014   7.222   4.570
 8049TIP3    H224109   1.023   7.153   4.436
 8050TIP3   OH224110   1.068   7.343   4.713
 8050TIP3    H124111   1.041   7.428   4.672
 8050TIP3    H224112   1.103   7.378   4.797
 8051TIP3   OH224113   0.656   7.072   4.333
 8051TIP3    H124114   0.685   7.042   4.419
 8051TIP3    H224115   0.688   7.164   4.333
 8052TIP3   OH224116   0.779   7.051   4.672
 8052TIP3    H124117   0.715   7.121   4.653
 8052TIP3    H224118   0.855   7.078   4.616
 8053TIP3   OH224119   0.713   6.646   3.769
 8053TIP3    H124120   0.633   6.648   3.825
 8053TIP3    H224121   0.724   6.740   3.753
 8054TIP3   OH224122   0.869   7.546   5.034
 8054TIP3    H124123   0.826   7.515   4.951
 8054TIP3    H224124   0.898   7.463   5.072
 8055TIP3   OH224125   0.762   7.227   3.682
 8055TIP3    H124126   0.698   7.213   3.609
 8055TIP3    H224127   0.762   7.325   3.685
 8056TIP3   OH224128   0.882   7.261   4.930
 8056TIP3    H124129   0.789   7.265   4.906
 8056TIP3    H224130   0.925   7.257   4.843
 8057TIP3   OH224131   0.611   7.151   3.466
 8057TIP3    H124132   0.560   7.186   3.391
 8057TIP3    H224133   0.569   7.064   3.478
 8058TIP3   OH224134   0.534   6.888   3.470
 8058TIP3    H124135   0.623   6.878   3.507
 8058TIP3    H224136   0.478   6.845   3.536
 8059TIP3   OH224137   0.608   7.177   3.905
 8059TIP3    H124138   0.623   7.090   3.945
 8059TIP3    H224139   0.678   7.181   3.838
 8060TIP3   OH224140   0.769   7.326   4.426
 8060TIP3    H124141   0.824   7.363   4.355
 8060TIP3    H224142   0.718   7.404   4.451
 8061TIP3   OH224143   1.273   7.076   5.210
 8061TIP3    H124144   1.331   7.010   5.167
 8061TIP3    H224145   1.241   7.128   5.133
 8062TIP3   OH224146   0.706   6.908   3.958
 8062TIP3    H124147   0.744   6.902   4.048
 8062TIP3    H224148   0.634   6.842   3.964
 8063TIP3   OH224149   1.138   7.208   5.015
 8063TIP3    H124150   1.048   7.241   5.033
 8063TIP3    H224151   1.116   7.133   4.955
 8064TIP3   OH224152   0.810   6.875   3.560
 8064TIP3    H124153   0.828   6.781   3.549
 8064TIP3    H224154   0.850   6.894   3.649
 8065TIP3   OH224155   1.044   6.977   4.892
 8065TIP3    H124156   0.951   6.966   4.863
 8065TIP3    H224157   1.076   6.884   4.882
 8066TIP3   OH224158   0.758   6.780   4.417
 8066TIP3    H124159   0.814   6.823   4.349
 8066TIP3    H224160   0.671   6.806   4.385
 8067TIP3   OH224161   0.867   6.865   4.184
 8067TIP3    H124162   0.941   6.817   4.140
 8067TIP3    H224163   0.898   6.958   4.170
 8068TIP3   OH224164   0.512   6.701   3.949
 8068TIP3    H124165   0.421   6.733   3.946
 8068TIP3    H224166   0.501   6.617   3.998
 8069TIP3   OH224167   0.760   6.945   5.316
 8069TIP3    H124168   0.775   6.921   5.410
 8069TIP3    H224169   0.850   6.940   5.280
 8070TIP3   OH224170   2.796   7.396   4.015
 8070TIP3    H124171   2.815   7.481   4.059
 8070TIP3    H224172   2.809   7.418   3.921
 8071TIP3   OH224173   2.211   7.596   4.038
 8071TIP3    H124174   2.250   7.515   4.077
 8071TIP3    H224175   2.175   7.558   3.955
 8072TIP3   OH224176   1.541   7.238   4.005
 8072TIP3    H124177   1.512   7.309   3.945
 8072TIP3    H224178   1.475   7.170   3.981
 8073TIP3   OH224179   2.220   7.329   3.646
 8073TIP3    H124180   2.303   7.325   3.700
 8073TIP3    H224181   2.253   7.360   3.561
 8074TIP3   OH224182   1.111   7.421   4.172
 8074TIP3    H124183   1.207   7.432   4.169
 8074TIP3    H224184   1.088   7.412   4.077
 8075TIP3   OH224185   2.874   7.605   4.188
 8075TIP3    H124186   2.844   7.690   4.149
 8075TIP3    H224187   2.876   7.630   4.281
 8076TIP3   OH224188   1.528   7.232   4.452
 8076TIP3    H124189   1.472   7.267   4.379
 8076TIP3    H224190   1.469   7.249   4.528
 8077TIP3   OH224191   2.438   7.349   3.805
 8077TIP3    H124192   2.421   7.304   3.889
 8077TIP3    H224193   2.494   7.423   3.834
 8078TIP3   OH224194   1.404   7.341   4.237
 8078TIP3    H124195   1.408   7.438   4.235
 8078TIP3    H224196   1.456   7.316   4.159
 8079TIP3   OH224197   2.581   7.304   4.171
 8079TIP3    H124198   2.496   7.341   4.143
 8079TIP3    H224199   2.644   7.341   4.105
 8080TIP3   OH224200   1.880   6.955   4.158
 8080TIP3    H124201   1.865   6.861   4.177
 8080TIP3    H224202   1.803   6.995   4.205
 8081TIP3   OH224203   2.513   6.900   3.260
 8081TIP3    H124204   2.432   6.921   3.310
 8081TIP3    H224205   2.528   6.984   3.212
 8082TIP3   OH224206   2.681   7.809   4.520
 8082TIP3    H124207   2.603   7.782   4.468
 8082TIP3    H224208   2.715   7.721   4.543
 8083TIP3   OH224209   1.644   7.032   4.286
 8083TIP3    H124210   1.555   7.002   4.260
 8083TIP3    H224211   1.619   7.114   4.333
 8084TIP3   OH224212   2.176   7.149   4.482
 8084TIP3    H124213   2.245   7.119   4.545
 8084TIP3    H224214   2.093   7.126   4.528
 8085TIP3   OH224215   2.409   7.552   4.403
 8085TIP3    H124216   2.367   7.550   4.492
 8085TIP3    H224217   2.386   7.642   4.373
 8086TIP3   OH224218   1.779   7.085   3.257
 8086TIP3    H124219   1.753   7.078   3.351
 8086TIP3    H224220   1.747   6.998   3.226
 8087TIP3   OH224221   1.435   7.377   3.780
 8087TIP3    H124222   1.345   7.346   3.796
 8087TIP3    H224223   1.451   7.347   3.688
 8088TIP3   OH224224   2.084   7.494   3.819
 8088TIP3    H124225   2.079   7.549   3.739
 8088TIP3    H224226   2.121   7.412   3.779
 8089TIP3   OH224227   1.396   7.589   4.564
 8089TIP3    H124228   1.435   7.596   4.651
 8089TIP3    H224229   1.379   7.494   4.559
 8090TIP3   OH224230   1.437   7.058   3.222
 8090TIP3    H124231   1.438   7.053   3.320
 8090TIP3    H224232   1.364   7.121   3.207
 8091TIP3   OH224233   0.997   7.086   4.096
 8091TIP3    H124234   1.048   7.132   4.165
 8091TIP3    H224235   1.046   7.113   4.018
 8092TIP3   OH224236   0.994   7.109   3.624
 8092TIP3    H124237   1.049   7.187   3.613
 8092TIP3    H224238   0.909   7.153   3.650
 8093TIP3   OH224239   1.792   7.228   3.885
 8093TIP3    H124240   1.709   7.227   3.937
 8093TIP3    H224241   1.858   7.247   3.954
 8094TIP3   OH224242   1.251   7.250   3.947
 8094TIP3    H124243   1.175   7.301   3.908
 8094TIP3    H224244   1.267   7.177   3.886
 8095TIP3   OH224245   1.503   7.297   3.527
 8095TIP3    H124246   1.599   7.302   3.544
 8095TIP3    H224247   1.482   7.391   3.510
 8096TIP3   OH224248   2.275   7.328   4.089
 8096TIP3    H124249   2.238   7.340   4.178
 8096TIP3    H224250   2.208   7.269   4.050
 8097TIP3   OH224251   1.890   7.564   3.999
 8097TIP3    H124252   1.969   7.534   3.949
 8097TIP3    H224253   1.917   7.553   4.090
 8098TIP3   OH224254   1.399   7.043   3.833
 8098TIP3    H124255   1.366   6.972   3.892
 8098TIP3    H224256   1.476   7.002   3.792
 8099TIP3   OH224257   1.841   7.471   4.292
 8099TIP3    H124258   1.799   7.549   4.252
 8099TIP3    H224259   1.922   7.510   4.326
 8100TIP3   OH224260   2.034   7.178   3.223
 8100TIP3    H124261   1.939   7.158   3.233
 8100TIP3    H224262   2.036   7.275   3.230
 8101TIP3   OH224263   2.142   7.402   3.376
 8101TIP3    H124264   2.238   7.409   3.365
 8101TIP3    H224265   2.107   7.471   3.317
 8102TIP3   OH224266   2.525   7.483   3.183
 8102TIP3    H124267   2.474   7.458   3.102
 8102TIP3    H224268   2.565   7.566   3.154
 8103TIP3   OH224269   1.366   7.312   4.661
 8103TIP3    H124270   1.270   7.305   4.675
 8103TIP3    H224271   1.400   7.260   4.736
 8104TIP3   OH224272   2.190   7.391   4.348
 8104TIP3    H124273   2.279   7.424   4.371
 8104TIP3    H224274   2.185   7.306   4.398
 8105TIP3   OH224275   2.084   7.129   3.504
 8105TIP3    H124276   2.073   7.158   3.412
 8105TIP3    H224277   2.117   7.211   3.546
 8106TIP3   OH224278   1.771   7.296   3.612
 8106TIP3    H124279   1.797   7.387   3.587
 8106TIP3    H224280   1.780   7.299   3.710
 8107TIP3   OH224281   2.044   7.628   4.453
 8107TIP3    H124282   2.059   7.622   4.549
 8107TIP3    H224283   2.098   7.555   4.420
 8108TIP3   OH224284   1.915   7.035   3.712
 8108TIP3    H124285   1.894   7.113   3.767
 8108TIP3    H224286   1.976   7.074   3.645
 8109TIP3   OH224287   1.426   7.034   3.493
 8109TIP3    H124288   1.438   7.128   3.518
 8109TIP3    H224289   1.518   7.003   3.509
 8110TIP3   OH224290   2.684   7.511   4.418
 8110TIP3    H124291   2.586   7.517   4.418
 8110TIP3    H224292   2.699   7.507   4.322
 8111TIP3   OH224293   2.468  -0.282   4.862
 8111TIP3    H124294   2.529  -0.208   4.851
 8111TIP3    H224295   2.386  -0.230   4.871
 8112TIP3   OH224296   1.381   6.951   4.260
 8112TIP3    H124297   1.346   6.919   4.175
 8112TIP3    H224298   1.368   6.875   4.319
 8113TIP3   OH224299   1.782   7.492   4.699
 8113TIP3    H124300   1.793   7.408   4.649
 8113TIP3    H224301   1.730   7.544   4.637
 8114TIP3   OH224302   1.784   7.302   4.502
 8114TIP3    H124303   1.804   7.352   4.420
 8114TIP3    H224304   1.690   7.277   4.485
 8115TIP3   OH224305   2.420   7.816   4.660
 8115TIP3    H124306   2.384   7.729   4.680
 8115TIP3    H224307   2.498   7.818   4.717
 8116TIP3   OH224308   1.652   7.638   4.901
 8116TIP3    H124309   1.584   7.575   4.933
 8116TIP3    H224310   1.694   7.586   4.830
 8117TIP3   OH224311   1.918   7.070   4.560
 8117TIP3    H124312   1.867   7.151   4.538
 8117TIP3    H224313   1.849   7.001   4.548
 8118TIP3   OH224314   2.041   7.568   4.767
 8118TIP3    H124315   2.040   7.556   4.864
 8118TIP3    H224316   1.951   7.537   4.746
 8119TIP3   OH224317   2.284   7.540   4.639
 8119TIP3    H124318   2.203   7.537   4.695
 8119TIP3    H224319   2.350   7.494   4.694
 8120TIP3   OH224320   2.512   7.468   4.778
 8120TIP3    H124321   2.523   7.372   4.798
 8120TIP3    H224322   2.507   7.508   4.867
 8121TIP3   OH224323   1.497   7.409   4.955
 8121TIP3    H124324   1.503   7.314   4.935
 8121TIP3    H224325   1.525   7.410   5.049
 8122TIP3   OH224326   2.010   7.087   4.817
 8122TIP3    H124327   2.076   7.015   4.812
 8122TIP3    H224328   1.970   7.079   4.728
 8123TIP3   OH224329   2.075   7.303   4.975
 8123TIP3    H124330   2.054   7.230   4.912
 8123TIP3    H224331   1.995   7.359   4.969
 8124TIP3   OH224332   2.385   7.426   2.959
 8124TIP3    H124333   2.348   7.421   2.869
 8124TIP3    H224334   2.370   7.332   2.984
 8125TIP3   OH224335   2.323   7.163   2.964
 8125TIP3    H124336   2.399   7.125   3.013
 8125TIP3    H224337   2.251   7.100   2.983
 8126TIP3   OH224338   2.409   7.423   3.416
 8126TIP3    H124339   2.444   7.335   3.444
 8126TIP3    H224340   2.466   7.435   3.336
 8127TIP3   OH224341   2.565   7.574   3.902
 8127TIP3    H124342   2.613   7.633   3.844
 8127TIP3    H224343   2.508   7.636   3.948
 8128TIP3   OH224344   1.225   7.455   4.932
 8128TIP3    H124345   1.323   7.456   4.941
 8128TIP3    H224346   1.204   7.372   4.979
 8129TIP3   OH224347   3.068   7.334   4.697
 8129TIP3    H124348   3.127   7.269   4.653
 8129TIP3    H224349   3.036   7.386   4.620
 8130TIP3   OH224350   2.495   7.168   3.452
 8130TIP3    H124351   2.542   7.152   3.537
 8130TIP3    H224352   2.432   7.094   3.451
 8131TIP3   OH224353   1.185   7.153   4.291
 8131TIP3    H124354   1.259   7.090   4.287
 8131TIP3    H224355   1.230   7.235   4.264
 8132TIP3   OH224356   2.937   7.467   4.501
 8132TIP3    H124357   2.845   7.500   4.512
 8132TIP3    H224358   2.916   7.391   4.442
 8133TIP3   OH224359   2.572   7.109   3.082
 8133TIP3    H124360   2.615   7.038   3.030
 8133TIP3    H224361   2.639   7.180   3.079
 8134TIP3   OH224362   0.946   6.912   3.811
 8134TIP3    H124363   0.883   6.929   3.883
 8134TIP3    H224364   0.972   7.002   3.784
 8135TIP3   OH224365   1.205   7.018   4.661
 8135TIP3    H124366   1.150   7.012   4.742
 8135TIP3    H224367   1.139   7.051   4.597
 8136TIP3   OH224368   2.840   7.235   4.380
 8136TIP3    H124369   2.749   7.237   4.346
 8136TIP3    H224370   2.864   7.141   4.366
 8137TIP3   OH224371   2.051   7.153   4.010
 8137TIP3    H124372   2.000   7.083   4.053
 8137TIP3    H224373   2.116   7.104   3.957
 8138TIP3   OH224374   2.563   7.026   3.900
 8138TIP3    H124375   2.600   7.083   3.828
 8138TIP3    H224376   2.468   7.049   3.897
 8139TIP3   OH224377   2.660   7.134   3.668
 8139TIP3    H124378   2.734   7.083   3.628
 8139TIP3    H224379   2.691   7.226   3.652
 8140TIP3   OH224380   1.291   6.857   4.011
 8140TIP3    H124381   1.198   6.826   4.020
 8140TIP3    H224382   1.339   6.771   4.011
 8141TIP3   OH224383   1.066   6.725   3.658
 8141TIP3    H124384   1.119   6.786   3.604
 8141TIP3    H224385   1.031   6.786   3.727
 8142TIP3   OH224386   1.727   6.895   3.894
 8142TIP3    H124387   1.789   6.942   3.836
 8142TIP3    H224388   1.750   6.932   3.980
 8143TIP3   OH224389   2.281   7.039   3.877
 8143TIP3    H124390   2.276   7.001   3.789
 8143TIP3    H224391   2.266   6.960   3.934
 8144TIP3   OH224392   2.307   6.961   3.441
 8144TIP3    H124393   2.222   7.007   3.455
 8144TIP3    H224394   2.292   6.877   3.487
 8145TIP3   OH224395   1.188   6.901   3.424
 8145TIP3    H124396   1.235   6.827   3.381
 8145TIP3    H224397   1.265   6.951   3.461
 8146TIP3   OH224398   1.707   7.049   3.523
 8146TIP3    H124399   1.767   7.002   3.583
 8146TIP3    H224400   1.727   7.141   3.550
 8147TIP3   OH224401   1.496   7.136   4.906
 8147TIP3    H124402   1.461   7.065   4.962
 8147TIP3    H224403   1.591   7.136   4.934
 8148TIP3   OH224404   1.747   7.139   5.023
 8148TIP3    H124405   1.831   7.110   4.985
 8148TIP3    H224406   1.733   7.070   5.091
 8149TIP3   OH224407   2.571   7.199   4.812
 8149TIP3    H124408   2.590   7.168   4.903
 8149TIP3    H224409   2.660   7.194   4.771
 8150TIP3   OH224410   4.593   7.652   3.502
 8150TIP3    H124411   4.613   7.737   3.545
 8150TIP3    H224412   4.590   7.678   3.408
 8151TIP3   OH224413   4.047   7.863   3.528
 8151TIP3    H124414   4.066   7.778   3.570
 8151TIP3    H224415   3.976   7.835   3.467
 8152TIP3   OH224416   3.329   7.503   3.501
 8152TIP3    H124417   3.316   7.576   3.438
 8152TIP3    H224418   3.278   7.433   3.454
 8153TIP3   OH224419   4.014   7.575   3.129
 8153TIP3    H124420   4.096   7.575   3.183
 8153TIP3    H224421   4.028   7.651   3.072
 8154TIP3   OH224422   2.925   7.681   3.608
 8154TIP3    H124423   2.995   7.710   3.668
 8154TIP3    H224424   2.974   7.642   3.535
 8155TIP3   OH224425   4.672   7.861   3.674
 8155TIP3    H124426   4.637   7.944   3.636
 8155TIP3    H224427   4.663   7.881   3.768
 8156TIP3   OH224428   3.321   7.489   3.939
 8156TIP3    H124429   3.267   7.526   3.866
 8156TIP3    H224430   3.263   7.508   4.016
 8157TIP3   OH224431   4.232   7.603   3.293
 8157TIP3    H124432   4.207   7.564   3.377
 8157TIP3    H224433   4.289   7.677   3.321
 8158TIP3   OH224434   3.193   7.600   3.727
 8158TIP3    H124435   3.204   7.696   3.725
 8158TIP3    H224436   3.247   7.572   3.649
 8159TIP3   OH224437   4.377   7.564   3.662
 8159TIP3    H124438   4.289   7.591   3.631
 8159TIP3    H224439   4.435   7.599   3.592
 8160TIP3   OH224440   3.677   7.211   3.646
 8160TIP3    H124441   3.659   7.117   3.663
 8160TIP3    H224442   3.600   7.252   3.692
 8161TIP3   OH224443   4.309   7.156   2.747
 8161TIP3    H124444   4.227   7.178   2.797
 8161TIP3    H224445   4.324   7.241   2.700
 8162TIP3   OH224446   4.474   8.066   4.009
 8162TIP3    H124447   4.392   8.043   3.963
 8162TIP3    H224448   4.508   7.977   4.025
 8163TIP3   OH224449   3.440   7.287   3.775
 8163TIP3    H124450   3.350   7.258   3.748
 8163TIP3    H224451   3.417   7.371   3.818
 8164TIP3   OH224452   3.973   7.406   3.968
 8164TIP3    H124453   4.041   7.376   4.031
 8164TIP3    H224454   3.889   7.382   4.013
 8165TIP3   OH224455   4.210   7.811   3.892
 8165TIP3    H124456   4.164   7.809   3.979
 8165TIP3    H224457   4.179   7.895   3.856
 8166TIP3   OH224458   3.573   7.343   2.745
 8166TIP3    H124459   3.548   7.335   2.839
 8166TIP3    H224460   3.542   7.256   2.713
 8167TIP3   OH224461   3.231   7.630   3.273
 8167TIP3    H124462   3.140   7.597   3.273
 8167TIP3    H224463   3.259   7.608   3.182
 8168TIP3   OH224464   3.905   7.791   3.288
 8168TIP3    H124465   3.807   7.792   3.293
 8168TIP3    H224466   3.923   7.700   3.263
 8169TIP3   OH224467   3.190   7.848   4.050
 8169TIP3    H124468   3.237   7.852   4.133
 8169TIP3    H224469   3.169   7.753   4.046
 8170TIP3   OH224470   3.235   7.314   2.711
 8170TIP3    H124471   3.234   7.308   2.809
 8170TIP3    H224472   3.156   7.369   2.695
 8171TIP3   OH224473   2.783   7.358   3.575
 8171TIP3    H124474   2.853   7.391   3.635
 8171TIP3    H224475   2.832   7.310   3.506
 8172TIP3   OH224476   2.754   7.333   3.095
 8172TIP3    H124477   2.812   7.367   3.025
 8172TIP3    H224478   2.707   7.414   3.121
 8173TIP3   OH224479   3.587   7.496   3.373
 8173TIP3    H124480   3.508   7.499   3.431
 8173TIP3    H224481   3.655   7.533   3.431
 8174TIP3   OH224482   2.986   7.538   3.362
 8174TIP3    H124483   2.898   7.499   3.372
 8174TIP3    H224484   3.044   7.458   3.360
 8175TIP3   OH224485   3.303   7.552   3.018
 8175TIP3    H124486   3.400   7.561   3.031
 8175TIP3    H224487   3.278   7.645   2.998
 8176TIP3   OH224488   4.075   7.582   3.580
 8176TIP3    H124489   4.032   7.597   3.666
 8176TIP3    H224490   4.005   7.531   3.534
 8177TIP3   OH224491   3.747   7.793   3.537
 8177TIP3    H124492   3.704   7.833   3.459
 8177TIP3    H224493   3.673   7.797   3.598
 8178TIP3   OH224494   3.178   7.330   3.344
 8178TIP3    H124495   3.148   7.249   3.391
 8178TIP3    H224496   3.234   7.293   3.274
 8179TIP3   OH224497   3.624   7.716   3.792
 8179TIP3    H124498   3.591   7.808   3.778
 8179TIP3    H224499   3.719   7.728   3.777
 8180TIP3   OH224500   3.831   7.430   2.699
 8180TIP3    H124501   3.735   7.422   2.717
 8180TIP3    H224502   3.854   7.521   2.729
 8181TIP3   OH224503   3.937   7.651   2.821
 8181TIP3    H124504   4.029   7.656   2.854
 8181TIP3    H224505   3.910   7.743   2.831
 8182TIP3   OH224506   4.327   7.737   2.665
 8182TIP3    H124507   4.271   7.712   2.588
 8182TIP3    H224508   4.351   7.828   2.641
 8183TIP3   OH224509   3.159   7.571   4.148
 8183TIP3    H124510   3.062   7.570   4.160
 8183TIP3    H224511   3.189   7.515   4.221
 8184TIP3   OH224512   3.985   7.650   3.839
 8184TIP3    H124513   4.075   7.680   3.860
 8184TIP3    H224514   3.980   7.564   3.886
 8185TIP3   OH224515   3.880   7.381   2.990
 8185TIP3    H124516   3.871   7.418   2.900
 8185TIP3    H224517   3.923   7.457   3.036
 8186TIP3   OH224518   3.571   7.558   3.101
 8186TIP3    H124519   3.599   7.648   3.079
 8186TIP3    H224520   3.575   7.559   3.199
 8187TIP3   OH224521   3.851   7.896   3.946
 8187TIP3    H124522   3.867   7.879   4.040
 8187TIP3    H224523   3.888   7.818   3.904
 8188TIP3   OH224524   3.712   7.292   3.200
 8188TIP3    H124525   3.697   7.370   3.257
 8188TIP3    H224526   3.771   7.331   3.131
 8189TIP3   OH224527   3.227   7.291   2.985
 8189TIP3    H124528   3.238   7.387   3.003
 8189TIP3    H224529   3.320   7.263   2.996
 8190TIP3   OH224530   4.482   7.770   3.903
 8190TIP3    H124531   4.384   7.777   3.907
 8190TIP3    H224532   4.491   7.750   3.808
 8191TIP3   OH224533   2.787   7.458   2.839
 8191TIP3    H124534   2.797   7.553   2.820
 8191TIP3    H224535   2.694   7.452   2.859
 8192TIP3   OH224536   3.175   7.208   3.748
 8192TIP3    H124537   3.143   7.175   3.662
 8192TIP3    H224538   3.163   7.130   3.806
 8193TIP3   OH224539   3.579   7.750   4.187
 8193TIP3    H124540   3.586   7.665   4.138
 8193TIP3    H224541   3.536   7.806   4.120
 8194TIP3   OH224542   3.576   7.552   3.999
 8194TIP3    H124543   3.596   7.607   3.919
 8194TIP3    H224544   3.482   7.529   3.979
 8195TIP3   OH224545   4.215   8.074   4.152
 8195TIP3    H124546   4.180   7.984   4.165
 8195TIP3    H224547   4.297   8.070   4.203
 8196TIP3   OH224548   3.446   7.894   4.386
 8196TIP3    H124549   3.382   7.827   4.418
 8196TIP3    H224550   3.490   7.846   4.314
 8197TIP3   OH224551   3.715   7.324   4.047
 8197TIP3    H124552   3.664   7.406   4.028
 8197TIP3    H224553   3.646   7.256   4.035
 8198TIP3   OH224554   3.838   7.825   4.255
 8198TIP3    H124555   3.833   7.813   4.352
 8198TIP3    H224556   3.748   7.795   4.231
 8199TIP3   OH224557   4.082   7.801   4.129
 8199TIP3    H124558   4.001   7.795   4.183
 8199TIP3    H224559   4.147   7.751   4.182
 8200TIP3   OH224560   4.311   7.725   4.268
 8200TIP3    H124561   4.321   7.630   4.286
 8200TIP3    H224562   4.306   7.765   4.358
 8201TIP3   OH224563   3.293   7.667   4.446
 8201TIP3    H124564   3.299   7.573   4.420
 8201TIP3    H224565   3.323   7.664   4.538
 8202TIP3   OH224566   3.806   7.343   4.305
 8202TIP3    H124567   3.872   7.271   4.299
 8202TIP3    H224568   3.766   7.336   4.216
 8203TIP3   OH224569   3.871   7.560   4.462
 8203TIP3    H124570   3.850   7.487   4.399
 8203TIP3    H224571   3.791   7.616   4.455
 8204TIP3   OH224572   4.181   7.683   2.445
 8204TIP3    H124573   4.144   7.678   2.354
 8204TIP3    H224574   4.165   7.589   2.470
 8205TIP3   OH224575   4.120   7.419   2.447
 8205TIP3    H124576   4.193   7.382   2.501
 8205TIP3    H224577   4.045   7.361   2.467
 8206TIP3   OH224578   4.202   7.682   2.897
 8206TIP3    H124579   4.233   7.595   2.931
 8206TIP3    H224580   4.261   7.689   2.819
 8207TIP3   OH224581   4.364   7.832   3.394
 8207TIP3    H124582   4.402   7.901   3.338
 8207TIP3    H224583   4.288   7.880   3.431
 8208TIP3   OH224584   3.023   7.718   4.431
 8208TIP3    H124585   3.121   7.710   4.429
 8208TIP3    H224586   2.999   7.631   4.468
 8209TIP3   OH224587   4.864   7.591   4.184
 8209TIP3    H124588   4.923   7.526   4.141
 8209TIP3    H224589   4.833   7.643   4.107
 8210TIP3   OH224590   4.294   7.426   2.936
 8210TIP3    H124591   4.337   7.411   3.023
 8210TIP3    H224592   4.228   7.354   2.936
 8211TIP3   OH224593   2.985   7.410   3.757
 8211TIP3    H124594   3.053   7.341   3.767
 8211TIP3    H224595   3.041   7.489   3.748
 8212TIP3   OH224596   4.734   7.724   3.987
 8212TIP3    H124597   4.641   7.757   3.995
 8212TIP3    H224598   4.715   7.647   3.929
 8213TIP3   OH224599   4.369   7.365   2.569
 8213TIP3    H124600   4.411   7.294   2.517
 8213TIP3    H224601   4.437   7.436   2.565
 8214TIP3   OH224602   2.774   7.195   3.328
 8214TIP3    H124603   2.682   7.191   3.359
 8214TIP3    H224604   2.767   7.251   3.248
 8215TIP3   OH224605   3.000   7.271   4.148
 8215TIP3    H124606   2.947   7.269   4.229
 8215TIP3    H224607   2.935   7.308   4.085
 8216TIP3   OH224608   4.635   7.491   3.867
 8216TIP3    H124609   4.545   7.492   3.831
 8216TIP3    H224610   4.661   7.397   3.854
 8217TIP3   OH224611   3.848   7.408   3.491
 8217TIP3    H124612   3.793   7.340   3.534
 8217TIP3    H224613   3.914   7.356   3.444
 8218TIP3   OH224614   4.360   7.283   3.387
 8218TIP3    H124615   4.396   7.340   3.315
 8218TIP3    H224616   4.265   7.305   3.384
 8219TIP3   OH224617   4.457   7.392   3.154
 8219TIP3    H124618   4.531   7.342   3.114
 8219TIP3    H224619   4.486   7.485   3.138
 8220TIP3   OH224620   3.084   7.117   3.498
 8220TIP3    H124621   2.992   7.083   3.503
 8220TIP3    H224622   3.134   7.033   3.495
 8221TIP3   OH224623   2.871   6.987   3.148
 8221TIP3    H124624   2.901   7.044   3.075
 8221TIP3    H224625   2.844   7.053   3.215
 8222TIP3   OH224626   3.528   7.149   3.383
 8222TIP3    H124627   3.583   7.199   3.321
 8222TIP3    H224628   3.551   7.191   3.467
 8223TIP3   OH224629   4.079   7.295   3.365
 8223TIP3    H124630   4.068   7.263   3.275
 8223TIP3    H224631   4.063   7.213   3.418
 8224TIP3   OH224632   4.104   7.219   2.928
 8224TIP3    H124633   4.018   7.264   2.941
 8224TIP3    H224634   4.087   7.134   2.973
 8225TIP3   OH224635   2.990   7.144   2.915
 8225TIP3    H124636   3.036   7.083   2.854
 8225TIP3    H224637   3.064   7.197   2.949
 8226TIP3   OH224638   3.506   7.309   3.011
 8226TIP3    H124639   3.567   7.263   3.071
 8226TIP3    H224640   3.526   7.402   3.038
 8227TIP3   OH224641   3.293   7.394   4.392
 8227TIP3    H124642   3.257   7.323   4.449
 8227TIP3    H224643   3.387   7.393   4.420
 8228TIP3   OH224644   3.543   7.395   4.511
 8228TIP3    H124645   3.627   7.369   4.471
 8228TIP3    H224646   3.531   7.325   4.578
 8229TIP3   OH224647   4.368   7.456   4.299
 8229TIP3    H124648   4.386   7.424   4.390
 8229TIP3    H224649   4.456   7.451   4.258
 8230TIP3   OH224650   5.797   8.111   3.012
 8230TIP3    H124651   5.837   8.035   3.056
 8230TIP3    H224652   5.764   8.069   2.930
 8231TIP3   OH224653   5.124   7.757   2.984
 8231TIP3    H124654   5.106   7.815   2.908
 8231TIP3    H224655   5.076   7.678   2.953
 8232TIP3   OH224656   5.809   7.844   2.614
 8232TIP3    H124657   5.892   7.834   2.666
 8232TIP3    H224658   5.842   7.872   2.527
 8233TIP3   OH224659   4.723   7.949   3.087
 8233TIP3    H124660   4.791   7.956   3.156
 8233TIP3    H224661   4.762   7.886   3.024
 8234TIP3   OH224662   5.117   7.747   3.423
 8234TIP3    H124663   5.059   7.783   3.353
 8234TIP3    H224664   5.061   7.763   3.502
 8235TIP3   OH224665   6.032   7.839   2.773
 8235TIP3    H124666   5.998   7.817   2.861
 8235TIP3    H224667   6.103   7.901   2.793
 8236TIP3   OH224668   4.986   7.856   3.210
 8236TIP3    H124669   5.000   7.952   3.214
 8236TIP3    H224670   5.044   7.830   3.135
 8237TIP3   OH224671   6.167   7.816   3.172
 8237TIP3    H124672   6.090   7.873   3.159
 8237TIP3    H224673   6.208   7.814   3.083
 8238TIP3   OH224674   5.466   7.465   3.129
 8238TIP3    H124675   5.457   7.371   3.156
 8238TIP3    H224676   5.391   7.504   3.180
 8239TIP3   OH224677   6.093   7.439   2.230
 8239TIP3    H124678   6.017   7.428   2.290
 8239TIP3    H224679   6.096   7.535   2.223
 8240TIP3   OH224680   5.233   7.547   3.261
 8240TIP3    H124681   5.144   7.516   3.234
 8240TIP3    H224682   5.208   7.626   3.311
 8241TIP3   OH224683   5.768   7.666   3.462
 8241TIP3    H124684   5.835   7.627   3.522
 8241TIP3    H224685   5.684   7.637   3.503
 8242TIP3   OH224686   6.005   8.066   3.361
 8242TIP3    H124687   5.973   8.071   3.453
 8242TIP3    H224688   5.997   8.160   3.334
 8243TIP3   OH224689   5.382   7.592   2.232
 8243TIP3    H124690   5.349   7.587   2.324
 8243TIP3    H224691   5.340   7.511   2.196
 8244TIP3   OH224692   5.028   7.884   2.764
 8244TIP3    H124693   4.936   7.853   2.767
 8244TIP3    H224694   5.053   7.859   2.672
 8245TIP3   OH224695   5.677   8.007   2.791
 8245TIP3    H124696   5.663   8.062   2.713
 8245TIP3    H224697   5.711   7.926   2.749
 8246TIP3   OH224698   4.994   8.100   3.532
 8246TIP3    H124699   5.022   8.109   3.623
 8246TIP3    H224700   4.970   8.005   3.530
 8247TIP3   OH224701   5.035   7.575   2.198
 8247TIP3    H124702   5.029   7.565   2.296
 8247TIP3    H224703   4.953   7.625   2.180
 8248TIP3   OH224704   4.580   7.616   3.058
 8248TIP3    H124705   4.652   7.643   3.119
 8248TIP3    H224706   4.625   7.563   2.990
 8249TIP3   OH224707   4.552   7.589   2.583
 8249TIP3    H124708   4.607   7.629   2.513
 8249TIP3    H224709   4.497   7.665   2.609
 8250TIP3   OH224710   5.381   7.748   2.861
 8250TIP3    H124711   5.304   7.746   2.921
 8250TIP3    H224712   5.455   7.751   2.924
 8251TIP3   OH224713   4.782   7.792   2.854
 8251TIP3    H124714   4.693   7.756   2.856
 8251TIP3    H224715   4.837   7.711   2.850
 8252TIP3   OH224716   5.097   7.810   2.507
 8252TIP3    H124717   5.194   7.817   2.518
 8252TIP3    H224718   5.072   7.902   2.486
 8253TIP3   OH224719   5.864   7.840   3.055
 8253TIP3    H124720   5.835   7.852   3.148
 8253TIP3    H224721   5.796   7.778   3.024
 8254TIP3   OH224722   5.482   8.078   2.971
 8254TIP3    H124723   5.562   8.047   2.926
 8254TIP3    H224724   5.504   8.067   3.064
 8255TIP3   OH224725   4.974   7.582   2.831
 8255TIP3    H124726   4.941   7.503   2.880
 8255TIP3    H224727   5.029   7.542   2.763
 8256TIP3   OH224728   5.433   7.985   3.262
 8256TIP3    H124729   5.393   8.066   3.225
 8256TIP3    H224730   5.513   8.021   3.301
 8257TIP3   OH224731   5.627   7.701   2.209
 8257TIP3    H124732   5.537   7.662   2.216
 8257TIP3    H224733   5.605   7.792   2.183
 8258TIP3   OH224734   5.794   7.954   2.353
 8258TIP3    H124735   5.848   7.905   2.290
 8258TIP3    H224736   5.709   7.957   2.307
 8259TIP3   OH224737   4.954   7.828   3.634
 8259TIP3    H124738   4.857   7.827   3.646
 8259TIP3    H224739   4.983   7.770   3.706
 8260TIP3   OH224740   5.787   7.903   3.317
 8260TIP3    H124741   5.874   7.940   3.342
 8260TIP3    H224742   5.782   7.821   3.371
 8261TIP3   OH224743   5.676   7.640   2.479
 8261TIP3    H124744   5.664   7.668   2.386
 8261TIP3    H224745   5.710   7.721   2.521
 8262TIP3   OH224746   5.368   7.810   2.588
 8262TIP3    H124747   5.387   7.904   2.568
 8262TIP3    H224748   5.372   7.809   2.686
 8263TIP3   OH224749   5.634   8.137   3.422
 8263TIP3    H124750   5.658   8.133   3.516
 8263TIP3    H224751   5.692   8.068   3.385
 8264TIP3   OH224752   5.508   7.548   2.687
 8264TIP3    H124753   5.494   7.624   2.746
 8264TIP3    H224754   5.566   7.587   2.619
 8265TIP3   OH224755   5.022   7.547   2.471
 8265TIP3    H124756   5.032   7.642   2.491
 8265TIP3    H224757   5.115   7.518   2.483
 8266TIP3   OH224758   4.585   7.716   2.326
 8266TIP3    H124759   4.591   7.811   2.309
 8266TIP3    H224760   4.491   7.705   2.343
 8267TIP3   OH224761   4.970   7.464   3.236
 8267TIP3    H124762   4.939   7.429   3.150
 8267TIP3    H224763   4.961   7.386   3.294
 8268TIP3   OH224764   5.375   8.006   3.673
 8268TIP3    H124765   5.389   7.921   3.627
 8268TIP3    H224766   5.319   8.051   3.608
 8269TIP3   OH224767   5.372   7.818   3.476
 8269TIP3    H124768   5.396   7.866   3.393
 8269TIP3    H224769   5.279   7.793   3.457
 8270TIP3   OH224770   6.035   8.337   3.656
 8270TIP3    H124771   5.994   8.249   3.652
 8270TIP3    H224772   6.107   8.322   3.719
 8271TIP3   OH224773   5.241   8.151   3.874
 8271TIP3    H124774   5.178   8.082   3.904
 8271TIP3    H224775   5.286   8.105   3.800
 8272TIP3   OH224776   5.511   7.587   3.534
 8272TIP3    H124777   5.455   7.664   3.511
 8272TIP3    H224778   5.448   7.513   3.522
 8273TIP3   OH224779   5.632   8.089   3.743
 8273TIP3    H124780   5.625   8.070   3.838
 8273TIP3    H224781   5.544   8.055   3.715
 8274TIP3   OH224782   5.882   8.066   3.612
 8274TIP3    H124783   5.801   8.059   3.666
 8274TIP3    H224784   5.946   8.012   3.663
 8275TIP3   OH224785   6.116   7.988   3.756
 8275TIP3    H124786   6.121   7.892   3.771
 8275TIP3    H224787   6.109   8.023   3.848
 8276TIP3   OH224788   5.090   7.925   3.934
 8276TIP3    H124789   5.094   7.831   3.907
 8276TIP3    H224790   5.122   7.919   4.026
 8277TIP3   OH224791   5.588   7.605   3.796
 8277TIP3    H124792   5.663   7.540   3.794
 8277TIP3    H224793   5.556   7.595   3.704
 8278TIP3   OH224794   5.667   7.817   3.949
 8278TIP3    H124795   5.647   7.743   3.887
 8278TIP3    H224796   5.587   7.872   3.940
 8279TIP3   OH224797   5.909   7.700   1.962
 8279TIP3    H124798   5.968   7.633   1.995
 8279TIP3    H224799   5.828   7.649   1.943
 8280TIP3   OH224800   4.821   7.978   3.923
 8280TIP3    H124801   4.918   7.966   3.917
 8280TIP3    H224802   4.795   7.889   3.955
 8281TIP3   OH224803   6.018   7.692   2.441
 8281TIP3    H124804   6.031   7.684   2.536
 8281TIP3    H224805   5.962   7.614   2.423
 8282TIP3   OH224806   4.783   7.667   3.236
 8282TIP3    H124807   4.846   7.594   3.251
 8282TIP3    H224808   4.843   7.743   3.234
 8283TIP3   OH224809   4.570   7.452   2.817
 8283TIP3    H124810   4.478   7.446   2.847
 8283TIP3    H224811   4.562   7.508   2.737
 8284TIP3   OH224812   4.796   7.530   3.637
 8284TIP3    H124813   4.741   7.525   3.717
 8284TIP3    H224814   4.731   7.566   3.572
 8285TIP3   OH224815   6.420   7.749   3.357
 8285TIP3    H124816   6.335   7.756   3.312
 8285TIP3    H224817   6.450   7.660   3.331
 8286TIP3   OH224818   5.633   7.663   2.973
 8286TIP3    H124819   5.593   7.598   3.033
 8286TIP3    H224820   5.706   7.612   2.934
 8287TIP3   OH224821   6.156   7.528   2.862
 8287TIP3    H124822   6.191   7.616   2.841
 8287TIP3    H224823   6.060   7.544   2.863
 8288TIP3   OH224824   4.881   7.374   2.985
 8288TIP3    H124825   4.789   7.339   2.989
 8288TIP3    H224826   4.931   7.289   2.982
 8289TIP3   OH224827   4.668   7.244   2.636
 8289TIP3    H124828   4.696   7.301   2.562
 8289TIP3    H224829   4.640   7.309   2.703
 8290TIP3   OH224830   5.322   7.408   2.872
 8290TIP3    H124831   5.383   7.456   2.813
 8290TIP3    H224832   5.353   7.438   2.959
 8291TIP3   OH224833   5.877   7.552   2.849
 8291TIP3    H124834   5.860   7.508   2.765
 8291TIP3    H224835   5.859   7.477   2.912
 8292TIP3   OH224836   5.880   7.459   2.409
 8292TIP3    H124837   5.792   7.497   2.427
 8292TIP3    H224838   5.874   7.374   2.457
 8293TIP3   OH224839   4.785   7.401   2.399
 8293TIP3    H124840   4.832   7.338   2.341
 8293TIP3    H224841   4.859   7.453   2.435
 8294TIP3   OH224842   5.302   7.564   2.495
 8294TIP3    H124843   5.357   7.514   2.557
 8294TIP3    H224844   5.324   7.655   2.524
 8295TIP3   OH224845   5.089   7.653   3.882
 8295TIP3    H124846   5.054   7.580   3.935
 8295TIP3    H224847   5.184   7.651   3.907
 8296TIP3   OH224848   5.341   7.654   3.998
 8296TIP3    H124849   5.421   7.624   3.951
 8296TIP3    H224850   5.330   7.582   4.064
 8297TIP3   OH224851   6.162   7.715   3.785
 8297TIP3    H124852   6.182   7.682   3.875
 8297TIP3    H224853   6.249   7.708   3.741
 8298TIP3   OH224854   2.414   1.199   6.556
 8298TIP3    H124855   2.423   1.295   6.534
 8298TIP3    H224856   2.505   1.167   6.541
 8299TIP3   OH224857   1.716   1.526   7.023
 8299TIP3    H124858   1.679   1.502   6.936
 8299TIP3    H224859   1.689   1.618   7.033
 8300TIP3   OH224860   1.924   1.416   6.672
 8300TIP3    H124861   1.983   1.348   6.635
 8300TIP3    H224862   1.959   1.426   6.763
 8301TIP3   OH224863   1.974   1.468   6.943
 8301TIP3    H124864   1.886   1.475   6.988
 8301TIP3    H224865   2.033   1.447   7.017
 8302TIP3   OH224866   2.169   0.664   6.686
 8302TIP3    H124867   2.144   0.608   6.610
 8302TIP3    H224868   2.260   0.688   6.663
 8303TIP3   OH224869   1.820   0.957   6.913
 8303TIP3    H124870   1.773   1.041   6.933
 8303TIP3    H224871   1.799   0.902   6.989
 8304TIP3   OH224872   2.665   0.441   6.880
 8304TIP3    H124873   2.593   0.413   6.819
 8304TIP3    H224874   2.661   0.536   6.863
 8305TIP3   OH224875   2.352   1.262   6.820
 8305TIP3    H124876   2.320   1.182   6.863
 8305TIP3    H224877   2.367   1.231   6.728
 8306TIP3   OH224878   2.102   1.004   6.714
 8306TIP3    H124879   2.163   0.980   6.787
 8306TIP3    H224880   2.020   0.965   6.747
 8307TIP3   OH224881   2.445   1.473   6.536
 8307TIP3    H124882   2.481   1.543   6.480
 8307TIP3    H224883   2.365   1.520   6.570
 8308TIP3   OH224884   2.274   0.948   6.918
 8308TIP3    H124885   2.244   0.882   6.982
 8308TIP3    H224886   2.371   0.930   6.917
 8309TIP3   OH224887   1.676   1.187   6.936
 8309TIP3    H124888   1.611   1.230   6.992
 8309TIP3    H224889   1.701   1.260   6.877
 8310TIP3   OH224890   1.638   1.182   6.629
 8310TIP3    H124891   1.612   1.112   6.691
 8310TIP3    H224892   1.711   1.137   6.582
 8311TIP3   OH224893   2.072   1.225   6.542
 8311TIP3    H124894   2.111   1.156   6.599
 8311TIP3    H224895   2.126   1.220   6.461
 8312TIP3   OH224896   1.762   0.913   6.656
 8312TIP3    H124897   1.782   0.931   6.750
 8312TIP3    H224898   1.787   0.818   6.654
 8313TIP3   OH224899   2.415   0.729   6.573
 8313TIP3    H124900   2.393   0.684   6.489
 8313TIP3    H224901   2.378   0.818   6.553
 8314TIP3   OH224902   1.386   1.444   6.810
 8314TIP3    H124903   1.482   1.447   6.796
 8314TIP3    H224904   1.356   1.505   6.740
 8315TIP3   OH224905   2.550   0.913   6.920
 8315TIP3    H124906   2.614   0.976   6.880
 8315TIP3    H224907   2.593   0.892   7.004
 8316TIP3   OH224908   2.614   0.697   6.757
 8316TIP3    H124909   2.543   0.691   6.689
 8316TIP3    H224910   2.578   0.770   6.811
 8317TIP3   OH224911   2.467   0.392   6.699
 8317TIP3    H124912   2.414   0.425   6.625
 8317TIP3    H224913   2.426   0.307   6.717
 8318TIP3   OH224914   2.230   1.587   7.090
 8318TIP3    H124915   2.277   1.548   7.013
 8318TIP3    H224916   2.286   1.663   7.107
 8319TIP3   OH224917   1.665   1.419   6.768
 8319TIP3    H124918   1.753   1.441   6.730
 8319TIP3    H224919   1.640   1.348   6.705
 8320TIP3   OH224920   2.381   1.532   6.861
 8320TIP3    H124921   2.374   1.435   6.848
 8320TIP3    H224922   2.336   1.564   6.780
 8321TIP3   OH224923   3.873   1.050   6.814
 8321TIP3    H124924   3.853   1.144   6.799
 8321TIP3    H224925   3.793   1.009   6.779
 8322TIP3   OH224926   3.883   1.055   7.199
 8322TIP3    H124927   3.913   1.009   7.279
 8322TIP3    H224928   3.838   0.984   7.152
 8323TIP3   OH224929   4.114   1.349   6.870
 8323TIP3    H124930   4.112   1.289   6.946
 8323TIP3    H224931   4.141   1.433   6.913
 8324TIP3   OH224932   3.760   1.815   6.889
 8324TIP3    H124933   3.808   1.746   6.841
 8324TIP3    H224934   3.762   1.782   6.980
 8325TIP3   OH224935   3.676   1.288   7.221
 8325TIP3    H124936   3.710   1.202   7.194
 8325TIP3    H224937   3.757   1.326   7.258
 8326TIP3   OH224938   4.074   0.777   7.257
 8326TIP3    H124939   4.122   0.692   7.270
 8326TIP3    H224940   4.051   0.773   7.163
 8327TIP3   OH224941   4.141   0.575   6.860
 8327TIP3    H124942   4.223   0.529   6.883
 8327TIP3    H224943   4.153   0.585   6.763
 8328TIP3   OH224944   3.497   0.846   7.099
 8328TIP3    H124945   3.589   0.819   7.094
 8328TIP3    H224946   3.448   0.769   7.065
 8329TIP3   OH224947   4.738   0.804   7.445
 8329TIP3    H124948   4.669   0.832   7.383
 8329TIP3    H224949   4.697   0.830   7.529
 8330TIP3   OH224950   3.769   1.276   6.678
 8330TIP3    H124951   3.722   1.261   6.595
 8330TIP3    H224952   3.727   1.358   6.710
 8331TIP3   OH224953   2.742   1.082   6.803
 8331TIP3    H124954   2.706   1.104   6.714
 8331TIP3    H224955   2.774   1.168   6.835
 8332TIP3   OH224956   4.168   1.579   7.005
 8332TIP3    H124957   4.086   1.582   7.057
 8332TIP3    H224958   4.193   1.673   7.003
 8333TIP3   OH224959   3.887   1.642   6.712
 8333TIP3    H124960   3.942   1.562   6.695
 8333TIP3    H224961   3.948   1.710   6.675
 8334TIP3   OH224962   4.037   1.428   6.621
 8334TIP3    H124963   3.987   1.350   6.594
 8334TIP3    H224964   4.074   1.397   6.707
 8335TIP3   OH224965   3.702   0.907   6.640
 8335TIP3    H124966   3.622   0.961   6.620
 8335TIP3    H224967   3.750   0.910   6.556
 8336TIP3   OH224968   3.663   0.691   6.365
 8336TIP3    H124969   3.727   0.747   6.412
 8336TIP3    H224970   3.723   0.638   6.308
 8337TIP3   OH224971   4.625   1.155   7.235
 8337TIP3    H124972   4.535   1.197   7.237
 8337TIP3    H224973   4.649   1.176   7.142
 8338TIP3   OH224974   4.052   0.988   6.616
 8338TIP3    H124975   3.999   1.012   6.695
 8338TIP3    H224976   4.138   0.968   6.659
 8339TIP3   OH224977   3.280   1.002   7.012
 8339TIP3    H124978   3.239   0.933   6.957
 8339TIP3    H224979   3.350   0.953   7.059
 8340TIP3   OH224980   3.420   1.407   7.177
 8340TIP3    H124981   3.399   1.351   7.101
 8340TIP3    H224982   3.508   1.370   7.203
 8341TIP3   OH224983   3.944   1.592   7.157
 8341TIP3    H124984   3.928   1.681   7.194
 8341TIP3    H224985   3.926   1.531   7.230
 8342TIP3   OH224986   3.891   0.851   6.441
 8342TIP3    H124987   3.950   0.912   6.491
 8342TIP3    H224988   3.919   0.872   6.348
 8343TIP3   OH224989   3.635   1.528   6.716
 8343TIP3    H124990   3.719   1.575   6.731
 8343TIP3    H224991   3.578   1.599   6.685
 8344TIP3   OH224992   3.155   0.825   6.823
 8344TIP3    H124993   3.083   0.868   6.772
 8344TIP3    H224994   3.116   0.740   6.844
 8345TIP3   OH224995   4.208   1.454   6.035
 8345TIP3    H124996   4.217   1.551   6.024
 8345TIP3    H224997   4.302   1.425   6.024
 8346TIP3   OH224998   4.672   1.851   7.460
 8346TIP3    H124999   4.631   1.778   7.407
 8346TIP3    H225000   4.589   1.886   7.498
 8347TIP3   OH225001   3.508   1.767   6.515
 8347TIP3    H125002   3.476   1.747   6.425
 8347TIP3    H225003   3.509   1.863   6.518
 8348TIP3   OH225004   2.953   1.625   6.908
 8348TIP3    H125005   3.012   1.608   6.985
 8348TIP3    H225006   2.902   1.542   6.906
 8349TIP3   OH225007   3.717   1.672   6.160
 8349TIP3    H125008   3.778   1.603   6.124
 8349TIP3    H225009   3.753   1.685   6.250
 8350TIP3   OH225010   3.768   1.720   6.431
 8350TIP3    H125011   3.683   1.723   6.480
 8350TIP3    H225012   3.830   1.694   6.501
 8351TIP3   OH225013   3.970   0.892   6.186
 8351TIP3    H125014   3.936   0.868   6.097
 8351TIP3    H225015   4.051   0.941   6.162
 8352TIP3   OH225016   3.342   0.637   7.020
 8352TIP3    H125017   3.267   0.577   7.033
 8352TIP3    H225018   3.376   0.598   6.936
 8353TIP3   OH225019   3.844   0.716   6.770
 8353TIP3    H125020   3.793   0.788   6.728
 8353TIP3    H225021   3.901   0.686   6.697
 8354TIP3   OH225022   3.997   0.761   6.997
 8354TIP3    H125023   3.930   0.785   6.931
 8354TIP3    H225024   4.046   0.694   6.943
 8355TIP3   OH225025   2.920   0.333   6.868
 8355TIP3    H125026   2.933   0.367   6.777
 8355TIP3    H225027   2.833   0.373   6.888
 8356TIP3   OH225028   3.634   0.423   7.080
 8356TIP3    H125029   3.539   0.456   7.137
 8356TIP3    H225030   3.597   0.513   7.012
 8357TIP3   OH225031   3.402   0.502   6.790
 8357TIP3    H125032   3.491   0.518   6.752
 8357TIP3    H225033   3.342   0.513   6.714
 8358TIP3   OH225034   3.222   0.531   6.583
 8358TIP3    H125035   3.149   0.489   6.535
 8358TIP3    H225036   3.274   0.569   6.508
 8359TIP3   OH225037   4.313   2.191   7.518
 8359TIP3    H125038   4.313   2.216   7.424
 8359TIP3    H225039   4.396   2.235   7.547
 8360TIP3   OH225040   3.797   0.780   7.202
 8360TIP3    H125041   3.840   0.737   7.128
 8360TIP3    H225042   3.870   0.772   7.268
 8361TIP3   OH225043   3.475   1.059   6.589
 8361TIP3    H125044   3.403   0.993   6.581
 8361TIP3    H225045   3.457   1.095   6.679
 8362TIP3   OH225046   4.381   1.269   7.229
 8362TIP3    H125047   4.409   1.341   7.167
 8362TIP3    H225048   4.290   1.253   7.200
 8363TIP3   OH225049   3.903   0.399   6.445
 8363TIP3    H125050   3.809   0.398   6.465
 8363TIP3    H225051   3.929   0.490   6.469
 8364TIP3   OH225052   4.013   0.629   6.551
 8364TIP3    H125053   4.108   0.646   6.562
 8364TIP3    H225054   3.984   0.709   6.502
 8365TIP3   OH225055   3.621   1.207   6.412
 8365TIP3    H125056   3.573   1.292   6.416
 8365TIP3    H225057   3.568   1.152   6.474
 8366TIP3   OH225058   4.040   1.635   7.464
 8366TIP3    H125059   3.965   1.673   7.418
 8366TIP3    H225060   4.101   1.711   7.468
 8367TIP3   OH225061   4.442   0.712   6.393
 8367TIP3    H125062   4.376   0.677   6.328
 8367TIP3    H225063   4.445   0.804   6.356
 8368TIP3   OH225064   4.144   1.530   6.302
 8368TIP3    H125065   4.119   1.465   6.369
 8368TIP3    H225066   4.157   1.476   6.222
 8369TIP3   OH225067   4.130   1.167   7.138
 8369TIP3    H125068   4.041   1.132   7.155
 8369TIP3    H225069   4.174   1.090   7.097
 8370TIP3   OH225070   3.262   1.389   6.902
 8370TIP3    H125071   3.281   1.468   6.848
 8370TIP3    H225072   3.174   1.365   6.872
 8371TIP3   OH225073   2.837   0.689   6.597
 8371TIP3    H125074   2.881   0.775   6.618
 8371TIP3    H225075   2.759   0.694   6.657
 8372TIP3   OH225076   3.408   1.158   6.829
 8372TIP3    H125077   3.377   1.245   6.860
 8372TIP3    H225078   3.371   1.100   6.899
 8373TIP3   OH225079   3.535   1.736   7.339
 8373TIP3    H125080   3.580   1.803   7.285
 8373TIP3    H225081   3.602   1.721   7.409
 8374TIP3   OH225082   3.189   1.631   6.742
 8374TIP3    H125083   3.105   1.645   6.790
 8374TIP3    H225084   3.229   1.720   6.748
 8375TIP3   OH225085   3.932   1.362   7.332
 8375TIP3    H125086   3.978   1.359   7.417
 8375TIP3    H225087   3.999   1.323   7.273
 8376TIP3   OH225088   3.902   1.256   6.204
 8376TIP3    H125089   3.957   1.229   6.282
 8376TIP3    H225090   3.814   1.230   6.236
 8377TIP3   OH225091   4.166   1.902   7.382
 8377TIP3    H125092   4.160   1.826   7.323
 8377TIP3    H225093   4.175   1.973   7.315
 8378TIP3   OH225094   4.242   1.730   6.023
 8378TIP3    H125095   4.280   1.806   5.976
 8378TIP3    H225096   4.161   1.773   6.058
 8379TIP3   OH225097   4.063   1.182   6.415
 8379TIP3    H125098   4.053   1.122   6.492
 8379TIP3    H225099   4.160   1.184   6.407
 8380TIP3   OH225100   3.265   1.237   6.205
 8380TIP3    H125101   3.281   1.146   6.176
 8380TIP3    H225102   3.247   1.224   6.300
 8381TIP3   OH225103   3.211   1.242   6.480
 8381TIP3    H125104   3.289   1.214   6.530
 8381TIP3    H225105   3.218   1.340   6.484
 8382TIP3   OH225106   2.945   0.934   6.678
 8382TIP3    H125107   2.880   0.980   6.735
 8382TIP3    H225108   2.962   1.003   6.611
 8383TIP3   OH225109   3.476   1.434   6.422
 8383TIP3    H125110   3.392   1.465   6.461
 8383TIP3    H225111   3.500   1.510   6.368
 8384TIP3   OH225112   3.681   0.506   6.804
 8384TIP3    H125113   3.740   0.581   6.794
 8384TIP3    H225114   3.656   0.515   6.898
 8385TIP3   OH225115   3.221   1.515   6.492
 8385TIP3    H125116   3.192   1.585   6.430
 8385TIP3    H225117   3.208   1.559   6.579
 8386TIP3   OH225118   4.233   0.924   7.013
 8386TIP3    H125119   4.155   0.869   7.032
 8386TIP3    H225120   4.305   0.876   7.060
 8387TIP3   OH225121   2.942   1.145   6.484
 8387TIP3    H125122   3.015   1.209   6.492
 8387TIP3    H225123   2.983   1.086   6.417
 8388TIP3   OH225124   2.873   0.418   6.609
 8388TIP3    H125125   2.886   0.514   6.603
 8388TIP3    H225126   2.780   0.412   6.584
 8389TIP3   OH225127   4.198   1.874   6.972
 8389TIP3    H125128   4.157   1.917   6.894
 8389TIP3    H225129   4.293   1.889   6.949
 8390TIP3   OH225130   2.813   1.371   6.886
 8390TIP3    H125131   2.722   1.395   6.910
 8390TIP3    H225132   2.811   1.395   6.792
 8391TIP3   OH225133   3.430   1.440   6.115
 8391TIP3    H125134   3.375   1.368   6.154
 8391TIP3    H225135   3.507   1.388   6.085
 8392TIP3   OH225136   3.867   1.479   6.028
 8392TIP3    H125137   3.910   1.417   6.089
 8392TIP3    H225138   3.926   1.477   5.950
 8393TIP3   OH225139   3.076   0.957   6.341
 8393TIP3    H125140   3.133   0.923   6.412
 8393TIP3    H225141   3.141   0.962   6.267
 8394TIP3   OH225142   3.584   1.156   6.144
 8394TIP3    H125143   3.589   1.168   6.241
 8394TIP3    H225144   3.586   1.058   6.138
 8395TIP3   OH225145   4.232   1.415   7.455
 8395TIP3    H125146   4.301   1.458   7.401
 8395TIP3    H225147   4.170   1.488   7.468
 8396TIP3   OH225148   3.282   0.862   6.558
 8396TIP3    H125149   3.256   0.823   6.644
 8396TIP3    H225150   3.319   0.785   6.510
 8397TIP3   OH225151   3.383   0.656   6.400
 8397TIP3    H125152   3.361   0.658   6.304
 8397TIP3    H225153   3.481   0.656   6.395
 8398TIP3   OH225154   4.207   0.984   6.063
 8398TIP3    H125155   4.184   0.941   5.978
 8398TIP3    H225156   4.174   1.075   6.044
 8399TIP3   OH225157   3.192   1.722   6.307
 8399TIP3    H125158   3.288   1.710   6.289
 8399TIP3    H225159   3.166   1.767   6.225
 8400TIP3   OH225160   2.674   1.096   6.527
 8400TIP3    H125161   2.767   1.118   6.506
 8400TIP3    H225162   2.665   1.008   6.483
 8401TIP3   OH225163   2.583   1.718   6.917
 8401TIP3    H125164   2.516   1.653   6.886
 8401TIP3    H225165   2.622   1.669   6.992
 8402TIP3   OH225166   2.690   1.603   7.135
 8402TIP3    H125167   2.688   1.508   7.159
 8402TIP3    H225168   2.778   1.628   7.171
 8403TIP3   OH225169   4.450   1.964   6.920
 8403TIP3    H125170   4.471   1.986   7.012
 8403TIP3    H225171   4.519   2.010   6.870
 8404TIP3   OH225172   4.472   1.972   7.201
 8404TIP3    H125173   4.452   1.876   7.215
 8404TIP3    H225174   4.552   1.980   7.254
 8405TIP3   OH225175   4.342   1.171   6.396
 8405TIP3    H125176   4.409   1.237   6.368
 8405TIP3    H225177   4.385   1.134   6.476
 8406TIP3   OH225178   4.469   1.039   6.599
 8406TIP3    H125179   4.403   1.002   6.661
 8406TIP3    H225180   4.535   1.079   6.659
 8407TIP3   OH225181   4.506   1.417   7.034
 8407TIP3    H125182   4.575   1.369   6.985
 8407TIP3    H225183   4.491   1.496   6.981
 8408TIP3   OH225184   4.409   0.948   6.246
 8408TIP3    H125185   4.337   0.949   6.180
 8408TIP3    H225186   4.381   1.023   6.302
 8409TIP3   OH225187   4.260   0.648   6.202
 8409TIP3    H125188   4.223   0.681   6.119
 8409TIP3    H225189   4.248   0.552   6.194
 8410TIP3   OH225190   4.281   0.902   6.745
 8410TIP3    H125191   4.287   0.805   6.741
 8410TIP3    H225192   4.269   0.918   6.842
 8411TIP3   OH225193   4.573   1.307   7.538
 8411TIP3    H125194   4.657   1.265   7.516
 8411TIP3    H225195   4.560   1.366   7.462
 8412TIP3   OH225196   4.284   0.624   6.625
 8412TIP3    H125197   4.326   0.540   6.651
 8412TIP3    H225198   4.345   0.655   6.555
 8413TIP3   OH225199   4.443   0.792   7.129
 8413TIP3    H125200   4.528   0.821   7.089
 8413TIP3    H225201   4.453   0.834   7.217
 8414TIP3   OH225202   4.503   0.925   7.358
 8414TIP3    H125203   4.472   0.934   7.449
 8414TIP3    H225204   4.536   1.013   7.334
 8415TIP3   OH225205   4.038   1.820   6.575
 8415TIP3    H125206   4.095   1.817   6.495
 8415TIP3    H225207   4.077   1.893   6.625
 8416TIP3   OH225208   3.949   2.076   7.465
 8416TIP3    H125209   4.009   2.010   7.425
 8416TIP3    H225210   4.011   2.123   7.523
 8417TIP3   OH225211   3.230   1.904   7.366
 8417TIP3    H125212   3.158   1.931   7.424
 8417TIP3    H225213   3.204   1.942   7.280
 8418TIP3   OH225214   3.651   1.930   7.178
 8418TIP3    H125215   3.587   1.945   7.106
 8418TIP3    H225216   3.660   2.020   7.215
 8419TIP3   OH225217   3.912   1.852   7.238
 8419TIP3    H125218   3.821   1.881   7.217
 8419TIP3    H225219   3.964   1.928   7.209
 8420TIP3   OH225220   4.133   2.060   7.163
 8420TIP3    H125221   4.114   2.141   7.113
 8420TIP3    H225222   4.157   1.997   7.092
 8421TIP3   OH225223   2.915   1.683   7.264
 8421TIP3    H125224   2.941   1.741   7.339
 8421TIP3    H225225   3.000   1.647   7.232
 8422TIP3   OH225226   3.117   1.571   7.122
 8422TIP3    H125227   3.166   1.487   7.129
 8422TIP3    H225228   3.195   1.632   7.120
 8423TIP3   OH225229   3.360   1.680   7.139
 8423TIP3    H125230   3.397   1.590   7.130
 8423TIP3    H225231   3.407   1.707   7.221
 8424TIP3   OH225232   2.684   1.488   6.676
 8424TIP3    H125233   2.600   1.454   6.641
 8424TIP3    H225234   2.676   1.581   6.650
 8425TIP3   OH225235   3.459   1.676   6.252
 8425TIP3    H125236   3.548   1.698   6.217
 8425TIP3    H225237   3.438   1.600   6.193
 8426TIP3   OH225238   4.186   1.796   6.342
 8426TIP3    H125239   4.174   1.699   6.334
 8426TIP3    H225240   4.134   1.827   6.264
 8427TIP3   OH225241   2.767   1.515   6.309
 8427TIP3    H125242   2.771   1.535   6.403
 8427TIP3    H225243   2.853   1.471   6.293
 8428TIP3   OH225244   4.427   1.941   7.542
 8428TIP3    H125245   4.359   1.888   7.497
 8428TIP3    H225246   4.386   2.030   7.536
 8429TIP3   OH225247   5.673   1.313   6.296
 8429TIP3    H125248   5.643   1.404   6.277
 8429TIP3    H225249   5.595   1.263   6.269
 8430TIP3   OH225250   5.671   1.313   6.675
 8430TIP3    H125251   5.701   1.293   6.766
 8430TIP3    H225252   5.630   1.228   6.650
 8431TIP3   OH225253   4.972   1.217   7.037
 8431TIP3    H125254   5.002   1.144   7.095
 8431TIP3    H225255   5.051   1.272   7.033
 8432TIP3   OH225256   5.919   1.611   6.362
 8432TIP3    H125257   5.895   1.544   6.427
 8432TIP3    H225258   5.942   1.687   6.418
 8433TIP3   OH225259   4.942   1.617   6.765
 8433TIP3    H125260   4.931   1.520   6.769
 8433TIP3    H225261   5.039   1.625   6.768
 8434TIP3   OH225262   4.644   0.822   6.556
 8434TIP3    H125263   4.601   0.907   6.577
 8434TIP3    H225264   4.568   0.772   6.522
 8435TIP3   OH225265   4.707   1.108   6.718
 8435TIP3    H125266   4.756   1.035   6.762
 8435TIP3    H225267   4.773   1.142   6.657
 8436TIP3   OH225268   5.565   2.078   6.378
 8436TIP3    H125269   5.611   2.005   6.331
 8436TIP3    H225270   5.551   2.039   6.465
 8437TIP3   OH225271   5.467   1.535   6.728
 8437TIP3    H125272   5.504   1.458   6.682
 8437TIP3    H225273   5.551   1.580   6.750
 8438TIP3   OH225274   5.884   1.053   6.765
 8438TIP3    H125275   5.916   0.963   6.792
 8438TIP3    H225276   5.847   1.033   6.677
 8439TIP3   OH225277   5.217   0.747   6.750
 8439TIP3    H125278   5.212   0.827   6.694
 8439TIP3    H225279   5.187   0.681   6.686
 8440TIP3   OH225280   5.935   0.836   6.361
 8440TIP3    H125281   5.997   0.766   6.382
 8440TIP3    H225282   5.931   0.830   6.264
 8441TIP3   OH225283   4.860   0.916   6.832
 8441TIP3    H125284   4.931   0.889   6.894
 8441TIP3    H225285   4.871   0.848   6.763
 8442TIP3   OH225286   5.296   1.106   6.625
 8442TIP3    H125287   5.390   1.081   6.640
 8442TIP3    H225288   5.259   1.022   6.589
 8443TIP3   OH225289   5.567   1.536   6.166
 8443TIP3    H125290   5.518   1.513   6.085
 8443TIP3    H225291   5.520   1.618   6.192
 8444TIP3   OH225292   5.325   1.458   6.957
 8444TIP3    H125293   5.261   1.524   6.993
 8444TIP3    H225294   5.364   1.507   6.882
 8445TIP3   OH225295   5.082   0.816   6.969
 8445TIP3    H125296   5.141   0.880   7.012
 8445TIP3    H225297   5.132   0.798   6.887
 8446TIP3   OH225298   5.154   1.650   7.051
 8446TIP3    H125299   5.130   1.738   7.015
 8446TIP3    H225300   5.072   1.635   7.103
 8447TIP3   OH225301   4.546   1.341   6.289
 8447TIP3    H125302   4.503   1.372   6.207
 8447TIP3    H225303   4.578   1.425   6.328
 8448TIP3   OH225304   5.988   1.858   6.528
 8448TIP3    H125305   5.899   1.847   6.570
 8448TIP3    H225306   5.976   1.943   6.482
 8449TIP3   OH225307   5.690   1.902   6.207
 8449TIP3    H125308   5.738   1.819   6.185
 8449TIP3    H225309   5.751   1.967   6.164
 8450TIP3   OH225310   5.832   1.687   6.111
 8450TIP3    H125311   5.782   1.611   6.077
 8450TIP3    H225312   5.869   1.651   6.194
 8451TIP3   OH225313   6.196   1.760   6.863
 8451TIP3    H125314   6.197   1.683   6.803
 8451TIP3    H225315   6.183   1.835   6.801
 8452TIP3   OH225316   5.501   1.163   6.130
 8452TIP3    H125317   5.420   1.215   6.111
 8452TIP3    H225318   5.545   1.163   6.043
 8453TIP3   OH225319   5.460   0.947   5.852
 8453TIP3    H125320   5.524   1.004   5.898
 8453TIP3    H225321   5.520   0.894   5.796
 8454TIP3   OH225322   6.392   1.379   6.670
 8454TIP3    H125323   6.314   1.436   6.690
 8454TIP3    H225324   6.424   1.422   6.588
 8455TIP3   OH225325   5.851   1.246   6.101
 8455TIP3    H125326   5.794   1.269   6.178
 8455TIP3    H225327   5.935   1.223   6.147
 8456TIP3   OH225328   6.057   1.315   6.972
 8456TIP3    H125329   6.049   1.411   6.970
 8456TIP3    H225330   5.965   1.289   6.953
 8457TIP3   OH225331   5.082   1.244   6.517
 8457TIP3    H125332   5.042   1.185   6.450
 8457TIP3    H225333   5.159   1.191   6.547
 8458TIP3   OH225334   5.217   1.660   6.665
 8458TIP3    H125335   5.190   1.615   6.583
 8458TIP3    H225336   5.305   1.621   6.682
 8459TIP3   OH225337   5.225   1.214   6.873
 8459TIP3    H125338   5.253   1.193   6.781
 8459TIP3    H225339   5.264   1.303   6.888
 8460TIP3   OH225340   5.749   1.852   6.649
 8460TIP3    H125341   5.729   1.931   6.703
 8460TIP3    H225342   5.726   1.778   6.709
 8461TIP3   OH225343   5.355   1.768   7.199
 8461TIP3    H125344   5.295   1.832   7.243
 8461TIP3    H225345   5.290   1.716   7.147
 8462TIP3   OH225346   5.687   1.109   5.926
 8462TIP3    H125347   5.746   1.170   5.976
 8462TIP3    H225348   5.715   1.129   5.833
 8463TIP3   OH225349   5.108   1.331   7.311
 8463TIP3    H125350   5.116   1.427   7.332
 8463TIP3    H225351   5.013   1.325   7.290
 8464TIP3   OH225352   5.436   1.781   6.202
 8464TIP3    H125353   5.512   1.838   6.220
 8464TIP3    H225354   5.372   1.841   6.163
 8465TIP3   OH225355   5.157   1.942   7.282
 8465TIP3    H125356   5.119   1.943   7.192
 8465TIP3    H225357   5.078   1.916   7.336
 8466TIP3   OH225358   4.951   1.087   6.319
 8466TIP3    H125359   4.881   1.129   6.266
 8466TIP3    H225360   4.912   1.001   6.340
 8467TIP3   OH225361   6.004   1.711   5.525
 8467TIP3    H125362   6.013   1.808   5.510
 8467TIP3    H225363   6.097   1.682   5.513
 8468TIP3   OH225364   4.757   1.462   7.203
 8468TIP3    H125365   4.662   1.485   7.196
 8468TIP3    H225366   4.755   1.382   7.257
 8469TIP3   OH225367   4.586   1.671   6.848
 8469TIP3    H125368   4.681   1.660   6.860
 8469TIP3    H225369   4.564   1.732   6.919
 8470TIP3   OH225370   6.433   2.148   6.899
 8470TIP3    H125371   6.432   2.050   6.912
 8470TIP3    H225372   6.355   2.170   6.955
 8471TIP3   OH225373   5.550   1.896   7.053
 8471TIP3    H125374   5.552   1.989   7.084
 8471TIP3    H225375   5.478   1.860   7.109
 8472TIP3   OH225376   5.317   2.030   6.005
 8472TIP3    H125377   5.268   2.011   5.923
 8472TIP3    H225378   5.282   2.117   6.031
 8473TIP3   OH225379   4.753   1.878   6.391
 8473TIP3    H125380   4.801   1.870   6.477
 8473TIP3    H225381   4.694   1.801   6.396
 8474TIP3   OH225382   5.516   1.931   5.645
 8474TIP3    H125383   5.575   1.861   5.609
 8474TIP3    H225384   5.550   1.940   5.737
 8475TIP3   OH225385   5.567   1.978   5.915
 8475TIP3    H125386   5.478   1.989   5.955
 8475TIP3    H225387   5.615   1.935   5.989
 8476TIP3   OH225388   4.931   1.663   7.202
 8476TIP3    H125389   4.978   1.649   7.286
 8476TIP3    H225390   4.863   1.592   7.205
 8477TIP3   OH225391   5.769   1.152   5.674
 8477TIP3    H125392   5.731   1.126   5.587
 8477TIP3    H225393   5.850   1.198   5.646
 8478TIP3   OH225394   5.275   1.008   7.037
 8478TIP3    H125395   5.215   1.031   7.110
 8478TIP3    H225396   5.257   1.081   6.974
 8479TIP3   OH225397   5.151   0.892   6.533
 8479TIP3    H125398   5.060   0.860   6.554
 8479TIP3    H225399   5.167   0.843   6.449
 8480TIP3   OH225400   5.646   0.974   6.265
 8480TIP3    H125401   5.590   1.042   6.221
 8480TIP3    H225402   5.697   0.938   6.190
 8481TIP3   OH225403   5.795   1.019   6.504
 8481TIP3    H125404   5.726   1.042   6.439
 8481TIP3    H225405   5.845   0.954   6.450
 8482TIP3   OH225406   5.077   1.034   7.218
 8482TIP3    H125407   5.093   1.077   7.303
 8482TIP3    H225408   5.080   0.939   7.243
 8483TIP3   OH225409   4.695   0.584   6.365
 8483TIP3    H125410   4.727   0.608   6.276
 8483TIP3    H225411   4.629   0.653   6.379
 8484TIP3   OH225412   5.786   1.245   6.920
 8484TIP3    H125413   5.825   1.176   6.861
 8484TIP3    H225414   5.759   1.189   6.996
 8485TIP3   OH225415   5.445   0.732   6.569
 8485TIP3    H125416   5.366   0.709   6.620
 8485TIP3    H225417   5.511   0.742   6.642
 8486TIP3   OH225418   4.908   0.768   6.595
 8486TIP3    H125419   4.814   0.789   6.574
 8486TIP3    H225420   4.904   0.671   6.598
 8487TIP3   OH225421   5.190   0.761   6.289
 8487TIP3    H125422   5.281   0.783   6.261
 8487TIP3    H225423   5.136   0.777   6.209
 8488TIP3   OH225424   5.018   0.787   6.068
 8488TIP3    H125425   4.946   0.745   6.019
 8488TIP3    H225426   5.071   0.825   5.995
 8489TIP3   OH225427   6.136   2.470   7.018
 8489TIP3    H125428   6.131   2.495   6.924
 8489TIP3    H225429   6.218   2.516   7.045
 8490TIP3   OH225430   5.119   1.595   7.409
 8490TIP3    H125431   5.201   1.619   7.456
 8490TIP3    H225432   5.054   1.633   7.471
 8491TIP3   OH225433   5.555   1.039   6.698
 8491TIP3    H125434   5.617   0.987   6.645
 8491TIP3    H225435   5.553   0.985   6.780
 8492TIP3   OH225436   5.527   0.929   6.984
 8492TIP3    H125437   5.435   0.958   7.002
 8492TIP3    H225438   5.579   0.997   7.031
 8493TIP3   OH225439   5.273   1.315   6.080
 8493TIP3    H125440   5.201   1.250   6.068
 8493TIP3    H225441   5.253   1.349   6.171
 8494TIP3   OH225442   6.175   1.540   6.700
 8494TIP3    H125443   6.190   1.597   6.621
 8494TIP3    H225444   6.086   1.502   6.681
 8495TIP3   OH225445   5.705   0.650   5.944
 8495TIP3    H125446   5.609   0.652   5.944
 8495TIP3    H225447   5.727   0.744   5.961
 8496TIP3   OH225448   5.650   1.628   7.061
 8496TIP3    H125449   5.646   1.594   7.151
 8496TIP3    H225450   5.611   1.717   7.069
 8497TIP3   OH225451   5.808   0.888   6.039
 8497TIP3    H125452   5.904   0.904   6.053
 8497TIP3    H225453   5.780   0.969   5.990
 8498TIP3   OH225454   4.967   1.340   6.755
 8498TIP3    H125455   5.006   1.307   6.671
 8498TIP3    H225456   4.996   1.275   6.820
 8499TIP3   OH225457   5.417   1.465   5.902
 8499TIP3    H125458   5.370   1.551   5.906
 8499TIP3    H225459   5.362   1.410   5.962
 8500TIP3   OH225460   4.823   1.253   7.394
 8500TIP3    H125461   4.867   1.188   7.450
 8500TIP3    H225462   4.764   1.198   7.337
 8501TIP3   OH225463   5.555   1.378   7.378
 8501TIP3    H125464   5.484   1.319   7.346
 8501TIP3    H225465   5.634   1.326   7.359
 8502TIP3   OH225466   5.830   1.888   6.971
 8502TIP3    H125467   5.734   1.882   6.988
 8502TIP3    H225468   5.858   1.941   7.047
 8503TIP3   OH225469   6.241   0.970   5.876
 8503TIP3    H125470   6.174   0.934   5.814
 8503TIP3    H225471   6.242   1.061   5.840
 8504TIP3   OH225472   6.418   1.885   6.955
 8504TIP3    H125473   6.341   1.828   6.936
 8504TIP3    H225474   6.493   1.825   6.935
 8505TIP3   OH225475   5.948   1.784   5.792
 8505TIP3    H125476   5.913   1.716   5.851
 8505TIP3    H225477   5.955   1.737   5.707
 8506TIP3   OH225478   5.938   1.415   6.628
 8506TIP3    H125479   5.844   1.392   6.641
 8506TIP3    H225480   5.970   1.334   6.582
 8507TIP3   OH225481   5.066   1.641   6.376
 8507TIP3    H125482   5.060   1.723   6.324
 8507TIP3    H225483   4.973   1.625   6.397
 8508TIP3   OH225484   4.633   0.945   6.084
 8508TIP3    H125485   4.677   1.030   6.105
 8508TIP3    H225486   4.555   0.950   6.144
 8509TIP3   OH225487   5.205   1.407   6.324
 8509TIP3    H125488   5.168   1.496   6.341
 8509TIP3    H225489   5.168   1.356   6.398
 8510TIP3   OH225490   5.335   1.987   6.848
 8510TIP3    H125491   5.378   2.060   6.798
 8510TIP3    H225492   5.410   1.951   6.897
 8511TIP3   OH225493   4.984   1.881   6.231
 8511TIP3    H125494   4.899   1.888   6.279
 8511TIP3    H225495   5.015   1.974   6.234
 8512TIP3   OH225496   5.720   1.617   6.800
 8512TIP3    H125497   5.701   1.613   6.896
 8512TIP3    H225498   5.806   1.573   6.796
 8513TIP3   OH225499   5.698   1.514   5.690
 8513TIP3    H125500   5.750   1.487   5.769
 8513TIP3    H225501   5.609   1.486   5.717
 8514TIP3   OH225502   5.972   2.152   6.857
 8514TIP3    H125503   5.891   2.098   6.850
 8514TIP3    H225504   5.957   2.217   6.785
 8515TIP3   OH225505   6.038   1.986   5.511
 8515TIP3    H125506   6.072   2.058   5.454
 8515TIP3    H225507   5.958   2.031   5.545
 8516TIP3   OH225508   5.858   1.445   5.905
 8516TIP3    H125509   5.848   1.381   5.978
 8516TIP3    H225510   5.955   1.442   5.894
 8517TIP3   OH225511   4.778   1.848   7.008
 8517TIP3    H125512   4.822   1.774   7.052
 8517TIP3    H225513   4.792   1.919   7.072
 8518TIP3   OH225514   5.064   1.493   5.690
 8518TIP3    H125515   5.077   1.400   5.663
 8518TIP3    H225516   5.044   1.482   5.785
 8519TIP3   OH225517   5.009   1.498   5.962
 8519TIP3    H125518   5.079   1.471   6.023
 8519TIP3    H225519   5.013   1.596   5.970
 8520TIP3   OH225520   4.743   1.191   6.166
 8520TIP3    H125521   4.677   1.235   6.223
 8520TIP3    H225522   4.756   1.260   6.099
 8521TIP3   OH225523   5.276   1.695   5.911
 8521TIP3    H125524   5.189   1.719   5.948
 8521TIP3    H225525   5.290   1.768   5.849
 8522TIP3   OH225526   5.471   0.765   6.305
 8522TIP3    H125527   5.532   0.841   6.301
 8522TIP3    H225528   5.456   0.758   6.402
 8523TIP3   OH225529   5.716   1.077   7.123
 8523TIP3    H125530   5.717   1.113   7.213
 8523TIP3    H225531   5.737   0.983   7.139
 8524TIP3   OH225532   5.021   1.770   5.980
 8524TIP3    H125533   4.989   1.840   5.918
 8524TIP3    H225534   5.003   1.812   6.067
 8525TIP3   OH225535   6.025   1.179   6.500
 8525TIP3    H125536   5.944   1.127   6.517
 8525TIP3    H225537   6.095   1.122   6.540
 8526TIP3   OH225538   4.736   1.399   5.971
 8526TIP3    H125539   4.802   1.470   5.982
 8526TIP3    H225540   4.783   1.344   5.904
 8527TIP3   OH225541   4.668   0.671   6.099
 8527TIP3    H125542   4.685   0.767   6.095
 8527TIP3    H225543   4.581   0.667   6.057
 8528TIP3   OH225544   5.993   2.129   6.451
 8528TIP3    H125545   5.949   2.175   6.376
 8528TIP3    H225546   6.087   2.146   6.429
 8529TIP3   OH225547   4.606   1.609   6.356
 8529TIP3    H125548   4.544   1.642   6.423
 8529TIP3    H225549   4.572   1.654   6.274
 8530TIP3   OH225550   4.735   2.114   7.391
 8530TIP3    H125551   4.806   2.155   7.443
 8530TIP3    H225552   4.732   2.023   7.426
 8531TIP3   OH225553   5.258   2.125   7.462
 8531TIP3    H125554   5.349   2.093   7.464
 8531TIP3    H225555   5.220   2.067   7.393
 8532TIP3   OH225556   5.227   1.696   5.602
 8532TIP3    H125557   5.171   1.624   5.640
 8532TIP3    H225558   5.302   1.643   5.570
 8533TIP3   OH225559   5.883   2.033   7.199
 8533TIP3    H125560   5.866   1.964   7.268
 8533TIP3    H225561   5.974   2.058   7.220
 8534TIP3   OH225562   5.664   1.737   5.515
 8534TIP3    H125563   5.705   1.671   5.573
 8534TIP3    H225564   5.719   1.734   5.435
 8535TIP3   OH225565   4.917   1.622   7.598
 8535TIP3    H125566   4.952   1.531   7.589
 8535TIP3    H225567   4.828   1.613   7.562
 8536TIP3   OH225568   4.872   1.213   5.824
 8536TIP3    H125569   4.928   1.181   5.898
 8536TIP3    H225570   4.940   1.217   5.753
 8537TIP3   OH225571   5.511   1.652   7.396
 8537TIP3    H125572   5.459   1.670   7.315
 8537TIP3    H225573   5.531   1.556   7.388
 8538TIP3   OH225574   5.384   1.414   5.632
 8538TIP3    H125575   5.385   1.425   5.730
 8538TIP3    H225576   5.385   1.316   5.625
 8539TIP3   OH225577   5.968   1.642   6.957
 8539TIP3    H125578   6.052   1.681   6.929
 8539TIP3    H225579   5.909   1.720   6.951
 8540TIP3   OH225580   5.036   1.376   7.594
 8540TIP3    H125581   5.087   1.344   7.518
 8540TIP3    H225582   5.096   1.354   7.670
 8541TIP3   OH225583   5.081   1.119   6.047
 8541TIP3    H125584   5.051   1.079   6.131
 8541TIP3    H225585   5.116   1.041   5.998
 8542TIP3   OH225586   5.352   1.204   7.283
 8542TIP3    H125587   5.264   1.247   7.279
 8542TIP3    H225588   5.392   1.231   7.198
 8543TIP3   OH225589   5.179   0.912   5.886
 8543TIP3    H125590   5.157   0.914   5.791
 8543TIP3    H225591   5.277   0.912   5.882
 8544TIP3   OH225592   5.896   1.616   7.465
 8544TIP3    H125593   5.941   1.625   7.378
 8544TIP3    H225594   5.898   1.518   7.470
 8545TIP3   OH225595   6.005   1.241   5.550
 8545TIP3    H125596   5.983   1.197   5.466
 8545TIP3    H225597   5.971   1.331   5.530
 8546TIP3   OH225598   5.496   0.992   7.368
 8546TIP3    H125599   5.484   0.940   7.288
 8546TIP3    H225600   5.438   1.068   7.348
 8547TIP3   OH225601   5.508   1.301   7.081
 8547TIP3    H125602   5.585   1.304   7.023
 8547TIP3    H225603   5.448   1.366   7.038
 8548TIP3   OH225604   6.010   1.597   7.224
 8548TIP3    H125605   5.982   1.607   7.131
 8548TIP3    H225606   6.106   1.611   7.217
 8549TIP3   OH225607   5.287   1.115   7.610
 8549TIP3    H125608   5.313   1.021   7.624
 8549TIP3    H225609   5.346   1.138   7.538
 8550TIP3   OH225610   4.988   1.974   5.792
 8550TIP3    H125611   5.084   1.967   5.773
 8550TIP3    H225612   4.959   2.024   5.713
 8551TIP3   OH225613   4.467   1.356   6.004
 8551TIP3    H125614   4.562   1.377   5.993
 8551TIP3    H225615   4.462   1.266   5.966
 8552TIP3   OH225616   4.388   1.967   6.422
 8552TIP3    H125617   4.320   1.907   6.385
 8552TIP3    H225618   4.429   1.909   6.489
 8553TIP3   OH225619   4.522   1.815   6.609
 8553TIP3    H125620   4.511   1.744   6.675
 8553TIP3    H225621   4.568   1.880   6.665
 8554TIP3   OH225622   6.248   2.213   6.409
 8554TIP3    H125623   6.272   2.247   6.498
 8554TIP3    H225624   6.306   2.265   6.351
 8555TIP3   OH225625   6.275   2.239   6.688
 8555TIP3    H125626   6.229   2.153   6.682
 8555TIP3    H225627   6.347   2.213   6.750
 8556TIP3   OH225628   6.194   1.964   7.229
 8556TIP3    H125629   6.216   1.870   7.238
 8556TIP3    H225630   6.241   1.987   7.147
 8557TIP3   OH225631   6.138   1.428   5.884
 8557TIP3    H125632   6.203   1.493   5.853
 8557TIP3    H225633   6.183   1.391   5.963
 8558TIP3   OH225634   6.268   1.299   6.093
 8558TIP3    H125635   6.195   1.253   6.141
 8558TIP3    H225636   6.312   1.348   6.164
 8559TIP3   OH225637   6.316   1.694   6.517
 8559TIP3    H125638   6.370   1.632   6.464
 8559TIP3    H225639   6.307   1.770   6.456
 8560TIP3   OH225640   6.150   1.991   6.711
 8560TIP3    H125641   6.079   2.031   6.764
 8560TIP3    H225642   6.099   1.945   6.641
 8561TIP3   OH225643   6.205   1.206   5.733
 8561TIP3    H125644   6.134   1.203   5.665
 8561TIP3    H225645   6.173   1.282   5.786
 8562TIP3   OH225646   6.057   0.904   5.688
 8562TIP3    H125647   6.019   0.934   5.605
 8562TIP3    H225648   6.048   0.808   5.683
 8563TIP3   OH225649   6.082   1.157   6.232
 8563TIP3    H125650   6.078   1.060   6.222
 8563TIP3    H225651   6.065   1.168   6.328
 8564TIP3   OH225652   4.705   1.211   6.980
 8564TIP3    H125653   4.702   1.190   6.885
 8564TIP3    H225654   4.801   1.226   6.994
 8565TIP3   OH225655   6.081   0.884   6.113
 8565TIP3    H125656   6.116   0.799   6.144
 8565TIP3    H225657   6.142   0.906   6.041
 8566TIP3   OH225658   6.243   1.040   6.599
 8566TIP3    H125659   6.332   1.069   6.569
 8566TIP3    H225660   6.241   1.078   6.689
 8567TIP3   OH225661   6.263   1.182   6.833
 8567TIP3    H125662   6.184   1.217   6.881
 8567TIP3    H225663   6.290   1.259   6.780
 8568TIP3   OH225664   4.685   0.884   7.052
 8568TIP3    H125665   4.740   0.871   6.973
 8568TIP3    H225666   4.710   0.974   7.079
 8569TIP3   OH225667   5.832   2.085   6.066
 8569TIP3    H125668   5.881   2.073   5.982
 8569TIP3    H225669   5.884   2.154   6.109
 8570TIP3   OH225670   4.947   1.880   7.441
 8570TIP3    H125671   4.852   1.855   7.438
 8570TIP3    H225672   4.963   1.887   7.536
 8571TIP3   OH225673   5.113   1.920   6.999
 8571TIP3    H125674   5.056   1.990   6.963
 8571TIP3    H225675   5.196   1.942   6.951
 8572TIP3   OH225676   5.557   2.159   7.133
 8572TIP3    H125677   5.596   2.166   7.223
 8572TIP3    H225678   5.620   2.215   7.082
 8573TIP3   OH225679   5.731   2.319   6.994
 8573TIP3    H125680   5.801   2.267   6.953
 8573TIP3    H225681   5.783   2.375   7.057
 8574TIP3   OH225682   4.787   2.181   7.020
 8574TIP3    H125683   4.695   2.212   7.002
 8574TIP3    H225684   4.801   2.222   7.107
 8575TIP3   OH225685   5.023   2.159   6.881
 8575TIP3    H125686   4.936   2.169   6.926
 8575TIP3    H225687   5.001   2.189   6.791
 8576TIP3   OH225688   5.449   2.187   6.676
 8576TIP3    H125689   5.376   2.204   6.613
 8576TIP3    H225690   5.458   2.274   6.719
 8577TIP3   OH225691   5.716   2.126   6.730
 8577TIP3    H125692   5.622   2.142   6.711
 8577TIP3    H225693   5.757   2.202   6.687
 8578TIP3   OH225694   5.928   2.319   6.644
 8578TIP3    H125695   5.910   2.402   6.596
 8578TIP3    H225696   5.950   2.257   6.571
 8579TIP3   OH225697   4.700   1.977   6.767
 8579TIP3    H125698   4.723   1.946   6.857
 8579TIP3    H225699   4.767   1.927   6.716
 8580TIP3   OH225700   4.891   1.843   6.622
 8580TIP3    H125701   4.903   1.760   6.674
 8580TIP3    H225702   4.982   1.878   6.620
 8581TIP3   OH225703   5.159   1.938   6.626
 8581TIP3    H125704   5.189   1.846   6.617
 8581TIP3    H225705   5.201   1.960   6.711
 8582TIP3   OH225706   4.486   1.744   6.155
 8582TIP3    H125707   4.400   1.711   6.123
 8582TIP3    H225708   4.473   1.839   6.143
 8583TIP3   OH225709   5.256   1.932   5.739
 8583TIP3    H125710   5.344   1.955   5.703
 8583TIP3    H225711   5.234   1.858   5.679
 8584TIP3   OH225712   5.977   2.052   5.833
 8584TIP3    H125713   5.970   1.954   5.822
 8584TIP3    H225714   5.930   2.082   5.753
 8585TIP3   OH225715   4.560   1.771   5.795
 8585TIP3    H125716   4.558   1.791   5.890
 8585TIP3    H225717   4.648   1.729   5.784
 8586TIP3   OH225718   6.193   2.205   7.020
 8586TIP3    H125719   6.117   2.171   6.968
 8586TIP3    H225720   6.175   2.301   7.016
 8587TIP3   OH225721   7.460   1.583   5.776
 8587TIP3    H125722   7.423   1.668   5.747
 8587TIP3    H225723   7.391   1.521   5.744
 8588TIP3   OH225724   6.729   1.871   6.253
 8588TIP3    H125725   6.730   1.776   6.268
 8588TIP3    H225726   6.823   1.892   6.267
 8589TIP3   OH225727   6.438   1.085   6.049
 8589TIP3    H125728   6.379   1.162   6.060
 8589TIP3    H225729   6.376   1.021   6.011
 8590TIP3   OH225730   6.536   1.373   6.210
 8590TIP3    H125731   6.566   1.286   6.244
 8590TIP3    H225732   6.544   1.360   6.115
 8591TIP3   OH225733   7.355   2.328   5.861
 8591TIP3    H125734   7.408   2.257   5.819
 8591TIP3    H225735   7.370   2.313   5.955
 8592TIP3   OH225736   6.663   1.158   6.322
 8592TIP3    H125737   6.738   1.124   6.370
 8592TIP3    H225738   6.671   1.107   6.238
 8593TIP3   OH225739   7.036   1.361   6.166
 8593TIP3    H125740   7.124   1.350   6.123
 8593TIP3    H225741   6.996   1.276   6.136
 8594TIP3   OH225742   7.365   1.806   5.645
 8594TIP3    H125743   7.317   1.780   5.565
 8594TIP3    H225744   7.313   1.884   5.673
 8595TIP3   OH225745   6.918   1.907   6.487
 8595TIP3    H125746   6.928   2.002   6.466
 8595TIP3    H225747   6.851   1.914   6.559
 8596TIP3   OH225748   6.341   1.597   5.776
 8596TIP3    H125749   6.299   1.622   5.692
 8596TIP3    H225750   6.370   1.684   5.810
 8597TIP3   OH225751   7.486   2.151   5.692
 8597TIP3    H125752   7.539   2.077   5.657
 8597TIP3    H225753   7.540   2.226   5.656
 8598TIP3   OH225754   7.628   1.931   5.605
 8598TIP3    H125755   7.575   1.876   5.546
 8598TIP3    H225756   7.603   1.898   5.691
 8599TIP3   OH225757   7.301   1.429   5.612
 8599TIP3    H125758   7.217   1.476   5.592
 8599TIP3    H225759   7.338   1.416   5.523
 8600TIP3   OH225760   7.255   1.202   5.344
 8600TIP3    H125761   7.323   1.258   5.384
 8600TIP3    H225762   7.311   1.145   5.287
 8601TIP3   OH225763   7.642   1.516   5.582
 8601TIP3    H125764   7.573   1.538   5.648
 8601TIP3    H225765   7.708   1.476   5.643
 8602TIP3   OH225766   6.867   1.506   5.993
 8602TIP3    H125767   6.819   1.454   5.925
 8602TIP3    H225768   6.925   1.436   6.030
 8603TIP3   OH225769   6.997   1.904   6.146
 8603TIP3    H125770   6.975   1.880   6.055
 8603TIP3    H225771   7.093   1.899   6.149
 8604TIP3   OH225772   7.484   1.363   5.407
 8604TIP3    H125773   7.540   1.425   5.458
 8604TIP3    H225774   7.512   1.384   5.315
 8605TIP3   OH225775   7.228   2.039   5.696
 8605TIP3    H125776   7.303   2.101   5.710
 8605TIP3    H225777   7.165   2.094   5.649
 8606TIP3   OH225778   6.916   2.254   6.755
 8606TIP3    H125779   6.926   2.192   6.681
 8606TIP3    H225780   6.851   2.208   6.812
 8607TIP3   OH225781   6.737   1.350   5.812
 8607TIP3    H125782   6.666   1.384   5.752
 8607TIP3    H225783   6.713   1.257   5.823
 8608TIP3   OH225784   6.529   1.685   6.699
 8608TIP3    H125785   6.454   1.710   6.641
 8608TIP3    H225786   6.492   1.607   6.744
 8609TIP3   OH225787   6.381   1.921   6.351
 8609TIP3    H125788   6.476   1.927   6.342
 8609TIP3    H225789   6.361   2.001   6.402
 8610TIP3   OH225790   7.114   2.285   5.493
 8610TIP3    H125791   7.066   2.268   5.410
 8610TIP3    H225792   7.080   2.372   5.519
 8611TIP3   OH225793   6.549   2.135   5.876
 8611TIP3    H125794   6.594   2.126   5.962
 8611TIP3    H225795   6.490   2.058   5.879
 8612TIP3   OH225796   7.312   2.190   5.133
 8612TIP3    H125797   7.371   2.121   5.096
 8612TIP3    H225798   7.345   2.198   5.225
 8613TIP3   OH225799   7.363   2.231   5.402
 8613TIP3    H125800   7.273   2.244   5.440
 8613TIP3    H225801   7.413   2.206   5.482
 8614TIP3   OH225802   6.740   1.892   6.694
 8614TIP3    H125803   6.761   1.929   6.782
 8614TIP3    H225804   6.660   1.839   6.715
 8615TIP3   OH225805   7.578   1.421   5.160
 8615TIP3    H125806   7.540   1.384   5.077
 8615TIP3    H225807   7.621   1.501   5.125
 8616TIP3   OH225808   6.925   1.166   6.007
 8616TIP3    H125809   6.852   1.110   6.040
 8616TIP3    H225810   6.963   1.107   5.939
 8617TIP3   OH225811   7.426   1.225   5.754
 8617TIP3    H125812   7.376   1.289   5.701
 8617TIP3    H225813   7.484   1.183   5.689
 8618TIP3   OH225814   6.492   0.851   5.855
 8618TIP3    H125815   6.523   0.863   5.764
 8618TIP3    H225816   6.415   0.910   5.855
 8619TIP3   OH225817   6.703   1.024   6.089
 8619TIP3    H125818   6.611   1.031   6.057
 8619TIP3    H225819   6.715   0.926   6.092
 8620TIP3   OH225820   7.001   1.019   5.760
 8620TIP3    H125821   7.067   1.073   5.717
 8620TIP3    H225822   6.926   1.025   5.697
 8621TIP3   OH225823   6.816   1.046   5.562
 8621TIP3    H125824   6.744   1.000   5.515
 8621TIP3    H225825   6.868   1.079   5.486
 8622TIP3   OH225826   7.067   1.575   5.569
 8622TIP3    H125827   6.996   1.507   5.557
 8622TIP3    H225828   7.048   1.607   5.660
 8623TIP3   OH225829   7.527   0.890   5.453
 8623TIP3    H125830   7.437   0.908   5.426
 8623TIP3    H225831   7.554   0.975   5.495
 8624TIP3   OH225832   7.601   1.144   5.536
 8624TIP3    H125833   7.697   1.146   5.528
 8624TIP3    H225834   7.572   1.219   5.480
 8625TIP3   OH225835   6.821   1.567   6.258
 8625TIP3    H125836   6.823   1.568   6.160
 8625TIP3    H225837   6.752   1.501   6.273
 8626TIP3   OH225838   7.218   1.724   5.396
 8626TIP3    H125839   7.168   1.810   5.395
 8626TIP3    H225840   7.159   1.669   5.452
 8627TIP3   OH225841   7.777   1.995   5.279
 8627TIP3    H125842   7.700   1.969   5.331
 8627TIP3    H225843   7.740   2.027   5.195
 8628TIP3   OH225844   6.865   1.902   5.871
 8628TIP3    H125845   6.861   1.981   5.813
 8628TIP3    H225846   6.772   1.881   5.880
 8629TIP3   OH225847   6.430   1.201   5.573
 8629TIP3    H125848   6.471   1.288   5.591
 8629TIP3    H225849   6.351   1.206   5.631
 8630TIP3   OH225850   7.007   1.668   5.816
 8630TIP3    H125851   6.967   1.756   5.832
 8630TIP3    H225852   6.961   1.613   5.882
 8631TIP3   OH225853   7.135   2.249   6.333
 8631TIP3    H125854   7.177   2.317   6.276
 8631TIP3    H225855   7.208   2.233   6.396
 8632TIP3   OH225856   6.784   2.135   5.722
 8632TIP3    H125857   6.697   2.146   5.766
 8632TIP3    H225858   6.816   2.228   5.723
 8633TIP3   OH225859   7.479   1.773   5.174
 8633TIP3    H125860   7.532   1.749   5.253
 8633TIP3    H225861   7.391   1.744   5.201
 8634TIP3   OH225862   7.777   2.196   5.067
 8634TIP3    H125863   7.863   2.230   5.037
 8634TIP3    H225864   7.721   2.276   5.059
 8635TIP3   OH225865   7.641   1.712   5.388
 8635TIP3    H125866   7.638   1.638   5.452
 8635TIP3    H225867   7.735   1.716   5.366
 8636TIP3   OH225868   6.574   2.106   6.494
 8636TIP3    H125869   6.631   2.034   6.524
 8636TIP3    H225870   6.598   2.176   6.555
 8637TIP3   OH225871   6.864   1.748   5.177
 8637TIP3    H125872   6.871   1.655   5.148
 8637TIP3    H225873   6.840   1.736   5.271
 8638TIP3   OH225874   6.806   1.755   5.449
 8638TIP3    H125875   6.879   1.729   5.507
 8638TIP3    H225876   6.808   1.853   5.455
 8639TIP3   OH225877   6.538   1.449   5.650
 8639TIP3    H125878   6.472   1.494   5.707
 8639TIP3    H225879   6.551   1.518   5.582
 8640TIP3   OH225880   7.074   1.953   5.401
 8640TIP3    H125881   6.986   1.977   5.435
 8640TIP3    H225882   7.086   2.022   5.334
 8641TIP3   OH225883   6.818   2.027   5.467
 8641TIP3    H125884   6.787   2.095   5.403
 8641TIP3    H225885   6.800   2.071   5.552
 8642TIP3   OH225886   6.532   1.655   5.458
 8642TIP3    H125887   6.596   1.728   5.465
 8642TIP3    H225888   6.578   1.600   5.391
 8643TIP3   OH225889   6.463   0.927   5.586
 8643TIP3    H125890   6.475   1.024   5.582
 8643TIP3    H225891   6.380   0.917   5.538
 8644TIP3   OH225892   7.738   2.409   5.955
 8644TIP3    H125893   7.735   2.452   5.868
 8644TIP3    H225894   7.808   2.342   5.945
 8645TIP3   OH225895   6.402   1.867   5.844
 8645TIP3    H125896   6.334   1.899   5.905
 8645TIP3    H225897   6.374   1.910   5.760
 8646TIP3   OH225898   6.558   2.409   6.915
 8646TIP3    H125899   6.640   2.378   6.956
 8646TIP3    H225900   6.514   2.323   6.902
 8647TIP3   OH225901   7.025   1.953   5.091
 8647TIP3    H125902   6.969   1.880   5.126
 8647TIP3    H225903   7.098   1.901   5.052
 8648TIP3   OH225904   7.458   1.996   5.010
 8648TIP3    H125905   7.492   1.918   5.057
 8648TIP3    H225906   7.505   1.994   4.924
 8649TIP3   OH225907   6.668   1.471   5.310
 8649TIP3    H125908   6.723   1.436   5.382
 8649TIP3    H225909   6.734   1.475   5.237
 8650TIP3   OH225910   7.186   1.672   5.122
 8650TIP3    H125911   7.179   1.681   5.219
 8650TIP3    H225912   7.186   1.574   5.114
 8651TIP3   OH225913   6.883   1.373   5.537
 8651TIP3    H125914   6.847   1.327   5.614
 8651TIP3    H225915   6.915   1.299   5.482
 8652TIP3   OH225916   6.974   1.170   5.374
 8652TIP3    H125917   6.950   1.169   5.279
 8652TIP3    H225918   7.072   1.168   5.367
 8653TIP3   OH225919   6.784   2.227   5.279
 8653TIP3    H125920   6.879   2.225   5.259
 8653TIP3    H225921   6.753   2.278   5.202
 8654TIP3   OH225922   6.264   1.610   5.497
 8654TIP3    H125923   6.358   1.631   5.480
 8654TIP3    H225924   6.256   1.521   5.455
 8655TIP3   OH225925   6.181   2.224   5.908
 8655TIP3    H125926   6.113   2.164   5.870
 8655TIP3    H225927   6.224   2.165   5.973
 8656TIP3   OH225928   6.317   2.073   6.094
 8656TIP3    H125929   6.299   2.003   6.158
 8656TIP3    H225930   6.366   2.136   6.150
 8657TIP3   OH225931   6.507   1.496   6.449
 8657TIP3    H125932   6.510   1.454   6.360
 8657TIP3    H225933   6.600   1.504   6.472
 8658TIP3   OH225934   6.491   1.130   6.543
 8658TIP3    H125935   6.549   1.144   6.466
 8658TIP3    H225936   6.493   1.214   6.591
 8659TIP3   OH225937   7.617   2.337   5.555
 8659TIP3    H125938   7.674   2.332   5.476
 8659TIP3    H225939   7.660   2.407   5.608
 8660TIP3   OH225940   6.711   2.138   6.902
 8660TIP3    H125941   6.614   2.132   6.907
 8660TIP3    H225942   6.735   2.105   6.992
 8661TIP3   OH225943   6.907   2.175   6.465
 8661TIP3    H125944   6.859   2.258   6.443
 8661TIP3    H225945   6.994   2.199   6.428
 8662TIP3   OH225946   6.581   2.438   6.503
 8662TIP3    H125947   6.491   2.473   6.484
 8662TIP3    H225948   6.590   2.460   6.596
 8663TIP3   OH225949   6.818   2.418   6.367
 8663TIP3    H125950   6.731   2.430   6.412
 8663TIP3    H225951   6.797   2.448   6.276
 8664TIP3   OH225952   7.234   2.451   6.161
 8664TIP3    H125953   7.162   2.467   6.097
 8664TIP3    H225954   7.248   2.540   6.198
 8665TIP3   OH225955   7.502   2.357   6.214
 8665TIP3    H125956   7.425   2.409   6.185
 8665TIP3    H225957   7.572   2.426   6.215
 8666TIP3   OH225958   7.673   2.591   6.148
 8666TIP3    H125959   7.696   2.676   6.106
 8666TIP3    H225960   7.707   2.527   6.082
 8667TIP3   OH225961   6.492   2.230   6.253
 8667TIP3    H125962   6.519   2.205   6.344
 8667TIP3    H225963   6.564   2.186   6.203
 8668TIP3   OH225964   6.684   2.102   6.110
 8668TIP3    H125965   6.700   2.017   6.156
 8668TIP3    H225966   6.774   2.140   6.107
 8669TIP3   OH225967   6.948   2.201   6.115
 8669TIP3    H125968   6.980   2.111   6.097
 8669TIP3    H225969   6.994   2.220   6.198
 8670TIP3   OH225970   6.281   2.003   5.645
 8670TIP3    H125971   6.196   1.969   5.612
 8670TIP3    H225972   6.271   2.097   5.621
 8671TIP3   OH225973   7.053   2.189   5.228
 8671TIP3    H125974   7.140   2.213   5.190
 8671TIP3    H225975   7.030   2.115   5.167
 8672TIP3   OH225976   7.764   2.298   5.328
 8672TIP3    H125977   7.777   2.204   5.303
 8672TIP3    H225978   7.716   2.331   5.249
 8673TIP3   OH225979   6.356   2.026   5.281
 8673TIP3    H125980   6.356   2.053   5.374
 8673TIP3    H225981   6.445   1.984   5.271
 8674TIP3   OH225982   7.920   2.512   5.387
 8674TIP3    H125983   7.860   2.440   5.360
 8674TIP3    H225984   8.006   2.466   5.384
 8675TIP3   OH225985   1.712   2.614   6.968
 8675TIP3    H125986   1.684   2.704   6.942
 8675TIP3    H225987   1.637   2.561   6.935
 8676TIP3   OH225988   1.955   2.907   7.028
 8676TIP3    H125989   1.941   2.837   7.094
 8676TIP3    H225990   1.996   2.978   7.080
 8677TIP3   OH225991   1.604   3.371   7.042
 8677TIP3    H125992   1.647   3.306   6.983
 8677TIP3    H225993   1.616   3.328   7.128
 8678TIP3   OH225994   1.951   2.085   7.004
 8678TIP3    H125995   2.021   2.069   7.072
 8678TIP3    H225996   2.004   2.126   6.934
 8679TIP3   OH225997   1.606   2.834   6.832
 8679TIP3    H125998   1.564   2.814   6.748
 8679TIP3    H225999   1.561   2.916   6.858
 8680TIP3   OH226000   2.163   2.093   7.174
 8680TIP3    H126001   2.190   2.120   7.265
 8680TIP3    H226002   2.218   2.155   7.126
 8681TIP3   OH226003   0.604   2.641   6.949
 8681TIP3    H126004   0.554   2.660   6.867
 8681TIP3    H226005   0.617   2.729   6.989
 8682TIP3   OH226006   2.037   3.150   7.181
 8682TIP3    H126007   1.943   3.150   7.207
 8682TIP3    H226008   2.043   3.239   7.141
 8683TIP3   OH226009   1.728   3.204   6.864
 8683TIP3    H126010   1.778   3.121   6.848
 8683TIP3    H226011   1.792   3.268   6.825
 8684TIP3   OH226012   1.872   2.989   6.777
 8684TIP3    H126013   1.835   2.910   6.736
 8684TIP3    H226014   1.908   2.953   6.862
 8685TIP3   OH226015   1.548   2.465   6.792
 8685TIP3    H126016   1.467   2.517   6.773
 8685TIP3    H226017   1.593   2.464   6.706
 8686TIP3   OH226018   1.506   2.250   6.509
 8686TIP3    H126019   1.574   2.302   6.556
 8686TIP3    H226020   1.563   2.186   6.462
 8687TIP3   OH226021   2.478   2.693   7.356
 8687TIP3    H126022   2.382   2.703   7.356
 8687TIP3    H226023   2.502   2.742   7.275
 8688TIP3   OH226024   1.891   2.549   6.768
 8688TIP3    H126025   1.839   2.571   6.848
 8688TIP3    H226026   1.977   2.523   6.809
 8689TIP3   OH226027   1.784   3.166   7.279
 8689TIP3    H126028   1.771   3.252   7.322
 8689TIP3    H226029   1.770   3.101   7.348
 8690TIP3   OH226030   1.736   2.405   6.591
 8690TIP3    H126031   1.793   2.467   6.643
 8690TIP3    H226032   1.762   2.428   6.499
 8691TIP3   OH226033   1.475   3.085   6.868
 8691TIP3    H126034   1.558   3.135   6.880
 8691TIP3    H226035   1.420   3.149   6.821
 8692TIP3   OH226036   2.252   1.645   6.642
 8692TIP3    H126037   2.169   1.666   6.690
 8692TIP3    H226038   2.266   1.727   6.591
 8693TIP3   OH226039   1.003   2.377   6.962
 8693TIP3    H126040   0.928   2.422   6.918
 8693TIP3    H226041   0.963   2.298   6.997
 8694TIP3   OH226042   2.050   3.012   6.187
 8694TIP3    H126043   2.059   3.109   6.174
 8694TIP3    H226044   2.143   2.983   6.176
 8695TIP3   OH226045   1.358   3.327   6.671
 8695TIP3    H126046   1.315   3.311   6.586
 8695TIP3    H226047   1.329   3.418   6.693
 8696TIP3   OH226048   0.804   3.168   7.077
 8696TIP3    H126049   0.862   3.120   7.138
 8696TIP3    H226050   0.740   3.097   7.055
 8697TIP3   OH226051   1.560   3.231   6.308
 8697TIP3    H126052   1.620   3.162   6.273
 8697TIP3    H226053   1.595   3.242   6.399
 8698TIP3   OH226054   1.610   3.279   6.578
 8698TIP3    H126055   1.523   3.287   6.622
 8698TIP3    H226056   1.663   3.241   6.650
 8699TIP3   OH226057   1.812   2.453   6.337
 8699TIP3    H126058   1.777   2.426   6.250
 8699TIP3    H226059   1.894   2.498   6.311
 8700TIP3   OH226060   1.526   1.827   6.637
 8700TIP3    H126061   1.490   1.820   6.727
 8700TIP3    H226062   1.486   1.747   6.597
 8701TIP3   OH226063   1.676   2.253   6.906
 8701TIP3    H126064   1.629   2.332   6.872
 8701TIP3    H226065   1.737   2.232   6.832
 8702TIP3   OH226066   1.835   2.304   7.133
 8702TIP3    H126067   1.763   2.320   7.070
 8702TIP3    H226068   1.868   2.219   7.100
 8703TIP3   OH226069   1.183   1.803   6.605
 8703TIP3    H126070   1.174   1.796   6.702
 8703TIP3    H226071   1.100   1.850   6.583
 8704TIP3   OH226072   1.227   2.039   6.956
 8704TIP3    H126073   1.312   2.082   6.938
 8704TIP3    H226074   1.170   2.071   6.882
 8705TIP3   OH226075   1.063   2.093   6.740
 8705TIP3    H126076   0.988   2.046   6.698
 8705TIP3    H226077   1.113   2.122   6.662
 8706TIP3   OH226078   1.316   2.617   6.742
 8706TIP3    H126079   1.245   2.549   6.731
 8706TIP3    H226080   1.300   2.647   6.835
 8707TIP3   OH226081   2.226   2.818   7.320
 8707TIP3    H126082   2.265   2.879   7.253
 8707TIP3    H226083   2.132   2.838   7.311
 8708TIP3   OH226084   1.776   1.928   6.606
 8708TIP3    H126085   1.679   1.909   6.613
 8708TIP3    H226086   1.782   2.023   6.626
 8709TIP3   OH226087   1.848   2.178   6.704
 8709TIP3    H126088   1.944   2.184   6.721
 8709TIP3    H226089   1.830   2.259   6.652
 8710TIP3   OH226090   1.462   2.766   6.564
 8710TIP3    H126091   1.414   2.852   6.569
 8710TIP3    H226092   1.407   2.711   6.625
 8711TIP3   OH226093   2.286   2.266   6.542
 8711TIP3    H126094   2.223   2.223   6.479
 8711TIP3    H226095   2.281   2.356   6.505
 8712TIP3   OH226096   1.986   3.086   6.452
 8712TIP3    H126097   1.962   3.016   6.515
 8712TIP3    H226098   2.000   3.038   6.369
 8713TIP3   OH226099   1.936   2.700   7.243
 8713TIP3    H126100   1.868   2.643   7.284
 8713TIP3    H226101   1.983   2.633   7.190
 8714TIP3   OH226102   1.102   2.931   7.012
 8714TIP3    H126103   1.133   3.016   6.977
 8714TIP3    H226104   1.009   2.935   6.990
 8715TIP3   OH226105   0.660   2.247   6.751
 8715TIP3    H126106   0.724   2.320   6.770
 8715TIP3    H226107   0.578   2.286   6.783
 8716TIP3   OH226108   1.254   2.701   6.991
 8716TIP3    H126109   1.217   2.791   7.003
 8716TIP3    H226110   1.215   2.654   7.065
 8717TIP3   OH226111   1.024   3.190   6.891
 8717TIP3    H126112   0.944   3.205   6.944
 8717TIP3    H226113   1.067   3.278   6.897
 8718TIP3   OH226114   1.744   2.815   6.355
 8718TIP3    H126115   1.797   2.789   6.434
 8718TIP3    H226116   1.656   2.786   6.383
 8719TIP3   OH226117   2.083   3.288   6.174
 8719TIP3    H126118   2.121   3.362   6.124
 8719TIP3    H226119   2.002   3.332   6.207
 8720TIP3   OH226120   1.903   2.747   6.571
 8720TIP3    H126121   1.892   2.682   6.644
 8720TIP3    H226122   2.001   2.743   6.560
 8721TIP3   OH226123   1.107   2.794   6.355
 8721TIP3    H126124   1.122   2.702   6.326
 8721TIP3    H226125   1.088   2.782   6.450
 8722TIP3   OH226126   1.052   2.800   6.628
 8722TIP3    H126127   1.127   2.769   6.681
 8722TIP3    H226128   1.060   2.897   6.636
 8723TIP3   OH226129   0.789   2.486   6.825
 8723TIP3    H126130   0.726   2.534   6.884
 8723TIP3    H226131   0.808   2.557   6.760
 8724TIP3   OH226132   1.823   1.878   6.877
 8724TIP3    H126133   1.810   1.900   6.783
 8724TIP3    H226134   1.862   1.960   6.913
 8725TIP3   OH226135   1.320   2.996   6.575
 8725TIP3    H126136   1.233   3.023   6.611
 8725TIP3    H226137   1.336   3.068   6.512
 8726TIP3   OH226138   1.514   2.060   6.996
 8726TIP3    H126139   1.575   2.123   6.950
 8726TIP3    H226140   1.563   2.042   7.076
 8727TIP3   OH226141   1.661   1.791   7.073
 8727TIP3    H126142   1.705   1.836   7.148
 8727TIP3    H226143   1.717   1.823   6.998
 8728TIP3   OH226144   1.065   3.073   6.644
 8728TIP3    H126145   1.035   3.141   6.579
 8728TIP3    H226146   1.048   3.119   6.729
 8729TIP3   OH226147   1.172   1.784   6.883
 8729TIP3    H126148   1.176   1.876   6.919
 8729TIP3    H226149   1.267   1.761   6.891
 8730TIP3   OH226150   2.051   2.478   7.135
 8730TIP3    H126151   1.987   2.410   7.163
 8730TIP3    H226152   2.131   2.460   7.188
 8731TIP3   OH226153   0.785   2.704   6.631
 8731TIP3    H126154   0.858   2.769   6.639
 8731TIP3    H226155   0.827   2.644   6.566
 8732TIP3   OH226156   0.750   1.985   6.754
 8732TIP3    H126157   0.722   2.077   6.765
 8732TIP3    H226158   0.668   1.935   6.753
 8733TIP3   OH226159   2.036   3.428   7.114
 8733TIP3    H126160   1.994   3.477   7.039
 8733TIP3    H226161   2.130   3.446   7.095
 8734TIP3   OH226162   0.650   2.932   7.029
 8734TIP3    H126163   0.561   2.959   7.054
 8734TIP3    H226164   0.646   2.952   6.934
 8735TIP3   OH226165   1.272   2.997   6.267
 8735TIP3    H126166   1.215   2.925   6.304
 8735TIP3    H226167   1.348   2.945   6.236
 8736TIP3   OH226168   1.708   3.037   6.178
 8736TIP3    H126169   1.750   2.974   6.239
 8736TIP3    H226170   1.766   3.035   6.100
 8737TIP3   OH226171   0.917   2.513   6.490
 8737TIP3    H126172   0.973   2.479   6.562
 8737TIP3    H226173   0.983   2.519   6.418
 8738TIP3   OH226174   1.427   2.714   6.295
 8738TIP3    H126175   1.430   2.725   6.392
 8738TIP3    H226176   1.429   2.616   6.288
 8739TIP3   OH226177   1.124   2.421   6.709
 8739TIP3    H126178   1.094   2.386   6.795
 8739TIP3    H226179   1.158   2.340   6.665
 8740TIP3   OH226180   1.225   2.212   6.550
 8740TIP3    H126181   1.200   2.216   6.456
 8740TIP3    H226182   1.323   2.214   6.543
 8741TIP3   OH226183   2.047   2.543   6.214
 8741TIP3    H126184   2.027   2.497   6.130
 8741TIP3    H226185   2.014   2.633   6.192
 8742TIP3   OH226186   1.033   3.275   6.457
 8742TIP3    H126187   1.128   3.270   6.437
 8742TIP3    H226188   1.003   3.324   6.378
 8743TIP3   OH226189   0.523   2.646   6.679
 8743TIP3    H126190   0.616   2.671   6.660
 8743TIP3    H226191   0.514   2.561   6.633
 8744TIP3   OH226192   0.439   3.250   7.047
 8744TIP3    H126193   0.365   3.189   7.037
 8744TIP3    H226194   0.460   3.241   7.141
 8745TIP3   OH226195   2.288   3.520   7.067
 8745TIP3    H126196   2.309   3.552   7.157
 8745TIP3    H226197   2.350   3.569   7.012
 8746TIP3   OH226198   2.315   3.549   7.341
 8746TIP3    H126199   2.267   3.462   7.334
 8746TIP3    H226200   2.390   3.521   7.393
 8747TIP3   OH226201   2.182   2.730   6.547
 8747TIP3    H126202   2.250   2.794   6.518
 8747TIP3    H226203   2.226   2.692   6.626
 8748TIP3   OH226204   2.312   2.598   6.748
 8748TIP3    H126205   2.245   2.554   6.805
 8748TIP3    H226206   2.375   2.635   6.813
 8749TIP3   OH226207   2.370   2.996   7.173
 8749TIP3    H126208   2.429   2.934   7.126
 8749TIP3    H226209   2.367   3.072   7.111
 8750TIP3   OH226210   2.214   3.301   7.351
 8750TIP3    H126211   2.187   3.300   7.444
 8750TIP3    H226212   2.160   3.232   7.308
 8751TIP3   OH226213   2.249   2.505   6.396
 8751TIP3    H126214   2.177   2.507   6.329
 8751TIP3    H226215   2.220   2.581   6.452
 8752TIP3   OH226216   2.118   2.179   6.349
 8752TIP3    H126217   2.074   2.212   6.270
 8752TIP3    H226218   2.094   2.083   6.344
 8753TIP3   OH226219   2.126   2.450   6.880
 8753TIP3    H126220   2.129   2.353   6.879
 8753TIP3    H226221   2.105   2.468   6.975
 8754TIP3   OH226222   2.060   1.914   6.341
 8754TIP3    H126223   2.133   1.877   6.394
 8754TIP3    H226224   1.986   1.853   6.357
 8755TIP3   OH226225   2.121   2.169   6.793
 8755TIP3    H126226   2.160   2.080   6.807
 8755TIP3    H226227   2.178   2.200   6.720
 8756TIP3   OH226228   2.290   2.448   7.252
 8756TIP3    H126229   2.386   2.445   7.234
 8756TIP3    H226230   2.289   2.460   7.349
 8757TIP3   OH226231   2.228   1.920   6.831
 8757TIP3    H126232   2.276   1.902   6.915
 8757TIP3    H226233   2.168   1.843   6.828
 8758TIP3   OH226234   2.311   1.851   6.463
 8758TIP3    H126235   2.345   1.779   6.407
 8758TIP3    H226236   2.380   1.919   6.453
 8759TIP3   OH226237   1.872   3.388   6.727
 8759TIP3    H126238   1.925   3.376   6.646
 8759TIP3    H226239   1.926   3.452   6.777
 8760TIP3   OH226240   1.510   3.565   7.325
 8760TIP3    H126241   1.446   3.559   7.252
 8760TIP3    H226242   1.497   3.655   7.357
 8761TIP3   OH226243   1.776   3.438   7.364
 8761TIP3    H126244   1.706   3.493   7.326
 8761TIP3    H226245   1.855   3.489   7.337
 8762TIP3   OH226246   1.961   3.630   7.304
 8762TIP3    H126247   1.958   3.717   7.257
 8762TIP3    H226248   2.005   3.574   7.237
 8763TIP3   OH226249   2.393   1.873   7.047
 8763TIP3    H126250   2.466   1.826   7.001
 8763TIP3    H226251   2.424   1.966   7.038
 8764TIP3   OH226252   2.046   1.708   6.818
 8764TIP3    H126253   1.959   1.751   6.831
 8764TIP3    H226254   2.031   1.624   6.866
 8765TIP3   OH226255   0.508   3.045   6.823
 8765TIP3    H126256   0.460   3.002   6.751
 8765TIP3    H226257   0.502   3.140   6.796
 8766TIP3   OH226258   0.943   1.677   6.783
 8766TIP3    H126259   1.001   1.609   6.741
 8766TIP3    H226260   1.012   1.724   6.834
 8767TIP3   OH226261   1.446   1.808   6.900
 8767TIP3    H126262   1.514   1.774   6.961
 8767TIP3    H226263   1.451   1.903   6.923
 8768TIP3   OH226264   1.301   3.234   6.404
 8768TIP3    H126265   1.390   3.256   6.368
 8768TIP3    H226266   1.279   3.160   6.343
 8769TIP3   OH226267   2.020   3.353   6.496
 8769TIP3    H126268   2.011   3.255   6.485
 8769TIP3    H226269   1.974   3.384   6.416
 8770TIP3   OH226270   0.608   3.068   6.462
 8770TIP3    H126271   0.618   3.110   6.549
 8770TIP3    H226272   0.697   3.027   6.448
 8771TIP3   OH226273   3.515   2.871   6.445
 8771TIP3    H126274   3.483   2.961   6.427
 8771TIP3    H226275   3.436   2.819   6.422
 8772TIP3   OH226276   3.493   2.869   6.831
 8772TIP3    H126277   3.531   2.851   6.920
 8772TIP3    H226278   3.475   2.778   6.802
 8773TIP3   OH226279   2.812   2.765   7.193
 8773TIP3    H126280   2.839   2.697   7.258
 8773TIP3    H226281   2.893   2.816   7.187
 8774TIP3   OH226282   3.755   3.169   6.514
 8774TIP3    H126283   3.739   3.097   6.577
 8774TIP3    H226284   3.780   3.243   6.572
 8775TIP3   OH226285   2.784   3.173   6.921
 8775TIP3    H126286   2.773   3.075   6.925
 8775TIP3    H226287   2.880   3.180   6.913
 8776TIP3   OH226288   2.494   2.389   6.682
 8776TIP3    H126289   2.446   2.470   6.710
 8776TIP3    H226290   2.418   2.331   6.661
 8777TIP3   OH226291   2.550   2.666   6.874
 8777TIP3    H126292   2.601   2.589   6.909
 8777TIP3    H226293   2.619   2.717   6.829
 8778TIP3   OH226294   3.405   3.634   6.530
 8778TIP3    H126295   3.449   3.562   6.479
 8778TIP3    H226296   3.398   3.594   6.617
 8779TIP3   OH226297   3.312   3.093   6.879
 8779TIP3    H126298   3.354   3.012   6.843
 8779TIP3    H226299   3.395   3.140   6.902
 8780TIP3   OH226300   4.323   2.420   6.880
 8780TIP3    H126301   4.346   2.505   6.924
 8780TIP3    H226302   4.352   2.434   6.789
 8781TIP3   OH226303   3.729   2.603   6.908
 8781TIP3    H126304   3.767   2.517   6.933
 8781TIP3    H226305   3.691   2.581   6.820
 8782TIP3   OH226306   3.016   2.273   6.875
 8782TIP3    H126307   3.102   2.300   6.840
 8782TIP3    H226308   3.000   2.189   6.827
 8783TIP3   OH226309   3.758   2.333   6.484
 8783TIP3    H126310   3.820   2.325   6.559
 8783TIP3    H226311   3.815   2.379   6.420
 8784TIP3   OH226312   2.701   2.461   6.975
 8784TIP3    H126313   2.781   2.446   7.030
 8784TIP3    H226314   2.711   2.389   6.911
 8785TIP3   OH226315   3.142   2.659   6.780
 8785TIP3    H126316   3.237   2.636   6.790
 8785TIP3    H226317   3.106   2.577   6.741
 8786TIP3   OH226318   4.376   2.641   7.050
 8786TIP3    H126319   4.302   2.703   7.068
 8786TIP3    H226320   4.402   2.626   7.142
 8787TIP3   OH226321   3.049   2.241   7.319
 8787TIP3    H126322   2.996   2.281   7.247
 8787TIP3    H226323   2.987   2.246   7.393
 8788TIP3   OH226324   3.399   3.091   6.319
 8788TIP3    H126325   3.362   3.076   6.232
 8788TIP3    H226326   3.356   3.175   6.344
 8789TIP3   OH226327   3.163   3.015   7.103
 8789TIP3    H126328   3.102   3.082   7.142
 8789TIP3    H226329   3.208   3.066   7.033
 8790TIP3   OH226330   3.960   2.348   6.667
 8790TIP3    H126331   3.945   2.294   6.746
 8790TIP3    H226332   4.011   2.423   6.701
 8791TIP3   OH226333   2.920   2.361   7.111
 8791TIP3    H126334   2.985   2.433   7.130
 8791TIP3    H226335   2.957   2.325   7.027
 8792TIP3   OH226336   2.986   3.210   7.207
 8792TIP3    H126337   2.960   3.295   7.166
 8792TIP3    H226338   2.908   3.194   7.265
 8793TIP3   OH226339   2.388   2.898   6.440
 8793TIP3    H126340   2.348   2.926   6.356
 8793TIP3    H226341   2.419   2.983   6.477
 8794TIP3   OH226342   3.827   3.414   6.682
 8794TIP3    H126343   3.738   3.404   6.722
 8794TIP3    H226344   3.816   3.499   6.635
 8795TIP3   OH226345   4.114   2.313   7.043
 8795TIP3    H126346   4.025   2.335   7.012
 8795TIP3    H226347   4.171   2.343   6.970
 8796TIP3   OH226348   3.397   1.931   7.028
 8796TIP3    H126349   3.384   1.841   7.063
 8796TIP3    H226350   3.326   1.981   7.072
 8797TIP3   OH226351   3.525   3.459   6.352
 8797TIP3    H126352   3.575   3.376   6.334
 8797TIP3    H226353   3.588   3.524   6.313
 8798TIP3   OH226354   3.670   3.245   6.263
 8798TIP3    H126355   3.638   3.164   6.221
 8798TIP3    H226356   3.707   3.209   6.347
 8799TIP3   OH226357   4.058   3.327   7.027
 8799TIP3    H126358   4.038   3.248   6.972
 8799TIP3    H226359   4.033   3.399   6.967
 8800TIP3   OH226360   3.340   2.721   6.277
 8800TIP3    H126361   3.265   2.779   6.252
 8800TIP3    H226362   3.393   2.718   6.195
 8801TIP3   OH226363   3.299   2.504   5.997
 8801TIP3    H126364   3.366   2.556   6.046
 8801TIP3    H226365   3.358   2.442   5.949
 8802TIP3   OH226366   4.259   2.989   6.820
 8802TIP3    H126367   4.180   3.017   6.870
 8802TIP3    H226368   4.228   2.901   6.787
 8803TIP3   OH226369   3.693   2.802   6.251
 8803TIP3    H126370   3.638   2.825   6.330
 8803TIP3    H226371   3.777   2.776   6.295
 8804TIP3   OH226372   2.934   2.804   6.680
 8804TIP3    H126373   2.911   2.747   6.606
 8804TIP3    H226374   3.010   2.756   6.719
 8805TIP3   OH226375   3.054   3.210   6.820
 8805TIP3    H126376   3.036   3.173   6.732
 8805TIP3    H226377   3.144   3.176   6.838
 8806TIP3   OH226378   3.054   2.778   7.020
 8806TIP3    H126379   3.098   2.751   6.936
 8806TIP3    H226380   3.102   2.860   7.044
 8807TIP3   OH226381   3.586   3.409   6.801
 8807TIP3    H126382   3.574   3.487   6.858
 8807TIP3    H226383   3.570   3.334   6.862
 8808TIP3   OH226384   3.200   3.329   7.338
 8808TIP3    H126385   3.140   3.390   7.387
 8808TIP3    H226386   3.134   3.275   7.290
 8809TIP3   OH226387   3.528   2.666   6.078
 8809TIP3    H126388   3.590   2.723   6.130
 8809TIP3    H226389   3.556   2.687   5.986
 8810TIP3   OH226390   2.971   2.897   7.417
 8810TIP3    H126391   2.976   2.977   7.471
 8810TIP3    H226392   2.878   2.873   7.431
 8811TIP3   OH226393   3.272   3.342   6.354
 8811TIP3    H126394   3.355   3.392   6.368
 8811TIP3    H226395   3.214   3.408   6.313
 8812TIP3   OH226396   2.997   3.499   7.414
 8812TIP3    H126397   2.965   3.498   7.321
 8812TIP3    H226398   2.919   3.473   7.464
 8813TIP3   OH226399   4.045   1.901   6.125
 8813TIP3    H126400   3.964   1.921   6.178
 8813TIP3    H226401   4.059   1.986   6.079
 8814TIP3   OH226402   3.846   3.268   5.675
 8814TIP3    H126403   3.855   3.365   5.660
 8814TIP3    H226404   3.939   3.239   5.663
 8815TIP3   OH226405   2.574   3.034   7.376
 8815TIP3    H126406   2.505   3.005   7.314
 8815TIP3    H226407   2.604   2.952   7.418
 8816TIP3   OH226408   2.424   3.225   7.006
 8816TIP3    H126409   2.520   3.220   7.003
 8816TIP3    H226410   2.410   3.300   7.066
 8817TIP3   OH226411   4.288   3.673   7.079
 8817TIP3    H126412   4.287   3.575   7.084
 8817TIP3    H226413   4.199   3.693   7.115
 8818TIP3   OH226414   3.396   3.461   7.202
 8818TIP3    H126415   3.391   3.552   7.236
 8818TIP3    H226416   3.325   3.417   7.254
 8819TIP3   OH226417   3.155   3.585   6.157
 8819TIP3    H126418   3.111   3.570   6.072
 8819TIP3    H226419   3.124   3.674   6.182
 8820TIP3   OH226420   2.593   3.436   6.542
 8820TIP3    H126421   2.642   3.427   6.627
 8820TIP3    H226422   2.535   3.358   6.548
 8821TIP3   OH226423   3.356   3.488   5.796
 8821TIP3    H126424   3.416   3.418   5.759
 8821TIP3    H226425   3.391   3.498   5.887
 8822TIP3   OH226426   3.407   3.536   6.066
 8822TIP3    H126427   3.319   3.545   6.108
 8822TIP3    H226428   3.459   3.497   6.138
 8823TIP3   OH226429   2.776   3.212   7.391
 8823TIP3    H126430   2.800   3.186   7.480
 8823TIP3    H226431   2.698   3.153   7.377
 8824TIP3   OH226432   3.164   2.037   7.139
 8824TIP3    H126433   3.070   2.014   7.124
 8824TIP3    H226434   3.156   2.129   7.169
 8825TIP3   OH226435   3.713   2.156   7.329
 8825TIP3    H126436   3.784   2.124   7.387
 8825TIP3    H226437   3.631   2.128   7.374
 8826TIP3   OH226438   3.949   2.584   7.258
 8826TIP3    H126439   3.909   2.584   7.347
 8826TIP3    H226440   3.985   2.676   7.249
 8827TIP3   OH226441   3.606   2.709   5.822
 8827TIP3    H126442   3.573   2.682   5.734
 8827TIP3    H226443   3.689   2.753   5.798
 8828TIP3   OH226444   3.318   2.086   6.126
 8828TIP3    H126445   3.288   2.083   6.218
 8828TIP3    H226446   3.283   2.001   6.093
 8829TIP3   OH226447   3.100   2.556   7.169
 8829TIP3    H126448   3.065   2.585   7.255
 8829TIP3    H226449   3.086   2.636   7.115
 8830TIP3   OH226450   2.958   2.468   6.653
 8830TIP3    H126451   2.917   2.404   6.713
 8830TIP3    H226452   3.004   2.409   6.590
 8831TIP3   OH226453   3.473   2.517   6.409
 8831TIP3    H126454   3.428   2.591   6.363
 8831TIP3    H226455   3.537   2.486   6.341
 8832TIP3   OH226456   3.646   2.788   7.512
 8832TIP3    H126457   3.650   2.763   7.605
 8832TIP3    H226458   3.737   2.823   7.503
 8833TIP3   OH226459   3.648   2.553   6.643
 8833TIP3    H126460   3.579   2.570   6.577
 8833TIP3    H226461   3.652   2.456   6.634
 8834TIP3   OH226462   2.921   2.593   7.384
 8834TIP3    H126463   2.982   2.638   7.444
 8834TIP3    H226464   2.881   2.526   7.440
 8835TIP3   OH226465   2.976   2.056   6.090
 8835TIP3    H126466   2.967   2.052   6.187
 8835TIP3    H226467   2.894   2.103   6.065
 8836TIP3   OH226468   2.511   2.103   6.955
 8836TIP3    H126469   2.588   2.129   7.010
 8836TIP3    H226470   2.551   2.055   6.881
 8837TIP3   OH226471   2.496   2.087   6.488
 8837TIP3    H126472   2.531   2.120   6.403
 8837TIP3    H226473   2.425   2.153   6.503
 8838TIP3   OH226474   3.606   2.793   7.064
 8838TIP3    H126475   3.660   2.729   7.012
 8838TIP3    H226476   3.626   2.763   7.154
 8839TIP3   OH226477   2.748   2.292   6.703
 8839TIP3    H126478   2.653   2.292   6.729
 8839TIP3    H226479   2.781   2.204   6.731
 8840TIP3   OH226480   3.024   2.312   6.440
 8840TIP3    H126481   3.123   2.315   6.446
 8840TIP3    H226482   3.009   2.328   6.346
 8841TIP3   OH226483   3.805   2.333   6.945
 8841TIP3    H126484   3.766   2.343   7.034
 8841TIP3    H226485   3.736   2.284   6.899
 8842TIP3   OH226486   2.835   2.363   6.231
 8842TIP3    H126487   2.780   2.305   6.175
 8842TIP3    H226488   2.898   2.394   6.162
 8843TIP3   OH226489   3.964   4.012   7.162
 8843TIP3    H126490   3.948   4.035   7.069
 8843TIP3    H226491   4.045   4.064   7.180
 8844TIP3   OH226492   3.398   2.573   6.840
 8844TIP3    H126493   3.441   2.501   6.789
 8844TIP3    H226494   3.411   2.538   6.930
 8845TIP3   OH226495   2.925   2.067   6.713
 8845TIP3    H126496   2.889   1.993   6.766
 8845TIP3    H226497   2.991   2.022   6.659
 8846TIP3   OH226498   3.373   2.482   7.151
 8846TIP3    H126499   3.290   2.533   7.154
 8846TIP3    H226500   3.438   2.542   7.192
 8847TIP3   OH226501   3.111   2.878   6.225
 8847TIP3    H126502   3.040   2.812   6.214
 8847TIP3    H226503   3.094   2.910   6.317
 8848TIP3   OH226504   4.008   3.124   6.845
 8848TIP3    H126505   3.980   3.147   6.756
 8848TIP3    H226506   3.933   3.066   6.870
 8849TIP3   OH226507   3.564   2.198   6.067
 8849TIP3    H126508   3.474   2.173   6.096
 8849TIP3    H226509   3.580   2.284   6.112
 8850TIP3   OH226510   3.509   3.190   7.229
 8850TIP3    H126511   3.552   3.161   7.311
 8850TIP3    H226512   3.474   3.277   7.251
 8851TIP3   OH226513   3.642   2.431   6.192
 8851TIP3    H126514   3.736   2.435   6.217
 8851TIP3    H226515   3.629   2.515   6.144
 8852TIP3   OH226516   2.798   2.888   6.906
 8852TIP3    H126517   2.845   2.865   6.823
 8852TIP3    H226518   2.852   2.840   6.972
 8853TIP3   OH226519   3.259   3.024   6.047
 8853TIP3    H126520   3.211   3.109   6.053
 8853TIP3    H226521   3.206   2.969   6.110
 8854TIP3   OH226522   3.401   2.940   7.520
 8854TIP3    H126523   3.366   2.873   7.461
 8854TIP3    H226524   3.494   2.911   7.526
 8855TIP3   OH226525   3.671   3.469   7.116
 8855TIP3    H126526   3.576   3.452   7.129
 8855TIP3    H226527   3.694   3.510   7.202
 8856TIP3   OH226528   4.083   2.524   6.031
 8856TIP3    H126529   4.020   2.480   5.970
 8856TIP3    H226530   4.080   2.614   5.992
 8857TIP3   OH226531   4.314   3.384   7.101
 8857TIP3    H126532   4.216   3.380   7.106
 8857TIP3    H226533   4.329   3.294   7.069
 8858TIP3   OH226534   3.783   3.342   5.940
 8858TIP3    H126535   3.759   3.271   6.001
 8858TIP3    H226536   3.797   3.296   5.855
 8859TIP3   OH226537   3.778   2.974   6.769
 8859TIP3    H126538   3.687   2.947   6.792
 8859TIP3    H226539   3.811   2.891   6.729
 8860TIP3   OH226540   2.908   3.200   6.529
 8860TIP3    H126541   2.908   3.282   6.476
 8860TIP3    H226542   2.813   3.186   6.541
 8861TIP3   OH226543   2.473   2.502   6.237
 8861TIP3    H126544   2.515   2.590   6.255
 8861TIP3    H226545   2.393   2.509   6.294
 8862TIP3   OH226546   3.037   2.962   6.471
 8862TIP3    H126547   3.007   3.054   6.486
 8862TIP3    H226548   3.018   2.921   6.557
 8863TIP3   OH226549   3.176   3.543   7.001
 8863TIP3    H126550   3.218   3.615   6.951
 8863TIP3    H226551   3.252   3.505   7.047
 8864TIP3   OH226552   2.826   3.439   6.382
 8864TIP3    H126553   2.741   3.448   6.429
 8864TIP3    H226554   2.859   3.532   6.385
 8865TIP3   OH226555   3.564   3.178   6.961
 8865TIP3    H126556   3.549   3.174   7.058
 8865TIP3    H226557   3.648   3.130   6.955
 8866TIP3   OH226558   3.540   3.070   5.843
 8866TIP3    H126559   3.595   3.045   5.921
 8866TIP3    H226560   3.452   3.043   5.874
 8867TIP3   OH226561   3.815   3.710   7.011
 8867TIP3    H126562   3.738   3.649   7.009
 8867TIP3    H226563   3.794   3.771   6.936
 8868TIP3   OH226564   3.878   3.544   5.661
 8868TIP3    H126565   3.916   3.616   5.607
 8868TIP3    H226566   3.799   3.589   5.694
 8869TIP3   OH226567   3.700   3.005   6.059
 8869TIP3    H126568   3.690   2.938   6.130
 8869TIP3    H226569   3.797   3.001   6.046
 8870TIP3   OH226570   2.612   3.406   7.156
 8870TIP3    H126571   2.664   3.332   7.190
 8870TIP3    H226572   2.652   3.482   7.200
 8871TIP3   OH226573   2.903   3.051   5.841
 8871TIP3    H126574   2.921   2.959   5.814
 8871TIP3    H226575   2.885   3.040   5.936
 8872TIP3   OH226576   2.851   3.055   6.114
 8872TIP3    H126577   2.927   3.031   6.169
 8872TIP3    H226578   2.852   3.154   6.120
 8873TIP3   OH226579   2.583   2.738   6.318
 8873TIP3    H126580   2.523   2.787   6.377
 8873TIP3    H226581   2.608   2.809   6.256
 8874TIP3   OH226582   3.729   2.403   7.208
 8874TIP3    H126583   3.816   2.439   7.232
 8874TIP3    H226584   3.726   2.318   7.257
 8875TIP3   OH226585   3.624   2.122   6.360
 8875TIP3    H126586   3.616   2.171   6.278
 8875TIP3    H226587   3.646   2.193   6.423
 8876TIP3   OH226588   3.115   3.252   6.061
 8876TIP3    H126589   3.029   3.279   6.098
 8876TIP3    H226590   3.133   3.327   6.003
 8877TIP3   OH226591   3.302   2.317   6.487
 8877TIP3    H126592   3.361   2.390   6.460
 8877TIP3    H226593   3.353   2.292   6.569
 8878TIP3   OH226594   3.565   2.627   7.294
 8878TIP3    H126595   3.600   2.675   7.371
 8878TIP3    H226596   3.631   2.556   7.280
 8879TIP3   OH226597   2.859   3.328   6.130
 8879TIP3    H126598   2.829   3.398   6.067
 8879TIP3    H226599   2.844   3.371   6.216
 8880TIP3   OH226600   2.960   2.044   6.365
 8880TIP3    H126601   2.967   2.129   6.411
 8880TIP3    H226602   3.054   2.016   6.371
 8881TIP3   OH226603   4.218   2.502   7.264
 8881TIP3    H126604   4.136   2.553   7.278
 8881TIP3    H226605   4.196   2.460   7.180
 8882TIP3   OH226606   3.863   2.732   6.650
 8882TIP3    H126607   3.786   2.673   6.658
 8882TIP3    H226608   3.932   2.681   6.698
 8883TIP3   OH226609   2.577   2.957   6.122
 8883TIP3    H126610   2.644   3.027   6.133
 8883TIP3    H226611   2.623   2.902   6.055
 8884TIP3   OH226612   2.525   2.240   6.267
 8884TIP3    H126613   2.511   2.335   6.251
 8884TIP3    H226614   2.459   2.201   6.208
 8885TIP3   OH226615   3.833   3.687   6.602
 8885TIP3    H126616   3.790   3.733   6.527
 8885TIP3    H226617   3.927   3.704   6.580
 8886TIP3   OH226618   2.901   1.944   7.133
 8886TIP3    H126619   2.875   1.919   7.042
 8886TIP3    H226620   2.899   1.857   7.178
 8887TIP3   OH226621   2.447   3.167   6.507
 8887TIP3    H126622   2.380   3.200   6.568
 8887TIP3    H226623   2.419   3.210   6.423
 8888TIP3   OH226624   2.595   3.702   7.591
 8888TIP3    H126625   2.680   3.724   7.631
 8888TIP3    H226626   2.615   3.624   7.539
 8889TIP3   OH226627   3.101   3.695   7.581
 8889TIP3    H126628   3.196   3.711   7.587
 8889TIP3    H226629   3.092   3.640   7.502
 8890TIP3   OH226630   3.067   3.254   5.752
 8890TIP3    H126631   3.012   3.182   5.790
 8890TIP3    H226632   3.144   3.203   5.721
 8891TIP3   OH226633   3.727   3.570   7.365
 8891TIP3    H126634   3.705   3.501   7.433
 8891TIP3    H226635   3.806   3.609   7.403
 8892TIP3   OH226636   3.503   3.294   5.665
 8892TIP3    H126637   3.548   3.231   5.724
 8892TIP3    H226638   3.560   3.292   5.585
 8893TIP3   OH226639   2.712   2.771   5.975
 8893TIP3    H126640   2.769   2.741   6.048
 8893TIP3    H226641   2.778   2.776   5.902
 8894TIP3   OH226642   3.338   3.210   7.553
 8894TIP3    H126643   3.307   3.224   7.463
 8894TIP3    H226644   3.374   3.119   7.548
 8895TIP3   OH226645   3.220   2.969   5.781
 8895TIP3    H126646   3.227   2.982   5.877
 8895TIP3    H226647   3.223   2.871   5.776
 8896TIP3   OH226648   3.820   3.211   7.134
 8896TIP3    H126649   3.908   3.251   7.122
 8896TIP3    H226650   3.761   3.288   7.135
 8897TIP3   OH226651   2.924   2.676   6.188
 8897TIP3    H126652   2.901   2.619   6.262
 8897TIP3    H226653   2.965   2.611   6.126
 8898TIP3   OH226654   3.188   2.726   7.411
 8898TIP3    H126655   3.120   2.796   7.410
 8898TIP3    H226656   3.249   2.760   7.342
 8899TIP3   OH226657   3.020   2.465   6.042
 8899TIP3    H126658   2.996   2.469   5.947
 8899TIP3    H226659   3.118   2.466   6.035
 8900TIP3   OH226660   3.693   3.140   7.520
 8900TIP3    H126661   3.787   3.141   7.497
 8900TIP3    H226662   3.695   3.087   7.601
 8901TIP3   OH226663   3.841   2.799   5.701
 8901TIP3    H126664   3.822   2.754   5.617
 8901TIP3    H226665   3.808   2.889   5.679
 8902TIP3   OH226666   3.312   2.511   7.540
 8902TIP3    H126667   3.345   2.452   7.470
 8902TIP3    H226668   3.282   2.588   7.488
 8903TIP3   OH226669   3.317   2.300   7.347
 8903TIP3    H126670   3.343   2.354   7.269
 8903TIP3    H226671   3.220   2.293   7.335
 8904TIP3   OH226672   3.343   2.842   7.228
 8904TIP3    H126673   3.429   2.837   7.182
 8904TIP3    H226674   3.297   2.913   7.181
 8905TIP3   OH226675   3.901   2.846   7.582
 8905TIP3    H126676   3.936   2.772   7.637
 8905TIP3    H226677   3.979   2.902   7.572
 8906TIP3   OH226678   3.454   2.068   7.389
 8906TIP3    H126679   3.402   2.148   7.365
 8906TIP3    H226680   3.390   1.996   7.371
 8907TIP3   OH226681   3.829   2.523   7.502
 8907TIP3    H126682   3.743   2.500   7.537
 8907TIP3    H226683   3.883   2.535   7.582
 8908TIP3   OH226684   2.829   3.530   5.941
 8908TIP3    H126685   2.925   3.524   5.924
 8908TIP3    H226686   2.802   3.582   5.863
 8909TIP3   OH226687   2.308   2.913   6.157
 8909TIP3    H126688   2.404   2.934   6.145
 8909TIP3    H226689   2.303   2.823   6.118
 8910TIP3   OH226690   2.225   3.524   6.572
 8910TIP3    H126691   2.158   3.463   6.535
 8910TIP3    H226692   2.269   3.466   6.638
 8911TIP3   OH226693   2.361   3.373   6.758
 8911TIP3    H126694   2.350   3.303   6.824
 8911TIP3    H226695   2.411   3.438   6.812
 8912TIP3   OH226696   4.087   3.773   6.559
 8912TIP3    H126697   4.113   3.809   6.645
 8912TIP3    H226698   4.147   3.820   6.498
 8913TIP3   OH226699   4.112   3.798   6.842
 8913TIP3    H126700   4.068   3.711   6.836
 8913TIP3    H226701   4.192   3.773   6.890
 8914TIP3   OH226702   4.163   3.479   7.407
 8914TIP3    H126703   4.092   3.472   7.475
 8914TIP3    H226704   4.199   3.568   7.423
 8915TIP3   OH226705   3.977   2.987   6.034
 8915TIP3    H126706   4.046   3.050   6.004
 8915TIP3    H226707   4.020   2.948   6.113
 8916TIP3   OH226708   4.103   2.854   6.236
 8916TIP3    H126709   4.039   2.811   6.297
 8916TIP3    H226710   4.170   2.889   6.299
 8917TIP3   OH226711   3.992   3.546   6.865
 8917TIP3    H126712   3.918   3.586   6.914
 8917TIP3    H226713   3.944   3.498   6.794
 8918TIP3   OH226714   4.044   2.762   5.883
 8918TIP3    H126715   3.972   2.764   5.816
 8918TIP3    H226716   4.016   2.837   5.940
 8919TIP3   OH226717   3.914   2.435   5.837
 8919TIP3    H126718   3.872   2.470   5.758
 8919TIP3    H226719   3.891   2.340   5.831
 8920TIP3   OH226720   3.920   2.709   6.383
 8920TIP3    H126721   3.925   2.612   6.376
 8920TIP3    H226722   3.904   2.722   6.479
 8921TIP3   OH226723   2.551   2.801   7.116
 8921TIP3    H126724   2.548   2.759   7.028
 8921TIP3    H226725   2.647   2.795   7.137
 8922TIP3   OH226726   4.404   2.974   7.288
 8922TIP3    H126727   4.316   2.936   7.264
 8922TIP3    H226728   4.456   2.891   7.292
 8923TIP3   OH226729   3.860   2.168   5.821
 8923TIP3    H126730   3.935   2.140   5.877
 8923TIP3    H226731   3.788   2.110   5.849
 8924TIP3   OH226732   3.919   2.427   6.273
 8924TIP3    H126733   3.955   2.338   6.290
 8924TIP3    H226734   3.980   2.457   6.203
 8925TIP3   OH226735   4.077   2.601   6.771
 8925TIP3    H126736   4.164   2.636   6.743
 8925TIP3    H226737   4.077   2.622   6.866
 8926TIP3   OH226738   4.554   2.310   7.563
 8926TIP3    H126739   4.647   2.290   7.539
 8926TIP3    H226740   4.536   2.381   7.498
 8927TIP3   OH226741   4.026   2.176   6.312
 8927TIP3    H126742   4.071   2.163   6.398
 8927TIP3    H226743   3.962   2.102   6.314
 8928TIP3   OH226744   2.729   2.157   7.107
 8928TIP3    H126745   2.788   2.085   7.134
 8928TIP3    H226746   2.780   2.235   7.133
 8929TIP3   OH226747   2.562   2.440   7.221
 8929TIP3    H126748   2.604   2.444   7.133
 8929TIP3    H226749   2.579   2.528   7.257
 8930TIP3   OH226750   4.465   2.481   7.365
 8930TIP3    H126751   4.374   2.516   7.358
 8930TIP3    H226752   4.452   2.399   7.314
 8931TIP3   OH226753   4.105   2.112   5.947
 8931TIP3    H126754   4.146   2.039   5.897
 8931TIP3    H226755   4.175   2.181   5.945
 8932TIP3   OH226756   2.512   1.944   6.716
 8932TIP3    H126757   2.418   1.934   6.738
 8932TIP3    H226758   2.509   2.001   6.635
 8933TIP3   OH226759   3.670   3.644   6.215
 8933TIP3    H126760   3.720   3.631   6.132
 8933TIP3    H226761   3.724   3.710   6.261
 8934TIP3   OH226762   2.947   3.482   7.145
 8934TIP3    H126763   2.903   3.561   7.104
 8934TIP3    H226764   3.035   3.493   7.103
 8935TIP3   OH226765   3.390   3.725   7.285
 8935TIP3    H126766   3.435   3.722   7.372
 8935TIP3    H226767   3.455   3.776   7.232
 8936TIP3   OH226768   3.569   3.875   7.144
 8936TIP3    H126769   3.640   3.826   7.099
 8936TIP3    H226770   3.621   3.931   7.206
 8937TIP3   OH226771   4.373   2.233   7.242
 8937TIP3    H126772   4.282   2.234   7.207
 8937TIP3    H226773   4.397   2.138   7.230
 8938TIP3   OH226774   2.628   3.732   7.182
 8938TIP3    H126775   2.540   3.762   7.149
 8938TIP3    H226776   2.642   3.798   7.253
 8939TIP3   OH226777   2.860   3.714   7.030
 8939TIP3    H126778   2.773   3.727   7.074
 8939TIP3    H226779   2.842   3.748   6.940
 8940TIP3   OH226780   3.287   3.743   6.828
 8940TIP3    H126781   3.219   3.763   6.762
 8940TIP3    H226782   3.300   3.830   6.871
 8941TIP3   OH226783   3.557   3.685   6.880
 8941TIP3    H126784   3.463   3.701   6.860
 8941TIP3    H226785   3.600   3.760   6.836
 8942TIP3   OH226786   3.766   3.875   6.795
 8942TIP3    H126787   3.750   3.958   6.746
 8942TIP3    H226788   3.790   3.813   6.722
 8943TIP3   OH226789   2.537   3.532   6.915
 8943TIP3    H126790   2.559   3.503   7.006
 8943TIP3    H226791   2.609   3.486   6.865
 8944TIP3   OH226792   2.732   3.401   6.775
 8944TIP3    H126793   2.748   3.317   6.824
 8944TIP3    H226794   2.823   3.438   6.770
 8945TIP3   OH226795   2.998   3.495   6.779
 8945TIP3    H126796   3.031   3.404   6.767
 8945TIP3    H226797   3.044   3.518   6.862
 8946TIP3   OH226798   4.108   2.026   6.765
 8946TIP3    H126799   4.138   2.083   6.690
 8946TIP3    H226800   4.010   2.036   6.759
 8947TIP3   OH226801   4.192   2.137   6.527
 8947TIP3    H126802   4.267   2.085   6.491
 8947TIP3    H226803   4.225   2.228   6.514
 8948TIP3   OH226804   2.821   1.866   6.878
 8948TIP3    H126805   2.728   1.833   6.875
 8948TIP3    H226806   2.869   1.780   6.876
 8949TIP3   OH226807   2.613   1.730   6.532
 8949TIP3    H126808   2.640   1.785   6.458
 8949TIP3    H226809   2.583   1.795   6.598
 8950TIP3   OH226810   3.270   1.916   6.775
 8950TIP3    H126811   3.332   1.975   6.731
 8950TIP3    H226812   3.303   1.926   6.866
 8951TIP3   OH226813   3.838   2.034   6.744
 8951TIP3    H126814   3.761   2.058   6.691
 8951TIP3    H226815   3.803   1.960   6.798
 8952TIP3   OH226816   3.842   1.963   6.304
 8952TIP3    H126817   3.759   2.012   6.323
 8952TIP3    H226818   3.826   1.882   6.357
 8953TIP3   OH226819   2.326   3.303   6.308
 8953TIP3    H126820   2.240   3.270   6.275
 8953TIP3    H226821   2.315   3.398   6.290
 8954TIP3   OH226822   2.727   1.891   6.290
 8954TIP3    H126823   2.771   1.825   6.234
 8954TIP3    H226824   2.804   1.940   6.326
 8955TIP3   OH226825   3.237   2.070   6.392
 8955TIP3    H126826   3.292   2.008   6.441
 8955TIP3    H226827   3.270   2.156   6.427
 8956TIP3   OH226828   3.097   3.490   5.891
 8956TIP3    H126829   3.186   3.512   5.855
 8956TIP3    H226830   3.075   3.415   5.830
 8957TIP3   OH226831   3.816   3.609   5.983
 8957TIP3    H126832   3.807   3.511   5.972
 8957TIP3    H226833   3.771   3.640   5.902
 8958TIP3   OH226834   2.400   3.327   5.945
 8958TIP3    H126835   2.402   3.351   6.039
 8958TIP3    H226836   2.489   3.285   5.933
 8959TIP3   OH226837   4.036   3.748   7.174
 8959TIP3    H126838   3.961   3.716   7.119
 8959TIP3    H226839   4.014   3.844   7.175
 8960TIP3   OH226840   5.309   3.126   5.937
 8960TIP3    H126841   5.279   3.217   5.916
 8960TIP3    H226842   5.233   3.075   5.902
 8961TIP3   OH226843   5.308   3.126   6.319
 8961TIP3    H126844   5.341   3.097   6.406
 8961TIP3    H226845   5.267   3.045   6.284
 8962TIP3   OH226846   4.611   3.032   6.696
 8962TIP3    H126847   4.641   2.957   6.753
 8962TIP3    H226848   4.697   3.058   6.657
 8963TIP3   OH226849   5.553   3.427   6.000
 8963TIP3    H126850   5.536   3.358   6.065
 8963TIP3    H226851   5.581   3.502   6.055
 8964TIP3   OH226852   4.581   3.432   6.414
 8964TIP3    H126853   4.573   3.334   6.409
 8964TIP3    H226854   4.678   3.442   6.401
 8965TIP3   OH226855   4.287   2.634   6.191
 8965TIP3    H126856   4.238   2.717   6.207
 8965TIP3    H226857   4.216   2.578   6.156
 8966TIP3   OH226858   4.337   2.917   6.363
 8966TIP3    H126859   4.388   2.848   6.408
 8966TIP3    H226860   4.399   2.949   6.297
 8967TIP3   OH226861   5.202   3.891   6.017
 8967TIP3    H126862   5.245   3.820   5.965
 8967TIP3    H226863   5.194   3.850   6.104
 8968TIP3   OH226864   5.106   3.353   6.367
 8968TIP3    H126865   5.144   3.276   6.322
 8968TIP3    H226866   5.190   3.398   6.391
 8969TIP3   OH226867   6.122   2.671   6.364
 8969TIP3    H126868   6.151   2.756   6.405
 8969TIP3    H226869   6.140   2.689   6.270
 8970TIP3   OH226870   5.521   2.853   6.397
 8970TIP3    H126871   5.561   2.767   6.418
 8970TIP3    H226872   5.488   2.837   6.307
 8971TIP3   OH226873   4.859   2.513   6.362
 8971TIP3    H126874   4.837   2.585   6.299
 8971TIP3    H226875   4.810   2.438   6.319
 8972TIP3   OH226876   5.552   2.605   5.985
 8972TIP3    H126877   5.624   2.588   6.050
 8972TIP3    H226878   5.605   2.639   5.910
 8973TIP3   OH226879   4.492   2.718   6.471
 8973TIP3    H126880   4.575   2.691   6.516
 8973TIP3    H226881   4.500   2.663   6.390
 8974TIP3   OH226882   4.928   2.911   6.271
 8974TIP3    H126883   5.023   2.888   6.280
 8974TIP3    H226884   4.890   2.828   6.235
 8975TIP3   OH226885   6.196   2.881   6.533
 8975TIP3    H126886   6.112   2.927   6.510
 8975TIP3    H226887   6.200   2.901   6.628
 8976TIP3   OH226888   4.857   2.494   6.796
 8976TIP3    H126889   4.792   2.529   6.732
 8976TIP3    H226890   4.806   2.506   6.879
 8977TIP3   OH226891   5.198   3.346   5.806
 8977TIP3    H126892   5.158   3.329   5.720
 8977TIP3    H226893   5.154   3.430   5.832
 8978TIP3   OH226894   4.960   3.271   6.591
 8978TIP3    H126895   4.901   3.339   6.629
 8978TIP3    H226896   5.003   3.320   6.517
 8979TIP3   OH226897   5.762   2.606   6.158
 8979TIP3    H126898   5.746   2.559   6.241
 8979TIP3    H226899   5.813   2.683   6.186
 8980TIP3   OH226900   4.725   2.610   6.581
 8980TIP3    H126901   4.790   2.680   6.606
 8980TIP3    H226902   4.774   2.569   6.506
 8981TIP3   OH226903   4.786   3.465   6.694
 8981TIP3    H126904   4.760   3.551   6.655
 8981TIP3    H226905   4.705   3.442   6.742
 8982TIP3   OH226906   4.181   3.155   5.925
 8982TIP3    H126907   4.141   3.182   5.841
 8982TIP3    H226908   4.213   3.240   5.962
 8983TIP3   OH226909   5.622   3.672   6.168
 8983TIP3    H126910   5.532   3.663   6.207
 8983TIP3    H226911   5.613   3.757   6.121
 8984TIP3   OH226912   5.913   2.574   6.531
 8984TIP3    H126913   5.824   2.598   6.499
 8984TIP3    H226914   5.971   2.605   6.458
 8985TIP3   OH226915   5.209   2.213   6.514
 8985TIP3    H126916   5.193   2.118   6.531
 8985TIP3    H226917   5.132   2.252   6.560
 8986TIP3   OH226918   5.322   3.717   5.840
 8986TIP3    H126919   5.371   3.634   5.821
 8986TIP3    H226920   5.385   3.782   5.800
 8987TIP3   OH226921   5.465   3.502   5.749
 8987TIP3    H126922   5.432   3.423   5.706
 8987TIP3    H226923   5.502   3.466   5.832
 8988TIP3   OH226924   5.848   3.583   6.510
 8988TIP3    H126925   5.836   3.506   6.451
 8988TIP3    H226926   5.830   3.658   6.449
 8989TIP3   OH226927   5.140   2.978   5.768
 8989TIP3    H126928   5.060   3.030   5.747
 8989TIP3    H226929   5.185   2.974   5.682
 8990TIP3   OH226930   5.098   2.761   5.483
 8990TIP3    H126931   5.165   2.814   5.530
 8990TIP3    H226932   5.156   2.698   5.436
 8991TIP3   OH226933   6.043   3.222   6.356
 8991TIP3    H126934   5.959   3.273   6.361
 8991TIP3    H226935   6.073   3.246   6.266
 8992TIP3   OH226936   5.487   3.060   5.739
 8992TIP3    H126937   5.433   3.084   5.817
 8992TIP3    H226938   5.572   3.036   5.782
 8993TIP3   OH226939   5.722   3.099   6.651
 8993TIP3    H126940   5.718   3.183   6.701
 8993TIP3    H226941   5.635   3.102   6.606
 8994TIP3   OH226942   4.718   3.059   6.158
 8994TIP3    H126943   4.676   3.002   6.091
 8994TIP3    H226944   4.793   3.005   6.188
 8995TIP3   OH226945   4.846   3.465   6.308
 8995TIP3    H126946   4.826   3.431   6.219
 8995TIP3    H226947   4.936   3.431   6.323
 8996TIP3   OH226948   4.844   3.030   6.517
 8996TIP3    H126949   4.878   3.002   6.429
 8996TIP3    H226950   4.893   3.113   6.532
 8997TIP3   OH226951   5.381   3.667   6.287
 8997TIP3    H126952   5.368   3.746   6.342
 8997TIP3    H226953   5.365   3.594   6.350
 8998TIP3   OH226954   4.995   3.586   6.834
 8998TIP3    H126955   4.934   3.647   6.880
 8998TIP3    H226956   4.931   3.532   6.784
 8999TIP3   OH226957   5.326   2.918   5.565
 8999TIP3    H126958   5.385   2.979   5.615
 8999TIP3    H226959   5.353   2.940   5.472
 9000TIP3   OH226960   4.752   3.148   6.942
 9000TIP3    H126961   4.759   3.234   6.987
 9000TIP3    H226962   4.660   3.126   6.961
 9001TIP3   OH226963   5.070   3.598   5.844
 9001TIP3    H126964   5.151   3.651   5.854
 9001TIP3    H226965   5.011   3.659   5.798
 9002TIP3   OH226966   4.787   3.754   6.920
 9002TIP3    H126967   4.754   3.758   6.829
 9002TIP3    H226968   4.706   3.734   6.972
 9003TIP3   OH226969   5.844   2.158   5.614
 9003TIP3    H126970   5.761   2.179   5.663
 9003TIP3    H226971   5.858   2.241   5.564
 9004TIP3   OH226972   4.585   2.902   5.963
 9004TIP3    H126973   4.518   2.944   5.905
 9004TIP3    H226974   4.548   2.814   5.975
 9005TIP3   OH226975   5.642   3.525   5.163
 9005TIP3    H126976   5.651   3.622   5.147
 9005TIP3    H226977   5.735   3.496   5.151
 9006TIP3   OH226978   4.242   3.463   6.517
 9006TIP3    H126979   4.332   3.483   6.488
 9006TIP3    H226980   4.217   3.543   6.565
 9007TIP3   OH226981   6.085   3.929   6.556
 9007TIP3    H126982   6.083   3.833   6.570
 9007TIP3    H226983   6.002   3.955   6.603
 9008TIP3   OH226984   5.191   3.715   6.691
 9008TIP3    H126985   5.189   3.807   6.724
 9008TIP3    H226986   5.120   3.674   6.745
 9009TIP3   OH226987   4.953   3.842   5.644
 9009TIP3    H126988   4.908   3.824   5.559
 9009TIP3    H226989   4.920   3.931   5.667
 9010TIP3   OH226990   4.389   3.693   6.028
 9010TIP3    H126991   4.437   3.683   6.113
 9010TIP3    H226992   4.335   3.612   6.029
 9011TIP3   OH226993   5.153   3.745   5.283
 9011TIP3    H126994   5.212   3.675   5.246
 9011TIP3    H226995   5.188   3.754   5.374
 9012TIP3   OH226996   5.204   3.793   5.553
 9012TIP3    H126997   5.115   3.802   5.594
 9012TIP3    H226998   5.254   3.751   5.625
 9013TIP3   OH226999   5.975   3.060   6.829
 9013TIP3    H127000   5.891   3.071   6.781
 9013TIP3    H227001   5.989   2.964   6.821
 9014TIP3   OH227002   4.564   3.442   6.867
 9014TIP3    H127003   4.637   3.441   6.933
 9014TIP3    H227004   4.488   3.437   6.926
 9015TIP3   OH227005   4.970   2.292   6.639
 9015TIP3    H127006   4.882   2.260   6.612
 9015TIP3    H227007   4.944   2.371   6.690
 9016TIP3   OH227008   5.503   2.406   6.836
 9016TIP3    H127009   5.570   2.378   6.901
 9016TIP3    H227010   5.419   2.387   6.882
 9017TIP3   OH227011   5.744   2.837   6.757
 9017TIP3    H127012   5.691   2.833   6.840
 9017TIP3    H227013   5.717   2.923   6.719
 9018TIP3   OH227014   5.404   2.964   5.310
 9018TIP3    H127015   5.369   2.940   5.223
 9018TIP3    H227016   5.486   3.011   5.284
 9019TIP3   OH227017   5.116   2.339   5.613
 9019TIP3    H127018   5.082   2.335   5.704
 9019TIP3    H227019   5.077   2.257   5.577
 9020TIP3   OH227020   4.903   2.806   6.662
 9020TIP3    H127021   4.856   2.828   6.744
 9020TIP3    H227022   4.887   2.887   6.608
 9021TIP3   OH227023   4.786   2.694   6.173
 9021TIP3    H127024   4.693   2.667   6.192
 9021TIP3    H227025   4.798   2.653   6.085
 9022TIP3   OH227026   5.278   2.778   5.902
 9022TIP3    H127027   5.226   2.849   5.859
 9022TIP3    H227028   5.332   2.746   5.827
 9023TIP3   OH227029   5.451   3.055   6.989
 9023TIP3    H127030   5.429   2.983   7.052
 9023TIP3    H227031   5.545   3.069   7.010
 9024TIP3   OH227032   5.434   2.807   6.139
 9024TIP3    H127033   5.373   2.835   6.069
 9024TIP3    H227034   5.468   2.726   6.096
 9025TIP3   OH227035   4.714   2.836   6.868
 9025TIP3    H127036   4.756   2.889   6.937
 9025TIP3    H227037   4.704   2.750   6.913
 9026TIP3   OH227038   4.771   2.313   5.577
 9026TIP3    H127039   4.762   2.311   5.674
 9026TIP3    H227040   4.693   2.366   5.553
 9027TIP3   OH227041   4.317   2.361   6.444
 9027TIP3    H127042   4.394   2.388   6.499
 9027TIP3    H227043   4.357   2.322   6.366
 9028TIP3   OH227044   4.286   2.337   5.968
 9028TIP3    H127045   4.333   2.374   5.890
 9028TIP3    H227046   4.225   2.410   5.987
 9029TIP3   OH227047   5.446   3.052   6.562
 9029TIP3    H127048   5.479   2.980   6.503
 9029TIP3    H227049   5.416   2.998   6.639
 9030TIP3   OH227050   5.115   2.516   6.235
 9030TIP3    H127051   5.032   2.513   6.286
 9030TIP3    H227052   5.182   2.511   6.305
 9031TIP3   OH227053   4.548   2.571   6.243
 9031TIP3    H127054   4.454   2.579   6.216
 9031TIP3    H227055   4.570   2.479   6.222
 9032TIP3   OH227056   4.816   2.567   5.932
 9032TIP3    H127057   4.910   2.581   5.908
 9032TIP3    H227058   4.769   2.588   5.848
 9033TIP3   OH227059   5.606   2.590   6.436
 9033TIP3    H127060   5.573   2.603   6.528
 9033TIP3    H227061   5.539   2.529   6.401
 9034TIP3   OH227062   4.660   2.601   5.710
 9034TIP3    H127063   4.588   2.556   5.663
 9034TIP3    H227064   4.711   2.637   5.635
 9035TIP3   OH227065   5.776   4.279   6.656
 9035TIP3    H127066   5.775   4.302   6.561
 9035TIP3    H227067   5.856   4.327   6.687
 9036TIP3   OH227068   4.737   3.399   7.078
 9036TIP3    H127069   4.817   3.424   7.129
 9036TIP3    H227070   4.674   3.385   7.152
 9037TIP3   OH227071   5.195   2.844   6.334
 9037TIP3    H127072   5.267   2.802   6.284
 9037TIP3    H227073   5.201   2.800   6.420
 9038TIP3   OH227074   4.719   2.329   6.213
 9038TIP3    H127075   4.682   2.252   6.261
 9038TIP3    H227076   4.768   2.286   6.141
 9039TIP3   OH227077   5.174   2.744   6.615
 9039TIP3    H127078   5.083   2.775   6.634
 9039TIP3    H227079   5.230   2.802   6.670
 9040TIP3   OH227080   4.909   3.130   5.717
 9040TIP3    H127081   4.837   3.064   5.706
 9040TIP3    H227082   4.890   3.164   5.808
 9041TIP3   OH227083   5.810   3.366   6.345
 9041TIP3    H127084   5.833   3.416   6.265
 9041TIP3    H227085   5.725   3.323   6.320
 9042TIP3   OH227086   5.368   2.441   5.581
 9042TIP3    H127087   5.271   2.423   5.588
 9042TIP3    H227088   5.375   2.536   5.604
 9043TIP3   OH227089   5.310   3.449   6.713
 9043TIP3    H127090   5.334   3.425   6.803
 9043TIP3    H227091   5.272   3.537   6.723
 9044TIP3   OH227092   5.437   2.691   5.684
 9044TIP3    H127093   5.533   2.697   5.699
 9044TIP3    H227094   5.418   2.771   5.631
 9045TIP3   OH227095   4.601   3.154   6.394
 9045TIP3    H127096   4.633   3.131   6.305
 9045TIP3    H227097   4.644   3.085   6.447
 9046TIP3   OH227098   5.055   3.279   5.540
 9046TIP3    H127099   5.007   3.365   5.543
 9046TIP3    H227100   5.000   3.225   5.600
 9047TIP3   OH227101   4.471   3.100   7.004
 9047TIP3    H127102   4.505   3.090   7.095
 9047TIP3    H227103   4.408   3.026   7.002
 9048TIP3   OH227104   5.209   3.188   7.023
 9048TIP3    H127105   5.149   3.125   6.980
 9048TIP3    H227106   5.296   3.152   6.996
 9049TIP3   OH227107   5.470   3.710   6.609
 9049TIP3    H127108   5.373   3.706   6.622
 9049TIP3    H227109   5.497   3.761   6.688
 9050TIP3   OH227110   5.879   2.782   5.519
 9050TIP3    H127111   5.817   2.738   5.456
 9050TIP3    H227112   5.876   2.871   5.479
 9051TIP3   OH227113   6.098   3.639   6.599
 9051TIP3    H127114   6.000   3.633   6.590
 9051TIP3    H227115   6.124   3.608   6.509
 9052TIP3   OH227116   5.582   3.599   5.428
 9052TIP3    H127117   5.553   3.527   5.486
 9052TIP3    H227118   5.593   3.554   5.342
 9053TIP3   OH227119   5.576   3.228   6.265
 9053TIP3    H127120   5.482   3.204   6.278
 9053TIP3    H227121   5.609   3.148   6.219
 9054TIP3   OH227122   4.704   3.458   6.021
 9054TIP3    H127123   4.704   3.538   5.965
 9054TIP3    H227124   4.610   3.437   6.023
 9055TIP3   OH227125   4.267   2.760   5.721
 9055TIP3    H127126   4.312   2.844   5.742
 9055TIP3    H227127   4.191   2.764   5.782
 9056TIP3   OH227128   4.839   3.221   5.962
 9056TIP3    H127129   4.806   3.311   5.981
 9056TIP3    H227130   4.803   3.170   6.036
 9057TIP3   OH227131   4.972   3.799   6.487
 9057TIP3    H127132   5.013   3.872   6.437
 9057TIP3    H227133   5.049   3.763   6.534
 9058TIP3   OH227134   4.623   3.695   5.870
 9058TIP3    H127135   4.537   3.705   5.915
 9058TIP3    H227136   4.656   3.788   5.871
 9059TIP3   OH227137   5.360   3.433   6.445
 9059TIP3    H127138   5.350   3.431   6.543
 9059TIP3    H227139   5.439   3.379   6.432
 9060TIP3   OH227140   5.336   3.328   5.328
 9060TIP3    H127141   5.388   3.302   5.408
 9060TIP3    H227142   5.247   3.300   5.356
 9061TIP3   OH227143   5.608   3.967   6.496
 9061TIP3    H127144   5.529   3.911   6.489
 9061TIP3    H227145   5.593   4.031   6.423
 9062TIP3   OH227146   5.674   3.800   5.147
 9062TIP3    H127147   5.711   3.871   5.092
 9062TIP3    H227148   5.595   3.846   5.181
 9063TIP3   OH227149   4.701   2.578   7.010
 9063TIP3    H127150   4.608   2.577   7.038
 9063TIP3    H227151   4.741   2.521   7.080
 9064TIP3   OH227152   5.496   3.263   5.547
 9064TIP3    H127153   5.486   3.195   5.617
 9064TIP3    H227154   5.593   3.258   5.532
 9065TIP3   OH227155   4.414   3.672   6.644
 9065TIP3    H127156   4.470   3.598   6.668
 9065TIP3    H227157   4.447   3.742   6.701
 9066TIP3   OH227158   4.701   3.308   5.328
 9066TIP3    H127159   4.714   3.216   5.299
 9066TIP3    H227160   4.680   3.295   5.423
 9067TIP3   OH227161   4.645   3.312   5.601
 9067TIP3    H127162   4.721   3.286   5.656
 9067TIP3    H227163   4.650   3.410   5.607
 9068TIP3   OH227164   4.382   3.005   5.803
 9068TIP3    H127165   4.315   3.049   5.860
 9068TIP3    H227166   4.395   3.074   5.735
 9069TIP3   OH227167   5.533   2.642   6.696
 9069TIP3    H127168   5.612   2.678   6.738
 9069TIP3    H227169   5.516   2.561   6.749
 9070TIP3   OH227170   5.413   2.392   5.862
 9070TIP3    H127171   5.398   2.414   5.768
 9070TIP3    H227172   5.450   2.476   5.897
 9071TIP3   OH227173   4.913   3.509   5.550
 9071TIP3    H127174   4.826   3.536   5.585
 9071TIP3    H227175   4.928   3.578   5.484
 9072TIP3   OH227176   5.101   2.573   5.963
 9072TIP3    H127177   5.165   2.646   5.946
 9072TIP3    H227178   5.105   2.566   6.061
 9073TIP3   OH227179   5.370   2.892   6.770
 9073TIP3    H127180   5.391   2.944   6.850
 9073TIP3    H227181   5.422   2.811   6.784
 9074TIP3   OH227182   5.245   2.300   6.066
 9074TIP3    H127183   5.236   2.378   6.123
 9074TIP3    H227184   5.305   2.334   5.996
 9075TIP3   OH227185   4.657   3.585   5.616
 9075TIP3    H127186   4.627   3.654   5.553
 9075TIP3    H227187   4.641   3.629   5.703
 9076TIP3   OH227188   4.756   2.299   5.854
 9076TIP3    H127189   4.754   2.389   5.892
 9076TIP3    H227190   4.852   2.280   5.862
 9077TIP3   OH227191   6.010   2.791   6.747
 9077TIP3    H127192   5.912   2.793   6.760
 9077TIP3    H227193   6.013   2.745   6.662
 9078TIP3   OH227194   5.661   2.986   6.140
 9078TIP3    H127195   5.585   2.927   6.151
 9078TIP3    H227196   5.732   2.938   6.188
 9079TIP3   OH227197   4.373   3.214   5.608
 9079TIP3    H127198   4.441   3.283   5.617
 9079TIP3    H227199   4.418   3.157   5.541
 9080TIP3   OH227200   4.318   2.491   5.742
 9080TIP3    H127201   4.318   2.588   5.739
 9080TIP3    H227202   4.235   2.469   5.699
 9081TIP3   OH227203   5.629   3.944   6.089
 9081TIP3    H127204   5.586   3.991   6.014
 9081TIP3    H227205   5.723   3.961   6.067
 9082TIP3   OH227206   4.705   2.213   6.614
 9082TIP3    H127207   4.674   2.175   6.529
 9082TIP3    H227208   4.697   2.136   6.675
 9083TIP3   OH227209   4.246   3.431   5.996
 9083TIP3    H127210   4.172   3.460   6.051
 9083TIP3    H227211   4.220   3.470   5.909
 9084TIP3   OH227212   4.406   3.974   7.070
 9084TIP3    H127213   4.491   3.974   7.119
 9084TIP3    H227214   4.390   3.879   7.060
 9085TIP3   OH227215   4.877   3.936   7.113
 9085TIP3    H127216   4.972   3.923   7.122
 9085TIP3    H227217   4.856   3.875   7.039
 9086TIP3   OH227218   4.865   3.511   5.241
 9086TIP3    H127219   4.810   3.438   5.277
 9086TIP3    H227220   4.940   3.460   5.204
 9087TIP3   OH227221   5.521   3.842   6.846
 9087TIP3    H127222   5.513   3.772   6.915
 9087TIP3    H227223   5.599   3.893   6.877
 9088TIP3   OH227224   5.300   3.552   5.152
 9088TIP3    H127225   5.345   3.487   5.210
 9088TIP3    H227226   5.355   3.549   5.071
 9089TIP3   OH227227   4.536   3.381   7.272
 9089TIP3    H127228   4.553   3.286   7.284
 9089TIP3    H227229   4.449   3.380   7.227
 9090TIP3   OH227230   4.508   3.028   5.462
 9090TIP3    H127231   4.564   2.995   5.534
 9090TIP3    H227232   4.575   3.032   5.390
 9091TIP3   OH227233   5.138   3.463   7.043
 9091TIP3    H127234   5.099   3.480   6.955
 9091TIP3    H227235   5.169   3.370   7.035
 9092TIP3   OH227236   5.021   3.227   5.270
 9092TIP3    H127237   5.023   3.238   5.367
 9092TIP3    H227238   5.021   3.129   5.263
 9093TIP3   OH227239   5.632   3.471   6.649
 9093TIP3    H127240   5.707   3.515   6.605
 9093TIP3    H227241   5.561   3.536   6.634
 9094TIP3   OH227242   4.663   3.125   7.236
 9094TIP3    H127243   4.713   3.044   7.227
 9094TIP3    H227244   4.684   3.149   7.329
 9095TIP3   OH227245   4.718   2.932   5.684
 9095TIP3    H127246   4.690   2.888   5.766
 9095TIP3    H227247   4.754   2.856   5.633
 9096TIP3   OH227248   4.983   2.993   6.907
 9096TIP3    H127249   4.909   3.057   6.913
 9096TIP3    H227250   5.036   3.030   6.833
 9097TIP3   OH227251   4.818   2.726   5.523
 9097TIP3    H127252   4.792   2.731   5.429
 9097TIP3    H227253   4.915   2.728   5.517
 9098TIP3   OH227254   5.505   3.399   7.046
 9098TIP3    H127255   5.582   3.369   6.997
 9098TIP3    H227256   5.498   3.332   7.117
 9099TIP3   OH227257   5.639   3.055   5.189
 9099TIP3    H127258   5.620   3.011   5.104
 9099TIP3    H227259   5.606   3.145   5.167
 9100TIP3   OH227260   5.112   2.786   7.038
 9100TIP3    H127261   5.110   2.704   6.985
 9100TIP3    H227262   5.065   2.849   6.979
 9101TIP3   OH227263   5.113   2.573   6.845
 9101TIP3    H127264   5.140   2.609   6.759
 9101TIP3    H227265   5.020   2.547   6.828
 9102TIP3   OH227266   5.138   3.105   6.718
 9102TIP3    H127267   5.223   3.114   6.673
 9102TIP3    H227268   5.083   3.172   6.672
 9103TIP3   OH227269   5.720   3.072   7.098
 9103TIP3    H127270   5.768   2.989   7.111
 9103TIP3    H227271   5.789   3.130   7.063
 9104TIP3   OH227272   5.762   3.327   6.837
 9104TIP3    H127273   5.704   3.380   6.778
 9104TIP3    H227274   5.849   3.347   6.797
 9105TIP3   OH227275   4.984   2.900   7.264
 9105TIP3    H127276   4.915   2.833   7.280
 9105TIP3    H227277   5.022   2.869   7.179
 9106TIP3   OH227278   5.244   2.333   6.911
 9106TIP3    H127279   5.193   2.414   6.893
 9106TIP3    H227280   5.174   2.264   6.904
 9107TIP3   OH227281   5.369   2.838   7.132
 9107TIP3    H127282   5.353   2.824   7.227
 9107TIP3    H227283   5.281   2.814   7.097
 9108TIP3   OH227284   5.608   2.788   6.985
 9108TIP3    H127285   5.533   2.789   7.048
 9108TIP3    H227286   5.681   2.756   7.041
 9109TIP3   OH227287   5.842   2.728   7.132
 9109TIP3    H127288   5.849   2.632   7.151
 9109TIP3    H227289   5.834   2.767   7.222
 9110TIP3   OH227290   4.825   2.682   7.305
 9110TIP3    H127291   4.835   2.589   7.279
 9110TIP3    H227292   4.878   2.683   7.389
 9111TIP3   OH227293   5.354   2.345   7.165
 9111TIP3    H127294   5.411   2.266   7.156
 9111TIP3    H227295   5.301   2.339   7.083
 9112TIP3   OH227296   5.406   2.560   7.327
 9112TIP3    H127297   5.384   2.488   7.264
 9112TIP3    H227298   5.326   2.616   7.323
 9113TIP3   OH227299   4.626   3.788   5.430
 9113TIP3    H127300   4.721   3.782   5.410
 9113TIP3    H227301   4.596   3.837   5.351
 9114TIP3   OH227302   4.105   3.169   5.645
 9114TIP3    H127303   4.199   3.191   5.630
 9114TIP3    H227304   4.099   3.080   5.605
 9115TIP3   OH227305   4.019   3.783   6.057
 9115TIP3    H127306   3.953   3.721   6.020
 9115TIP3    H227307   4.064   3.726   6.122
 9116TIP3   OH227308   4.155   3.635   6.243
 9116TIP3    H127309   4.139   3.560   6.302
 9116TIP3    H227310   4.207   3.693   6.301
 9117TIP3   OH227311   5.883   4.033   6.046
 9117TIP3    H127312   5.912   4.064   6.133
 9117TIP3    H227313   5.947   4.075   5.986
 9118TIP3   OH227314   5.913   4.054   6.328
 9118TIP3    H127315   5.867   3.967   6.322
 9118TIP3    H227316   5.987   4.029   6.385
 9119TIP3   OH227317   5.958   3.730   6.901
 9119TIP3    H127318   5.885   3.739   6.966
 9119TIP3    H227319   6.000   3.818   6.905
 9120TIP3   OH227320   5.774   3.242   5.521
 9120TIP3    H127321   5.841   3.307   5.490
 9120TIP3    H227322   5.820   3.205   5.599
 9121TIP3   OH227323   5.903   3.110   5.725
 9121TIP3    H127324   5.836   3.068   5.783
 9121TIP3    H227325   5.966   3.148   5.789
 9122TIP3   OH227326   5.958   3.503   6.157
 9122TIP3    H127327   6.009   3.436   6.107
 9122TIP3    H227328   5.952   3.577   6.093
 9123TIP3   OH227329   5.788   3.804   6.351
 9123TIP3    H127330   5.716   3.845   6.402
 9123TIP3    H227331   5.739   3.757   6.280
 9124TIP3   OH227332   5.840   3.018   5.371
 9124TIP3    H127333   5.770   3.020   5.302
 9124TIP3    H227334   5.811   3.094   5.425
 9125TIP3   OH227335   5.712   2.691   5.325
 9125TIP3    H127336   5.669   2.729   5.248
 9125TIP3    H227337   5.687   2.597   5.316
 9126TIP3   OH227338   5.717   2.968   5.870
 9126TIP3    H127339   5.723   2.871   5.862
 9126TIP3    H227340   5.702   2.980   5.967
 9127TIP3   OH227341   6.005   3.393   6.727
 9127TIP3    H127342   6.078   3.327   6.718
 9127TIP3    H227343   6.031   3.461   6.664
 9128TIP3   OH227344   6.191   3.197   6.741
 9128TIP3    H127345   6.116   3.147   6.780
 9128TIP3    H227346   6.263   3.134   6.758
 9129TIP3   OH227347   5.654   2.425   5.311
 9129TIP3    H127348   5.727   2.393   5.367
 9129TIP3    H227349   5.580   2.366   5.332
 9130TIP3   OH227350   5.714   2.684   5.765
 9130TIP3    H127351   5.753   2.595   5.780
 9130TIP3    H227352   5.771   2.716   5.693
 9131TIP3   OH227353   5.874   2.855   6.261
 9131TIP3    H127354   5.960   2.881   6.220
 9131TIP3    H227355   5.888   2.893   6.350
 9132TIP3   OH227356   5.944   3.001   6.491
 9132TIP3    H127357   5.866   3.034   6.540
 9132TIP3    H227358   5.976   3.082   6.447
 9133TIP3   OH227359   4.558   2.735   7.288
 9133TIP3    H127360   4.656   2.723   7.288
 9133TIP3    H227361   4.531   2.651   7.329
 9134TIP3   OH227362   6.385   2.587   7.040
 9134TIP3    H127363   6.453   2.527   7.004
 9134TIP3    H227364   6.362   2.642   6.963
 9135TIP3   OH227365   5.821   2.433   5.803
 9135TIP3    H127366   5.869   2.417   5.887
 9135TIP3    H227367   5.760   2.357   5.801
 9136TIP3   OH227368   4.520   2.422   6.625
 9136TIP3    H127369   4.577   2.343   6.635
 9136TIP3    H227370   4.587   2.492   6.615
 9137TIP3   OH227371   4.321   2.721   6.699
 9137TIP3    H127372   4.351   2.691   6.612
 9137TIP3    H227373   4.401   2.761   6.733
 9138TIP3   OH227374   6.264   2.735   6.845
 9138TIP3    H127375   6.179   2.778   6.866
 9138TIP3    H227376   6.232   2.662   6.790
 9139TIP3   OH227377   5.903   2.366   5.438
 9139TIP3    H127378   5.941   2.296   5.381
 9139TIP3    H227379   5.969   2.437   5.430
 9140TIP3   OH227380   4.308   2.196   6.198
 9140TIP3    H127381   4.215   2.190   6.226
 9140TIP3    H227382   4.302   2.255   6.120
 9141TIP3   OH227383   5.468   3.901   5.704
 9141TIP3    H127384   5.516   3.886   5.619
 9141TIP3    H227385   5.524   3.967   5.746
 9142TIP3   OH227386   4.529   2.278   7.009
 9142TIP3    H127387   4.483   2.269   7.095
 9142TIP3    H227388   4.456   2.312   6.953
 9143TIP3   OH227389   4.564   3.703   7.080
 9143TIP3    H127390   4.470   3.679   7.077
 9143TIP3    H227391   4.590   3.674   7.168
 9144TIP3   OH227392   4.744   3.738   6.636
 9144TIP3    H127393   4.698   3.814   6.595
 9144TIP3    H227394   4.831   3.749   6.592
 9145TIP3   OH227395   5.189   3.982   6.774
 9145TIP3    H127396   5.232   3.982   6.862
 9145TIP3    H227397   5.255   4.032   6.721
 9146TIP3   OH227398   5.369   4.133   6.633
 9146TIP3    H127399   5.439   4.082   6.590
 9146TIP3    H227400   5.421   4.189   6.694
 9147TIP3   OH227401   6.164   2.494   6.732
 9147TIP3    H127402   6.074   2.487   6.697
 9147TIP3    H227403   6.196   2.402   6.721
 9148TIP3   OH227404   4.421   3.992   6.662
 9148TIP3    H127405   4.332   4.023   6.636
 9148TIP3    H227406   4.432   4.039   6.745
 9149TIP3   OH227407   4.658   3.971   6.518
 9149TIP3    H127408   4.570   3.985   6.560
 9149TIP3    H227409   4.640   4.004   6.427
 9150TIP3   OH227410   5.083   3.999   6.316
 9150TIP3    H127411   5.015   4.018   6.249
 9150TIP3    H227412   5.096   4.088   6.357
 9151TIP3   OH227413   5.353   3.940   6.368
 9151TIP3    H127414   5.259   3.956   6.347
 9151TIP3    H227415   5.396   4.014   6.323
 9152TIP3   OH227416   5.563   4.133   6.281
 9152TIP3    H127417   5.546   4.216   6.232
 9152TIP3    H227418   5.587   4.071   6.208
 9153TIP3   OH227419   4.333   3.786   6.403
 9153TIP3    H127420   4.359   3.762   6.494
 9153TIP3    H227421   4.405   3.743   6.353
 9154TIP3   OH227422   4.528   3.658   6.262
 9154TIP3    H127423   4.546   3.574   6.310
 9154TIP3    H227424   4.618   3.696   6.255
 9155TIP3   OH227425   4.793   3.753   6.265
 9155TIP3    H127426   4.826   3.663   6.250
 9155TIP3    H227427   4.840   3.774   6.348
 9156TIP3   OH227428   5.369   2.409   6.353
 9156TIP3    H127429   5.325   2.340   6.406
 9156TIP3    H227430   5.440   2.359   6.309
 9157TIP3   OH227431   5.893   2.290   6.257
 9157TIP3    H127432   5.928   2.342   6.181
 9157TIP3    H227433   5.797   2.306   6.250
 9158TIP3   OH227434   5.987   2.388   6.020
 9158TIP3    H127435   6.061   2.338   5.979
 9158TIP3    H227436   6.019   2.480   6.005
 9159TIP3   OH227437   4.618   2.118   6.365
 9159TIP3    H127438   4.526   2.084   6.371
 9159TIP3    H227439   4.667   2.033   6.363
 9160TIP3   OH227440   4.400   1.989   6.013
 9160TIP3    H127441   4.432   2.047   5.942
 9160TIP3    H227442   4.376   2.054   6.083
 9161TIP3   OH227443   5.062   2.150   6.247
 9161TIP3    H127444   5.121   2.200   6.189
 9161TIP3    H227445   5.082   2.188   6.334
 9162TIP3   OH227446   5.611   2.297   6.230
 9162TIP3    H127447   5.604   2.259   6.142
 9162TIP3    H227448   5.597   2.218   6.287
 9163TIP3   OH227449   5.638   2.220   5.795
 9163TIP3    H127450   5.551   2.263   5.807
 9163TIP3    H227451   5.623   2.135   5.840
 9164TIP3   OH227452   4.121   3.560   5.795
 9164TIP3    H127453   4.036   3.527   5.762
 9164TIP3    H227454   4.111   3.654   5.773
 9165TIP3   OH227455   4.522   2.148   5.776
 9165TIP3    H127456   4.570   2.084   5.721
 9165TIP3    H227457   4.596   2.201   5.813
 9166TIP3   OH227458   5.034   2.323   5.877
 9166TIP3    H127459   5.091   2.274   5.938
 9166TIP3    H227460   5.057   2.415   5.903
 9167TIP3   OH227461   4.894   3.747   5.377
 9167TIP3    H127462   4.982   3.770   5.341
 9167TIP3    H227463   4.871   3.673   5.317
 9168TIP3   OH227464   5.612   3.866   5.471
 9168TIP3    H127465   5.605   3.768   5.459
 9168TIP3    H227466   5.567   3.897   5.389
 9169TIP3   OH227467   4.835   2.417   7.214
 9169TIP3    H127468   4.805   2.383   7.301
 9169TIP3    H227469   4.932   2.405   7.226
 9170TIP3   OH227470   5.092   2.390   7.314
 9170TIP3    H127471   5.174   2.341   7.329
 9170TIP3    H227472   5.049   2.389   7.402
 9171TIP3   OH227473   4.197   3.583   5.432
 9171TIP3    H127474   4.201   3.609   5.525
 9171TIP3    H227475   4.285   3.541   5.418
 9172TIP3   OH227476   5.899   2.457   7.165
 9172TIP3    H127477   5.917   2.431   7.258
 9172TIP3    H227478   5.988   2.456   7.125
 9173TIP3   OH227479   5.838   4.010   6.657
 9173TIP3    H127480   5.760   3.978   6.607
 9173TIP3    H227481   5.818   4.106   6.662
 9174TIP3   OH227482   7.102   3.377   5.428
 9174TIP3    H127483   7.079   3.471   5.409
 9174TIP3    H227484   7.026   3.333   5.387
 9175TIP3   OH227485   7.101   3.384   5.799
 9175TIP3    H127486   7.132   3.356   5.887
 9175TIP3    H227487   7.061   3.304   5.764
 9176TIP3   OH227488   6.403   3.278   6.169
 9176TIP3    H127489   6.437   3.210   6.230
 9176TIP3    H227490   6.481   3.334   6.159
 9177TIP3   OH227491   7.336   3.687   5.485
 9177TIP3    H127492   7.338   3.620   5.554
 9177TIP3    H227493   7.379   3.762   5.528
 9178TIP3   OH227494   6.375   3.688   5.897
 9178TIP3    H127495   6.368   3.590   5.897
 9178TIP3    H227496   6.472   3.698   5.884
 9179TIP3   OH227497   6.082   2.889   5.679
 9179TIP3    H127498   6.034   2.972   5.694
 9179TIP3    H227499   6.012   2.836   5.638
 9180TIP3   OH227500   6.141   3.178   5.853
 9180TIP3    H127501   6.190   3.100   5.887
 9180TIP3    H227502   6.197   3.208   5.781
 9181TIP3   OH227503   6.901   3.606   5.857
 9181TIP3    H127504   6.941   3.534   5.806
 9181TIP3    H227505   6.983   3.653   5.881
 9182TIP3   OH227506   7.897   2.937   5.853
 9182TIP3    H127507   7.933   3.020   5.893
 9182TIP3    H227508   7.919   2.951   5.759
 9183TIP3   OH227509   7.309   3.107   5.891
 9183TIP3    H127510   7.358   3.024   5.905
 9183TIP3    H227511   7.283   3.096   5.797
 9184TIP3   OH227512   6.655   2.769   5.851
 9184TIP3    H127513   6.634   2.841   5.788
 9184TIP3    H227514   6.607   2.695   5.806
 9185TIP3   OH227515   7.346   2.861   5.471
 9185TIP3    H127516   7.417   2.849   5.540
 9185TIP3    H227517   7.400   2.897   5.398
 9186TIP3   OH227518   6.287   2.970   5.957
 9186TIP3    H127519   6.370   2.950   6.005
 9186TIP3    H227520   6.300   2.914   5.877
 9187TIP3   OH227521   6.726   3.167   5.753
 9187TIP3    H127522   6.821   3.143   5.762
 9187TIP3    H227523   6.688   3.084   5.718
 9188TIP3   OH227524   7.987   3.145   6.005
 9188TIP3    H127525   7.903   3.195   6.007
 9188TIP3    H227526   7.990   3.106   6.094
 9189TIP3   OH227527   6.658   2.758   6.290
 9189TIP3    H127528   6.598   2.793   6.220
 9189TIP3    H227529   6.601   2.772   6.369
 9190TIP3   OH227530   6.996   3.602   5.292
 9190TIP3    H127531   6.957   3.593   5.205
 9190TIP3    H227532   6.962   3.689   5.321
 9191TIP3   OH227533   6.761   3.524   6.086
 9191TIP3    H127534   6.699   3.593   6.120
 9191TIP3    H227535   6.802   3.571   6.010
 9192TIP3   OH227536   7.549   2.871   5.650
 9192TIP3    H127537   7.558   2.816   5.729
 9192TIP3    H227538   7.604   2.948   5.673
 9193TIP3   OH227539   6.523   2.865   6.071
 9193TIP3    H127540   6.585   2.939   6.092
 9193TIP3    H227541   6.570   2.826   5.994
 9194TIP3   OH227542   6.585   3.721   6.179
 9194TIP3    H127543   6.561   3.805   6.137
 9194TIP3    H227544   6.505   3.706   6.233
 9195TIP3   OH227545   5.977   3.411   5.413
 9195TIP3    H127546   5.938   3.438   5.328
 9195TIP3    H227547   6.009   3.497   5.448
 9196TIP3   OH227548   7.420   3.930   5.654
 9196TIP3    H127549   7.330   3.919   5.693
 9196TIP3    H227550   7.409   4.014   5.606
 9197TIP3   OH227551   7.697   2.848   6.019
 9197TIP3    H127552   7.613   2.862   5.973
 9197TIP3    H227553   7.764   2.874   5.952
 9198TIP3   OH227554   7.002   2.472   5.998
 9198TIP3    H127555   6.986   2.377   6.013
 9198TIP3    H227556   6.924   2.510   6.044
 9199TIP3   OH227557   7.282   3.740   5.210
 9199TIP3    H127558   7.213   3.675   5.198
 9199TIP3    H227559   7.299   3.733   5.305
 9200TIP3   OH227560   7.640   3.841   5.995
 9200TIP3    H127561   7.634   3.765   5.933
 9200TIP3    H227562   7.626   3.916   5.934
 9201TIP3   OH227563   6.935   3.233   5.255
 9201TIP3    H127564   6.856   3.288   5.234
 9201TIP3    H227565   6.982   3.233   5.170
 9202TIP3   OH227566   6.894   3.018   4.971
 9202TIP3    H127567   6.960   3.072   5.018
 9202TIP3    H227568   6.954   2.956   4.923
 9203TIP3   OH227569   7.843   3.481   5.849
 9203TIP3    H127570   7.761   3.536   5.854
 9203TIP3    H227571   7.870   3.501   5.757
 9204TIP3   OH227572   7.281   3.312   5.229
 9204TIP3    H127573   7.229   3.340   5.308
 9204TIP3    H227574   7.368   3.293   5.271
 9205TIP3   OH227575   7.510   3.356   6.141
 9205TIP3    H127576   7.517   3.441   6.188
 9205TIP3    H227577   7.439   3.375   6.077
 9206TIP3   OH227578   6.513   3.313   5.646
 9206TIP3    H127579   6.472   3.257   5.577
 9206TIP3    H227580   6.591   3.260   5.672
 9207TIP3   OH227581   6.641   3.719   5.795
 9207TIP3    H127582   6.624   3.689   5.705
 9207TIP3    H227583   6.732   3.687   5.811
 9208TIP3   OH227584   6.654   3.284   5.999
 9208TIP3    H127585   6.684   3.262   5.908
 9208TIP3    H227586   6.697   3.371   6.016
 9209TIP3   OH227587   7.182   3.920   5.780
 9209TIP3    H127588   7.159   4.002   5.827
 9209TIP3    H227589   7.159   3.850   5.843
 9210TIP3   OH227590   6.790   3.841   6.325
 9210TIP3    H127591   6.728   3.903   6.368
 9210TIP3    H227592   6.726   3.788   6.272
 9211TIP3   OH227593   7.123   3.174   5.052
 9211TIP3    H127594   7.181   3.236   5.103
 9211TIP3    H227595   7.150   3.196   4.960
 9212TIP3   OH227596   6.544   3.394   6.426
 9212TIP3    H127597   6.549   3.483   6.467
 9212TIP3    H227598   6.448   3.377   6.436
 9213TIP3   OH227599   6.879   3.870   5.329
 9213TIP3    H127600   6.939   3.938   5.363
 9213TIP3    H227601   6.815   3.923   5.279
 9214TIP3   OH227602   6.584   4.010   6.409
 9214TIP3    H127603   6.550   4.011   6.317
 9214TIP3    H227604   6.503   3.988   6.460
 9215TIP3   OH227605   7.636   2.427   5.107
 9215TIP3    H127606   7.553   2.448   5.155
 9215TIP3    H227607   7.652   2.512   5.061
 9216TIP3   OH227608   6.380   3.156   5.450
 9216TIP3    H127609   6.316   3.203   5.392
 9216TIP3    H227610   6.339   3.070   5.457
 9217TIP3   OH227611   7.435   3.781   4.645
 9217TIP3    H127612   7.444   3.878   4.634
 9217TIP3    H227613   7.528   3.752   4.635
 9218TIP3   OH227614   6.163   3.540   6.355
 9218TIP3    H127615   6.096   3.520   6.286
 9218TIP3    H227616   6.200   3.452   6.375
 9219TIP3   OH227617   6.017   3.733   5.989
 9219TIP3    H127618   6.113   3.727   5.976
 9219TIP3    H227619   6.009   3.813   6.042
 9220TIP3   OH227620   7.872   4.182   6.030
 9220TIP3    H127621   7.879   4.086   6.016
 9220TIP3    H227622   7.789   4.190   6.080
 9221TIP3   OH227623   6.987   3.968   6.179
 9221TIP3    H127624   6.985   4.061   6.210
 9221TIP3    H227625   6.916   3.929   6.234
 9222TIP3   OH227626   6.733   4.088   5.133
 9222TIP3    H127627   6.703   4.083   5.041
 9222TIP3    H227628   6.723   4.182   5.156
 9223TIP3   OH227629   6.184   3.950   5.516
 9223TIP3    H127630   6.233   3.940   5.600
 9223TIP3    H227631   6.132   3.868   5.515
 9224TIP3   OH227632   6.948   3.999   4.772
 9224TIP3    H127633   7.009   3.931   4.736
 9224TIP3    H227634   6.982   4.011   4.863
 9225TIP3   OH227635   7.000   4.053   5.044
 9225TIP3    H127636   6.918   4.066   5.097
 9225TIP3    H227637   7.065   4.048   5.116
 9226TIP3   OH227638   7.778   3.311   6.320
 9226TIP3    H127639   7.711   3.339   6.256
 9226TIP3    H227640   7.795   3.218   6.292
 9227TIP3   OH227641   6.366   3.724   6.343
 9227TIP3    H127642   6.416   3.707   6.425
 9227TIP3    H227643   6.292   3.661   6.350
 9228TIP3   OH227644   6.767   2.549   6.127
 9228TIP3    H127645   6.679   2.517   6.099
 9228TIP3    H227646   6.740   2.631   6.173
 9229TIP3   OH227647   7.291   2.672   6.329
 9229TIP3    H127648   7.359   2.634   6.386
 9229TIP3    H227649   7.208   2.634   6.366
 9230TIP3   OH227650   7.526   3.091   6.234
 9230TIP3    H127651   7.493   3.092   6.327
 9230TIP3    H227652   7.517   3.183   6.204
 9231TIP3   OH227653   7.199   3.213   4.796
 9231TIP3    H127654   7.167   3.195   4.706
 9231TIP3    H227655   7.276   3.269   4.776
 9232TIP3   OH227656   6.913   2.593   5.100
 9232TIP3    H127657   6.877   2.591   5.190
 9232TIP3    H227658   6.872   2.513   5.063
 9233TIP3   OH227659   6.701   3.063   6.147
 9233TIP3    H127660   6.647   3.083   6.226
 9233TIP3    H227661   6.685   3.144   6.093
 9234TIP3   OH227662   6.583   2.948   5.660
 9234TIP3    H127663   6.490   2.924   5.677
 9234TIP3    H227664   6.596   2.908   5.571
 9235TIP3   OH227665   7.073   3.033   5.387
 9235TIP3    H127666   7.021   3.106   5.346
 9235TIP3    H227667   7.128   3.004   5.313
 9236TIP3   OH227668   7.250   3.294   6.487
 9236TIP3    H127669   7.232   3.295   6.582
 9236TIP3    H227670   7.324   3.355   6.483
 9237TIP3   OH227671   7.226   3.063   5.629
 9237TIP3    H127672   7.170   3.096   5.557
 9237TIP3    H227673   7.260   2.983   5.585
 9238TIP3   OH227674   6.522   3.092   6.353
 9238TIP3    H127675   6.532   3.160   6.422
 9238TIP3    H227676   6.506   3.011   6.405
 9239TIP3   OH227677   6.568   2.569   5.065
 9239TIP3    H127678   6.556   2.568   5.162
 9239TIP3    H227679   6.491   2.622   5.038
 9240TIP3   OH227680   6.110   2.612   5.937
 9240TIP3    H127681   6.187   2.645   5.988
 9240TIP3    H227682   6.148   2.583   5.853
 9241TIP3   OH227683   6.083   2.595   5.456
 9241TIP3    H127684   6.128   2.632   5.377
 9241TIP3    H227685   6.021   2.668   5.475
 9242TIP3   OH227686   7.220   3.309   6.045
 9242TIP3    H127687   7.259   3.238   5.989
 9242TIP3    H227688   7.231   3.273   6.133
 9243TIP3   OH227689   6.911   2.766   5.720
 9243TIP3    H127690   6.828   2.768   5.772
 9243TIP3    H227691   6.978   2.771   5.790
 9244TIP3   OH227692   6.343   2.827   5.730
 9244TIP3    H127693   6.249   2.836   5.702
 9244TIP3    H227694   6.365   2.735   5.705
 9245TIP3   OH227695   6.613   2.823   5.418
 9245TIP3    H127696   6.706   2.839   5.394
 9245TIP3    H227697   6.564   2.845   5.335
 9246TIP3   OH227698   7.398   2.848   5.929
 9246TIP3    H127699   7.354   2.856   6.015
 9246TIP3    H227700   7.340   2.784   5.884
 9247TIP3   OH227701   6.458   2.855   5.197
 9247TIP3    H127702   6.386   2.811   5.148
 9247TIP3    H227703   6.509   2.893   5.123
 9248TIP3   OH227704   7.499   4.513   6.108
 9248TIP3    H127705   7.507   4.525   6.011
 9248TIP3    H227706   7.555   4.585   6.140
 9249TIP3   OH227707   6.530   3.644   6.563
 9249TIP3    H127708   6.609   3.676   6.611
 9249TIP3    H227709   6.465   3.643   6.636
 9250TIP3   OH227710   6.993   3.094   5.813
 9250TIP3    H127711   7.069   3.066   5.759
 9250TIP3    H227712   7.010   3.051   5.898
 9251TIP3   OH227713   6.518   2.587   5.698
 9251TIP3    H127714   6.481   2.508   5.744
 9251TIP3    H227715   6.559   2.548   5.620
 9252TIP3   OH227716   6.964   2.993   6.110
 9252TIP3    H127717   6.871   3.025   6.112
 9252TIP3    H227718   7.010   3.061   6.161
 9253TIP3   OH227719   6.706   3.386   5.204
 9253TIP3    H127720   6.633   3.321   5.192
 9253TIP3    H227721   6.687   3.421   5.294
 9254TIP3   OH227722   7.605   3.620   5.836
 9254TIP3    H127723   7.630   3.668   5.753
 9254TIP3    H227724   7.520   3.579   5.809
 9255TIP3   OH227725   7.165   2.697   5.068
 9255TIP3    H127726   7.068   2.681   5.074
 9255TIP3    H227727   7.174   2.792   5.090
 9256TIP3   OH227728   7.099   3.699   6.209
 9256TIP3    H127729   7.137   3.697   6.297
 9256TIP3    H227730   7.068   3.791   6.201
 9257TIP3   OH227731   7.234   2.947   5.169
 9257TIP3    H127732   7.330   2.956   5.186
 9257TIP3    H227733   7.213   3.028   5.119
 9258TIP3   OH227734   6.398   3.410   5.880
 9258TIP3    H127735   6.435   3.383   5.793
 9258TIP3    H227736   6.439   3.345   5.940
 9259TIP3   OH227737   6.851   3.534   5.023
 9259TIP3    H127738   6.803   3.620   5.027
 9259TIP3    H227739   6.798   3.481   5.086
 9260TIP3   OH227740   6.281   3.325   6.491
 9260TIP3    H127741   6.295   3.314   6.587
 9260TIP3    H227742   6.208   3.263   6.474
 9261TIP3   OH227743   7.002   3.441   6.514
 9261TIP3    H127744   6.934   3.384   6.474
 9261TIP3    H227745   7.081   3.414   6.465
 9262TIP3   OH227746   7.263   3.952   6.104
 9262TIP3    H127747   7.167   3.960   6.107
 9262TIP3    H227748   7.289   4.012   6.176
 9263TIP3   OH227749   7.681   3.032   5.005
 9263TIP3    H127750   7.618   2.992   4.942
 9263TIP3    H227751   7.675   3.125   4.972
 9264TIP3   OH227752   7.900   3.872   6.066
 9264TIP3    H127753   7.804   3.873   6.047
 9264TIP3    H227754   7.937   3.878   5.974
 9265TIP3   OH227755   7.359   3.861   4.912
 9265TIP3    H127756   7.347   3.801   4.988
 9265TIP3    H227757   7.385   3.802   4.839
 9266TIP3   OH227758   7.370   3.481   5.762
 9266TIP3    H127759   7.275   3.461   5.763
 9266TIP3    H227760   7.404   3.406   5.708
 9267TIP3   OH227761   6.502   3.715   5.508
 9267TIP3    H127762   6.504   3.794   5.452
 9267TIP3    H227763   6.408   3.695   5.510
 9268TIP3   OH227764   6.065   3.016   5.210
 9268TIP3    H127765   6.109   3.102   5.229
 9268TIP3    H227766   5.987   3.021   5.269
 9269TIP3   OH227767   6.634   3.476   5.448
 9269TIP3    H127768   6.604   3.567   5.467
 9269TIP3    H227769   6.597   3.428   5.524
 9270TIP3   OH227770   6.768   4.056   5.973
 9270TIP3    H127771   6.807   4.129   5.921
 9270TIP3    H227772   6.847   4.021   6.017
 9271TIP3   OH227773   6.419   3.952   5.357
 9271TIP3    H127774   6.333   3.963   5.403
 9271TIP3    H227775   6.452   4.045   5.358
 9272TIP3   OH227776   7.152   3.686   5.936
 9272TIP3    H127777   7.150   3.681   6.033
 9272TIP3    H227778   7.237   3.644   5.915
 9273TIP3   OH227779   7.130   3.580   4.814
 9273TIP3    H127780   7.186   3.553   4.890
 9273TIP3    H227781   7.042   3.560   4.849
 9274TIP3   OH227782   7.401   4.222   5.980
 9274TIP3    H127783   7.318   4.171   5.966
 9274TIP3    H227784   7.392   4.289   5.909
 9275TIP3   OH227785   7.465   4.058   4.628
 9275TIP3    H127786   7.507   4.138   4.591
 9275TIP3    H227787   7.385   4.099   4.666
 9276TIP3   OH227788   6.489   2.833   6.501
 9276TIP3    H127789   6.392   2.839   6.511
 9276TIP3    H227790   6.513   2.772   6.572
 9277TIP3   OH227791   7.289   3.496   5.020
 9277TIP3    H127792   7.284   3.444   5.101
 9277TIP3    H227793   7.386   3.513   5.016
 9278TIP3   OH227794   6.207   3.920   6.133
 9278TIP3    H127795   6.260   3.842   6.156
 9278TIP3    H227796   6.239   3.984   6.197
 9279TIP3   OH227797   6.495   3.565   4.815
 9279TIP3    H127798   6.512   3.473   4.787
 9279TIP3    H227799   6.477   3.553   4.910
 9280TIP3   OH227800   6.442   3.569   5.089
 9280TIP3    H127801   6.520   3.545   5.141
 9280TIP3    H227802   6.445   3.667   5.093
 9281TIP3   OH227803   6.178   3.262   5.291
 9281TIP3    H127804   6.111   3.308   5.346
 9281TIP3    H227805   6.192   3.331   5.222
 9282TIP3   OH227806   7.317   2.912   6.195
 9282TIP3    H127807   7.409   2.944   6.201
 9282TIP3    H227808   7.321   2.826   6.241
 9283TIP3   OH227809   7.210   2.647   5.348
 9283TIP3    H127810   7.194   2.671   5.255
 9283TIP3    H227811   7.247   2.731   5.384
 9284TIP3   OH227812   6.706   3.762   5.036
 9284TIP3    H127813   6.621   3.794   5.070
 9284TIP3    H227814   6.734   3.840   4.985
 9285TIP3   OH227815   6.898   2.829   5.449
 9285TIP3    H127816   6.960   2.902   5.430
 9285TIP3    H227817   6.903   2.823   5.546
 9286TIP3   OH227818   7.144   3.086   6.330
 9286TIP3    H127819   7.186   3.168   6.363
 9286TIP3    H227820   7.211   3.048   6.269
 9287TIP3   OH227821   7.040   2.555   5.551
 9287TIP3    H127822   7.028   2.634   5.607
 9287TIP3    H227823   7.102   2.590   5.483
 9288TIP3   OH227824   6.449   3.841   5.103
 9288TIP3    H127825   6.422   3.911   5.040
 9288TIP3    H227826   6.437   3.886   5.189
 9289TIP3   OH227827   6.552   2.556   5.343
 9289TIP3    H127828   6.550   2.648   5.377
 9289TIP3    H227829   6.648   2.539   5.349
 9290TIP3   OH227830   7.795   3.047   6.229
 9290TIP3    H127831   7.699   3.050   6.212
 9290TIP3    H227832   7.819   2.975   6.168
 9291TIP3   OH227833   7.452   3.245   5.626
 9291TIP3    H127834   7.379   3.182   5.636
 9291TIP3    H227835   7.525   3.200   5.675
 9292TIP3   OH227836   6.170   3.470   5.096
 9292TIP3    H127837   6.238   3.539   5.105
 9292TIP3    H227838   6.214   3.415   5.028
 9293TIP3   OH227839   6.112   2.746   5.231
 9293TIP3    H127840   6.114   2.844   5.227
 9293TIP3    H227841   6.032   2.726   5.181
 9294TIP3   OH227842   7.421   4.202   5.577
 9294TIP3    H127843   7.371   4.239   5.501
 9294TIP3    H227844   7.513   4.225   5.549
 9295TIP3   OH227845   6.504   2.468   6.101
 9295TIP3    H127846   6.472   2.434   6.015
 9295TIP3    H227847   6.492   2.390   6.159
 9296TIP3   OH227848   6.041   3.686   5.482
 9296TIP3    H127849   5.969   3.717   5.538
 9296TIP3    H227850   6.016   3.726   5.396
 9297TIP3   OH227851   6.198   4.228   6.555
 9297TIP3    H127852   6.285   4.227   6.601
 9297TIP3    H227853   6.177   4.133   6.553
 9298TIP3   OH227854   6.678   4.191   6.600
 9298TIP3    H127855   6.773   4.173   6.605
 9298TIP3    H227856   6.653   4.133   6.526
 9299TIP3   OH227857   6.660   3.768   4.725
 9299TIP3    H127858   6.605   3.696   4.764
 9299TIP3    H227859   6.737   3.717   4.694
 9300TIP3   OH227860   7.301   4.098   6.332
 9300TIP3    H127861   7.298   4.023   6.397
 9300TIP3    H227862   7.382   4.145   6.359
 9301TIP3   OH227863   7.096   3.806   4.637
 9301TIP3    H127864   7.143   3.750   4.702
 9301TIP3    H227865   7.158   3.806   4.561
 9302TIP3   OH227866   6.328   3.635   6.755
 9302TIP3    H127867   6.344   3.539   6.760
 9302TIP3    H227868   6.241   3.637   6.709
 9303TIP3   OH227869   6.305   3.284   4.949
 9303TIP3    H127870   6.362   3.253   5.021
 9303TIP3    H227871   6.370   3.289   4.876
 9304TIP3   OH227872   6.935   3.720   6.529
 9304TIP3    H127873   6.895   3.741   6.443
 9304TIP3    H227874   6.965   3.627   6.517
 9305TIP3   OH227875   6.812   3.483   4.755
 9305TIP3    H127876   6.819   3.495   4.852
 9305TIP3    H227877   6.813   3.385   4.750
 9306TIP3   OH227878   7.429   3.728   6.138
 9306TIP3    H127879   7.506   3.765   6.089
 9306TIP3    H227880   7.363   3.798   6.121
 9307TIP3   OH227881   6.445   3.372   6.739
 9307TIP3    H127882   6.513   3.306   6.723
 9307TIP3    H227883   6.472   3.406   6.827
 9308TIP3   OH227884   6.513   3.188   5.170
 9308TIP3    H127885   6.486   3.145   5.253
 9308TIP3    H227886   6.550   3.114   5.119
 9309TIP3   OH227887   6.791   3.268   6.417
 9309TIP3    H127888   6.705   3.316   6.408
 9309TIP3    H227889   6.831   3.282   6.329
 9310TIP3   OH227890   6.614   2.982   5.011
 9310TIP3    H127891   6.588   2.988   4.917
 9310TIP3    H227892   6.712   2.985   5.004
 9311TIP3   OH227893   7.290   3.642   6.523
 9311TIP3    H127894   7.380   3.642   6.488
 9311TIP3    H227895   7.300   3.595   6.608
 9312TIP3   OH227896   7.435   3.310   4.675
 9312TIP3    H127897   7.414   3.269   4.589
 9312TIP3    H227898   7.403   3.402   4.655
 9313TIP3   OH227899   6.918   2.829   6.332
 9313TIP3    H127900   6.933   2.868   6.243
 9313TIP3    H227901   6.822   2.807   6.324
 9314TIP3   OH227902   6.951   3.357   6.196
 9314TIP3    H127903   7.026   3.382   6.139
 9314TIP3    H227904   6.884   3.422   6.165
 9315TIP3   OH227905   7.546   3.322   6.588
 9315TIP3    H127906   7.541   3.248   6.525
 9315TIP3    H227907   7.588   3.392   6.536
 9316TIP3   OH227908   7.558   3.579   6.322
 9316TIP3    H127909   7.501   3.636   6.265
 9316TIP3    H227910   7.645   3.598   6.282
 9317TIP3   OH227911   6.774   3.162   6.739
 9317TIP3    H127912   6.716   3.086   6.755
 9317TIP3    H227913   6.766   3.178   6.643
 9318TIP3   OH227914   7.039   2.582   6.396
 9318TIP3    H127915   6.985   2.657   6.364
 9318TIP3    H227916   6.973   2.509   6.389
 9319TIP3   OH227917   7.446   3.048   6.497
 9319TIP3    H127918   7.360   3.039   6.539
 9319TIP3    H227919   7.499   2.993   6.557
 9320TIP3   OH227920   6.626   2.932   6.800
 9320TIP3    H127921   6.622   2.837   6.774
 9320TIP3    H227922   6.660   2.922   6.891
 9321TIP3   OH227923   7.132   2.597   6.666
 9321TIP3    H127924   7.174   2.518   6.707
 9321TIP3    H227925   7.104   2.562   6.580
 9322TIP3   OH227926   7.168   2.874   6.659
 9322TIP3    H127927   7.182   2.779   6.680
 9322TIP3    H227928   7.117   2.905   6.737
 9323TIP3   OH227929   6.421   4.044   4.915
 9323TIP3    H127930   6.517   4.038   4.900
 9323TIP3    H227931   6.396   4.094   4.835
 9324TIP3   OH227932   5.902   3.425   5.134
 9324TIP3    H127933   5.996   3.447   5.117
 9324TIP3    H227934   5.895   3.337   5.092
 9325TIP3   OH227935   5.815   4.040   5.546
 9325TIP3    H127936   5.750   3.977   5.507
 9325TIP3    H227937   5.860   3.981   5.611
 9326TIP3   OH227938   5.950   3.890   5.734
 9326TIP3    H127939   5.940   3.815   5.794
 9326TIP3    H227940   6.003   3.950   5.789
 9327TIP3   OH227941   7.678   4.289   5.536
 9327TIP3    H127942   7.711   4.332   5.616
 9327TIP3    H227943   7.735   4.327   5.467
 9328TIP3   OH227944   7.717   4.302   5.821
 9328TIP3    H127945   7.671   4.217   5.807
 9328TIP3    H227946   7.792   4.271   5.875
 9329TIP3   OH227947   7.746   4.011   6.373
 9329TIP3    H127948   7.678   4.005   6.442
 9329TIP3    H227949   7.779   4.102   6.378
 9330TIP3   OH227950   7.570   3.500   5.007
 9330TIP3    H127951   7.635   3.567   4.977
 9330TIP3    H227952   7.616   3.464   5.086
 9331TIP3   OH227953   7.697   3.365   5.210
 9331TIP3    H127954   7.630   3.328   5.271
 9331TIP3    H227955   7.756   3.414   5.270
 9332TIP3   OH227956   7.709   3.742   5.623
 9332TIP3    H127957   7.794   3.695   5.611
 9332TIP3    H227958   7.727   3.827   5.579
 9333TIP3   OH227959   7.582   4.060   5.838
 9333TIP3    H127960   7.507   4.102   5.883
 9333TIP3    H227961   7.538   4.012   5.765
 9334TIP3   OH227962   7.628   3.270   4.864
 9334TIP3    H127963   7.559   3.277   4.794
 9334TIP3    H227964   7.604   3.348   4.917
 9335TIP3   OH227965   7.515   2.942   4.807
 9335TIP3    H127966   7.465   2.994   4.743
 9335TIP3    H227967   7.481   2.851   4.790
 9336TIP3   OH227968   7.512   3.226   5.359
 9336TIP3    H127969   7.522   3.130   5.354
 9336TIP3    H227970   7.497   3.242   5.455
 9337TIP3   OH227971   6.138   3.294   6.106
 9337TIP3    H127972   6.136   3.264   6.012
 9337TIP3    H227973   6.235   3.298   6.121
 9338TIP3   OH227974   7.796   3.634   6.194
 9338TIP3    H127975   7.874   3.575   6.190
 9338TIP3    H227976   7.823   3.705   6.133
 9339TIP3   OH227977   8.005   3.456   6.231
 9339TIP3    H127978   7.940   3.401   6.279
 9339TIP3    H227979   8.090   3.413   6.250
 9340TIP3   OH227980   7.453   2.672   4.787
 9340TIP3    H127981   7.517   2.656   4.859
 9340TIP3    H227982   7.373   2.624   4.814
 9341TIP3   OH227983   7.509   2.940   5.252
 9341TIP3    H127984   7.549   2.851   5.262
 9341TIP3    H227985   7.567   2.977   5.184
 9342TIP3   OH227986   7.660   3.114   5.750
 9342TIP3    H127987   7.741   3.144   5.703
 9342TIP3    H227988   7.681   3.148   5.839
 9343TIP3   OH227989   7.736   3.264   5.980
 9343TIP3    H127990   7.657   3.302   6.021
 9343TIP3    H227991   7.775   3.341   5.934
 9344TIP3   OH227992   6.360   2.989   6.782
 9344TIP3    H127993   6.457   2.980   6.781
 9344TIP3    H227994   6.334   2.901   6.815
 9345TIP3   OH227995   7.615   2.689   5.282
 9345TIP3    H127996   7.658   2.688   5.371
 9345TIP3    H227997   7.553   2.614   5.291
 9346TIP3   OH227998   6.318   2.676   6.110
 9346TIP3    H127999   6.380   2.600   6.118
 9346TIP3    H228000   6.381   2.750   6.103
 9347TIP3   OH228001   6.121   2.948   6.183
 9347TIP3    H128002   6.169   2.944   6.098
 9347TIP3    H228003   6.146   3.036   6.214
 9348TIP3   OH228004   7.697   2.634   4.930
 9348TIP3    H128005   7.726   2.566   4.867
 9348TIP3    H228006   7.764   2.704   4.919
 9349TIP3   OH228007   6.104   2.455   5.686
 9349TIP3    H128008   6.010   2.449   5.710
 9349TIP3    H228009   6.101   2.513   5.607
 9350TIP3   OH228010   6.325   2.533   6.498
 9350TIP3    H128011   6.273   2.527   6.579
 9350TIP3    H228012   6.259   2.572   6.437
 9351TIP3   OH228013   6.363   3.962   6.575
 9351TIP3    H128014   6.271   3.934   6.557
 9351TIP3    H228015   6.373   3.941   6.668
 9352TIP3   OH228016   6.543   3.994   6.123
 9352TIP3    H128017   6.497   4.070   6.082
 9352TIP3    H228018   6.630   4.006   6.078
 9353TIP3   OH228019   6.983   4.235   6.261
 9353TIP3    H128020   7.029   4.237   6.348
 9353TIP3    H228021   7.047   4.285   6.206
 9354TIP3   OH228022   7.153   4.384   6.111
 9354TIP3    H128023   7.227   4.343   6.063
 9354TIP3    H228024   7.201   4.442   6.175
 9355TIP3   OH228025   6.217   4.261   6.139
 9355TIP3    H128026   6.123   4.288   6.125
 9355TIP3    H228027   6.229   4.288   6.231
 9356TIP3   OH228028   6.456   4.227   6.006
 9356TIP3    H128029   6.368   4.242   6.048
 9356TIP3    H228030   6.440   4.257   5.915
 9357TIP3   OH228031   6.875   4.254   5.811
 9357TIP3    H128032   6.821   4.274   5.733
 9357TIP3    H228033   6.892   4.343   5.847
 9358TIP3   OH228034   7.149   4.193   5.857
 9358TIP3    H128035   7.056   4.205   5.831
 9358TIP3    H228036   7.193   4.257   5.798
 9359TIP3   OH228037   7.360   4.389   5.766
 9359TIP3    H128038   7.335   4.469   5.714
 9359TIP3    H228039   7.382   4.327   5.693
 9360TIP3   OH228040   6.130   4.044   5.892
 9360TIP3    H128041   6.158   4.018   5.982
 9360TIP3    H228042   6.201   4.000   5.839
 9361TIP3   OH228043   6.322   3.915   5.749
 9361TIP3    H128044   6.340   3.831   5.798
 9361TIP3    H228045   6.413   3.952   5.744
 9362TIP3   OH228046   6.588   4.011   5.754
 9362TIP3    H128047   6.623   3.923   5.733
 9362TIP3    H228048   6.638   4.031   5.835
 9363TIP3   OH228049   7.166   2.669   5.844
 9363TIP3    H128050   7.121   2.594   5.888
 9363TIP3    H228051   7.238   2.624   5.796
 9364TIP3   OH228052   7.681   2.540   5.722
 9364TIP3    H128053   7.717   2.604   5.656
 9364TIP3    H228054   7.589   2.571   5.732
 9365TIP3   OH228055   7.759   2.685   5.511
 9365TIP3    H128056   7.830   2.628   5.473
 9365TIP3    H228057   7.802   2.773   5.498
 9366TIP3   OH228058   6.414   2.375   5.854
 9366TIP3    H128059   6.321   2.344   5.856
 9366TIP3    H228060   6.461   2.289   5.849
 9367TIP3   OH228061   6.206   2.245   5.504
 9367TIP3    H128062   6.232   2.301   5.429
 9367TIP3    H228063   6.174   2.310   5.568
 9368TIP3   OH228064   6.862   2.402   5.735
 9368TIP3    H128065   6.915   2.454   5.672
 9368TIP3    H228066   6.879   2.449   5.818
 9369TIP3   OH228067   7.392   2.556   5.721
 9369TIP3    H128068   7.397   2.522   5.631
 9369TIP3    H228069   7.381   2.474   5.773
 9370TIP3   OH228070   7.429   2.478   5.285
 9370TIP3    H128071   7.344   2.524   5.299
 9370TIP3    H228072   7.411   2.392   5.329
 9371TIP3   OH228073   5.917   3.817   5.282
 9371TIP3    H128074   5.831   3.783   5.249
 9371TIP3    H228075   5.907   3.911   5.258
 9372TIP3   OH228076   6.318   2.401   5.267
 9372TIP3    H128077   6.365   2.340   5.207
 9372TIP3    H228078   6.391   2.456   5.301
 9373TIP3   OH228079   6.830   2.579   5.364
 9373TIP3    H128080   6.891   2.533   5.424
 9373TIP3    H228081   6.851   2.672   5.388
 9374TIP3   OH228082   6.689   4.006   4.863
 9374TIP3    H128083   6.779   4.025   4.830
 9374TIP3    H228084   6.668   3.929   4.805
 9375TIP3   OH228085   7.429   4.125   4.937
 9375TIP3    H128086   7.407   4.030   4.945
 9375TIP3    H228087   7.364   4.153   4.871
 9376TIP3   OH228088   6.621   2.659   6.750
 9376TIP3    H128089   6.583   2.585   6.799
 9376TIP3    H228090   6.715   2.651   6.778
 9377TIP3   OH228091   6.874   2.635   6.863
 9377TIP3    H128092   6.959   2.639   6.817
 9377TIP3    H228093   6.888   2.556   6.919
 9378TIP3   OH228094   5.994   3.840   4.919
 9378TIP3    H128095   5.998   3.865   5.013
 9378TIP3    H228096   6.082   3.798   4.905
 9379TIP3   OH228097   7.623   4.269   6.150
 9379TIP3    H128098   7.558   4.225   6.091
 9379TIP3    H228099   7.590   4.361   6.140
 9380TIP3   OH228100   8.183   3.570   5.585
 9380TIP3    H128101   8.211   3.492   5.636
 9380TIP3    H228102   8.224   3.640   5.637
 9381TIP3   OH228103   8.190   3.930   5.381
 9381TIP3    H128104   8.121   3.874   5.418
 9381TIP3    H228105   8.225   3.973   5.461
 9382TIP3   OH228106   7.887   3.158   5.166
 9382TIP3    H128107   7.832   3.237   5.179
 9382TIP3    H228108   7.821   3.096   5.130
 9383TIP3   OH228109   7.929   3.454   5.328
 9383TIP3    H128110   7.968   3.370   5.359
 9383TIP3    H228111   7.991   3.478   5.258
 9384TIP3   OH228112   8.050   3.228   5.407
 9384TIP3    H128113   8.139   3.216   5.442
 9384TIP3    H228114   8.033   3.145   5.361
 9385TIP3   OH228115   7.768   3.664   4.900
 9385TIP3    H128116   7.727   3.704   4.822
 9385TIP3    H228117   7.783   3.746   4.954
 9386TIP3   OH228118   8.295   3.731   5.899
 9386TIP3    H128119   8.306   3.814   5.949
 9386TIP3    H228120   8.201   3.711   5.916
 9387TIP3   OH228121   7.817   3.998   5.467
 9387TIP3    H128122   7.898   3.973   5.513
 9387TIP3    H228123   7.780   4.065   5.527
 9388TIP3   OH228124   7.955   4.243   5.026
 9388TIP3    H128125   8.008   4.208   5.099
 9388TIP3    H228126   7.965   4.167   4.964
 9389TIP3   OH228127   7.905   2.892   5.422
 9389TIP3    H128128   7.992   2.924   5.452
 9389TIP3    H228129   7.924   2.850   5.336
 9390TIP3   OH228130   7.885   2.851   4.935
 9390TIP3    H128131   7.919   2.895   4.854
 9390TIP3    H228132   7.825   2.921   4.965
 9391TIP3   OH228133   8.311   3.935   6.090
 9391TIP3    H128134   8.388   3.988   6.062
 9391TIP3    H228135   8.243   4.005   6.099
 9392TIP3   OH228136   8.088   3.571   5.989
 9392TIP3    H128137   8.066   3.532   6.075
 9392TIP3    H228138   8.012   3.543   5.934
 9393TIP3   OH228139   7.850   3.277   4.701
 9393TIP3    H128140   7.896   3.363   4.715
 9393TIP3    H228141   7.774   3.288   4.762
 9394TIP3   OH228142   8.012   4.189   5.618
 9394TIP3    H128143   8.003   4.099   5.658
 9394TIP3    H228144   8.041   4.235   5.697
 9395TIP3   OH228145   7.962   3.516   4.777
 9395TIP3    H128146   7.896   3.571   4.824
 9395TIP3    H228147   7.999   3.578   4.712
 9396TIP3   OH228148   7.945   3.768   4.585
 9396TIP3    H128149   7.987   3.829   4.648
 9396TIP3    H228150   8.020   3.744   4.528
 9397TIP3   OH228151   7.874   3.009   4.713
 9397TIP3    H128152   7.892   3.105   4.723
 9397TIP3    H228153   7.780   3.011   4.696
 9398TIP3   OH228154   7.796   3.909   5.002
 9398TIP3    H128155   7.748   3.990   4.979
 9398TIP3    H228156   7.886   3.931   4.969
 9399TIP3   OH228157   8.083   3.875   6.273
 9399TIP3    H128158   8.140   3.807   6.238
 9399TIP3    H228159   8.020   3.888   6.199
 9400TIP3   OH228160   7.688   3.685   4.614
 9400TIP3    H128161   7.782   3.714   4.605
 9400TIP3    H228162   7.692   3.593   4.580
 9401TIP3   OH228163   7.612   4.302   5.032
 9401TIP3    H128164   7.547   4.237   4.996
 9401TIP3    H228165   7.656   4.246   5.101
 9402TIP3   OH228166   7.727   4.156   5.234
 9402TIP3    H128167   7.731   4.070   5.277
 9402TIP3    H228168   7.793   4.205   5.284
 9403TIP3   OH228169   7.911   3.546   5.591
 9403TIP3    H128170   7.897   3.519   5.498
 9403TIP3    H228171   8.008   3.564   5.587
 9404TIP3   OH228172   7.893   3.210   5.647
 9404TIP3    H128173   7.943   3.212   5.564
 9404TIP3    H228174   7.941   3.277   5.698
 9405TIP3   OH228175   7.883   2.742   5.185
 9405TIP3    H128176   7.794   2.710   5.209
 9405TIP3    H228177   7.869   2.776   5.094
 9406TIP3   OH228178   8.153   4.170   6.068
 9406TIP3    H128179   8.064   4.165   6.029
 9406TIP3    H228180   8.138   4.236   6.137
 9407TIP3   OH228181   8.346   4.214   5.599
 9407TIP3    H128182   8.281   4.277   5.564
 9407TIP3    H228183   8.429   4.262   5.586
 9408TIP3   OH228184   8.015   4.527   5.644
 9408TIP3    H128185   7.922   4.549   5.621
 9408TIP3    H228186   8.009   4.516   5.740
 9409TIP3   OH228187   8.218   4.456   5.478
 9409TIP3    H128188   8.145   4.470   5.543
 9409TIP3    H228189   8.166   4.448   5.397
 9410TIP3   OH228190   7.928   4.315   5.384
 9410TIP3    H128191   7.951   4.276   5.472
 9410TIP3    H228192   7.987   4.260   5.328
 9411TIP3   OH228193   8.115   4.170   5.256
 9411TIP3    H128194   8.125   4.077   5.282
 9411TIP3    H228195   8.207   4.196   5.244
 9412TIP3   OH228196   7.713   4.069   4.753
 9412TIP3    H128197   7.622   4.039   4.734
 9412TIP3    H228198   7.698   4.162   4.774
 9413TIP3   OH228199   7.804   4.106   4.424
 9413TIP3    H128200   7.759   4.139   4.503
 9413TIP3    H228201   7.860   4.037   4.462
 9414TIP3   OH228202   1.356   4.425   6.598
 9414TIP3    H128203   1.329   4.518   6.585
 9414TIP3    H228204   1.275   4.379   6.573
 9415TIP3   OH228205   1.348   4.425   6.975
 9415TIP3    H128206   1.387   4.410   7.064
 9415TIP3    H228207   1.306   4.339   6.957
 9416TIP3   OH228208   0.649   4.369   7.269
 9416TIP3    H128209   0.575   4.367   7.332
 9416TIP3    H228210   0.723   4.400   7.323
 9417TIP3   OH228211   1.596   4.728   6.664
 9417TIP3    H128212   1.582   4.662   6.733
 9417TIP3    H228213   1.624   4.805   6.716
 9418TIP3   OH228214   0.700   4.700   7.166
 9418TIP3    H128215   0.674   4.614   7.127
 9418TIP3    H228216   0.773   4.727   7.107
 9419TIP3   OH228217   1.249   5.195   6.679
 9419TIP3    H128218   1.292   5.121   6.632
 9419TIP3    H228219   1.232   5.156   6.766
 9420TIP3   OH228220   1.154   4.656   7.023
 9420TIP3    H128221   1.194   4.577   6.983
 9420TIP3    H228222   1.238   4.703   7.045
 9421TIP3   OH228223   2.164   3.974   7.025
 9421TIP3    H128224   2.193   4.054   7.074
 9421TIP3    H228225   2.186   3.998   6.933
 9422TIP3   OH228226   1.566   4.150   7.062
 9422TIP3    H128227   1.610   4.065   7.077
 9422TIP3    H228228   1.533   4.138   6.970
 9423TIP3   OH228229   0.924   3.802   7.011
 9423TIP3    H128230   0.896   3.877   6.954
 9423TIP3    H228231   0.876   3.728   6.967
 9424TIP3   OH228232   1.598   3.903   6.648
 9424TIP3    H128233   1.669   3.888   6.714
 9424TIP3    H228234   1.651   3.939   6.575
 9425TIP3   OH228235   0.554   4.002   7.169
 9425TIP3    H128236   0.647   3.974   7.176
 9425TIP3    H228237   0.523   3.955   7.092
 9426TIP3   OH228238   0.977   4.215   6.915
 9426TIP3    H128239   1.073   4.195   6.926
 9426TIP3    H228240   0.940   4.127   6.892
 9427TIP3   OH228241   2.234   4.179   7.201
 9427TIP3    H128242   2.151   4.227   7.183
 9427TIP3    H228243   2.264   4.221   7.283
 9428TIP3   OH228244   1.242   4.649   6.471
 9428TIP3    H128245   1.208   4.644   6.382
 9428TIP3    H228246   1.203   4.733   6.501
 9429TIP3   OH228247   1.012   4.566   7.265
 9429TIP3    H128248   0.949   4.621   7.315
 9429TIP3    H228249   1.046   4.626   7.197
 9430TIP3   OH228250   1.807   3.906   6.822
 9430TIP3    H128251   1.789   3.868   6.909
 9430TIP3    H228252   1.859   3.986   6.846
 9431TIP3   OH228253   0.804   3.900   7.235
 9431TIP3    H128254   0.860   3.975   7.265
 9431TIP3    H228255   0.854   3.867   7.158
 9432TIP3   OH228256   0.814   4.735   7.425
 9432TIP3    H128257   0.804   4.812   7.366
 9432TIP3    H228258   0.741   4.680   7.389
 9433TIP3   OH228259   1.667   4.972   6.828
 9433TIP3    H128260   1.578   4.964   6.869
 9433TIP3    H228261   1.658   5.059   6.784
 9434TIP3   OH228262   1.952   3.882   7.186
 9434TIP3    H128263   1.868   3.910   7.146
 9434TIP3    H228264   2.019   3.912   7.121
 9435TIP3   OH228265   1.277   3.520   7.159
 9435TIP3    H128266   1.267   3.448   7.095
 9435TIP3    H228267   1.182   3.542   7.176
 9436TIP3   OH228268   1.368   5.015   6.503
 9436TIP3    H128269   1.420   4.934   6.482
 9436TIP3    H228270   1.429   5.083   6.465
 9437TIP3   OH228271   1.513   4.800   6.411
 9437TIP3    H128272   1.474   4.720   6.375
 9437TIP3    H228273   1.550   4.768   6.497
 9438TIP3   OH228274   1.893   4.886   7.173
 9438TIP3    H128275   1.880   4.807   7.115
 9438TIP3    H228276   1.873   4.959   7.111
 9439TIP3   OH228277   1.182   4.274   6.429
 9439TIP3    H128278   1.106   4.329   6.405
 9439TIP3    H228279   1.235   4.274   6.347
 9440TIP3   OH228280   1.143   4.062   6.147
 9440TIP3    H128281   1.210   4.114   6.195
 9440TIP3    H228282   1.201   3.999   6.101
 9441TIP3   OH228283   2.087   4.520   7.017
 9441TIP3    H128284   2.003   4.572   7.023
 9441TIP3    H228285   2.118   4.547   6.928
 9442TIP3   OH228286   1.533   4.359   6.401
 9442TIP3    H128287   1.478   4.383   6.480
 9442TIP3    H228288   1.617   4.336   6.445
 9443TIP3   OH228289   1.767   4.394   7.317
 9443TIP3    H128290   1.769   4.472   7.376
 9443TIP3    H228291   1.684   4.411   7.269
 9444TIP3   OH228292   0.773   4.354   6.807
 9444TIP3    H128293   0.739   4.291   6.741
 9444TIP3    H228294   0.849   4.306   6.845
 9445TIP3   OH228295   0.887   4.742   6.968
 9445TIP3    H128296   0.885   4.725   6.872
 9445TIP3    H228297   0.981   4.728   6.988
 9446TIP3   OH228298   0.936   4.317   7.176
 9446TIP3    H128299   0.949   4.310   7.080
 9446TIP3    H228300   0.962   4.409   7.197
 9447TIP3   OH228301   1.426   4.969   6.947
 9447TIP3    H128302   1.414   5.048   7.003
 9447TIP3    H228303   1.411   4.895   7.010
 9448TIP3   OH228304   1.045   4.900   7.459
 9448TIP3    H128305   1.006   4.943   7.536
 9448TIP3    H228306   0.979   4.833   7.438
 9449TIP3   OH228307   1.369   4.222   6.229
 9449TIP3    H128308   1.430   4.280   6.279
 9449TIP3    H228309   1.397   4.242   6.136
 9450TIP3   OH228310   1.115   4.897   6.501
 9450TIP3    H128311   1.194   4.951   6.520
 9450TIP3    H228312   1.054   4.963   6.466
 9451TIP3   OH228313   1.887   3.460   6.276
 9451TIP3    H128314   1.806   3.481   6.327
 9451TIP3    H228315   1.902   3.543   6.228
 9452TIP3   OH228316   0.647   4.203   6.599
 9452TIP3    H128317   0.582   4.271   6.574
 9452TIP3    H228318   0.589   4.144   6.649
 9453TIP3   OH228319   1.686   4.826   5.824
 9453TIP3    H128320   1.695   4.923   5.811
 9453TIP3    H228321   1.780   4.798   5.813
 9454TIP3   OH228322   2.132   5.229   7.219
 9454TIP3    H128323   2.129   5.132   7.232
 9454TIP3    H228324   2.047   5.255   7.261
 9455TIP3   OH228325   1.251   5.019   7.336
 9455TIP3    H128326   1.241   5.109   7.372
 9455TIP3    H228327   1.176   4.973   7.380
 9456TIP3   OH228328   1.001   5.146   6.309
 9456TIP3    H128329   0.951   5.141   6.225
 9456TIP3    H228330   0.972   5.232   6.345
 9457TIP3   OH228331   1.200   5.046   5.945
 9457TIP3    H128332   1.259   4.976   5.910
 9457TIP3    H228333   1.234   5.057   6.036
 9458TIP3   OH228334   1.249   5.092   6.215
 9458TIP3    H128335   1.160   5.105   6.256
 9458TIP3    H228336   1.299   5.059   6.291
 9459TIP3   OH228337   2.030   4.357   7.485
 9459TIP3    H128338   1.937   4.379   7.468
 9459TIP3    H228339   2.033   4.261   7.469
 9460TIP3   OH228340   1.014   3.553   7.214
 9460TIP3    H128341   0.921   3.530   7.206
 9460TIP3    H228342   1.012   3.628   7.276
 9461TIP3   OH228343   1.773   4.133   7.431
 9461TIP3    H128344   1.760   4.166   7.521
 9461TIP3    H228345   1.753   4.214   7.380
 9462TIP3   OH228346   1.449   4.263   5.974
 9462TIP3    H128347   1.414   4.240   5.886
 9462TIP3    H228348   1.529   4.312   5.950
 9463TIP3   OH228349   1.161   3.640   6.277
 9463TIP3    H128350   1.126   3.636   6.368
 9463TIP3    H228351   1.121   3.559   6.240
 9464TIP3   OH228352   0.961   4.104   7.336
 9464TIP3    H128353   0.903   4.131   7.409
 9464TIP3    H228354   0.951   4.183   7.277
 9465TIP3   OH228355   0.835   3.988   6.838
 9465TIP3    H128356   0.742   3.964   6.852
 9465TIP3    H228357   0.847   3.954   6.746
 9466TIP3   OH228358   1.321   4.077   6.563
 9466TIP3    H128359   1.270   4.149   6.522
 9466TIP3    H228360   1.377   4.047   6.489
 9467TIP3   OH228361   1.481   4.106   6.804
 9467TIP3    H128362   1.419   4.140   6.737
 9467TIP3    H228363   1.513   4.026   6.757
 9468TIP3   OH228364   0.819   3.613   6.241
 9468TIP3    H128365   0.804   3.614   6.338
 9468TIP3    H228366   0.746   3.669   6.210
 9469TIP3   OH228367   1.487   4.364   7.209
 9469TIP3    H128368   1.520   4.287   7.158
 9469TIP3    H228369   1.486   4.326   7.300
 9470TIP3   OH228370   1.170   3.806   6.894
 9470TIP3    H128371   1.084   3.809   6.942
 9470TIP3    H228372   1.231   3.833   6.964
 9471TIP3   OH228373   0.607   3.824   6.891
 9471TIP3    H128374   0.539   3.773   6.846
 9471TIP3    H228375   0.676   3.756   6.901
 9472TIP3   OH228376   0.862   3.866   6.597
 9472TIP3    H128377   0.955   3.882   6.573
 9472TIP3    H228378   0.814   3.891   6.514
 9473TIP3   OH228379   1.655   3.889   7.090
 9473TIP3    H128380   1.633   3.890   7.186
 9473TIP3    H228381   1.583   3.833   7.056
 9474TIP3   OH228382   0.714   3.902   6.377
 9474TIP3    H128383   0.628   3.862   6.357
 9474TIP3    H228384   0.749   3.924   6.289
 9475TIP3   OH228385   1.828   5.579   7.317
 9475TIP3    H128386   1.818   5.603   7.223
 9475TIP3    H228387   1.905   5.632   7.343
 9476TIP3   OH228388   1.239   4.152   6.969
 9476TIP3    H128389   1.322   4.114   6.939
 9476TIP3    H228390   1.230   4.113   7.059
 9477TIP3   OH228391   0.785   3.618   6.868
 9477TIP3    H128392   0.740   3.543   6.914
 9477TIP3    H228393   0.812   3.575   6.786
 9478TIP3   OH228394   1.207   4.034   7.214
 9478TIP3    H128395   1.123   4.062   7.255
 9478TIP3    H228396   1.263   4.020   7.292
 9479TIP3   OH228397   0.951   4.426   6.374
 9479TIP3    H128398   0.891   4.350   6.391
 9479TIP3    H228399   0.941   4.473   6.460
 9480TIP3   OH228400   1.855   4.668   7.009
 9480TIP3    H128401   1.879   4.719   6.929
 9480TIP3    H228402   1.770   4.626   6.984
 9481TIP3   OH228403   1.413   3.743   6.242
 9481TIP3    H128404   1.317   3.725   6.252
 9481TIP3    H228405   1.422   3.837   6.268
 9482TIP3   OH228406   1.356   4.749   7.358
 9482TIP3    H128407   1.364   4.728   7.452
 9482TIP3    H228408   1.316   4.838   7.363
 9483TIP3   OH228409   1.482   3.992   6.345
 9483TIP3    H128410   1.578   3.997   6.363
 9483TIP3    H228411   1.466   4.073   6.294
 9484TIP3   OH228412   0.642   4.470   7.022
 9484TIP3    H128413   0.699   4.420   6.959
 9484TIP3    H228414   0.649   4.416   7.104
 9485TIP3   OH228415   1.094   4.575   6.195
 9485TIP3    H128416   1.055   4.666   6.198
 9485TIP3    H228417   1.052   4.535   6.274
 9486TIP3   OH228418   1.516   5.008   7.255
 9486TIP3    H128419   1.422   5.011   7.280
 9486TIP3    H228420   1.559   5.048   7.334
 9487TIP3   OH228421   1.923   4.083   6.183
 9487TIP3    H128422   1.861   4.039   6.120
 9487TIP3    H228423   1.920   4.173   6.143
 9488TIP3   OH228424   2.142   4.942   7.262
 9488TIP3    H128425   2.044   4.933   7.251
 9488TIP3    H228426   2.171   4.911   7.173
 9489TIP3   OH228427   1.624   4.901   6.089
 9489TIP3    H128428   1.599   4.833   6.153
 9489TIP3    H228429   1.638   4.852   6.007
 9490TIP3   OH228430   1.621   4.531   6.925
 9490TIP3    H128431   1.527   4.508   6.939
 9490TIP3    H228432   1.653   4.450   6.881
 9491TIP3   OH228433   0.746   4.751   6.670
 9491TIP3    H128434   0.744   4.839   6.626
 9491TIP3    H228435   0.651   4.735   6.681
 9492TIP3   OH228436   0.886   4.522   6.613
 9492TIP3    H128437   0.851   4.611   6.635
 9492TIP3    H228438   0.857   4.471   6.691
 9493TIP3   OH228439   1.021   5.104   7.157
 9493TIP3    H128440   1.058   5.171   7.095
 9493TIP3    H228441   1.102   5.075   7.201
 9494TIP3   OH228442   0.660   4.990   6.548
 9494TIP3    H128443   0.576   5.031   6.522
 9494TIP3    H228444   0.716   5.071   6.554
 9495TIP3   OH228445   1.410   4.730   7.094
 9495TIP3    H128446   1.396   4.732   7.192
 9495TIP3    H228447   1.493   4.680   7.089
 9496TIP3   OH228448   1.382   4.624   5.993
 9496TIP3    H128449   1.438   4.598   6.070
 9496TIP3    H228450   1.294   4.607   6.028
 9497TIP3   OH228451   1.653   5.269   7.159
 9497TIP3    H128452   1.574   5.212   7.150
 9497TIP3    H228453   1.639   5.332   7.086
 9498TIP3   OH228454   1.719   5.102   5.811
 9498TIP3    H128455   1.755   5.175   5.758
 9498TIP3    H228456   1.639   5.146   5.846
 9499TIP3   OH228457   1.541   4.558   6.208
 9499TIP3    H128458   1.532   4.493   6.280
 9499TIP3    H228459   1.638   4.558   6.196
 9500TIP3   OH228460   0.731   4.617   5.986
 9500TIP3    H128461   0.707   4.544   5.926
 9500TIP3    H228462   0.678   4.600   6.066
 9501TIP3   OH228463   0.725   4.605   6.270
 9501TIP3    H128464   0.723   4.604   6.366
 9501TIP3    H228465   0.716   4.702   6.256
 9502TIP3   OH228466   1.596   3.917   7.361
 9502TIP3    H128467   1.656   3.992   7.377
 9502TIP3    H228468   1.535   3.925   7.435
 9503TIP3   OH228469   1.456   3.693   6.526
 9503TIP3    H128470   1.443   3.716   6.432
 9503TIP3    H228471   1.496   3.775   6.562
 9504TIP3   OH228472   0.969   4.811   6.205
 9504TIP3    H128473   0.883   4.831   6.246
 9504TIP3    H228474   0.983   4.894   6.156
 9505TIP3   OH228475   1.144   3.875   6.625
 9505TIP3    H128476   1.208   3.947   6.606
 9505TIP3    H228477   1.154   3.867   6.722
 9506TIP3   OH228478   1.493   4.242   7.455
 9506TIP3    H128479   1.451   4.292   7.525
 9506TIP3    H228480   1.446   4.156   7.461
 9507TIP3   OH228481   1.287   3.600   6.728
 9507TIP3    H128482   1.274   3.679   6.785
 9507TIP3    H228483   1.350   3.635   6.661
 9508TIP3   OH228484   0.713   4.877   6.277
 9508TIP3    H128485   0.668   4.938   6.214
 9508TIP3    H228486   0.683   4.916   6.361
 9509TIP3   OH228487   0.801   3.601   6.521
 9509TIP3    H128488   0.801   3.693   6.553
 9509TIP3    H228489   0.897   3.582   6.524
 9510TIP3   OH228490   2.047   4.086   7.418
 9510TIP3    H128491   1.949   4.077   7.416
 9510TIP3    H228492   2.070   4.055   7.329
 9511TIP3   OH228493   1.706   4.287   6.802
 9511TIP3    H128494   1.631   4.227   6.816
 9511TIP3    H228495   1.778   4.242   6.851
 9512TIP3   OH228496   0.445   3.803   6.381
 9512TIP3    H128497   0.382   3.866   6.343
 9512TIP3    H228498   0.411   3.718   6.348
 9513TIP3   OH228499   1.675   5.243   6.752
 9513TIP3    H128500   1.632   5.290   6.677
 9513TIP3    H228501   1.769   5.262   6.730
 9514TIP3   OH228502   0.915   4.816   5.900
 9514TIP3    H128503   0.863   4.743   5.940
 9514TIP3    H228504   0.989   4.766   5.859
 9515TIP3   OH228505   1.621   5.112   7.487
 9515TIP3    H128506   1.550   5.100   7.553
 9515TIP3    H228507   1.669   5.188   7.525
 9516TIP3   OH228508   1.345   4.850   5.814
 9516TIP3    H128509   1.396   4.793   5.873
 9516TIP3    H228510   1.400   4.852   5.733
 9517TIP3   OH228511   0.609   4.325   6.134
 9517TIP3    H128512   0.591   4.250   6.192
 9517TIP3    H228513   0.629   4.284   6.048
 9518TIP3   OH228514   1.058   4.525   5.932
 9518TIP3    H128515   1.075   4.540   6.027
 9518TIP3    H228516   1.066   4.427   5.926
 9519TIP3   OH228517   1.671   4.776   7.301
 9519TIP3    H128518   1.746   4.823   7.261
 9519TIP3    H228519   1.598   4.839   7.285
 9520TIP3   OH228520   0.775   4.226   6.349
 9520TIP3    H128521   0.732   4.196   6.432
 9520TIP3    H228522   0.802   4.141   6.307
 9521TIP3   OH228523   0.864   4.027   6.180
 9521TIP3    H128524   0.841   4.024   6.085
 9521TIP3    H228525   0.962   4.025   6.176
 9522TIP3   OH228526   1.684   4.356   5.852
 9522TIP3    H128527   1.662   4.312   5.767
 9522TIP3    H228528   1.651   4.447   5.831
 9523TIP3   OH228529   1.208   4.392   7.376
 9523TIP3    H128530   1.278   4.425   7.319
 9523TIP3    H228531   1.133   4.448   7.349
 9524TIP3   OH228532   1.813   4.618   7.469
 9524TIP3    H128533   1.746   4.677   7.427
 9524TIP3    H228534   1.895   4.657   7.433
 9525TIP3   OH228535   0.677   5.095   6.088
 9525TIP3    H128536   0.774   5.085   6.081
 9525TIP3    H228537   0.657   5.118   5.996
 9526TIP3   OH228538   1.930   5.331   6.710
 9526TIP3    H128539   1.953   5.367   6.797
 9526TIP3    H228540   1.989   5.381   6.651
 9527TIP3   OH228541   1.956   5.354   6.991
 9527TIP3    H128542   1.911   5.267   6.986
 9527TIP3    H228543   2.032   5.330   7.045
 9528TIP3   OH228544   1.996   5.036   7.567
 9528TIP3    H128545   1.903   5.059   7.564
 9528TIP3    H228546   2.040   5.123   7.566
 9529TIP3   OH228547   1.819   4.544   6.184
 9529TIP3    H128548   1.886   4.609   6.154
 9529TIP3    H228549   1.864   4.506   6.263
 9530TIP3   OH228550   1.947   4.411   6.387
 9530TIP3    H128551   1.881   4.370   6.448
 9530TIP3    H228552   2.013   4.449   6.450
 9531TIP3   OH228553   2.003   4.805   6.820
 9531TIP3    H128554   2.055   4.739   6.771
 9531TIP3    H228555   1.996   4.878   6.756
 9532TIP3   OH228556   1.831   5.105   7.014
 9532TIP3    H128557   1.758   5.147   7.064
 9532TIP3    H228558   1.782   5.058   6.943
 9533TIP3   OH228559   1.885   4.319   6.034
 9533TIP3    H128560   1.814   4.322   5.966
 9533TIP3    H228561   1.858   4.394   6.090
 9534TIP3   OH228562   1.757   3.992   5.988
 9534TIP3    H128563   1.712   4.031   5.912
 9534TIP3    H228564   1.732   3.897   5.978
 9535TIP3   OH228565   1.761   4.269   6.534
 9535TIP3    H128566   1.770   4.173   6.529
 9535TIP3    H228567   1.746   4.284   6.630
 9536TIP3   OH228568   2.060   4.701   7.392
 9536TIP3    H128569   2.125   4.628   7.381
 9536TIP3    H228570   2.085   4.764   7.323
 9537TIP3   OH228571   2.239   4.502   7.400
 9537TIP3    H128572   2.167   4.450   7.442
 9537TIP3    H228573   2.314   4.442   7.419
 9538TIP3   OH228574   1.700   3.725   5.971
 9538TIP3    H128575   1.775   3.696   6.027
 9538TIP3    H228576   1.627   3.666   5.997
 9539TIP3   OH228577   1.756   3.983   6.428
 9539TIP3    H128578   1.797   3.895   6.443
 9539TIP3    H228579   1.816   4.017   6.359
 9540TIP3   OH228580   1.918   4.156   6.923
 9540TIP3    H128581   2.004   4.181   6.883
 9540TIP3    H228582   1.931   4.195   7.012
 9541TIP3   OH228583   1.985   4.301   7.153
 9541TIP3    H128584   1.912   4.337   7.207
 9541TIP3    H228585   2.019   4.382   7.110
 9542TIP3   OH228586   1.867   3.734   6.466
 9542TIP3    H128587   1.916   3.720   6.549
 9542TIP3    H228588   1.806   3.657   6.466
 9543TIP3   OH228589   2.300   4.040   7.526
 9543TIP3    H128590   2.204   4.057   7.512
 9543TIP3    H228591   2.306   3.954   7.480
 9544TIP3   OH228592   1.946   3.669   6.099
 9544TIP3    H128593   1.988   3.597   6.047
 9544TIP3    H228594   2.014   3.739   6.097
 9545TIP3   OH228595   1.514   5.197   6.366
 9545TIP3    H128596   1.565   5.189   6.283
 9545TIP3    H228597   1.562   5.269   6.412
 9546TIP3   OH228598   0.820   4.970   7.295
 9546TIP3    H128599   0.789   5.040   7.357
 9546TIP3    H228600   0.896   5.015   7.254
 9547TIP3   OH228601   1.240   5.273   7.437
 9547TIP3    H128602   1.294   5.249   7.515
 9547TIP3    H228603   1.302   5.330   7.386
 9548TIP3   OH228604   1.412   5.429   7.293
 9548TIP3    H128605   1.485   5.383   7.249
 9548TIP3    H228606   1.462   5.494   7.348
 9549TIP3   OH228607   2.233   3.809   7.368
 9549TIP3    H128608   2.141   3.810   7.396
 9549TIP3    H228609   2.250   3.712   7.365
 9550TIP3   OH228610   1.138   5.296   6.983
 9550TIP3    H128611   1.070   5.311   6.915
 9550TIP3    H228612   1.145   5.385   7.023
 9551TIP3   OH228613   1.404   5.240   7.031
 9551TIP3    H128614   1.308   5.254   7.014
 9551TIP3    H228615   1.442   5.317   6.987
 9552TIP3   OH228616   1.609   5.433   6.945
 9552TIP3    H128617   1.592   5.517   6.896
 9552TIP3    H228618   1.632   5.372   6.871
 9553TIP3   OH228619   0.892   5.067   6.880
 9553TIP3    H128620   0.860   4.978   6.861
 9553TIP3    H228621   0.881   5.070   6.976
 9554TIP3   OH228622   1.431   3.719   7.018
 9554TIP3    H128623   1.377   3.648   7.056
 9554TIP3    H228624   1.499   3.671   6.967
 9555TIP3   OH228625   1.935   3.588   6.917
 9555TIP3    H128626   1.973   3.642   6.844
 9555TIP3    H228627   1.841   3.614   6.914
 9556TIP3   OH228628   2.031   3.690   6.682
 9556TIP3    H128629   2.106   3.639   6.643
 9556TIP3    H228630   2.065   3.782   6.669
 9557TIP3   OH228631   0.673   3.415   7.004
 9557TIP3    H128632   0.579   3.388   7.010
 9557TIP3    H228633   0.717   3.332   7.029
 9558TIP3   OH228634   0.471   3.293   6.696
 9558TIP3    H128635   0.485   3.327   6.606
 9558TIP3    H228636   0.417   3.365   6.734
 9559TIP3   OH228637   1.119   3.450   6.920
 9559TIP3    H128638   1.166   3.498   6.850
 9559TIP3    H228639   1.080   3.522   6.972
 9560TIP3   OH228640   1.646   3.595   6.893
 9560TIP3    H128641   1.657   3.558   6.805
 9560TIP3    H228642   1.635   3.514   6.948
 9561TIP3   OH228643   1.682   3.521   6.457
 9561TIP3    H128644   1.596   3.564   6.470
 9561TIP3    H228645   1.668   3.436   6.504
 9562TIP3   OH228646   0.567   3.443   6.446
 9562TIP3    H128647   0.613   3.381   6.386
 9562TIP3    H228648   0.641   3.496   6.482
 9563TIP3   OH228649   1.078   3.624   6.541
 9563TIP3    H128650   1.143   3.578   6.598
 9563TIP3    H228651   1.099   3.717   6.565
 9564TIP3   OH228652   0.943   5.048   6.041
 9564TIP3    H128653   1.031   5.073   6.006
 9564TIP3    H228654   0.923   4.973   5.980
 9565TIP3   OH228655   1.659   5.168   6.132
 9565TIP3    H128656   1.649   5.071   6.122
 9565TIP3    H228657   1.611   5.200   6.053
 9566TIP3   OH228658   1.885   5.310   7.313
 9566TIP3    H128659   1.806   5.278   7.264
 9566TIP3    H228660   1.867   5.407   7.312
 9567TIP3   OH228661   3.150   4.683   6.087
 9567TIP3    H128662   3.121   4.774   6.067
 9567TIP3    H228663   3.073   4.634   6.054
 9568TIP3   OH228664   3.150   4.684   6.468
 9568TIP3    H128665   3.182   4.656   6.556
 9568TIP3    H228666   3.108   4.603   6.436
 9569TIP3   OH228667   2.448   4.577   6.832
 9569TIP3    H128668   2.477   4.509   6.895
 9569TIP3    H228669   2.524   4.637   6.834
 9570TIP3   OH228670   3.393   4.985   6.150
 9570TIP3    H128671   3.378   4.916   6.216
 9570TIP3    H228672   3.422   5.060   6.205
 9571TIP3   OH228673   2.419   4.988   6.557
 9571TIP3    H128674   2.411   4.890   6.559
 9571TIP3    H228675   2.516   4.997   6.552
 9572TIP3   OH228676   2.127   4.189   6.341
 9572TIP3    H128677   2.082   4.273   6.359
 9572TIP3    H228678   2.054   4.138   6.301
 9573TIP3   OH228679   2.184   4.478   6.514
 9573TIP3    H128680   2.234   4.401   6.551
 9573TIP3    H228681   2.247   4.513   6.450
 9574TIP3   OH228682   3.042   5.449   6.166
 9574TIP3    H128683   3.087   5.378   6.116
 9574TIP3    H228684   3.033   5.408   6.253
 9575TIP3   OH228685   2.947   4.910   6.516
 9575TIP3    H128686   2.986   4.833   6.471
 9575TIP3    H228687   3.031   4.956   6.541
 9576TIP3   OH228688   3.962   4.229   6.515
 9576TIP3    H128689   3.991   4.312   6.556
 9576TIP3    H228690   3.983   4.246   6.421
 9577TIP3   OH228691   3.360   4.410   6.548
 9577TIP3    H128692   3.402   4.325   6.569
 9577TIP3    H228693   3.329   4.394   6.457
 9578TIP3   OH228694   2.699   4.070   6.513
 9578TIP3    H128695   2.679   4.143   6.451
 9578TIP3    H228696   2.650   3.997   6.469
 9579TIP3   OH228697   3.393   4.162   6.135
 9579TIP3    H128698   3.464   4.145   6.201
 9579TIP3    H228699   3.446   4.197   6.061
 9580TIP3   OH228700   2.332   4.272   6.620
 9580TIP3    H128701   2.414   4.254   6.669
 9580TIP3    H228702   2.347   4.216   6.541
 9581TIP3   OH228703   2.773   4.469   6.413
 9581TIP3    H128704   2.867   4.444   6.426
 9581TIP3    H228705   2.734   4.385   6.381
 9582TIP3   OH228706   4.035   4.436   6.685
 9582TIP3    H128707   3.952   4.484   6.663
 9582TIP3    H228708   4.044   4.459   6.778
 9583TIP3   OH228709   2.694   4.052   6.948
 9583TIP3    H128710   2.634   4.091   6.881
 9583TIP3    H228711   2.642   4.070   7.029
 9584TIP3   OH228712   3.039   4.904   5.956
 9584TIP3    H128713   2.998   4.888   5.871
 9584TIP3    H228714   2.996   4.988   5.983
 9585TIP3   OH228715   2.801   4.829   6.742
 9585TIP3    H128716   2.739   4.895   6.781
 9585TIP3    H228717   2.842   4.880   6.669
 9586TIP3   OH228718   3.602   4.164   6.309
 9586TIP3    H128719   3.589   4.118   6.393
 9586TIP3    H228720   3.654   4.242   6.335
 9587TIP3   OH228721   2.565   4.169   6.732
 9587TIP3    H128722   2.627   4.241   6.757
 9587TIP3    H228723   2.615   4.129   6.657
 9588TIP3   OH228724   2.629   5.023   6.841
 9588TIP3    H128725   2.603   5.110   6.804
 9588TIP3    H228726   2.550   5.006   6.897
 9589TIP3   OH228727   2.022   4.713   6.076
 9589TIP3    H128728   1.982   4.743   5.993
 9589TIP3    H228729   2.054   4.798   6.114
 9590TIP3   OH228730   3.463   5.230   6.317
 9590TIP3    H128731   3.373   5.221   6.357
 9590TIP3    H228732   3.454   5.315   6.271
 9591TIP3   OH228733   3.755   4.129   6.680
 9591TIP3    H128734   3.667   4.156   6.649
 9591TIP3    H228735   3.814   4.162   6.609
 9592TIP3   OH228736   3.049   3.772   6.661
 9592TIP3    H128737   3.035   3.678   6.679
 9592TIP3    H228738   2.973   3.811   6.709
 9593TIP3   OH228739   3.164   5.274   5.991
 9593TIP3    H128740   3.213   5.192   5.971
 9593TIP3    H228741   3.227   5.339   5.951
 9594TIP3   OH228742   3.307   5.060   5.899
 9594TIP3    H128743   3.271   4.980   5.858
 9594TIP3    H228744   3.343   5.024   5.983
 9595TIP3   OH228745   3.689   5.141   6.660
 9595TIP3    H128746   3.677   5.063   6.602
 9595TIP3    H228747   3.671   5.215   6.599
 9596TIP3   OH228748   2.980   4.534   5.918
 9596TIP3    H128749   2.901   4.588   5.897
 9596TIP3    H228750   3.027   4.533   5.833
 9597TIP3   OH228751   2.939   4.320   5.632
 9597TIP3    H128752   3.004   4.372   5.682
 9597TIP3    H228753   2.998   4.257   5.586
 9598TIP3   OH228754   3.884   4.778   6.506
 9598TIP3    H128755   3.800   4.830   6.510
 9598TIP3    H228756   3.914   4.803   6.416
 9599TIP3   OH228757   3.328   4.617   5.889
 9599TIP3    H128758   3.274   4.641   5.968
 9599TIP3    H228759   3.413   4.593   5.932
 9600TIP3   OH228760   3.562   4.657   6.803
 9600TIP3    H128761   3.559   4.740   6.853
 9600TIP3    H228762   3.476   4.661   6.757
 9601TIP3   OH228763   2.560   4.615   6.307
 9601TIP3    H128764   2.520   4.557   6.239
 9601TIP3    H228765   2.637   4.561   6.336
 9602TIP3   OH228766   2.691   5.027   6.455
 9602TIP3    H128767   2.669   4.988   6.369
 9602TIP3    H228768   2.780   4.991   6.472
 9603TIP3   OH228769   2.699   4.586   6.660
 9603TIP3    H128770   2.731   4.564   6.570
 9603TIP3    H228771   2.741   4.672   6.679
 9604TIP3   OH228772   3.222   5.225   6.438
 9604TIP3    H128773   3.209   5.304   6.493
 9604TIP3    H228774   3.206   5.151   6.500
 9605TIP3   OH228775   2.834   5.144   6.983
 9605TIP3    H128776   2.774   5.205   7.030
 9605TIP3    H228777   2.769   5.090   6.934
 9606TIP3   OH228778   3.167   4.476   5.715
 9606TIP3    H128779   3.226   4.536   5.766
 9606TIP3    H228780   3.194   4.498   5.622
 9607TIP3   OH228781   2.588   4.700   7.082
 9607TIP3    H128782   2.595   4.785   7.130
 9607TIP3    H228783   2.495   4.679   7.100
 9608TIP3   OH228784   2.912   5.155   5.991
 9608TIP3    H128785   2.992   5.208   6.005
 9608TIP3    H228786   2.851   5.217   5.950
 9609TIP3   OH228787   2.628   5.312   7.072
 9609TIP3    H128788   2.593   5.312   6.981
 9609TIP3    H228789   2.549   5.290   7.125
 9610TIP3   OH228790   3.684   3.716   5.764
 9610TIP3    H128791   3.603   3.738   5.814
 9610TIP3    H228792   3.699   3.799   5.714
 9611TIP3   OH228793   2.428   4.458   6.109
 9611TIP3    H128794   2.360   4.503   6.054
 9611TIP3    H228795   2.386   4.372   6.124
 9612TIP3   OH228796   3.483   5.083   5.313
 9612TIP3    H128797   3.492   5.179   5.297
 9612TIP3    H228798   3.576   5.053   5.300
 9613TIP3   OH228799   2.208   4.842   7.019
 9613TIP3    H128800   2.141   4.820   6.951
 9613TIP3    H228801   2.246   4.755   7.042
 9614TIP3   OH228802   2.061   5.035   6.650
 9614TIP3    H128803   2.158   5.032   6.643
 9614TIP3    H228804   2.049   5.115   6.704
 9615TIP3   OH228805   3.925   5.487   6.706
 9615TIP3    H128806   3.924   5.390   6.720
 9615TIP3    H228807   3.842   5.511   6.753
 9616TIP3   OH228808   3.031   5.271   6.842
 9616TIP3    H128809   3.030   5.363   6.875
 9616TIP3    H228810   2.959   5.231   6.895
 9617TIP3   OH228811   2.794   5.400   5.794
 9617TIP3    H128812   2.748   5.384   5.710
 9617TIP3    H228813   2.761   5.489   5.819
 9618TIP3   OH228814   2.231   5.250   6.179
 9618TIP3    H128815   2.279   5.241   6.264
 9618TIP3    H228816   2.172   5.173   6.184
 9619TIP3   OH228817   2.994   5.302   5.433
 9619TIP3    H128818   3.053   5.233   5.396
 9619TIP3    H228819   3.029   5.312   5.524
 9620TIP3   OH228820   3.045   5.350   5.703
 9620TIP3    H128821   2.956   5.360   5.744
 9620TIP3    H228822   3.095   5.310   5.775
 9621TIP3   OH228823   3.816   4.615   6.982
 9621TIP3    H128824   3.733   4.630   6.933
 9621TIP3    H228825   3.828   4.519   6.969
 9622TIP3   OH228826   2.411   5.026   7.007
 9622TIP3    H128827   2.463   5.008   7.088
 9622TIP3    H228828   2.338   4.962   7.014
 9623TIP3   OH228829   2.812   3.848   6.792
 9623TIP3    H128830   2.723   3.818   6.764
 9623TIP3    H228831   2.787   3.930   6.839
 9624TIP3   OH228832   3.346   3.963   6.985
 9624TIP3    H128833   3.414   3.935   7.050
 9624TIP3    H228834   3.262   3.944   7.032
 9625TIP3   OH228835   3.579   4.393   6.903
 9625TIP3    H128836   3.530   4.390   6.988
 9625TIP3    H228837   3.557   4.482   6.869
 9626TIP3   OH228838   3.243   4.521   5.459
 9626TIP3    H128839   3.210   4.497   5.370
 9626TIP3    H228840   3.326   4.568   5.436
 9627TIP3   OH228841   2.955   3.898   5.762
 9627TIP3    H128842   2.923   3.894   5.855
 9627TIP3    H228843   2.918   3.815   5.728
 9628TIP3   OH228844   2.743   4.364   6.810
 9628TIP3    H128845   2.693   4.387   6.892
 9628TIP3    H228846   2.727   4.445   6.757
 9629TIP3   OH228847   2.628   4.250   6.324
 9629TIP3    H128848   2.535   4.224   6.342
 9629TIP3    H228849   2.640   4.209   6.235
 9630TIP3   OH228850   3.118   4.335   6.051
 9630TIP3    H128851   3.066   4.406   6.009
 9630TIP3    H228852   3.173   4.303   5.977
 9631TIP3   OH228853   3.293   4.616   7.135
 9631TIP3    H128854   3.270   4.543   7.197
 9631TIP3    H228855   3.387   4.630   7.159
 9632TIP3   OH228856   3.274   4.364   6.290
 9632TIP3    H128857   3.214   4.393   6.220
 9632TIP3    H228858   3.308   4.283   6.246
 9633TIP3   OH228859   2.562   4.393   7.019
 9633TIP3    H128860   2.589   4.457   7.086
 9633TIP3    H228861   2.552   4.311   7.072
 9634TIP3   OH228862   2.610   3.870   5.728
 9634TIP3    H128863   2.603   3.869   5.825
 9634TIP3    H228864   2.534   3.925   5.704
 9635TIP3   OH228865   2.156   3.913   6.598
 9635TIP3    H128866   2.229   3.947   6.654
 9635TIP3    H228867   2.201   3.884   6.518
 9636TIP3   OH228868   2.126   3.895   6.118
 9636TIP3    H128869   2.173   3.932   6.040
 9636TIP3    H228870   2.066   3.970   6.138
 9637TIP3   OH228871   3.285   4.610   6.712
 9637TIP3    H128872   3.318   4.538   6.654
 9637TIP3    H228873   3.256   4.557   6.789
 9638TIP3   OH228874   2.955   4.071   6.384
 9638TIP3    H128875   2.873   4.071   6.438
 9638TIP3    H228876   3.024   4.070   6.453
 9639TIP3   OH228877   2.389   4.128   6.392
 9639TIP3    H128878   2.295   4.136   6.365
 9639TIP3    H228879   2.412   4.037   6.369
 9640TIP3   OH228880   2.657   4.122   6.082
 9640TIP3    H128881   2.751   4.139   6.061
 9640TIP3    H228882   2.611   4.145   5.998
 9641TIP3   OH228883   3.448   4.148   6.586
 9641TIP3    H128884   3.415   4.161   6.678
 9641TIP3    H228885   3.380   4.087   6.551
 9642TIP3   OH228886   2.501   4.156   5.859
 9642TIP3    H128887   2.429   4.114   5.810
 9642TIP3    H228888   2.553   4.194   5.785
 9643TIP3   OH228889   3.617   5.840   6.804
 9643TIP3    H128890   3.616   5.859   6.708
 9643TIP3    H228891   3.702   5.881   6.831
 9644TIP3   OH228892   2.577   4.949   7.224
 9644TIP3    H128893   2.656   4.977   7.274
 9644TIP3    H228894   2.512   4.942   7.297
 9645TIP3   OH228895   3.037   4.400   6.482
 9645TIP3    H128896   3.112   4.362   6.433
 9645TIP3    H228897   3.045   4.357   6.569
 9646TIP3   OH228898   2.559   3.889   6.361
 9646TIP3    H128899   2.524   3.810   6.409
 9646TIP3    H228900   2.611   3.848   6.290
 9647TIP3   OH228901   3.014   4.298   6.773
 9647TIP3    H128902   2.924   4.335   6.786
 9647TIP3    H228903   3.071   4.360   6.822
 9648TIP3   OH228904   2.751   4.688   5.866
 9648TIP3    H128905   2.678   4.623   5.856
 9648TIP3    H228906   2.732   4.722   5.957
 9649TIP3   OH228907   3.651   4.924   6.496
 9649TIP3    H128908   3.674   4.975   6.415
 9649TIP3    H228909   3.566   4.881   6.470
 9650TIP3   OH228910   3.209   3.999   5.730
 9650TIP3    H128911   3.112   3.983   5.738
 9650TIP3    H228912   3.218   4.093   5.754
 9651TIP3   OH228913   3.153   5.008   6.863
 9651TIP3    H128914   3.173   4.983   6.954
 9651TIP3    H228915   3.110   5.095   6.873
 9652TIP3   OH228916   3.278   4.248   5.833
 9652TIP3    H128917   3.374   4.254   5.849
 9652TIP3    H228918   3.260   4.329   5.781
 9653TIP3   OH228919   2.442   4.709   6.543
 9653TIP3    H128920   2.482   4.680   6.458
 9653TIP3    H228921   2.485   4.649   6.606
 9654TIP3   OH228922   2.895   4.837   5.687
 9654TIP3    H128923   2.847   4.923   5.692
 9654TIP3    H228924   2.841   4.783   5.749
 9655TIP3   OH228925   2.326   4.631   7.155
 9655TIP3    H128926   2.349   4.622   7.249
 9655TIP3    H228927   2.258   4.563   7.145
 9656TIP3   OH228928   3.051   4.747   7.173
 9656TIP3    H128929   2.990   4.684   7.131
 9656TIP3    H228930   3.138   4.711   7.146
 9657TIP3   OH228931   3.310   5.271   6.758
 9657TIP3    H128932   3.214   5.264   6.773
 9657TIP3    H228933   3.337   5.320   6.838
 9658TIP3   OH228934   3.719   4.340   5.670
 9658TIP3    H128935   3.657   4.296   5.607
 9658TIP3    H228936   3.717   4.429   5.629
 9659TIP3   OH228937   3.939   5.198   6.748
 9659TIP3    H128938   3.842   5.191   6.740
 9659TIP3    H228939   3.965   5.166   6.659
 9660TIP3   OH228940   3.421   5.157   5.577
 9660TIP3    H128941   3.395   5.086   5.638
 9660TIP3    H228942   3.434   5.111   5.492
 9661TIP3   OH228943   3.417   4.786   6.414
 9661TIP3    H128944   3.323   4.762   6.428
 9661TIP3    H228945   3.450   4.706   6.369
 9662TIP3   OH228946   2.545   5.014   6.167
 9662TIP3    H128947   2.543   5.096   6.113
 9662TIP3    H228948   2.451   4.998   6.180
 9663TIP3   OH228949   2.108   4.318   5.871
 9663TIP3    H128950   2.153   4.402   5.892
 9663TIP3    H228951   2.031   4.322   5.932
 9664TIP3   OH228952   2.680   4.778   6.111
 9664TIP3    H128953   2.646   4.868   6.129
 9664TIP3    H228954   2.645   4.728   6.186
 9665TIP3   OH228955   2.813   5.358   6.636
 9665TIP3    H128956   2.855   5.431   6.586
 9665TIP3    H228957   2.889   5.321   6.684
 9666TIP3   OH228958   2.463   5.253   6.019
 9666TIP3    H128959   2.378   5.262   6.066
 9666TIP3    H228960   2.496   5.345   6.022
 9667TIP3   OH228961   3.201   4.991   6.595
 9667TIP3    H128962   3.191   4.990   6.693
 9667TIP3    H228963   3.281   4.937   6.584
 9668TIP3   OH228964   3.177   4.884   5.479
 9668TIP3    H128965   3.230   4.859   5.558
 9668TIP3    H228966   3.088   4.859   5.509
 9669TIP3   OH228967   3.449   5.527   6.648
 9669TIP3    H128968   3.371   5.469   6.642
 9669TIP3    H228969   3.432   5.589   6.573
 9670TIP3   OH228970   3.515   5.358   5.298
 9670TIP3    H128971   3.552   5.430   5.244
 9670TIP3    H228972   3.436   5.404   5.332
 9671TIP3   OH228973   2.535   4.134   7.162
 9671TIP3    H128974   2.439   4.140   7.179
 9671TIP3    H228975   2.565   4.079   7.236
 9672TIP3   OH228976   3.337   4.819   5.696
 9672TIP3    H128977   3.327   4.752   5.767
 9672TIP3    H228978   3.434   4.815   5.683
 9673TIP3   OH228979   2.252   5.218   6.795
 9673TIP3    H128980   2.306   5.145   6.830
 9673TIP3    H228981   2.279   5.291   6.853
 9674TIP3   OH228982   2.541   4.865   5.478
 9674TIP3    H128983   2.557   4.772   5.452
 9674TIP3    H228984   2.522   4.855   5.573
 9675TIP3   OH228985   2.488   4.870   5.750
 9675TIP3    H128986   2.560   4.844   5.808
 9675TIP3    H228987   2.490   4.968   5.757
 9676TIP3   OH228988   2.221   4.563   5.954
 9676TIP3    H128989   2.155   4.608   6.011
 9676TIP3    H228990   2.235   4.632   5.886
 9677TIP3   OH228991   3.374   4.198   6.844
 9677TIP3    H128992   3.451   4.239   6.885
 9677TIP3    H228993   3.360   4.118   6.900
 9678TIP3   OH228994   3.253   3.950   6.012
 9678TIP3    H128995   3.240   3.973   5.918
 9678TIP3    H228996   3.292   4.033   6.048
 9679TIP3   OH228997   2.753   5.067   5.698
 9679TIP3    H128998   2.667   5.092   5.735
 9679TIP3    H228999   2.769   5.142   5.639
 9680TIP3   OH229000   2.940   4.132   6.113
 9680TIP3    H129001   3.004   4.204   6.096
 9680TIP3    H229002   2.946   4.123   6.211
 9681TIP3   OH229003   3.211   4.449   6.920
 9681TIP3    H129004   3.231   4.504   6.999
 9681TIP3    H229005   3.264   4.370   6.936
 9682TIP3   OH229006   3.085   3.856   6.214
 9682TIP3    H129007   3.079   3.932   6.274
 9682TIP3    H229008   3.146   3.891   6.146
 9683TIP3   OH229009   2.497   5.142   5.767
 9683TIP3    H129010   2.467   5.212   5.705
 9683TIP3    H229011   2.481   5.185   5.854
 9684TIP3   OH229012   2.597   3.857   6.004
 9684TIP3    H129013   2.595   3.948   6.041
 9684TIP3    H229014   2.693   3.839   6.013
 9685TIP3   OH229015   3.845   4.350   6.899
 9685TIP3    H129016   3.747   4.349   6.907
 9685TIP3    H229017   3.854   4.307   6.813
 9686TIP3   OH229018   3.502   4.544   6.290
 9686TIP3    H129019   3.426   4.484   6.302
 9686TIP3    H229020   3.574   4.497   6.338
 9687TIP3   OH229021   2.214   4.771   5.759
 9687TIP3    H129022   2.279   4.843   5.769
 9687TIP3    H229023   2.261   4.717   5.692
 9688TIP3   OH229024   2.158   4.048   5.892
 9688TIP3    H129025   2.161   4.146   5.889
 9688TIP3    H229026   2.073   4.030   5.851
 9689TIP3   OH229027   3.470   5.501   6.239
 9689TIP3    H129028   3.427   5.548   6.164
 9689TIP3    H229029   3.564   5.519   6.218
 9690TIP3   OH229030   2.547   3.769   6.765
 9690TIP3    H129031   2.516   3.735   6.678
 9690TIP3    H229032   2.536   3.691   6.823
 9691TIP3   OH229033   2.083   4.981   6.144
 9691TIP3    H129034   2.017   5.015   6.205
 9691TIP3    H229035   2.056   5.025   6.060
 9692TIP3   OH229036   2.242   5.527   7.223
 9692TIP3    H129037   2.331   5.525   7.265
 9692TIP3    H229038   2.223   5.432   7.215
 9693TIP3   OH229039   2.723   5.492   7.262
 9693TIP3    H129040   2.817   5.471   7.269
 9693TIP3    H229041   2.696   5.433   7.189
 9694TIP3   OH229042   2.705   5.069   5.389
 9694TIP3    H129043   2.649   4.997   5.427
 9694TIP3    H229044   2.781   5.017   5.357
 9695TIP3   OH229045   3.363   5.400   6.996
 9695TIP3    H129046   3.353   5.330   7.065
 9695TIP3    H229047   3.441   5.449   7.029
 9696TIP3   OH229048   3.140   5.108   5.302
 9696TIP3    H129049   3.186   5.046   5.361
 9696TIP3    H229050   3.196   5.107   5.221
 9697TIP3   OH229051   2.376   4.942   7.414
 9697TIP3    H129052   2.393   4.848   7.432
 9697TIP3    H229053   2.289   4.937   7.369
 9698TIP3   OH229054   2.350   4.585   5.612
 9698TIP3    H129055   2.406   4.554   5.686
 9698TIP3    H229056   2.417   4.590   5.541
 9699TIP3   OH229057   2.980   5.022   7.192
 9699TIP3    H129058   2.937   5.038   7.106
 9699TIP3    H229059   3.010   4.929   7.185
 9700TIP3   OH229060   2.860   4.784   5.419
 9700TIP3    H129061   2.863   4.796   5.516
 9700TIP3    H229062   2.860   4.686   5.413
 9701TIP3   OH229063   3.473   5.028   6.799
 9701TIP3    H129064   3.548   5.074   6.755
 9701TIP3    H229065   3.401   5.092   6.785
 9702TIP3   OH229066   2.492   4.677   7.393
 9702TIP3    H129067   2.545   4.596   7.396
 9702TIP3    H229068   2.514   4.711   7.482
 9703TIP3   OH229069   2.557   4.490   5.833
 9703TIP3    H129070   2.530   4.450   5.917
 9703TIP3    H229071   2.594   4.414   5.784
 9704TIP3   OH229072   2.826   4.553   7.059
 9704TIP3    H129073   2.749   4.614   7.062
 9704TIP3    H229074   2.878   4.589   6.983
 9705TIP3   OH229075   2.659   4.283   5.674
 9705TIP3    H129076   2.634   4.290   5.580
 9705TIP3    H229077   2.757   4.286   5.668
 9706TIP3   OH229078   3.346   4.957   7.196
 9706TIP3    H129079   3.424   4.926   7.149
 9706TIP3    H229080   3.338   4.891   7.268
 9707TIP3   OH229081   3.479   4.613   5.339
 9707TIP3    H129082   3.461   4.568   5.254
 9707TIP3    H229083   3.446   4.703   5.317
 9708TIP3   OH229084   2.950   4.340   7.180
 9708TIP3    H129085   2.950   4.262   7.123
 9708TIP3    H229086   2.906   4.408   7.125
 9709TIP3   OH229087   2.953   4.126   6.993
 9709TIP3    H129088   2.980   4.170   6.910
 9709TIP3    H229089   2.859   4.106   6.975
 9710TIP3   OH229090   2.979   4.662   6.867
 9710TIP3    H129091   3.064   4.675   6.822
 9710TIP3    H229092   2.922   4.729   6.822
 9711TIP3   OH229093   3.559   4.631   7.246
 9711TIP3    H129094   3.609   4.550   7.268
 9711TIP3    H229095   3.629   4.689   7.212
 9712TIP3   OH229096   3.604   4.884   6.986
 9712TIP3    H129097   3.545   4.937   6.928
 9712TIP3    H229098   3.691   4.906   6.946
 9713TIP3   OH229099   2.837   4.453   7.414
 9713TIP3    H129100   2.753   4.407   7.434
 9713TIP3    H229101   2.859   4.419   7.326
 9714TIP3   OH229102   3.084   3.890   7.061
 9714TIP3    H129103   3.035   3.972   7.039
 9714TIP3    H229104   3.015   3.822   7.050
 9715TIP3   OH229105   3.213   4.396   7.270
 9715TIP3    H129106   3.201   4.382   7.366
 9715TIP3    H229107   3.122   4.371   7.241
 9716TIP3   OH229108   3.449   4.343   7.133
 9716TIP3    H129109   3.374   4.349   7.195
 9716TIP3    H229110   3.522   4.314   7.191
 9717TIP3   OH229111   3.688   4.286   7.278
 9717TIP3    H129112   3.689   4.191   7.300
 9717TIP3    H229113   3.677   4.329   7.366
 9718TIP3   OH229114   2.660   4.232   7.454
 9718TIP3    H129115   2.673   4.143   7.418
 9718TIP3    H229116   2.720   4.229   7.532
 9719TIP3   OH229117   3.179   3.902   7.319
 9719TIP3    H129118   3.248   3.832   7.312
 9719TIP3    H229119   3.140   3.898   7.229
 9720TIP3   OH229120   3.247   4.115   7.478
 9720TIP3    H129121   3.225   4.043   7.415
 9720TIP3    H229122   3.169   4.175   7.469
 9721TIP3   OH229123   2.466   5.344   5.579
 9721TIP3    H129124   2.562   5.339   5.560
 9721TIP3    H229125   2.437   5.395   5.501
 9722TIP3   OH229126   1.945   4.728   5.795
 9722TIP3    H129127   2.040   4.750   5.781
 9722TIP3    H229128   1.940   4.639   5.754
 9723TIP3   OH229129   1.863   5.339   6.209
 9723TIP3    H129130   1.795   5.279   6.171
 9723TIP3    H229131   1.906   5.281   6.275
 9724TIP3   OH229132   1.999   5.188   6.395
 9724TIP3    H129133   1.984   5.117   6.460
 9724TIP3    H229134   2.049   5.251   6.450
 9725TIP3   OH229135   3.723   5.592   6.197
 9725TIP3    H129136   3.753   5.625   6.283
 9725TIP3    H229137   3.787   5.632   6.135
 9726TIP3   OH229138   3.753   5.612   6.480
 9726TIP3    H129139   3.707   5.525   6.473
 9726TIP3    H229140   3.829   5.585   6.534
 9727TIP3   OH229141   3.798   5.288   7.051
 9727TIP3    H129142   3.726   5.297   7.117
 9727TIP3    H229143   3.840   5.376   7.056
 9728TIP3   OH229144   3.615   4.801   5.671
 9728TIP3    H129145   3.682   4.865   5.640
 9728TIP3    H229146   3.660   4.763   5.750
 9729TIP3   OH229147   3.743   4.668   5.875
 9729TIP3    H129148   3.677   4.627   5.934
 9729TIP3    H229149   3.808   4.705   5.938
 9730TIP3   OH229150   3.799   5.061   6.307
 9730TIP3    H129151   3.850   4.994   6.258
 9730TIP3    H229152   3.793   5.134   6.242
 9731TIP3   OH229153   3.628   5.362   6.501
 9731TIP3    H129154   3.555   5.401   6.552
 9731TIP3    H229155   3.580   5.314   6.429
 9732TIP3   OH229156   3.681   4.576   5.521
 9732TIP3    H129157   3.610   4.578   5.453
 9732TIP3    H229158   3.653   4.652   5.576
 9733TIP3   OH229159   3.551   4.250   5.477
 9733TIP3    H129160   3.511   4.287   5.397
 9733TIP3    H229161   3.527   4.155   5.467
 9734TIP3   OH229162   3.557   4.526   6.021
 9734TIP3    H129163   3.565   4.430   6.014
 9734TIP3    H229164   3.543   4.539   6.117
 9735TIP3   OH229165   2.183   4.597   6.768
 9735TIP3    H129166   2.181   4.567   6.675
 9735TIP3    H229167   2.280   4.599   6.784
 9736TIP3   OH229168   3.845   4.952   6.877
 9736TIP3    H129169   3.917   4.886   6.869
 9736TIP3    H229170   3.873   5.020   6.813
 9737TIP3   OH229171   4.029   4.758   6.893
 9737TIP3    H129172   3.956   4.705   6.933
 9737TIP3    H229173   4.105   4.698   6.908
 9738TIP3   OH229174   3.495   3.984   5.461
 9738TIP3    H129175   3.571   3.953   5.515
 9738TIP3    H229176   3.424   3.922   5.484
 9739TIP3   OH229177   3.554   4.241   5.915
 9739TIP3    H129178   3.594   4.152   5.930
 9739TIP3    H229179   3.612   4.274   5.844
 9740TIP3   OH229180   3.715   4.413   6.411
 9740TIP3    H129181   3.801   4.439   6.370
 9740TIP3    H229182   3.729   4.451   6.500
 9741TIP3   OH229183   3.785   4.558   6.642
 9741TIP3    H129184   3.707   4.592   6.690
 9741TIP3    H229185   3.817   4.640   6.597
 9742TIP3   OH229186   2.392   4.277   7.423
 9742TIP3    H129187   2.489   4.284   7.438
 9742TIP3    H229188   2.372   4.194   7.471
 9743TIP3   OH229189   4.210   4.138   7.174
 9743TIP3    H129190   4.278   4.079   7.137
 9743TIP3    H229191   4.190   4.197   7.097
 9744TIP3   OH229192   3.662   3.991   5.953
 9744TIP3    H129193   3.711   3.976   6.037
 9744TIP3    H229194   3.602   3.914   5.953
 9745TIP3   OH229195   2.361   3.977   6.771
 9745TIP3    H129196   2.423   3.902   6.783
 9745TIP3    H229197   2.424   4.052   6.766
 9746TIP3   OH229198   2.164   4.249   6.844
 9746TIP3    H129199   2.215   4.249   6.761
 9746TIP3    H229200   2.189   4.333   6.883
 9747TIP3   OH229201   4.105   4.304   6.983
 9747TIP3    H129202   4.020   4.346   7.009
 9747TIP3    H229203   4.070   4.228   6.932
 9748TIP3   OH229204   3.743   3.925   5.586
 9748TIP3    H129205   3.783   3.853   5.532
 9748TIP3    H229206   3.810   3.995   5.582
 9749TIP3   OH229207   2.149   3.750   6.344
 9749TIP3    H129208   2.056   3.750   6.374
 9749TIP3    H229209   2.145   3.812   6.268
 9750TIP3   OH229210   3.309   5.458   5.853
 9750TIP3    H129211   3.357   5.445   5.769
 9750TIP3    H229212   3.363   5.526   5.897
 9751TIP3   OH229213   2.379   3.834   7.138
 9751TIP3    H129214   2.329   3.831   7.223
 9751TIP3    H229215   2.310   3.875   7.082
 9752TIP3   OH229216   2.409   5.267   7.238
 9752TIP3    H129217   2.318   5.236   7.220
 9752TIP3    H229218   2.421   5.237   7.329
 9753TIP3   OH229219   2.587   5.295   6.786
 9753TIP3    H129220   2.538   5.370   6.746
 9753TIP3    H229221   2.673   5.309   6.741
 9754TIP3   OH229222   3.031   5.537   6.924
 9754TIP3    H129223   3.073   5.538   7.013
 9754TIP3    H229224   3.097   5.588   6.873
 9755TIP3   OH229225   3.209   5.690   6.783
 9755TIP3    H129226   3.277   5.638   6.737
 9755TIP3    H229227   3.265   5.746   6.842
 9756TIP3   OH229228   4.002   4.054   6.881
 9756TIP3    H129229   3.913   4.048   6.842
 9756TIP3    H229230   4.034   3.961   6.871
 9757TIP3   OH229231   2.262   5.550   6.810
 9757TIP3    H129232   2.173   5.583   6.786
 9757TIP3    H229233   2.274   5.596   6.895
 9758TIP3   OH229234   2.500   5.530   6.668
 9758TIP3    H129235   2.413   5.542   6.712
 9758TIP3    H229236   2.481   5.563   6.578
 9759TIP3   OH229237   2.925   5.559   6.465
 9759TIP3    H129238   2.855   5.575   6.399
 9759TIP3    H229239   2.935   5.647   6.506
 9760TIP3   OH229240   3.194   5.499   6.519
 9760TIP3    H129241   3.100   5.515   6.498
 9760TIP3    H229242   3.237   5.571   6.471
 9761TIP3   OH229243   3.403   5.690   6.431
 9761TIP3    H129244   3.387   5.773   6.382
 9761TIP3    H229245   3.428   5.629   6.358
 9762TIP3   OH229246   2.175   5.345   6.553
 9762TIP3    H129247   2.200   5.319   6.644
 9762TIP3    H229248   2.247   5.300   6.503
 9763TIP3   OH229249   2.369   5.216   6.411
 9763TIP3    H129250   2.384   5.132   6.461
 9763TIP3    H229251   2.460   5.252   6.406
 9764TIP3   OH229252   2.635   5.310   6.415
 9764TIP3    H129253   2.666   5.218   6.403
 9764TIP3    H229254   2.679   5.332   6.499
 9765TIP3   OH229255   3.210   3.967   6.500
 9765TIP3    H129256   3.166   3.897   6.553
 9765TIP3    H229257   3.284   3.919   6.459
 9766TIP3   OH229258   3.733   3.847   6.407
 9766TIP3    H129259   3.769   3.899   6.331
 9766TIP3    H229260   3.637   3.865   6.400
 9767TIP3   OH229261   3.827   3.947   6.171
 9767TIP3    H129262   3.900   3.896   6.130
 9767TIP3    H229263   3.860   4.038   6.156
 9768TIP3   OH229264   2.458   3.676   6.516
 9768TIP3    H129265   2.366   3.643   6.520
 9768TIP3    H229266   2.507   3.590   6.513
 9769TIP3   OH229267   2.243   3.546   6.165
 9769TIP3    H129268   2.275   3.604   6.093
 9769TIP3    H229269   2.217   3.611   6.233
 9770TIP3   OH229270   2.903   3.707   6.399
 9770TIP3    H129271   2.959   3.756   6.337
 9770TIP3    H229272   2.927   3.748   6.484
 9771TIP3   OH229273   3.449   3.855   6.382
 9771TIP3    H129274   3.449   3.816   6.293
 9771TIP3    H229275   3.435   3.775   6.438
 9772TIP3   OH229276   3.479   3.778   5.944
 9772TIP3    H129277   3.392   3.821   5.958
 9772TIP3    H229278   3.464   3.692   5.991
 9773TIP3   OH229279   1.963   5.118   5.945
 9773TIP3    H129280   1.877   5.086   5.912
 9773TIP3    H229281   1.953   5.212   5.926
 9774TIP3   OH229282   2.363   3.705   5.928
 9774TIP3    H129283   2.412   3.642   5.871
 9774TIP3    H229284   2.436   3.759   5.964
 9775TIP3   OH229285   2.875   3.880   6.028
 9775TIP3    H129286   2.935   3.834   6.088
 9775TIP3    H229287   2.896   3.973   6.053
 9776TIP3   OH229288   2.735   5.304   5.528
 9776TIP3    H129289   2.823   5.327   5.492
 9776TIP3    H229290   2.712   5.230   5.467
 9777TIP3   OH229291   3.453   5.424   5.621
 9777TIP3    H129292   3.445   5.326   5.609
 9777TIP3    H229293   3.408   5.455   5.540
 9778TIP3   OH229294   2.670   3.947   7.399
 9778TIP3    H129295   2.625   3.893   7.465
 9778TIP3    H229296   2.762   3.947   7.435
 9779TIP3   OH229297   2.914   3.934   7.531
 9779TIP3    H129298   2.998   3.913   7.487
 9779TIP3    H229299   2.933   3.899   7.621
 9780TIP3   OH229300   2.037   5.139   5.582
 9780TIP3    H129301   2.037   5.168   5.675
 9780TIP3    H229302   2.126   5.100   5.572
 9781TIP3   OH229303   3.734   4.016   7.312
 9781TIP3    H129304   3.764   3.988   7.401
 9781TIP3    H229305   3.818   4.014   7.262
 9782TIP3   OH229306   3.678   5.569   6.809
 9782TIP3    H129307   3.600   5.536   6.758
 9782TIP3    H229308   3.657   5.664   6.812
 9783TIP3   OH229309   4.946   4.939   5.573
 9783TIP3    H129310   4.918   5.031   5.554
 9783TIP3    H229311   4.869   4.890   5.538
 9784TIP3   OH229312   4.940   4.937   5.955
 9784TIP3    H129313   4.976   4.916   6.043
 9784TIP3    H229314   4.900   4.853   5.928
 9785TIP3   OH229315   4.244   4.836   6.321
 9785TIP3    H129316   4.275   4.767   6.383
 9785TIP3    H229317   4.324   4.888   6.310
 9786TIP3   OH229318   5.191   5.241   5.639
 9786TIP3    H129319   5.175   5.174   5.707
 9786TIP3    H229320   5.218   5.319   5.692
 9787TIP3   OH229321   4.216   5.245   6.045
 9787TIP3    H129322   4.208   5.147   6.046
 9787TIP3    H229323   4.313   5.254   6.038
 9788TIP3   OH229324   3.923   4.446   5.829
 9788TIP3    H129325   3.875   4.529   5.845
 9788TIP3    H229326   3.852   4.394   5.787
 9789TIP3   OH229327   3.981   4.735   6.003
 9789TIP3    H129328   4.030   4.657   6.037
 9789TIP3    H229329   4.040   4.767   5.934
 9790TIP3   OH229330   4.840   5.705   5.655
 9790TIP3    H129331   4.883   5.634   5.602
 9790TIP3    H229332   4.834   5.663   5.741
 9791TIP3   OH229333   4.746   5.166   6.006
 9791TIP3    H129334   4.786   5.091   5.959
 9791TIP3    H229335   4.828   5.213   6.032
 9792TIP3   OH229336   5.760   4.493   6.005
 9792TIP3    H129337   5.788   4.582   6.032
 9792TIP3    H229338   5.776   4.498   5.909
 9793TIP3   OH229339   5.158   4.665   6.035
 9793TIP3    H129340   5.200   4.579   6.054
 9793TIP3    H229341   5.125   4.650   5.944
 9794TIP3   OH229342   4.495   4.326   6.000
 9794TIP3    H129343   4.475   4.399   5.938
 9794TIP3    H229344   4.447   4.253   5.956
 9795TIP3   OH229345   5.189   4.420   5.622
 9795TIP3    H129346   5.261   4.403   5.687
 9795TIP3    H229347   5.241   4.454   5.547
 9796TIP3   OH229348   4.127   4.528   6.107
 9796TIP3    H129349   4.210   4.510   6.155
 9796TIP3    H229350   4.141   4.472   6.027
 9797TIP3   OH229351   4.568   4.725   5.902
 9797TIP3    H129352   4.662   4.701   5.913
 9797TIP3    H229353   4.529   4.642   5.869
 9798TIP3   OH229354   5.839   4.728   6.163
 9798TIP3    H129355   5.748   4.760   6.141
 9798TIP3    H229356   5.824   4.697   6.254
 9799TIP3   OH229357   4.490   4.310   6.435
 9799TIP3    H129358   4.431   4.347   6.367
 9799TIP3    H229359   4.438   4.329   6.516
 9800TIP3   OH229360   4.837   5.162   5.442
 9800TIP3    H129361   4.794   5.143   5.357
 9800TIP3    H229362   4.792   5.244   5.469
 9801TIP3   OH229363   4.597   5.085   6.230
 9801TIP3    H129364   4.537   5.153   6.267
 9801TIP3    H229365   4.642   5.135   6.159
 9802TIP3   OH229366   5.398   4.421   5.795
 9802TIP3    H129367   5.385   4.373   5.878
 9802TIP3    H229368   5.450   4.498   5.824
 9803TIP3   OH229369   4.362   4.425   6.219
 9803TIP3    H129370   4.424   4.497   6.243
 9803TIP3    H229371   4.410   4.385   6.143
 9804TIP3   OH229372   4.425   5.281   6.329
 9804TIP3    H129373   4.400   5.366   6.290
 9804TIP3    H229374   4.345   5.265   6.384
 9805TIP3   OH229375   3.818   4.969   5.563
 9805TIP3    H129376   3.779   4.997   5.478
 9805TIP3    H229377   3.850   5.054   5.599
 9806TIP3   OH229378   5.257   5.482   5.798
 9806TIP3    H129379   5.169   5.474   5.842
 9806TIP3    H229380   5.250   5.573   5.762
 9807TIP3   OH229381   5.550   4.392   6.170
 9807TIP3    H129382   5.461   4.412   6.137
 9807TIP3    H229383   5.607   4.420   6.096
 9808TIP3   OH229384   4.846   4.029   6.149
 9808TIP3    H129385   4.831   3.934   6.165
 9808TIP3    H229386   4.769   4.067   6.196
 9809TIP3   OH229387   4.959   5.532   5.475
 9809TIP3    H129388   5.008   5.449   5.458
 9809TIP3    H229389   5.022   5.596   5.436
 9810TIP3   OH229390   5.104   5.317   5.387
 9810TIP3    H129391   5.064   5.238   5.348
 9810TIP3    H229392   5.141   5.281   5.471
 9811TIP3   OH229393   4.776   4.792   5.405
 9811TIP3    H129394   4.697   4.844   5.383
 9811TIP3    H229395   4.822   4.788   5.319
 9812TIP3   OH229396   4.735   4.575   5.122
 9812TIP3    H129397   4.802   4.629   5.167
 9812TIP3    H229398   4.793   4.513   5.073
 9813TIP3   OH229399   5.697   5.035   5.995
 9813TIP3    H129400   5.607   5.077   5.996
 9813TIP3    H229401   5.723   5.059   5.904
 9814TIP3   OH229402   5.125   4.875   5.375
 9814TIP3    H129403   5.070   4.898   5.454
 9814TIP3    H229404   5.209   4.851   5.419
 9815TIP3   OH229405   5.365   4.938   6.284
 9815TIP3    H129406   5.366   5.037   6.299
 9815TIP3    H229407   5.273   4.932   6.251
 9816TIP3   OH229408   4.356   4.872   5.794
 9816TIP3    H129409   4.314   4.814   5.727
 9816TIP3    H229410   4.433   4.818   5.823
 9817TIP3   OH229411   4.486   5.282   5.943
 9817TIP3    H129412   4.467   5.244   5.856
 9817TIP3    H229413   4.576   5.248   5.961
 9818TIP3   OH229414   4.491   4.843   6.148
 9818TIP3    H129415   4.525   4.820   6.059
 9818TIP3    H229416   4.536   4.928   6.167
 9819TIP3   OH229417   5.019   5.483   5.928
 9819TIP3    H129418   5.018   5.559   5.988
 9819TIP3    H229419   5.003   5.408   5.988
 9820TIP3   OH229420   4.629   5.403   6.474
 9820TIP3    H129421   4.565   5.463   6.519
 9820TIP3    H229422   4.567   5.347   6.423
 9821TIP3   OH229423   4.964   4.733   5.202
 9821TIP3    H129424   5.022   4.793   5.252
 9821TIP3    H229425   4.990   4.754   5.109
 9822TIP3   OH229426   4.386   4.954   6.576
 9822TIP3    H129427   4.390   5.042   6.618
 9822TIP3    H229428   4.291   4.935   6.584
 9823TIP3   OH229429   4.707   5.411   5.480
 9823TIP3    H129430   4.788   5.464   5.491
 9823TIP3    H229431   4.648   5.473   5.436
 9824TIP3   OH229432   4.422   5.571   6.559
 9824TIP3    H129433   4.389   5.570   6.468
 9824TIP3    H229434   4.342   5.548   6.611
 9825TIP3   OH229435   5.481   3.973   5.251
 9825TIP3    H129436   5.399   3.994   5.300
 9825TIP3    H229437   5.495   4.055   5.200
 9826TIP3   OH229438   4.222   4.715   5.600
 9826TIP3    H129439   4.156   4.760   5.542
 9826TIP3    H229440   4.183   4.627   5.608
 9827TIP3   OH229441   5.279   5.340   4.800
 9827TIP3    H129442   5.288   5.437   4.784
 9827TIP3    H229443   5.371   5.310   4.787
 9828TIP3   OH229444   4.004   5.099   6.505
 9828TIP3    H129445   3.938   5.077   6.436
 9828TIP3    H229446   4.041   5.011   6.528
 9829TIP3   OH229447   3.858   5.291   6.138
 9829TIP3    H129448   3.953   5.284   6.127
 9829TIP3    H229449   3.850   5.371   6.193
 9830TIP3   OH229450   5.706   5.747   6.195
 9830TIP3    H129451   5.707   5.649   6.203
 9830TIP3    H229452   5.623   5.767   6.244
 9831TIP3   OH229453   4.825   5.526   6.328
 9831TIP3    H129454   4.825   5.618   6.362
 9831TIP3    H229455   4.755   5.486   6.383
 9832TIP3   OH229456   4.590   5.657   5.280
 9832TIP3    H129457   4.544   5.639   5.196
 9832TIP3    H229458   4.557   5.745   5.305
 9833TIP3   OH229459   4.027   5.507   5.666
 9833TIP3    H129460   4.075   5.497   5.751
 9833TIP3    H229461   3.972   5.426   5.667
 9834TIP3   OH229462   4.790   5.560   4.920
 9834TIP3    H129463   4.849   5.490   4.883
 9834TIP3    H229464   4.825   5.568   5.011
 9835TIP3   OH229465   4.841   5.607   5.190
 9835TIP3    H129466   4.752   5.617   5.231
 9835TIP3    H229467   4.890   5.565   5.264
 9836TIP3   OH229468   5.616   4.879   6.469
 9836TIP3    H129469   5.534   4.903   6.422
 9836TIP3    H229470   5.622   4.784   6.451
 9837TIP3   OH229471   4.207   5.283   6.495
 9837TIP3    H129472   4.258   5.264   6.576
 9837TIP3    H229473   4.133   5.219   6.501
 9838TIP3   OH229474   4.608   4.104   6.279
 9838TIP3    H129475   4.520   4.074   6.251
 9838TIP3    H229476   4.583   4.187   6.324
 9839TIP3   OH229477   5.142   4.220   6.472
 9839TIP3    H129478   5.211   4.191   6.536
 9839TIP3    H229479   5.059   4.200   6.519
 9840TIP3   OH229480   5.387   4.658   6.395
 9840TIP3    H129481   5.331   4.649   6.476
 9840TIP3    H229482   5.356   4.743   6.359
 9841TIP3   OH229483   5.042   4.780   4.948
 9841TIP3    H129484   5.006   4.754   4.861
 9841TIP3    H229485   5.124   4.826   4.921
 9842TIP3   OH229486   4.753   4.153   5.250
 9842TIP3    H129487   4.718   4.149   5.341
 9842TIP3    H229488   4.713   4.071   5.213
 9843TIP3   OH229489   4.539   4.621   6.296
 9843TIP3    H129490   4.489   4.643   6.378
 9843TIP3    H229491   4.524   4.702   6.243
 9844TIP3   OH229492   4.424   4.506   5.811
 9844TIP3    H129493   4.331   4.481   5.828
 9844TIP3    H229494   4.436   4.466   5.722
 9845TIP3   OH229495   4.914   4.592   5.539
 9845TIP3    H129496   4.863   4.664   5.496
 9845TIP3    H229497   4.969   4.560   5.464
 9846TIP3   OH229498   5.089   4.869   6.624
 9846TIP3    H129499   5.067   4.797   6.687
 9846TIP3    H229500   5.183   4.883   6.644
 9847TIP3   OH229501   5.069   4.620   5.778
 9847TIP3    H129502   5.009   4.651   5.707
 9847TIP3    H229503   5.103   4.540   5.733
 9848TIP3   OH229504   4.358   4.650   6.505
 9848TIP3    H129505   4.387   4.714   6.571
 9848TIP3    H229506   4.348   4.568   6.558
 9849TIP3   OH229507   4.409   4.128   5.215
 9849TIP3    H129508   4.398   4.126   5.312
 9849TIP3    H229509   4.331   4.180   5.188
 9850TIP3   OH229510   3.952   4.170   6.087
 9850TIP3    H129511   4.027   4.203   6.140
 9850TIP3    H229512   3.992   4.141   6.004
 9851TIP3   OH229513   3.923   4.152   5.606
 9851TIP3    H129514   3.968   4.188   5.528
 9851TIP3    H229515   3.862   4.226   5.625
 9852TIP3   OH229516   5.077   4.864   6.198
 9852TIP3    H129517   5.113   4.794   6.140
 9852TIP3    H229518   5.049   4.811   6.275
 9853TIP3   OH229519   4.752   4.327   5.872
 9853TIP3    H129520   4.669   4.327   5.923
 9853TIP3    H229521   4.820   4.329   5.942
 9854TIP3   OH229522   4.185   4.384   5.880
 9854TIP3    H129523   4.090   4.392   5.852
 9854TIP3    H229524   4.208   4.293   5.856
 9855TIP3   OH229525   4.453   4.381   5.568
 9855TIP3    H129526   4.547   4.395   5.546
 9855TIP3    H229527   4.406   4.403   5.485
 9856TIP3   OH229528   5.245   4.402   6.074
 9856TIP3    H129529   5.210   4.417   6.165
 9856TIP3    H229530   5.177   4.343   6.038
 9857TIP3   OH229531   4.297   4.415   5.347
 9857TIP3    H129532   4.227   4.369   5.297
 9857TIP3    H229533   4.349   4.452   5.272
 9858TIP3   OH229534   5.414   6.097   6.293
 9858TIP3    H129535   5.412   6.113   6.197
 9858TIP3    H229536   5.498   6.136   6.321
 9859TIP3   OH229537   4.370   5.204   6.713
 9859TIP3    H129538   4.450   5.234   6.761
 9859TIP3    H229539   4.306   5.201   6.787
 9860TIP3   OH229540   4.833   4.656   5.968
 9860TIP3    H129541   4.907   4.619   5.917
 9860TIP3    H229542   4.844   4.613   6.054
 9861TIP3   OH229543   4.357   4.145   5.848
 9861TIP3    H129544   4.322   4.066   5.894
 9861TIP3    H229545   4.403   4.106   5.773
 9862TIP3   OH229546   4.810   4.553   6.263
 9862TIP3    H129547   4.721   4.591   6.273
 9862TIP3    H229548   4.867   4.617   6.310
 9863TIP3   OH229549   4.546   4.945   5.353
 9863TIP3    H129550   4.474   4.879   5.342
 9863TIP3    H229551   4.527   4.978   5.444
 9864TIP3   OH229552   5.461   5.153   5.974
 9864TIP3    H129553   5.471   5.232   5.918
 9864TIP3    H229554   5.364   5.140   5.975
 9865TIP3   OH229555   5.005   4.254   5.221
 9865TIP3    H129556   4.908   4.237   5.225
 9865TIP3    H229557   5.013   4.349   5.241
 9866TIP3   OH229558   4.926   5.254   6.356
 9866TIP3    H129559   4.988   5.246   6.429
 9866TIP3    H229560   4.901   5.348   6.357
 9867TIP3   OH229561   5.074   4.506   5.322
 9867TIP3    H129562   5.170   4.512   5.335
 9867TIP3    H229563   5.055   4.585   5.268
 9868TIP3   OH229564   4.238   4.966   6.029
 9868TIP3    H129565   4.276   4.939   5.943
 9868TIP3    H229566   4.283   4.906   6.090
 9869TIP3   OH229567   4.692   5.094   5.177
 9869TIP3    H129568   4.644   5.180   5.180
 9869TIP3    H229569   4.638   5.039   5.237
 9870TIP3   OH229570   4.120   4.887   6.643
 9870TIP3    H129571   4.139   4.874   6.738
 9870TIP3    H229572   4.051   4.821   6.627
 9871TIP3   OH229573   4.847   5.000   6.664
 9871TIP3    H129574   4.787   4.944   6.613
 9871TIP3    H229575   4.934   4.967   6.633
 9872TIP3   OH229576   5.093   5.577   6.214
 9872TIP3    H129577   5.005   5.547   6.241
 9872TIP3    H229578   5.146   5.558   6.293
 9873TIP3   OH229579   5.517   4.596   5.156
 9873TIP3    H129580   5.455   4.552   5.093
 9873TIP3    H229581   5.513   4.686   5.116
 9874TIP3   OH229582   5.713   5.473   6.224
 9874TIP3    H129583   5.624   5.442   6.248
 9874TIP3    H229584   5.732   5.423   6.143
 9875TIP3   OH229585   5.221   5.413   5.066
 9875TIP3    H129586   5.189   5.344   5.125
 9875TIP3    H229587   5.230   5.367   4.980
 9876TIP3   OH229588   5.198   5.047   5.896
 9876TIP3    H129589   5.106   5.017   5.909
 9876TIP3    H229590   5.238   4.969   5.855
 9877TIP3   OH229591   4.341   5.272   5.656
 9877TIP3    H129592   4.340   5.352   5.600
 9877TIP3    H229593   4.247   5.252   5.663
 9878TIP3   OH229594   3.906   4.575   5.359
 9878TIP3    H129595   3.950   4.659   5.379
 9878TIP3    H229596   3.828   4.579   5.419
 9879TIP3   OH229597   4.476   5.035   5.598
 9879TIP3    H129598   4.443   5.125   5.617
 9879TIP3    H229599   4.441   4.985   5.674
 9880TIP3   OH229600   4.610   5.614   6.124
 9880TIP3    H129601   4.654   5.685   6.073
 9880TIP3    H229602   4.686   5.574   6.170
 9881TIP3   OH229603   4.259   5.510   5.506
 9881TIP3    H129604   4.174   5.519   5.553
 9881TIP3    H229605   4.292   5.602   5.508
 9882TIP3   OH229606   5.000   5.251   6.086
 9882TIP3    H129607   4.991   5.242   6.183
 9882TIP3    H229608   5.086   5.209   6.071
 9883TIP3   OH229609   4.973   5.143   4.965
 9883TIP3    H129610   5.025   5.116   5.044
 9883TIP3    H229611   4.884   5.114   4.992
 9884TIP3   OH229612   5.242   5.798   6.151
 9884TIP3    H129613   5.178   5.723   6.157
 9884TIP3    H229614   5.220   5.836   6.064
 9885TIP3   OH229615   5.312   5.615   4.784
 9885TIP3    H129616   5.345   5.686   4.727
 9885TIP3    H229617   5.232   5.660   4.820
 9886TIP3   OH229618   4.330   4.392   6.651
 9886TIP3    H129619   4.233   4.397   6.663
 9886TIP3    H229620   4.356   4.334   6.723
 9887TIP3   OH229621   5.133   5.076   5.181
 9887TIP3    H129622   5.122   5.010   5.253
 9887TIP3    H229623   5.230   5.072   5.169
 9888TIP3   OH229624   4.047   5.476   6.283
 9888TIP3    H129625   4.100   5.400   6.312
 9888TIP3    H229626   4.080   5.545   6.342
 9889TIP3   OH229627   4.338   5.122   4.965
 9889TIP3    H129628   4.351   5.030   4.936
 9889TIP3    H229629   4.318   5.109   5.060
 9890TIP3   OH229630   4.283   5.127   5.238
 9890TIP3    H129631   4.357   5.100   5.294
 9890TIP3    H229632   4.287   5.225   5.245
 9891TIP3   OH229633   4.018   4.820   5.441
 9891TIP3    H129634   3.952   4.865   5.497
 9891TIP3    H229635   4.032   4.888   5.372
 9892TIP3   OH229636   5.171   4.456   6.333
 9892TIP3    H129637   5.250   4.494   6.375
 9892TIP3    H229638   5.155   4.376   6.386
 9893TIP3   OH229639   5.048   4.207   5.500
 9893TIP3    H129640   5.034   4.227   5.405
 9893TIP3    H229641   5.086   4.290   5.533
 9894TIP3   OH229642   4.550   5.323   5.187
 9894TIP3    H129643   4.463   5.350   5.222
 9894TIP3    H229644   4.564   5.394   5.122
 9895TIP3   OH229645   4.737   4.388   5.600
 9895TIP3    H129646   4.801   4.460   5.582
 9895TIP3    H229647   4.743   4.381   5.698
 9896TIP3   OH229648   5.006   4.705   6.408
 9896TIP3    H129649   5.029   4.760   6.486
 9896TIP3    H229650   5.061   4.626   6.422
 9897TIP3   OH229651   4.881   4.113   5.702
 9897TIP3    H129652   4.871   4.192   5.758
 9897TIP3    H229653   4.942   4.148   5.633
 9898TIP3   OH229654   4.294   5.399   5.254
 9898TIP3    H129655   4.264   5.469   5.191
 9898TIP3    H229656   4.278   5.443   5.340
 9899TIP3   OH229657   4.392   4.114   5.492
 9899TIP3    H129658   4.392   4.205   5.528
 9899TIP3    H229659   4.488   4.095   5.499
 9900TIP3   OH229660   5.651   4.607   6.368
 9900TIP3    H129661   5.556   4.615   6.392
 9900TIP3    H229662   5.642   4.544   6.295
 9901TIP3   OH229663   5.299   4.797   5.775
 9901TIP3    H129664   5.222   4.740   5.789
 9901TIP3    H229665   5.369   4.751   5.824
 9902TIP3   OH229666   4.011   5.028   5.245
 9902TIP3    H129667   4.078   5.097   5.254
 9902TIP3    H229668   4.055   4.972   5.178
 9903TIP3   OH229669   3.953   4.305   5.383
 9903TIP3    H129670   3.955   4.402   5.378
 9903TIP3    H229671   3.876   4.284   5.330
 9904TIP3   OH229672   5.264   5.759   5.726
 9904TIP3    H129673   5.223   5.808   5.651
 9904TIP3    H229674   5.359   5.773   5.705
 9905TIP3   OH229675   4.343   4.025   6.252
 9905TIP3    H129676   4.312   3.992   6.165
 9905TIP3    H229677   4.331   3.946   6.309
 9906TIP3   OH229678   3.881   5.243   5.632
 9906TIP3    H129679   3.811   5.274   5.690
 9906TIP3    H229680   3.855   5.284   5.546
 9907TIP3   OH229681   4.039   5.786   6.706
 9907TIP3    H129682   4.126   5.784   6.752
 9907TIP3    H229683   4.018   5.691   6.703
 9908TIP3   OH229684   4.522   5.749   6.749
 9908TIP3    H129685   4.616   5.724   6.753
 9908TIP3    H229686   4.492   5.691   6.676
 9909TIP3   OH229687   4.502   5.325   4.878
 9909TIP3    H129688   4.446   5.253   4.914
 9909TIP3    H229689   4.577   5.274   4.842
 9910TIP3   OH229690   5.147   5.670   6.500
 9910TIP3    H129691   5.143   5.589   6.556
 9910TIP3    H229692   5.236   5.704   6.516
 9911TIP3   OH229693   4.938   5.366   4.789
 9911TIP3    H129694   4.980   5.300   4.847
 9911TIP3    H229695   4.993   5.363   4.709
 9912TIP3   OH229696   4.169   5.192   6.905
 9912TIP3    H129697   4.185   5.096   6.912
 9912TIP3    H229698   4.082   5.194   6.860
 9913TIP3   OH229699   4.146   4.842   5.099
 9913TIP3    H129700   4.203   4.809   5.171
 9913TIP3    H229701   4.212   4.847   5.026
 9914TIP3   OH229702   4.774   5.277   6.680
 9914TIP3    H129703   4.740   5.296   6.590
 9914TIP3    H229704   4.808   5.185   6.670
 9915TIP3   OH229705   4.658   5.042   4.907
 9915TIP3    H129706   4.660   5.052   5.004
 9915TIP3    H229707   4.659   4.944   4.900
 9916TIP3   OH229708   4.287   4.928   6.887
 9916TIP3    H129709   4.362   4.872   6.863
 9916TIP3    H229710   4.316   4.960   6.976
 9917TIP3   OH229711   4.355   4.746   5.321
 9917TIP3    H129712   4.328   4.702   5.403
 9917TIP3    H229713   4.392   4.672   5.269
 9918TIP3   OH229714   4.623   4.809   6.547
 9918TIP3    H129715   4.546   4.870   6.548
 9918TIP3    H229716   4.675   4.843   6.471
 9919TIP3   OH229717   4.455   4.541   5.161
 9919TIP3    H129718   4.429   4.545   5.066
 9919TIP3    H229719   4.552   4.542   5.154
 9920TIP3   OH229720   5.136   5.216   6.688
 9920TIP3    H129721   5.201   5.196   6.619
 9920TIP3    H229722   5.143   5.141   6.749
 9921TIP3   OH229723   5.278   4.870   4.825
 9921TIP3    H129724   5.257   4.825   4.741
 9921TIP3    H229725   5.244   4.960   4.803
 9922TIP3   OH229726   4.747   4.599   6.673
 9922TIP3    H129727   4.747   4.520   6.616
 9922TIP3    H229728   4.704   4.666   6.616
 9923TIP3   OH229729   4.749   4.384   6.483
 9923TIP3    H129730   4.777   4.428   6.401
 9923TIP3    H229731   4.655   4.363   6.464
 9924TIP3   OH229732   4.776   4.918   6.355
 9924TIP3    H129733   4.862   4.934   6.313
 9924TIP3    H229734   4.720   4.987   6.312
 9925TIP3   OH229735   5.358   4.887   6.735
 9925TIP3    H129736   5.405   4.803   6.748
 9925TIP3    H229737   5.429   4.946   6.707
 9926TIP3   OH229738   4.625   4.710   6.906
 9926TIP3    H129739   4.557   4.641   6.920
 9926TIP3    H229740   4.659   4.686   6.818
 9927TIP3   OH229741   4.881   4.148   6.550
 9927TIP3    H129742   4.832   4.229   6.527
 9927TIP3    H229743   4.813   4.079   6.538
 9928TIP3   OH229744   5.008   4.650   6.766
 9928TIP3    H129745   4.994   4.639   6.861
 9928TIP3    H229746   4.918   4.628   6.733
 9929TIP3   OH229747   5.246   4.601   6.620
 9929TIP3    H129748   5.171   4.604   6.682
 9929TIP3    H229749   5.320   4.571   6.677
 9930TIP3   OH229750   5.479   4.543   6.769
 9930TIP3    H129751   5.489   4.447   6.788
 9930TIP3    H229752   5.472   4.582   6.859
 9931TIP3   OH229753   4.467   4.489   6.958
 9931TIP3    H129754   4.470   4.397   6.924
 9931TIP3    H229755   4.502   4.477   7.048
 9932TIP3   OH229756   4.973   4.157   6.809
 9932TIP3    H129757   5.041   4.087   6.802
 9932TIP3    H229758   4.935   4.153   6.719
 9933TIP3   OH229759   5.041   4.373   6.967
 9933TIP3    H129760   5.020   4.303   6.902
 9933TIP3    H229761   4.964   4.432   6.960
 9934TIP3   OH229762   4.263   5.602   5.067
 9934TIP3    H129763   4.358   5.596   5.047
 9934TIP3    H229764   4.233   5.652   4.988
 9935TIP3   OH229765   3.742   4.983   5.283
 9935TIP3    H129766   3.837   5.005   5.267
 9935TIP3    H229767   3.736   4.894   5.242
 9936TIP3   OH229768   3.657   5.596   5.696
 9936TIP3    H129769   3.591   5.535   5.658
 9936TIP3    H229770   3.701   5.538   5.761
 9937TIP3   OH229771   3.792   5.446   5.883
 9937TIP3    H129772   3.781   5.373   5.945
 9937TIP3    H229773   3.845   5.508   5.937
 9938TIP3   OH229774   5.522   5.842   5.684
 9938TIP3    H129775   5.546   5.874   5.773
 9938TIP3    H229776   5.579   5.895   5.626
 9939TIP3   OH229777   5.553   5.869   5.965
 9939TIP3    H129778   5.498   5.788   5.959
 9939TIP3    H229779   5.621   5.836   6.027
 9940TIP3   OH229780   5.599   5.543   6.536
 9940TIP3    H129781   5.518   5.554   6.589
 9940TIP3    H229782   5.641   5.631   6.541
 9941TIP3   OH229783   5.412   5.057   5.158
 9941TIP3    H129784   5.478   5.121   5.128
 9941TIP3    H229785   5.456   5.019   5.237
 9942TIP3   OH229786   5.540   4.925   5.363
 9942TIP3    H129787   5.472   4.882   5.418
 9942TIP3    H229788   5.600   4.965   5.429
 9943TIP3   OH229789   5.606   5.327   5.799
 9943TIP3    H129790   5.641   5.254   5.745
 9943TIP3    H229791   5.582   5.394   5.732
 9944TIP3   OH229792   5.429   5.628   5.981
 9944TIP3    H129793   5.365   5.626   6.054
 9944TIP3    H229794   5.392   5.562   5.921
 9945TIP3   OH229795   5.478   4.833   5.008
 9945TIP3    H129796   5.407   4.833   4.939
 9945TIP3    H229797   5.447   4.908   5.062
 9946TIP3   OH229798   5.349   4.506   4.962
 9946TIP3    H129799   5.305   4.542   4.884
 9946TIP3    H229800   5.325   4.412   4.955
 9947TIP3   OH229801   5.355   4.782   5.506
 9947TIP3    H129802   5.360   4.686   5.498
 9947TIP3    H229803   5.339   4.794   5.602
 9948TIP3   OH229804   3.979   4.854   6.255
 9948TIP3    H129805   3.977   4.823   6.162
 9948TIP3    H229806   4.076   4.856   6.272
 9949TIP3   OH229807   5.676   5.214   6.378
 9949TIP3    H129808   5.721   5.135   6.347
 9949TIP3    H229809   5.596   5.221   6.323
 9950TIP3   OH229810   5.835   4.992   6.362
 9950TIP3    H129811   5.758   4.959   6.413
 9950TIP3    H229812   5.905   4.931   6.393
 9951TIP3   OH229813   5.291   4.241   4.950
 9951TIP3    H129814   5.364   4.206   5.004
 9951TIP3    H229815   5.217   4.180   4.968
 9952TIP3   OH229816   5.351   4.499   5.403
 9952TIP3    H129817   5.390   4.409   5.418
 9952TIP3    H229818   5.409   4.530   5.330
 9953TIP3   OH229819   5.514   4.669   5.900
 9953TIP3    H129820   5.601   4.695   5.861
 9953TIP3    H229821   5.523   4.711   5.988
 9954TIP3   OH229822   5.578   4.820   6.129
 9954TIP3    H129823   5.500   4.854   6.178
 9954TIP3    H229824   5.609   4.901   6.085
 9955TIP3   OH229825   4.206   4.557   6.929
 9955TIP3    H129826   4.303   4.545   6.931
 9955TIP3    H229827   4.177   4.469   6.959
 9956TIP3   OH229828   6.030   4.407   6.683
 9956TIP3    H129829   6.091   4.342   6.643
 9956TIP3    H229830   6.005   4.462   6.606
 9957TIP3   OH229831   5.458   4.248   5.440
 9957TIP3    H129832   5.506   4.231   5.524
 9957TIP3    H229833   5.397   4.171   5.438
 9958TIP3   OH229834   4.158   4.234   6.262
 9958TIP3    H129835   4.220   4.159   6.269
 9958TIP3    H229836   4.220   4.308   6.253
 9959TIP3   OH229837   3.961   4.506   6.333
 9959TIP3    H129838   4.010   4.502   6.248
 9959TIP3    H229839   3.989   4.592   6.366
 9960TIP3   OH229840   5.902   4.552   6.486
 9960TIP3    H129841   5.817   4.589   6.515
 9960TIP3    H229842   5.871   4.476   6.433
 9961TIP3   OH229843   5.541   4.180   5.075
 9961TIP3    H129844   5.577   4.109   5.018
 9961TIP3    H229845   5.607   4.251   5.066
 9962TIP3   OH229846   3.945   4.012   5.835
 9962TIP3    H129847   3.852   4.007   5.860
 9962TIP3    H229848   3.942   4.070   5.756
 9963TIP3   OH229849   5.106   5.716   5.341
 9963TIP3    H129850   5.154   5.701   5.256
 9963TIP3    H229851   5.162   5.783   5.382
 9964TIP3   OH229852   4.165   4.089   6.648
 9964TIP3    H129853   4.113   4.087   6.730
 9964TIP3    H229854   4.100   4.128   6.586
 9965TIP3   OH229855   4.204   5.522   6.726
 9965TIP3    H129856   4.113   5.492   6.707
 9965TIP3    H229857   4.215   5.496   6.818
 9966TIP3   OH229858   4.383   5.553   6.274
 9966TIP3    H129859   4.336   5.629   6.232
 9966TIP3    H229860   4.470   5.565   6.230
 9967TIP3   OH229861   4.828   5.795   6.414
 9967TIP3    H129862   4.874   5.795   6.500
 9967TIP3    H229863   4.894   5.841   6.358
 9968TIP3   OH229864   5.003   5.947   6.266
 9968TIP3    H129865   5.065   5.888   6.219
 9968TIP3    H229866   5.063   5.993   6.327
 9969TIP3   OH229867   5.802   4.309   6.369
 9969TIP3    H129868   5.712   4.299   6.335
 9969TIP3    H229869   5.835   4.217   6.359
 9970TIP3   OH229870   4.058   5.808   6.295
 9970TIP3    H129871   3.969   5.842   6.271
 9970TIP3    H229872   4.067   5.844   6.384
 9971TIP3   OH229873   4.297   5.788   6.155
 9971TIP3    H129874   4.209   5.800   6.198
 9971TIP3    H229875   4.278   5.819   6.064
 9972TIP3   OH229876   4.718   5.816   5.952
 9972TIP3    H129877   4.649   5.833   5.885
 9972TIP3    H229878   4.729   5.904   5.992
 9973TIP3   OH229879   4.988   5.765   5.997
 9973TIP3    H129880   4.893   5.776   5.976
 9973TIP3    H229881   5.029   5.838   5.950
 9974TIP3   OH229882   5.203   5.951   5.915
 9974TIP3    H129883   5.184   6.030   5.861
 9974TIP3    H229884   5.225   5.884   5.847
 9975TIP3   OH229885   3.970   5.600   6.042
 9975TIP3    H129886   3.997   5.575   6.132
 9975TIP3    H229887   4.042   5.557   5.990
 9976TIP3   OH229888   4.164   5.473   5.899
 9976TIP3    H129889   4.181   5.389   5.948
 9976TIP3    H229890   4.255   5.509   5.893
 9977TIP3   OH229891   4.431   5.567   5.902
 9977TIP3    H129892   4.463   5.476   5.888
 9977TIP3    H229893   4.477   5.588   5.986
 9978TIP3   OH229894   5.009   4.225   5.992
 9978TIP3    H129895   4.963   4.155   6.041
 9978TIP3    H229896   5.079   4.176   5.944
 9979TIP3   OH229897   5.529   4.108   5.897
 9979TIP3    H129898   5.565   4.157   5.819
 9979TIP3    H229899   5.433   4.121   5.886
 9980TIP3   OH229900   5.624   4.203   5.659
 9980TIP3    H129901   5.697   4.152   5.617
 9980TIP3    H229902   5.656   4.295   5.642
 9981TIP3   OH229903   4.254   3.933   6.004
 9981TIP3    H129904   4.162   3.901   6.006
 9981TIP3    H229905   4.302   3.847   6.000
 9982TIP3   OH229906   4.043   3.802   5.653
 9982TIP3    H129907   4.073   3.858   5.579
 9982TIP3    H229908   4.015   3.869   5.719
 9983TIP3   OH229909   4.700   3.963   5.886
 9983TIP3    H129910   4.755   4.012   5.823
 9983TIP3    H229911   4.723   4.006   5.970
 9984TIP3   OH229912   5.247   4.111   5.867
 9984TIP3    H129913   5.243   4.073   5.779
 9984TIP3    H229914   5.233   4.031   5.924
 9985TIP3   OH229915   5.275   4.035   5.432
 9985TIP3    H129916   5.188   4.077   5.442
 9985TIP3    H229917   5.260   3.949   5.477
 9986TIP3   OH229918   3.758   5.375   5.432
 9986TIP3    H129919   3.673   5.341   5.399
 9986TIP3    H229920   3.748   5.469   5.410
 9987TIP3   OH229921   4.159   3.959   5.417
 9987TIP3    H129922   4.207   3.897   5.358
 9987TIP3    H229923   4.233   4.014   5.451
 9988TIP3   OH229924   4.670   4.137   5.515
 9988TIP3    H129925   4.731   4.089   5.573
 9988TIP3    H229926   4.693   4.230   5.539
 9989TIP3   OH229927   4.531   5.561   5.014
 9989TIP3    H129928   4.619   5.584   4.978
 9989TIP3    H229929   4.508   5.487   4.954
 9990TIP3   OH229930   5.251   5.681   5.108
 9990TIP3    H129931   5.244   5.583   5.097
 9990TIP3    H229932   5.204   5.711   5.027
 9991TIP3   OH229933   4.463   4.211   6.896
 9991TIP3    H129934   4.429   4.140   6.952
 9991TIP3    H229935   4.557   4.212   6.923
 9992TIP3   OH229936   4.713   4.206   7.015
 9992TIP3    H129937   4.798   4.190   6.971
 9992TIP3    H229938   4.710   4.132   7.078
 9993TIP3   OH229939   3.835   5.398   5.069
 9993TIP3    H129940   3.837   5.423   5.162
 9993TIP3    H229941   3.923   5.356   5.056
 9994TIP3   OH229942   5.538   4.271   6.802
 9994TIP3    H129943   5.555   4.240   6.893
 9994TIP3    H229944   5.627   4.266   6.762
 9995TIP3   OH229945   5.467   5.825   6.302
 9995TIP3    H129946   5.390   5.798   6.248
 9995TIP3    H229947   5.452   5.921   6.305
 9996TIP3   OH229948   6.742   5.199   5.060
 9996TIP3    H129949   6.709   5.288   5.038
 9996TIP3    H229950   6.670   5.144   5.025
 9997TIP3   OH229951   6.727   5.199   5.447
 9997TIP3    H129952   6.769   5.172   5.531
 9997TIP3    H229953   6.699   5.113   5.411
 9998TIP3   OH229954   6.049   5.103   5.814
 9998TIP3    H129955   6.079   5.126   5.904
 9998TIP3    H229956   6.122   5.137   5.761
 9999TIP3   OH229957   6.965   5.501   5.129
 9999TIP3    H129958   6.977   5.419   5.181
 9999TIP3    H229959   7.020   5.563   5.178
10000TIP3   OH229960   6.018   5.503   5.529
10000TIP3    H129961   6.004   5.406   5.535
10000TIP3    H229962   6.115   5.507   5.527
10001TIP3   OH229963   5.719   4.706   5.317
10001TIP3    H129964   5.667   4.787   5.331
10001TIP3    H229965   5.651   4.649   5.276
10002TIP3   OH229966   5.782   4.994   5.488
10002TIP3    H129967   5.828   4.914   5.521
10002TIP3    H229968   5.829   5.012   5.406
10003TIP3   OH229969   6.538   5.423   5.484
10003TIP3    H129970   6.574   5.340   5.449
10003TIP3    H229971   6.623   5.464   5.512
10004TIP3   OH229972   7.549   4.700   5.460
10004TIP3    H129973   7.555   4.788   5.505
10004TIP3    H229974   7.574   4.724   5.369
10005TIP3   OH229975   6.950   4.925   5.521
10005TIP3    H129976   6.996   4.841   5.544
10005TIP3    H229977   6.922   4.905   5.430
10006TIP3   OH229978   6.287   4.582   5.490
10006TIP3    H129979   6.272   4.654   5.425
10006TIP3    H229980   6.243   4.508   5.442
10007TIP3   OH229981   6.982   4.679   5.109
10007TIP3    H129982   7.049   4.656   5.178
10007TIP3    H229983   7.043   4.707   5.037
10008TIP3   OH229984   5.922   4.784   5.593
10008TIP3    H129985   6.006   4.765   5.638
10008TIP3    H229986   5.933   4.728   5.513
10009TIP3   OH229987   6.365   4.982   5.389
10009TIP3    H129988   6.459   4.957   5.399
10009TIP3    H229989   6.326   4.898   5.356
10010TIP3   OH229990   7.562   4.920   5.613
10010TIP3    H129991   7.486   4.981   5.611
10010TIP3    H229992   7.625   4.969   5.670
10011TIP3   OH229993   6.268   4.586   5.949
10011TIP3    H129994   6.214   4.610   5.872
10011TIP3    H229995   6.225   4.506   5.983
10012TIP3   OH229996   6.627   5.419   4.934
10012TIP3    H129997   6.593   5.390   4.848
10012TIP3    H229998   6.570   5.494   4.955
10013TIP3   OH229999   6.401   5.342   5.715
10013TIP3    H130000   6.339   5.406   5.755
10013TIP3    H230001   6.438   5.393   5.641
10014TIP3   OH230002   7.189   4.672   5.283
10014TIP3    H130003   7.223   4.591   5.325
10014TIP3    H230004   7.248   4.741   5.317
10015TIP3   OH230005   6.158   4.678   5.710
10015TIP3    H130006   6.219   4.751   5.733
10015TIP3    H230007   6.204   4.640   5.631
10016TIP3   OH230008   6.227   5.534   5.814
10016TIP3    H130009   6.192   5.617   5.776
10016TIP3    H230010   6.150   5.510   5.870
10017TIP3   OH230011   5.615   5.225   5.049
10017TIP3    H130012   5.573   5.251   4.965
10017TIP3    H230013   5.645   5.312   5.084
10018TIP3   OH230014   6.991   5.761   5.290
10018TIP3    H130015   6.997   5.696   5.361
10018TIP3    H230016   7.068   5.815   5.314
10019TIP3   OH230017   7.345   4.645   5.653
10019TIP3    H130018   7.257   4.664   5.616
10019TIP3    H230019   7.402   4.654   5.574
10020TIP3   OH230020   6.639   4.284   5.629
10020TIP3    H130021   6.633   4.189   5.648
10020TIP3    H230022   6.563   4.317   5.681
10021TIP3   OH230023   6.764   5.802   4.998
10021TIP3    H130024   6.796   5.714   4.965
10021TIP3    H230025   6.822   5.857   4.940
10022TIP3   OH230026   6.877   5.589   4.886
10022TIP3    H130027   6.866   5.514   4.826
10022TIP3    H230028   6.917   5.545   4.964
10023TIP3   OH230029   6.575   5.053   4.891
10023TIP3    H130030   6.493   5.100   4.866
10023TIP3    H230031   6.620   5.042   4.805
10024TIP3   OH230032   6.531   4.833   4.607
10024TIP3    H130033   6.600   4.884   4.653
10024TIP3    H230034   6.587   4.768   4.560
10025TIP3   OH230035   7.494   5.296   5.476
10025TIP3    H130036   7.403   5.334   5.479
10025TIP3    H230037   7.520   5.324   5.386
10026TIP3   OH230038   6.921   5.134   4.862
10026TIP3    H130039   6.868   5.153   4.942
10026TIP3    H230040   7.005   5.104   4.903
10027TIP3   OH230041   7.143   5.189   5.767
10027TIP3    H130042   7.146   5.284   5.789
10027TIP3    H230043   7.054   5.183   5.728
10028TIP3   OH230044   6.154   5.131   5.280
10028TIP3    H130045   6.108   5.073   5.214
10028TIP3    H230046   6.228   5.074   5.309
10029TIP3   OH230047   6.291   5.549   5.423
10029TIP3    H130048   6.259   5.506   5.343
10029TIP3    H230049   6.375   5.502   5.441
10030TIP3   OH230050   6.290   5.101   5.630
10030TIP3    H130051   6.325   5.076   5.541
10030TIP3    H230052   6.337   5.185   5.648
10031TIP3   OH230053   6.423   5.684   5.952
10031TIP3    H130054   6.362   5.715   6.021
10031TIP3    H230055   6.366   5.618   5.907
10032TIP3   OH230056   6.758   4.993   4.688
10032TIP3    H130057   6.819   5.050   4.739
10032TIP3    H230058   6.785   5.014   4.596
10033TIP3   OH230059   6.169   5.214   6.050
10033TIP3    H130060   6.182   5.301   6.092
10033TIP3    H230061   6.083   5.189   6.090
10034TIP3   OH230062   6.507   5.691   4.986
10034TIP3    H130063   6.582   5.741   4.952
10034TIP3    H230064   6.436   5.713   4.925
10035TIP3   OH230065   6.202   5.842   6.031
10035TIP3    H130066   6.132   5.778   6.007
10035TIP3    H230067   6.190   5.839   6.128
10036TIP3   OH230068   7.269   4.229   4.732
10036TIP3    H130069   7.189   4.248   4.786
10036TIP3    H230070   7.284   4.315   4.688
10037TIP3   OH230071   6.015   4.974   5.091
10037TIP3    H130072   5.950   5.016   5.031
10037TIP3    H230073   5.983   4.883   5.094
10038TIP3   OH230074   7.077   5.598   4.292
10038TIP3    H130075   7.085   5.693   4.268
10038TIP3    H230076   7.168   5.566   4.275
10039TIP3   OH230077   5.797   5.346   5.995
10039TIP3    H130078   5.726   5.341   5.927
10039TIP3    H230079   5.828   5.254   5.998
10040TIP3   OH230080   5.652   5.556   5.613
10040TIP3    H130081   5.748   5.553   5.619
10040TIP3    H230082   5.630   5.629   5.672
10041TIP3   OH230083   6.603   5.800   5.794
10041TIP3    H130084   6.649   5.866   5.849
10041TIP3    H230085   6.543   5.757   5.860
10042TIP3   OH230086   6.395   5.914   4.768
10042TIP3    H130087   6.343   5.890   4.689
10042TIP3    H230088   6.355   5.999   4.795
10043TIP3   OH230089   5.824   5.763   5.150
10043TIP3    H130090   5.866   5.753   5.238
10043TIP3    H230091   5.767   5.684   5.148
10044TIP3   OH230092   6.589   5.817   4.406
10044TIP3    H130093   6.646   5.747   4.367
10044TIP3    H230094   6.627   5.825   4.495
10045TIP3   OH230095   6.645   5.868   4.680
10045TIP3    H130096   6.553   5.879   4.713
10045TIP3    H230097   6.676   5.792   4.730
10046TIP3   OH230098   7.391   5.141   5.906
10046TIP3    H130099   7.319   5.160   5.844
10046TIP3    H230100   7.423   5.054   5.875
10047TIP3   OH230101   6.000   5.534   5.969
10047TIP3    H130102   6.045   5.526   6.056
10047TIP3    H230103   5.926   5.471   5.981
10048TIP3   OH230104   6.405   4.358   5.767
10048TIP3    H130105   6.315   4.329   5.741
10048TIP3    H230106   6.392   4.453   5.776
10049TIP3   OH230107   6.940   4.479   5.959
10049TIP3    H130108   7.010   4.444   6.019
10049TIP3    H230109   6.858   4.455   6.006
10050TIP3   OH230110   7.153   4.908   5.869
10050TIP3    H130111   7.113   4.903   5.959
10050TIP3    H230112   7.140   5.001   5.844
10051TIP3   OH230113   6.837   5.041   4.435
10051TIP3    H130114   6.801   5.012   4.349
10051TIP3    H230115   6.923   5.079   4.406
10052TIP3   OH230116   6.548   4.412   4.736
10052TIP3    H130117   6.517   4.407   4.829
10052TIP3    H230118   6.512   4.329   4.702
10053TIP3   OH230119   6.333   4.881   5.782
10053TIP3    H130120   6.348   4.933   5.864
10053TIP3    H230121   6.312   4.953   5.720
10054TIP3   OH230122   6.219   4.764   5.300
10054TIP3    H130123   6.126   4.735   5.315
10054TIP3    H230124   6.234   4.724   5.211
10055TIP3   OH230125   6.712   4.851   5.026
10055TIP3    H130126   6.661   4.921   4.980
10055TIP3    H230127   6.767   4.815   4.954
10056TIP3   OH230128   6.885   5.133   6.116
10056TIP3    H130129   6.863   5.057   6.174
10056TIP3    H230130   6.982   5.135   6.124
10057TIP3   OH230131   6.864   4.878   5.263
10057TIP3    H130132   6.804   4.899   5.188
10057TIP3    H230133   6.904   4.797   5.225
10058TIP3   OH230134   6.204   4.384   4.701
10058TIP3    H130135   6.196   4.381   4.798
10058TIP3    H230136   6.125   4.435   4.677
10059TIP3   OH230137   5.746   4.428   5.575
10059TIP3    H130138   5.825   4.458   5.623
10059TIP3    H230139   5.782   4.396   5.490
10060TIP3   OH230140   5.721   4.409   5.093
10060TIP3    H130141   5.766   4.445   5.014
10060TIP3    H230142   5.658   4.482   5.111
10061TIP3   OH230143   6.868   5.120   5.685
10061TIP3    H130144   6.905   5.050   5.626
10061TIP3    H230145   6.845   5.065   5.763
10062TIP3   OH230146   6.548   4.598   5.360
10062TIP3    H130147   6.469   4.584   5.415
10062TIP3    H230148   6.621   4.578   5.421
10063TIP3   OH230149   5.980   4.639   5.367
10063TIP3    H130150   5.887   4.647   5.338
10063TIP3    H230151   6.004   4.548   5.341
10064TIP3   OH230152   6.248   4.640   5.057
10064TIP3    H130153   6.343   4.650   5.037
10064TIP3    H230154   6.204   4.660   4.972
10065TIP3   OH230155   7.034   4.669   5.572
10065TIP3    H130156   6.987   4.671   5.658
10065TIP3    H230157   6.987   4.599   5.524
10066TIP3   OH230158   6.092   4.675   4.834
10066TIP3    H130159   6.021   4.627   4.787
10066TIP3    H230160   6.144   4.708   4.758
10067TIP3   OH230161   6.156   5.454   6.193
10067TIP3    H130162   6.242   5.466   6.240
10067TIP3    H230163   6.094   5.468   6.267
10068TIP3   OH230164   6.632   4.915   5.455
10068TIP3    H130165   6.700   4.877   5.397
10068TIP3    H230166   6.646   4.865   5.537
10069TIP3   OH230167   6.154   4.401   5.333
10069TIP3    H130168   6.120   4.322   5.380
10069TIP3    H230169   6.207   4.362   5.263
10070TIP3   OH230170   6.608   4.804   5.749
10070TIP3    H130171   6.522   4.849   5.754
10070TIP3    H230172   6.669   4.865   5.795
10071TIP3   OH230173   6.340   5.205   4.840
10071TIP3    H130174   6.271   5.135   4.829
10071TIP3    H230175   6.321   5.235   4.933
10072TIP3   OH230176   7.251   5.407   5.463
10072TIP3    H130177   7.265   5.470   5.391
10072TIP3    H230178   7.156   5.384   5.454
10073TIP3   OH230179   6.799   4.516   4.698
10073TIP3    H130180   6.704   4.495   4.713
10073TIP3    H230181   6.807   4.608   4.730
10074TIP3   OH230182   6.760   5.547   5.840
10074TIP3    H130183   6.731   5.501   5.922
10074TIP3    H230184   6.681   5.602   5.826
10075TIP3   OH230185   6.870   4.762   4.809
10075TIP3    H130186   6.966   4.763   4.826
10075TIP3    H230187   6.857   4.841   4.754
10076TIP3   OH230188   6.043   5.225   5.517
10076TIP3    H130189   6.073   5.202   5.427
10076TIP3    H230190   6.077   5.151   5.568
10077TIP3   OH230191   6.488   5.354   4.666
10077TIP3    H130192   6.440   5.439   4.671
10077TIP3    H230193   6.431   5.297   4.723
10078TIP3   OH230194   5.933   5.098   6.127
10078TIP3    H130195   5.926   5.111   6.224
10078TIP3    H230196   5.840   5.075   6.104
10079TIP3   OH230197   6.629   5.219   6.146
10079TIP3    H130198   6.592   5.201   6.059
10079TIP3    H230199   6.723   5.196   6.131
10080TIP3   OH230200   6.876   5.793   5.722
10080TIP3    H130201   6.785   5.768   5.704
10080TIP3    H230202   6.900   5.731   5.793
10081TIP3   OH230203   7.312   4.851   4.643
10081TIP3    H130204   7.249   4.807   4.581
10081TIP3    H230205   7.310   4.940   4.602
10082TIP3   OH230206   7.017   5.665   4.554
10082TIP3    H130207   6.991   5.586   4.603
10082TIP3    H230208   7.030   5.630   4.464
10083TIP3   OH230209   6.997   5.309   5.367
10083TIP3    H130210   6.909   5.277   5.394
10083TIP3    H230211   7.037   5.226   5.335
10084TIP3   OH230212   6.136   5.531   5.145
10084TIP3    H130213   6.129   5.611   5.090
10084TIP3    H230214   6.043   5.505   5.151
10085TIP3   OH230215   5.701   4.831   4.847
10085TIP3    H130216   5.745   4.916   4.867
10085TIP3    H230217   5.623   4.835   4.906
10086TIP3   OH230218   6.275   5.297   5.087
10086TIP3    H130219   6.236   5.384   5.109
10086TIP3    H230220   6.240   5.241   5.159
10087TIP3   OH230221   6.399   5.881   5.624
10087TIP3    H130222   6.436   5.966   5.599
10087TIP3    H230223   6.476   5.839   5.669
10088TIP3   OH230224   6.058   5.765   4.995
10088TIP3    H130225   5.971   5.775   5.040
10088TIP3    H230226   6.090   5.858   4.996
10089TIP3   OH230227   6.785   5.508   5.564
10089TIP3    H130228   6.787   5.507   5.662
10089TIP3    H230229   6.875   5.472   5.548
10090TIP3   OH230230   6.770   5.402   4.454
10090TIP3    H130231   6.821   5.375   4.533
10090TIP3    H230232   6.683   5.366   4.475
10091TIP3   OH230233   7.106   5.871   4.271
10091TIP3    H130234   7.139   5.937   4.207
10091TIP3    H230235   7.026   5.919   4.302
10092TIP3   OH230236   6.930   5.346   4.678
10092TIP3    H130237   6.917   5.273   4.743
10092TIP3    H230238   7.026   5.333   4.659
10093TIP3   OH230239   5.853   5.732   5.770
10093TIP3    H130240   5.898   5.655   5.809
10093TIP3    H230241   5.858   5.796   5.842
10094TIP3   OH230242   6.136   5.378   4.452
10094TIP3    H130243   6.146   5.286   4.422
10094TIP3    H230244   6.112   5.365   4.546
10095TIP3   OH230245   6.081   5.383   4.723
10095TIP3    H130246   6.151   5.354   4.781
10095TIP3    H230247   6.085   5.481   4.733
10096TIP3   OH230248   5.816   5.078   4.927
10096TIP3    H130249   5.748   5.121   4.984
10096TIP3    H230250   5.827   5.146   4.858
10097TIP3   OH230251   6.945   4.723   5.831
10097TIP3    H130252   7.034   4.759   5.843
10097TIP3    H230253   6.949   4.638   5.881
10098TIP3   OH230254   6.838   4.467   4.985
10098TIP3    H130255   6.836   4.489   4.891
10098TIP3    H230256   6.882   4.545   5.025
10099TIP3   OH230257   6.355   5.590   4.684
10099TIP3    H130258   6.263   5.610   4.713
10099TIP3    H230259   6.357   5.640   4.601
10100TIP3   OH230260   6.528   4.649   5.087
10100TIP3    H130261   6.598   4.716   5.070
10100TIP3    H230262   6.539   4.636   5.184
10101TIP3   OH230263   6.801   4.960   5.894
10101TIP3    H130264   6.829   5.003   5.977
10101TIP3    H230265   6.853   4.877   5.895
10102TIP3   OH230266   6.672   4.370   5.185
10102TIP3    H130267   6.689   4.436   5.254
10102TIP3    H230268   6.739   4.398   5.119
10103TIP3   OH230269   6.095   5.656   4.741
10103TIP3    H130270   6.062   5.723   4.677
10103TIP3    H230271   6.074   5.699   4.826
10104TIP3   OH230272   6.189   4.371   4.978
10104TIP3    H130273   6.189   4.460   5.016
10104TIP3    H230274   6.285   4.351   4.986
10105TIP3   OH230275   7.426   4.868   5.862
10105TIP3    H130276   7.328   4.864   5.871
10105TIP3    H230277   7.437   4.831   5.773
10106TIP3   OH230278   7.093   5.059   5.265
10106TIP3    H130279   7.020   4.995   5.275
10106TIP3    H230280   7.167   5.011   5.309
10107TIP3   OH230281   5.807   5.284   4.732
10107TIP3    H130282   5.873   5.355   4.739
10107TIP3    H230283   5.852   5.227   4.665
10108TIP3   OH230284   5.750   4.561   4.868
10108TIP3    H130285   5.749   4.659   4.864
10108TIP3    H230286   5.670   4.538   4.819
10109TIP3   OH230287   6.137   4.285   5.742
10109TIP3    H130288   6.110   4.251   5.654
10109TIP3    H230289   6.129   4.205   5.798
10110TIP3   OH230290   5.679   5.501   5.118
10110TIP3    H130291   5.611   5.529   5.180
10110TIP3    H230292   5.646   5.542   5.034
10111TIP3   OH230293   5.837   6.033   6.201
10111TIP3    H130294   5.923   6.003   6.233
10111TIP3    H230295   5.797   5.945   6.184
10112TIP3   OH230296   6.302   5.581   4.371
10112TIP3    H130297   6.243   5.507   4.401
10112TIP3    H230298   6.373   5.530   4.328
10113TIP3   OH230299   6.735   5.624   4.278
10113TIP3    H130300   6.777   5.555   4.332
10113TIP3    H230301   6.787   5.620   4.195
10114TIP3   OH230302   5.953   5.444   6.384
10114TIP3    H130303   5.965   5.348   6.392
10114TIP3    H230304   5.863   5.450   6.346
10115TIP3   OH230305   5.943   5.100   4.585
10115TIP3    H130306   5.997   5.064   4.657
10115TIP3    H230307   6.009   5.104   4.513
10116TIP3   OH230308   6.623   5.485   6.065
10116TIP3    H130309   6.556   5.548   6.098
10116TIP3    H230310   6.612   5.410   6.125
10117TIP3   OH230311   6.458   5.298   4.395
10117TIP3    H130312   6.456   5.307   4.492
10117TIP3    H230313   6.457   5.200   4.386
10118TIP3   OH230314   7.040   5.478   5.689
10118TIP3    H130315   7.125   5.522   5.713
10118TIP3    H230316   6.989   5.511   5.764
10119TIP3   OH230317   6.094   5.165   6.370
10119TIP3    H130318   6.183   5.129   6.358
10119TIP3    H230319   6.106   5.214   6.454
10120TIP3   OH230320   6.155   5.002   4.810
10120TIP3    H130321   6.124   4.956   4.889
10120TIP3    H230322   6.190   4.928   4.756
10121TIP3   OH230323   6.388   5.035   5.999
10121TIP3    H130324   6.327   5.105   6.026
10121TIP3    H230325   6.457   5.087   5.951
10122TIP3   OH230326   6.251   4.799   4.647
10122TIP3    H130327   6.226   4.802   4.552
10122TIP3    H230328   6.349   4.798   4.641
10123TIP3   OH230329   7.071   5.127   4.313
10123TIP3    H130330   7.053   5.081   4.229
10123TIP3    H230331   7.037   5.217   4.288
10124TIP3   OH230332   6.536   4.854   6.160
10124TIP3    H130333   6.546   4.771   6.110
10124TIP3    H230334   6.494   4.912   6.094
10125TIP3   OH230335   6.542   4.641   5.972
10125TIP3    H130336   6.574   4.681   5.889
10125TIP3    H230337   6.446   4.633   5.958
10126TIP3   OH230338   6.569   5.178   5.861
10126TIP3    H130339   6.651   5.173   5.811
10126TIP3    H230340   6.516   5.240   5.807
10127TIP3   OH230341   6.409   4.969   6.385
10127TIP3    H130342   6.352   4.893   6.405
10127TIP3    H230343   6.452   4.940   6.302
10128TIP3   OH230344   6.678   4.405   6.037
10128TIP3    H130345   6.628   4.486   6.014
10128TIP3    H230346   6.611   4.335   6.024
10129TIP3   OH230347   6.800   4.914   6.249
10129TIP3    H130348   6.806   4.894   6.344
10129TIP3    H230349   6.707   4.889   6.231
10130TIP3   OH230350   7.047   4.872   6.115
10130TIP3    H130351   6.972   4.863   6.176
10130TIP3    H230352   7.124   4.855   6.173
10131TIP3   OH230353   7.269   4.794   6.293
10131TIP3    H130354   7.272   4.697   6.298
10131TIP3    H230355   7.211   4.818   6.367
10132TIP3   OH230356   6.268   4.740   6.441
10132TIP3    H130357   6.268   4.646   6.412
10132TIP3    H230358   6.307   4.731   6.531
10133TIP3   OH230359   6.768   4.407   6.293
10133TIP3    H130360   6.838   4.339   6.286
10133TIP3    H230361   6.732   4.405   6.202
10134TIP3   OH230362   6.824   4.616   6.456
10134TIP3    H130363   6.807   4.544   6.391
10134TIP3    H230364   6.745   4.673   6.444
10135TIP3   OH230365   6.060   5.859   4.555
10135TIP3    H130366   6.155   5.857   4.532
10135TIP3    H230367   6.026   5.907   4.477
10136TIP3   OH230368   5.538   5.240   4.770
10136TIP3    H130369   5.633   5.260   4.754
10136TIP3    H230370   5.531   5.151   4.728
10137TIP3   OH230371   5.455   5.853   5.182
10137TIP3    H130372   5.388   5.792   5.144
10137TIP3    H230373   5.498   5.794   5.248
10138TIP3   OH230374   5.589   5.703   5.370
10138TIP3    H130375   5.577   5.629   5.433
10138TIP3    H230376   5.637   5.765   5.427
10139TIP3   OH230377   7.203   5.317   4.645
10139TIP3    H130378   7.276   5.374   4.612
10139TIP3    H230379   7.246   5.275   4.723
10140TIP3   OH230380   7.325   5.182   4.845
10140TIP3    H130381   7.265   5.136   4.907
10140TIP3    H230382   7.398   5.211   4.904
10141TIP3   OH230383   7.349   5.550   5.246
10141TIP3    H130384   7.425   5.490   5.239
10141TIP3    H230385   7.392   5.637   5.240
10142TIP3   OH230386   7.274   5.091   4.494
10142TIP3    H130387   7.203   5.091   4.426
10142TIP3    H230388   7.243   5.165   4.550
10143TIP3   OH230389   7.141   4.764   4.449
10143TIP3    H130390   7.102   4.795   4.367
10143TIP3    H230391   7.120   4.668   4.445
10144TIP3   OH230392   7.146   5.036   4.995
10144TIP3    H130393   7.156   4.939   4.986
10144TIP3    H230394   7.135   5.047   5.092
10145TIP3   OH230395   5.781   5.099   5.743
10145TIP3    H130396   5.775   5.076   5.648
10145TIP3    H230397   5.878   5.104   5.755
10146TIP3   OH230398   7.088   4.498   4.435
10146TIP3    H130399   7.164   4.467   4.487
10146TIP3    H230400   7.017   4.436   4.459
10147TIP3   OH230401   7.147   4.752   4.888
10147TIP3    H130402   7.185   4.663   4.905
10147TIP3    H230403   7.207   4.781   4.817
10148TIP3   OH230404   7.309   4.931   5.381
10148TIP3    H130405   7.399   4.953   5.346
10148TIP3    H230406   7.315   4.972   5.469
10149TIP3   OH230407   7.350   5.089   5.606
10149TIP3    H130408   7.271   5.127   5.648
10149TIP3    H230409   7.395   5.169   5.571
10150TIP3   OH230410   6.013   4.788   6.391
10150TIP3    H130411   6.105   4.781   6.425
10150TIP3    H230412   5.973   4.709   6.436
10151TIP3   OH230413   7.252   4.503   4.929
10151TIP3    H130414   7.301   4.487   5.013
10151TIP3    H230415   7.192   4.426   4.929
10152TIP3   OH230416   5.953   4.491   5.751
10152TIP3    H130417   6.012   4.413   5.754
10152TIP3    H230418   6.017   4.562   5.735
10153TIP3   OH230419   5.765   4.765   5.827
10153TIP3    H130420   5.810   4.756   5.741
10153TIP3    H230421   5.768   4.861   5.839
10154TIP3   OH230422   7.677   4.788   5.922
10154TIP3    H130423   7.587   4.826   5.917
10154TIP3    H230424   7.656   4.697   5.891
10155TIP3   OH230425   7.334   4.441   4.556
10155TIP3    H130426   7.374   4.365   4.509
10155TIP3    H230427   7.406   4.507   4.554
10156TIP3   OH230428   5.741   4.275   5.327
10156TIP3    H130429   5.646   4.264   5.347
10156TIP3    H230430   5.738   4.329   5.245
10157TIP3   OH230431   6.932   5.947   4.844
10157TIP3    H130432   6.953   5.933   4.749
10157TIP3    H230433   6.916   6.043   4.845
10158TIP3   OH230434   5.960   4.349   6.132
10158TIP3    H130435   5.912   4.342   6.216
10158TIP3    H230436   5.891   4.386   6.073
10159TIP3   OH230437   5.986   5.776   6.189
10159TIP3    H130438   5.902   5.735   6.215
10159TIP3    H230439   6.048   5.752   6.262
10160TIP3   OH230440   6.171   5.797   5.741
10160TIP3    H130441   6.106   5.852   5.693
10160TIP3    H230442   6.250   5.807   5.685
10161TIP3   OH230443   7.587   4.542   5.843
10161TIP3    H130444   7.502   4.526   5.798
10161TIP3    H230445   7.629   4.453   5.835
10162TIP3   OH230446   5.857   6.068   5.790
10162TIP3    H130447   5.770   6.100   5.758
10162TIP3    H230448   5.858   6.110   5.877
10163TIP3   OH230449   6.081   6.032   5.638
10163TIP3    H130450   5.994   6.050   5.681
10163TIP3    H230451   6.066   6.072   5.550
10164TIP3   OH230452   5.769   5.861   5.530
10164TIP3    H130453   5.796   5.832   5.619
10164TIP3    H230454   5.837   5.814   5.477
10165TIP3   OH230455   5.960   5.729   5.385
10165TIP3    H130456   5.976   5.645   5.435
10165TIP3    H230457   6.051   5.760   5.370
10166TIP3   OH230458   6.233   5.820   5.380
10166TIP3    H130459   6.263   5.727   5.374
10166TIP3    H230460   6.266   5.843   5.468
10167TIP3   OH230461   6.805   4.464   5.458
10167TIP3    H130462   6.763   4.400   5.518
10167TIP3    H230463   6.875   4.407   5.417
10168TIP3   OH230464   7.308   4.396   5.394
10168TIP3    H130465   7.349   4.412   5.306
10168TIP3    H230466   7.226   4.347   5.369
10169TIP3   OH230467   7.420   4.467   5.145
10169TIP3    H130468   7.489   4.407   5.110
10169TIP3    H230469   7.460   4.555   5.126
10170TIP3   OH230470   6.051   4.191   5.495
10170TIP3    H130471   5.958   4.159   5.495
10170TIP3    H230472   6.099   4.105   5.489
10171TIP3   OH230473   5.841   4.059   5.141
10171TIP3    H130474   5.870   4.114   5.066
10171TIP3    H230475   5.812   4.125   5.205
10172TIP3   OH230476   6.492   4.226   5.375
10172TIP3    H130477   6.548   4.264   5.305
10172TIP3    H230478   6.536   4.258   5.455
10173TIP3   OH230479   7.069   4.291   4.916
10173TIP3    H130480   6.984   4.332   4.940
10173TIP3    H230481   7.064   4.210   4.971
10174TIP3   OH230482   5.555   5.632   4.918
10174TIP3    H130483   5.470   5.597   4.886
10174TIP3    H230484   5.544   5.726   4.894
10175TIP3   OH230485   5.956   4.216   4.903
10175TIP3    H130486   6.003   4.154   4.845
10175TIP3    H230487   6.030   4.270   4.937
10176TIP3   OH230488   6.466   4.396   5.001
10176TIP3    H130489   6.528   4.348   5.059
10176TIP3    H230490   6.490   4.487   5.026
10177TIP3   OH230491   6.328   5.820   4.500
10177TIP3    H130492   6.416   5.843   4.462
10177TIP3    H230493   6.304   5.746   4.441
10178TIP3   OH230494   7.035   5.933   4.593
10178TIP3    H130495   7.032   5.835   4.577
10178TIP3    H230496   6.996   5.966   4.509
10179TIP3   OH230497   6.262   4.468   6.396
10179TIP3    H130498   6.228   4.393   6.446
10179TIP3    H230499   6.357   4.466   6.420
10180TIP3   OH230500   6.514   4.467   6.505
10180TIP3    H130501   6.598   4.441   6.463
10180TIP3    H230502   6.503   4.395   6.570
10181TIP3   OH230503   5.631   5.656   4.555
10181TIP3    H130504   5.629   5.680   4.649
10181TIP3    H230505   5.720   5.613   4.546
10182TIP3   OH230506   7.300   4.523   6.292
10182TIP3    H130507   7.328   4.482   6.377
10182TIP3    H230508   7.377   4.508   6.234
10183TIP3   OH230509   7.519   4.960   4.802
10183TIP3    H130510   7.471   5.043   4.815
10183TIP3    H230511   7.448   4.904   4.767
10184TIP3   OH230512   7.556   5.240   4.975
10184TIP3    H130513   7.611   5.165   5.004
10184TIP3    H230514   7.624   5.303   4.942
10185TIP3   OH230515   7.715   5.045   5.081
10185TIP3    H130516   7.795   5.021   5.131
10185TIP3    H230517   7.727   4.988   5.001
10186TIP3   OH230518   8.153   5.237   4.845
10186TIP3    H130519   8.242   5.206   4.863
10186TIP3    H230520   8.107   5.152   4.824
10187TIP3   OH230521   8.049   4.773   5.387
10187TIP3    H130522   8.015   4.852   5.341
10187TIP3    H230523   7.985   4.766   5.461
10188TIP3   OH230524   7.959   4.953   5.178
10188TIP3    H130525   8.020   5.024   5.204
10188TIP3    H230526   7.978   4.943   5.084
10189TIP3   OH230527   7.408   5.476   4.534
10189TIP3    H130528   7.371   5.503   4.447
10189TIP3    H230529   7.437   5.560   4.573
10190TIP3   OH230530   7.937   5.388   4.766
10190TIP3    H130531   7.904   5.326   4.698
10190TIP3    H230532   8.013   5.338   4.803
10191TIP3   OH230533   7.817   5.225   4.567
10191TIP3    H130534   7.749   5.268   4.512
10191TIP3    H230535   7.775   5.141   4.590
10192TIP3   OH230536   7.610   6.007   4.644
10192TIP3    H130537   7.649   6.008   4.732
10192TIP3    H230538   7.568   5.919   4.641
10193TIP3   OH230539   8.014   5.012   4.781
10193TIP3    H130540   7.928   4.977   4.813
10193TIP3    H230541   8.030   4.956   4.704
10194TIP3   OH230542   8.013   4.682   4.202
10194TIP3    H130543   7.978   4.639   4.281
10194TIP3    H230544   7.932   4.698   4.151
10195TIP3   OH230545   7.546   4.691   5.055
10195TIP3    H130546   7.627   4.714   5.104
10195TIP3    H230547   7.578   4.649   4.974
10196TIP3   OH230548   7.516   4.664   4.579
10196TIP3    H130549   7.562   4.702   4.500
10196TIP3    H230550   7.455   4.737   4.599
10197TIP3   OH230551   8.286   4.893   4.930
10197TIP3    H130552   8.228   4.842   4.875
10197TIP3    H230553   8.372   4.852   4.917
10198TIP3   OH230554   7.779   4.894   4.865
10198TIP3    H130555   7.687   4.901   4.831
10198TIP3    H230556   7.805   4.803   4.842
10199TIP3   OH230557   8.055   4.878   4.525
10199TIP3    H130558   8.124   4.941   4.500
10199TIP3    H230559   7.984   4.902   4.460
10200TIP3   OH230560   7.880   4.936   4.329
10200TIP3    H130561   7.811   4.885   4.285
10200TIP3    H230562   7.933   4.963   4.251
10201TIP3   OH230563   7.963   4.665   4.827
10201TIP3    H130564   7.919   4.596   4.881
10201TIP3    H230565   7.981   4.616   4.746
10202TIP3   OH230566   8.121   5.470   4.325
10202TIP3    H130567   8.059   5.396   4.311
10202TIP3    H230568   8.101   5.496   4.418
10203TIP3   OH230569   7.751   5.436   4.957
10203TIP3    H130570   7.802   5.439   4.873
10203TIP3    H230571   7.825   5.442   5.019
10204TIP3   OH230572   7.892   5.754   4.576
10204TIP3    H130573   7.882   5.818   4.503
10204TIP3    H230574   7.801   5.735   4.600
10205TIP3   OH230575   7.496   5.088   4.331
10205TIP3    H130576   7.543   5.170   4.353
10205TIP3    H230577   7.420   5.092   4.393
10206TIP3   OH230578   8.064   5.542   4.576
10206TIP3    H130579   8.011   5.623   4.584
10206TIP3    H230580   8.037   5.495   4.657
10207TIP3   OH230581   7.840   5.999   4.467
10207TIP3    H130582   7.760   6.011   4.522
10207TIP3    H230583   7.895   6.069   4.506
10208TIP3   OH230584   7.915   4.827   5.640
10208TIP3    H130585   7.847   4.872   5.692
10208TIP3    H230586   7.962   4.779   5.710
10209TIP3   OH230587   7.931   5.630   3.943
10209TIP3    H130588   7.946   5.539   3.910
10209TIP3    H230589   7.911   5.614   4.037
10210TIP3   OH230590   7.876   5.634   4.218
10210TIP3    H130591   7.962   5.603   4.251
10210TIP3    H230592   7.886   5.731   4.221
10211TIP3   OH230593   7.612   5.331   4.413
10211TIP3    H130594   7.544   5.375   4.469
10211TIP3    H230595   7.629   5.400   4.347
10212TIP3   OH230596   8.151   5.862   4.162
10212TIP3    H130597   8.058   5.879   4.189
10212TIP3    H230598   8.147   5.876   4.067
10213TIP3   OH230599   7.883   5.907   4.217
10213TIP3    H130600   7.858   5.978   4.153
10213TIP3    H230601   7.866   5.952   4.302
10214TIP3   OH230602   7.966   4.615   4.477
10214TIP3    H130603   7.989   4.707   4.501
10214TIP3    H230604   8.053   4.573   4.471
10215TIP3   OH230605   7.605   5.545   4.220
10215TIP3    H130606   7.682   5.604   4.228
10215TIP3    H230607   7.643   5.483   4.153
10216TIP3   OH230608   7.549   4.819   4.355
10216TIP3    H130609   7.546   4.916   4.349
10216TIP3    H230610   7.470   4.794   4.306
10217TIP3   OH230611   7.966   4.541   5.216
10217TIP3    H130612   7.920   4.512   5.134
10217TIP3    H230613   7.939   4.469   5.277
10218TIP3   OH230614   7.468   5.761   4.613
10218TIP3    H130615   7.373   5.775   4.623
10218TIP3    H230616   7.477   5.785   4.520
10219TIP3   OH230617   8.098   5.829   3.865
10219TIP3    H130618   8.031   5.763   3.894
10219TIP3    H230619   8.173   5.771   3.848
10220TIP3   OH230620   7.735   5.356   4.077
10220TIP3    H130621   7.795   5.324   4.147
10220TIP3    H230622   7.798   5.359   4.002
10221TIP3   OH230623   7.940   5.257   4.294
10221TIP3    H130624   7.914   5.217   4.378
10221TIP3    H230625   7.975   5.181   4.244
10222TIP3   OH230626   8.039   5.051   4.134
10222TIP3    H130627   8.002   5.052   4.042
10222TIP3    H230628   8.130   5.078   4.115
10223TIP3   OH230629   7.861   6.114   4.041
10223TIP3    H130630   7.953   6.118   4.014
10223TIP3    H230631   7.820   6.157   3.964
10224TIP3   OH230632   7.336   5.497   4.259
10224TIP3    H130633   7.430   5.519   4.240
10224TIP3    H230634   7.328   5.408   4.218
10225TIP3   OH230635   7.237   6.074   4.708
10225TIP3    H130636   7.171   6.034   4.648
10225TIP3    H230637   7.317   6.028   4.681
10226TIP3   OH230638   7.573   5.373   5.224
10226TIP3    H130639   7.559   5.336   5.134
10226TIP3    H230640   7.665   5.403   5.217
10227TIP3   OH230641   7.757   4.744   5.230
10227TIP3    H130642   7.817   4.668   5.238
10227TIP3    H230643   7.819   4.818   5.232
10228TIP3   OH230644   7.555   5.023   5.305
10228TIP3    H130645   7.600   5.014   5.219
10228TIP3    H230646   7.570   5.115   5.326
10229TIP3   OH230647   7.538   4.534   4.815
10229TIP3    H130648   7.445   4.518   4.837
10229TIP3    H230649   7.532   4.585   4.732
10230TIP3   OH230650   7.749   4.579   5.615
10230TIP3    H130651   7.695   4.587   5.695
10230TIP3    H230652   7.686   4.615   5.548
10231TIP3   OH230653   7.829   4.472   4.976
10231TIP3    H130654   7.738   4.438   4.978
10231TIP3    H230655   7.876   4.386   4.984
10232TIP3   OH230656   7.620   4.318   4.610
10232TIP3    H130657   7.656   4.382   4.546
10232TIP3    H230658   7.606   4.374   4.689
10233TIP3   OH230659   7.336   5.902   4.418
10233TIP3    H130660   7.257   5.861   4.378
10233TIP3    H230661   7.334   5.987   4.371
10234TIP3   OH230662   7.742   4.477   4.387
10234TIP3    H130663   7.791   4.411   4.334
10234TIP3    H230664   7.815   4.528   4.429
10235TIP3   OH230665   7.427   5.907   4.043
10235TIP3    H130666   7.437   5.943   4.132
10235TIP3    H230667   7.515   5.866   4.027
10236TIP3   OH230668   0.992   6.241   6.250
10236TIP3    H130669   0.971   6.330   6.214
10236TIP3    H230670   0.930   6.187   6.199
10237TIP3   OH230671   0.917   6.231   6.648
10237TIP3    H130672   0.995   6.264   6.695
10237TIP3    H230673   0.951   6.151   6.604
10238TIP3   OH230674   1.225   6.532   6.304
10238TIP3    H130675   1.232   6.460   6.370
10238TIP3    H230676   1.236   6.609   6.362
10239TIP3   OH230677   1.803   5.787   6.665
10239TIP3    H130678   1.832   5.871   6.707
10239TIP3    H230679   1.824   5.805   6.571
10240TIP3   OH230680   1.182   5.954   6.700
10240TIP3    H130681   1.237   5.875   6.715
10240TIP3    H230682   1.160   5.943   6.605
10241TIP3   OH230683   1.234   5.720   6.287
10241TIP3    H130684   1.306   5.704   6.352
10241TIP3    H230685   1.286   5.753   6.212
10242TIP3   OH230686   1.876   5.996   6.834
10242TIP3    H130687   1.792   6.042   6.813
10242TIP3    H230688   1.886   6.021   6.927
10243TIP3   OH230689   0.887   6.447   6.103
10243TIP3    H130690   0.876   6.442   6.008
10243TIP3    H230691   0.906   6.541   6.117
10244TIP3   OH230692   1.444   5.722   6.458
10244TIP3    H130693   1.430   5.672   6.539
10244TIP3    H230694   1.497   5.798   6.489
10245TIP3   OH230695   1.596   5.686   6.829
10245TIP3    H130696   1.508   5.714   6.798
10245TIP3    H230697   1.655   5.719   6.759
10246TIP3   OH230698   0.931   5.324   6.803
10246TIP3    H130699   0.921   5.226   6.811
10246TIP3    H230700   0.839   5.353   6.815
10247TIP3   OH230701   0.986   6.817   6.136
10247TIP3    H130702   1.047   6.748   6.105
10247TIP3    H230703   1.045   6.895   6.124
10248TIP3   OH230704   1.141   6.608   6.050
10248TIP3    H130705   1.143   6.529   5.994
10248TIP3    H230706   1.184   6.577   6.132
10249TIP3   OH230707   0.832   6.104   6.064
10249TIP3    H130708   0.753   6.143   6.025
10249TIP3    H230709   0.885   6.083   5.984
10250TIP3   OH230710   0.789   5.886   5.795
10250TIP3    H130711   0.867   5.933   5.828
10250TIP3    H230712   0.831   5.813   5.746
10251TIP3   OH230713   1.730   6.334   6.655
10251TIP3    H130714   1.644   6.382   6.662
10251TIP3    H230715   1.757   6.361   6.565
10252TIP3   OH230716   1.174   6.175   6.041
10252TIP3    H130717   1.128   6.196   6.124
10252TIP3    H230718   1.261   6.146   6.076
10253TIP3   OH230719   1.405   6.246   6.944
10253TIP3    H130720   1.390   6.332   6.985
10253TIP3    H230721   1.316   6.228   6.905
10254TIP3   OH230722   1.011   6.038   5.867
10254TIP3    H130723   1.075   6.095   5.915
10254TIP3    H230724   1.035   6.058   5.773
10255TIP3   OH230725   1.524   5.273   5.914
10255TIP3    H130726   1.443   5.294   5.964
10255TIP3    H230727   1.539   5.357   5.865
10256TIP3   OH230728   1.324   6.641   5.462
10256TIP3    H130729   1.333   6.737   5.446
10256TIP3    H230730   1.417   6.611   5.450
10257TIP3   OH230731   0.838   6.862   5.571
10257TIP3    H130732   0.898   6.791   5.540
10257TIP3    H230733   0.862   6.870   5.665
10258TIP3   OH230734   0.899   6.904   5.846
10258TIP3    H130735   0.806   6.920   5.869
10258TIP3    H230736   0.941   6.887   5.933
10259TIP3   OH230737   1.681   6.178   7.112
10259TIP3    H130738   1.590   6.192   7.081
10259TIP3    H230739   1.684   6.081   7.116
10260TIP3   OH230740   1.179   5.521   7.131
10260TIP3    H130741   1.249   5.502   7.197
10260TIP3    H230742   1.097   5.506   7.182
10261TIP3   OH230743   1.453   5.985   7.031
10261TIP3    H130744   1.394   5.937   7.092
10261TIP3    H230745   1.405   6.067   7.011
10262TIP3   OH230746   1.091   6.081   5.615
10262TIP3    H130747   1.053   6.054   5.529
10262TIP3    H230748   1.173   6.124   5.586
10263TIP3   OH230749   0.783   5.458   5.876
10263TIP3    H130750   0.779   5.458   5.975
10263TIP3    H230751   0.753   5.367   5.861
10264TIP3   OH230752   0.977   5.916   6.205
10264TIP3    H130753   0.920   5.979   6.156
10264TIP3    H230754   1.023   5.870   6.132
10265TIP3   OH230755   1.123   5.926   6.435
10265TIP3    H130756   1.063   5.949   6.361
10265TIP3    H230757   1.154   5.840   6.400
10266TIP3   OH230758   1.156   6.171   6.858
10266TIP3    H130759   1.162   6.086   6.811
10266TIP3    H230760   1.074   6.161   6.911
10267TIP3   OH230761   0.830   5.668   6.546
10267TIP3    H130762   0.753   5.614   6.523
10267TIP3    H230763   0.891   5.607   6.591
10268TIP3   OH230764   1.292   5.700   6.735
10268TIP3    H130765   1.258   5.715   6.826
10268TIP3    H230766   1.226   5.636   6.702
10269TIP3   OH230767   0.875   5.957   6.650
10269TIP3    H130768   0.894   5.905   6.570
10269TIP3    H230769   0.932   5.913   6.714
10270TIP3   OH230770   1.492   6.464   6.647
10270TIP3    H130771   1.518   6.525   6.576
10270TIP3    H230772   1.414   6.419   6.606
10271TIP3   OH230773   1.044   5.561   5.877
10271TIP3    H130774   0.947   5.551   5.876
10271TIP3    H230775   1.057   5.653   5.906
10272TIP3   OH230776   1.120   5.806   5.984
10272TIP3    H130777   1.216   5.809   6.000
10272TIP3    H230778   1.105   5.885   5.929
10273TIP3   OH230779   1.560   5.898   5.819
10273TIP3    H130780   1.497   5.853   5.758
10273TIP3    H230781   1.557   5.987   5.778
10274TIP3   OH230782   1.268   6.712   5.727
10274TIP3    H130783   1.232   6.644   5.785
10274TIP3    H230784   1.275   6.667   5.641
10275TIP3   OH230785   1.272   6.345   6.543
10275TIP3    H130786   1.200   6.325   6.604
10275TIP3    H230787   1.293   6.257   6.505
10276TIP3   OH230788   1.020   6.439   5.623
10276TIP3    H130789   1.064   6.415   5.707
10276TIP3    H230790   0.929   6.404   5.637
10277TIP3   OH230791   1.357   6.915   5.448
10277TIP3    H130792   1.392   6.987   5.392
10277TIP3    H230793   1.278   6.961   5.482
10278TIP3   OH230794   1.175   6.382   5.856
10278TIP3    H130795   1.171   6.308   5.919
10278TIP3    H230796   1.270   6.378   5.832
10279TIP3   OH230797   1.197   5.751   6.989
10279TIP3    H130798   1.266   5.777   7.053
10279TIP3    H230799   1.177   5.663   7.026
10280TIP3   OH230800   1.112   5.502   6.156
10280TIP3    H130801   1.079   5.529   6.069
10280TIP3    H230802   1.135   5.587   6.198
10281TIP3   OH230803   0.830   5.676   6.243
10281TIP3    H130804   0.873   5.763   6.251
10281TIP3    H230805   0.760   5.681   6.309
10282TIP3   OH230806   1.090   5.961   7.162
10282TIP3    H130807   1.045   6.034   7.115
10282TIP3    H230808   1.123   5.906   7.090
10283TIP3   OH230809   0.951   5.427   6.375
10283TIP3    H130810   0.912   5.512   6.398
10283TIP3    H230811   0.995   5.451   6.291
10284TIP3   OH230812   1.703   5.896   7.048
10284TIP3    H130813   1.607   5.916   7.049
10284TIP3    H230814   1.711   5.857   6.960
10285TIP3   OH230815   1.342   6.099   6.441
10285TIP3    H130816   1.268   6.036   6.447
10285TIP3    H230817   1.414   6.052   6.488
10286TIP3   OH230818   0.979   6.658   5.448
10286TIP3    H130819   1.027   6.598   5.507
10286TIP3    H230820   1.036   6.661   5.369
10287TIP3   OH230821   0.759   6.345   5.663
10287TIP3    H130822   0.662   6.352   5.663
10287TIP3    H230823   0.767   6.249   5.645
10288TIP3   OH230824   1.320   6.170   5.490
10288TIP3    H130825   1.307   6.124   5.405
10288TIP3    H230826   1.287   6.260   5.464
10289TIP3   OH230827   0.910   5.469   7.207
10289TIP3    H130828   0.871   5.554   7.177
10289TIP3    H230829   0.832   5.416   7.229
10290TIP3   OH230830   1.340   5.813   7.208
10290TIP3    H130831   1.282   5.867   7.265
10290TIP3    H230832   1.420   5.807   7.263
10291TIP3   OH230833   1.552   5.840   7.386
10291TIP3    H130834   1.555   5.743   7.405
10291TIP3    H230835   1.531   5.877   7.474
10292TIP3   OH230836   1.043   5.472   7.447
10292TIP3    H130837   1.110   5.401   7.448
10292TIP3    H230838   1.000   5.457   7.361
10293TIP3   OH230839   1.453   6.359   5.822
10293TIP3    H130840   1.520   6.422   5.789
10293TIP3    H230841   1.500   6.321   5.899
10294TIP3   OH230842   1.584   6.227   6.025
10294TIP3    H130843   1.519   6.183   6.085
10294TIP3    H230844   1.650   6.263   6.088
10295TIP3   OH230845   1.630   6.619   6.462
10295TIP3    H130846   1.685   6.551   6.419
10295TIP3    H230847   1.630   6.690   6.395
10296TIP3   OH230848   1.522   6.133   5.671
10296TIP3    H130849   1.452   6.135   5.602
10296TIP3    H230850   1.492   6.210   5.725
10297TIP3   OH230851   1.391   5.807   5.628
10297TIP3    H130852   1.362   5.847   5.545
10297TIP3    H230853   1.366   5.713   5.614
10298TIP3   OH230854   1.399   6.082   6.172
10298TIP3    H130855   1.407   5.985   6.164
10298TIP3    H230856   1.386   6.094   6.268
10299TIP3   OH230857   1.906   6.332   7.074
10299TIP3    H130858   1.812   6.308   7.082
10299TIP3    H230859   1.948   6.244   7.068
10300TIP3   OH230860   1.338   5.539   5.608
10300TIP3    H130861   1.411   5.510   5.667
10300TIP3    H230862   1.264   5.482   5.634
10301TIP3   OH230863   1.394   5.799   6.065
10301TIP3    H130864   1.434   5.710   6.080
10301TIP3    H230865   1.453   5.830   5.994
10302TIP3   OH230866   1.555   5.972   6.561
10302TIP3    H130867   1.641   5.997   6.520
10302TIP3    H230868   1.570   6.009   6.650
10303TIP3   OH230869   1.625   6.116   6.789
10303TIP3    H130870   1.552   6.150   6.843
10303TIP3    H230871   1.660   6.198   6.747
10304TIP3   OH230872   2.081   5.709   7.349
10304TIP3    H130873   2.139   5.642   7.306
10304TIP3    H230874   2.049   5.759   7.271
10305TIP3   OH230875   1.503   5.549   6.103
10305TIP3    H130876   1.551   5.533   6.187
10305TIP3    H230877   1.441   5.473   6.102
10306TIP3   OH230878   1.953   5.842   7.157
10306TIP3    H130879   1.873   5.890   7.187
10306TIP3    H230880   1.910   5.779   7.095
10307TIP3   OH230881   1.584   5.483   5.738
10307TIP3    H130882   1.624   5.412   5.683
10307TIP3    H230883   1.651   5.554   5.732
10308TIP3   OH230884   1.157   6.982   6.001
10308TIP3    H130885   1.208   6.970   5.919
10308TIP3    H230886   1.164   7.079   6.009
10309TIP3   OH230887   1.845   5.609   7.033
10309TIP3    H130888   1.755   5.604   6.997
10309TIP3    H230889   1.875   5.516   7.020
10310TIP3   OH230890   1.052   5.528   6.666
10310TIP3    H130891   1.019   5.450   6.716
10310TIP3    H230892   1.102   5.484   6.595
10311TIP3   OH230893   1.577   5.403   6.556
10311TIP3    H130894   1.610   5.457   6.481
10311TIP3    H230895   1.480   5.418   6.550
10312TIP3   OH230896   1.669   5.504   6.319
10312TIP3    H130897   1.743   5.454   6.280
10312TIP3    H230898   1.701   5.596   6.305
10313TIP3   OH230899   0.753   5.243   6.551
10313TIP3    H130900   0.754   5.303   6.475
10313TIP3    H230901   0.722   5.303   6.619
10314TIP3   OH230902   1.299   5.414   6.529
10314TIP3    H130903   1.273   5.380   6.443
10314TIP3    H230904   1.280   5.338   6.588
10315TIP3   OH230905   1.322   5.335   6.093
10315TIP3    H130906   1.240   5.386   6.112
10315TIP3    H230907   1.302   5.251   6.140
10316TIP3   OH230908   0.754   5.419   6.141
10316TIP3    H130909   0.744   5.366   6.221
10316TIP3    H230910   0.744   5.508   6.180
10317TIP3   OH230911   1.305   6.976   5.761
10317TIP3    H130912   1.293   6.879   5.751
10317TIP3    H230913   1.252   7.010   5.686
10318TIP3   OH230914   1.580   5.581   7.443
10318TIP3    H130915   1.581   5.547   7.536
10318TIP3    H230916   1.673   5.564   7.415
10319TIP3   OH230917   2.787   6.497   5.724
10319TIP3    H130918   2.758   6.589   5.704
10319TIP3    H230919   2.710   6.448   5.690
10320TIP3   OH230920   2.788   6.498   6.104
10320TIP3    H130921   2.818   6.470   6.192
10320TIP3    H230922   2.744   6.418   6.071
10321TIP3   OH230923   2.081   6.387   6.463
10321TIP3    H130924   2.111   6.320   6.527
10321TIP3    H230925   2.155   6.450   6.469
10322TIP3   OH230926   3.031   6.799   5.787
10322TIP3    H130927   3.014   6.732   5.854
10322TIP3    H230928   3.059   6.875   5.841
10323TIP3   OH230929   2.058   6.800   6.196
10323TIP3    H130930   2.050   6.702   6.196
10323TIP3    H230931   2.155   6.809   6.192
10324TIP3   OH230932   1.764   6.004   5.978
10324TIP3    H130933   1.716   6.087   5.994
10324TIP3    H230934   1.693   5.951   5.938
10325TIP3   OH230935   1.821   6.293   6.154
10325TIP3    H130936   1.871   6.216   6.189
10325TIP3    H230937   1.880   6.324   6.084
10326TIP3   OH230938   2.679   7.263   5.803
10326TIP3    H130939   2.723   7.192   5.752
10326TIP3    H230940   2.673   7.223   5.891
10327TIP3   OH230941   2.584   6.725   6.154
10327TIP3    H130942   2.622   6.649   6.107
10327TIP3    H230943   2.667   6.770   6.179
10328TIP3   OH230944   3.599   6.042   6.151
10328TIP3    H130945   3.628   6.126   6.192
10328TIP3    H230946   3.620   6.058   6.058
10329TIP3   OH230947   2.998   6.223   6.186
10329TIP3    H130948   3.040   6.137   6.204
10329TIP3    H230949   2.966   6.209   6.095
10330TIP3   OH230950   2.337   5.884   6.150
10330TIP3    H130951   2.316   5.957   6.088
10330TIP3    H230952   2.288   5.811   6.106
10331TIP3   OH230953   3.030   5.977   5.772
10331TIP3    H130954   3.101   5.961   5.837
10331TIP3    H230955   3.082   6.011   5.698
10332TIP3   OH230956   1.968   6.086   6.257
10332TIP3    H130957   2.051   6.068   6.305
10332TIP3    H230958   1.982   6.030   6.178
10333TIP3   OH230959   2.410   6.284   6.049
10333TIP3    H130960   2.503   6.258   6.063
10333TIP3    H230961   2.370   6.200   6.018
10334TIP3   OH230962   3.671   6.249   6.326
10334TIP3    H130963   3.589   6.298   6.302
10334TIP3    H230964   3.694   6.293   6.409
10335TIP3   OH230965   2.331   5.868   6.585
10335TIP3    H130966   2.272   5.906   6.518
10335TIP3    H230967   2.279   5.885   6.666
10336TIP3   OH230968   2.677   6.718   5.593
10336TIP3    H130969   2.635   6.702   5.507
10336TIP3    H230970   2.633   6.802   5.620
10337TIP3   OH230971   2.439   6.644   6.380
10337TIP3    H130972   2.377   6.709   6.419
10337TIP3    H230973   2.479   6.695   6.308
10338TIP3   OH230974   3.239   5.979   5.945
10338TIP3    H130975   3.229   5.930   6.028
10338TIP3    H230976   3.292   6.056   5.972
10339TIP3   OH230977   2.202   5.983   6.369
10339TIP3    H130978   2.264   6.056   6.394
10339TIP3    H230979   2.252   5.943   6.294
10340TIP3   OH230980   2.263   6.831   6.482
10340TIP3    H130981   2.245   6.921   6.447
10340TIP3    H230982   2.183   6.817   6.536
10341TIP3   OH230983   1.657   6.526   5.713
10341TIP3    H130984   1.619   6.552   5.627
10341TIP3    H230985   1.689   6.611   5.748
10342TIP3   OH230986   3.100   7.044   5.954
10342TIP3    H130987   3.010   7.036   5.994
10342TIP3    H230988   3.091   7.130   5.908
10343TIP3   OH230989   3.390   5.945   6.318
10343TIP3    H130990   3.302   5.969   6.283
10343TIP3    H230991   3.450   5.977   6.247
10344TIP3   OH230992   2.688   5.586   6.301
10344TIP3    H130993   2.671   5.491   6.317
10344TIP3    H230994   2.610   5.625   6.347
10345TIP3   OH230995   2.801   7.089   5.628
10345TIP3    H130996   2.850   7.006   5.608
10345TIP3    H230997   2.863   7.154   5.588
10346TIP3   OH230998   2.944   6.874   5.536
10346TIP3    H130999   2.907   6.795   5.495
10346TIP3    H231000   2.980   6.838   5.620
10347TIP3   OH231001   3.327   6.955   6.298
10347TIP3    H131002   3.314   6.878   6.239
10347TIP3    H231003   3.308   7.030   6.238
10348TIP3   OH231004   2.618   6.349   5.556
10348TIP3    H131005   2.538   6.402   5.536
10348TIP3    H231006   2.663   6.347   5.469
10349TIP3   OH231007   2.576   6.133   5.270
10349TIP3    H131008   2.642   6.187   5.318
10349TIP3    H231009   2.635   6.071   5.224
10350TIP3   OH231010   3.521   6.593   6.144
10350TIP3    H131011   3.437   6.644   6.147
10350TIP3    H231012   3.552   6.617   6.054
10351TIP3   OH231013   2.965   6.432   5.526
10351TIP3    H131014   2.910   6.456   5.604
10351TIP3    H231015   3.050   6.408   5.570
10352TIP3   OH231016   3.199   6.471   6.439
10352TIP3    H131017   3.195   6.556   6.486
10352TIP3    H231018   3.112   6.473   6.394
10353TIP3   OH231019   2.196   6.430   5.945
10353TIP3    H131020   2.155   6.372   5.877
10353TIP3    H231021   2.273   6.376   5.973
10354TIP3   OH231022   2.326   6.840   6.092
10354TIP3    H131023   2.306   6.802   6.005
10354TIP3    H231024   2.416   6.805   6.110
10355TIP3   OH231025   2.337   6.400   6.297
10355TIP3    H131026   2.368   6.379   6.207
10355TIP3    H231027   2.378   6.486   6.316
10356TIP3   OH231028   2.859   7.040   6.077
10356TIP3    H131029   2.846   7.118   6.132
10356TIP3    H231030   2.843   6.966   6.139
10357TIP3   OH231031   2.478   6.958   6.623
10357TIP3    H131032   2.435   7.029   6.674
10357TIP3    H231033   2.402   6.913   6.580
10358TIP3   OH231034   2.805   6.290   5.352
10358TIP3    H131035   2.863   6.351   5.403
10358TIP3    H231036   2.832   6.312   5.259
10359TIP3   OH231037   2.222   6.493   6.704
10359TIP3    H131038   2.236   6.581   6.744
10359TIP3    H231039   2.128   6.477   6.729
10360TIP3   OH231040   2.548   6.970   5.631
10360TIP3    H131041   2.629   7.023   5.642
10360TIP3    H231042   2.489   7.030   5.585
10361TIP3   OH231043   3.321   5.530   5.401
10361TIP3    H131044   3.240   5.552   5.451
10361TIP3    H231045   3.336   5.613   5.351
10362TIP3   OH231046   2.063   6.272   5.749
10362TIP3    H131047   1.997   6.318   5.692
10362TIP3    H231048   2.022   6.186   5.759
10363TIP3   OH231049   3.120   6.897   4.949
10363TIP3    H131050   3.129   6.994   4.934
10363TIP3    H231051   3.213   6.868   4.938
10364TIP3   OH231052   1.856   6.661   6.642
10364TIP3    H131053   1.786   6.625   6.585
10364TIP3    H231054   1.885   6.583   6.693
10365TIP3   OH231055   1.708   6.852   6.292
10365TIP3    H131056   1.802   6.833   6.279
10365TIP3    H231057   1.711   6.926   6.355
10366TIP3   OH231058   3.567   7.302   6.347
10366TIP3    H131059   3.562   7.206   6.358
10366TIP3    H231060   3.482   7.329   6.388
10367TIP3   OH231061   2.668   7.084   6.473
10367TIP3    H131062   2.683   7.170   6.518
10367TIP3    H231063   2.599   7.044   6.531
10368TIP3   OH231064   2.432   7.213   5.432
10368TIP3    H131065   2.385   7.198   5.348
10368TIP3    H231066   2.402   7.302   5.458
10369TIP3   OH231067   1.865   7.063   5.812
10369TIP3    H131068   1.923   7.046   5.889
10369TIP3    H231069   1.812   6.982   5.811
10370TIP3   OH231070   2.631   7.117   5.070
10370TIP3    H131071   2.690   7.048   5.034
10370TIP3    H231072   2.665   7.127   5.161
10371TIP3   OH231073   2.682   7.164   5.340
10371TIP3    H131074   2.593   7.174   5.380
10371TIP3    H231075   2.732   7.125   5.413
10372TIP3   OH231076   3.452   6.427   6.623
10372TIP3    H131077   3.373   6.451   6.572
10372TIP3    H231078   3.463   6.333   6.597
10373TIP3   OH231079   2.052   6.845   6.655
10373TIP3    H131080   2.100   6.806   6.730
10373TIP3    H231081   1.973   6.786   6.654
10374TIP3   OH231082   2.449   5.663   6.428
10374TIP3    H131083   2.360   5.632   6.401
10374TIP3    H231084   2.424   5.744   6.475
10375TIP3   OH231085   2.983   5.780   6.625
10375TIP3    H131086   3.049   5.745   6.688
10375TIP3    H231087   2.898   5.758   6.668
10376TIP3   OH231088   3.222   6.210   6.546
10376TIP3    H131089   3.166   6.210   6.627
10376TIP3    H231090   3.198   6.295   6.504
10377TIP3   OH231091   2.882   6.335   5.097
10377TIP3    H131092   2.847   6.311   5.009
10377TIP3    H231093   2.963   6.383   5.072
10378TIP3   OH231094   2.594   5.711   5.400
10378TIP3    H131095   2.559   5.707   5.491
10378TIP3    H231096   2.554   5.629   5.364
10379TIP3   OH231097   2.381   6.178   6.447
10379TIP3    H131098   2.330   6.199   6.528
10379TIP3    H231099   2.365   6.259   6.394
10380TIP3   OH231100   2.265   6.064   5.961
10380TIP3    H131101   2.172   6.039   5.979
10380TIP3    H231102   2.277   6.024   5.872
10381TIP3   OH231103   2.755   6.150   5.689
10381TIP3    H131104   2.703   6.221   5.646
10381TIP3    H231105   2.810   6.118   5.614
10382TIP3   OH231106   2.927   6.423   6.768
10382TIP3    H131107   2.905   6.358   6.837
10382TIP3    H231108   3.015   6.453   6.797
10383TIP3   OH231109   2.912   6.179   5.928
10383TIP3    H131110   2.851   6.209   5.857
10383TIP3    H231111   2.945   6.098   5.883
10384TIP3   OH231112   2.199   6.203   6.654
10384TIP3    H131113   2.218   6.273   6.718
10384TIP3    H231114   2.190   6.124   6.710
10385TIP3   OH231115   2.249   5.685   5.365
10385TIP3    H131116   2.239   5.684   5.462
10385TIP3    H231117   2.172   5.739   5.339
10386TIP3   OH231118   1.793   5.728   6.237
10386TIP3    H131119   1.868   5.761   6.290
10386TIP3    H231120   1.834   5.699   6.154
10387TIP3   OH231121   1.764   5.710   5.756
10387TIP3    H131122   1.809   5.747   5.677
10387TIP3    H231123   1.702   5.784   5.775
10388TIP3   OH231124   2.926   6.424   6.350
10388TIP3    H131125   2.957   6.352   6.291
10388TIP3    H231126   2.892   6.372   6.425
10389TIP3   OH231127   2.593   5.884   6.022
10389TIP3    H131128   2.510   5.885   6.073
10389TIP3    H231129   2.659   5.886   6.093
10390TIP3   OH231130   2.026   5.943   6.030
10390TIP3    H131131   1.931   5.951   6.002
10390TIP3    H231132   2.048   5.851   6.006
10391TIP3   OH231133   2.295   5.938   5.719
10391TIP3    H131134   2.388   5.954   5.696
10391TIP3    H231135   2.246   5.960   5.636
10392TIP3   OH231136   3.085   5.961   6.226
10392TIP3    H131137   3.048   5.975   6.315
10392TIP3    H231138   3.018   5.901   6.188
10393TIP3   OH231139   2.140   5.971   5.498
10393TIP3    H131140   2.067   5.928   5.450
10393TIP3    H231141   2.190   6.008   5.423
10394TIP3   OH231142   3.245   7.652   6.426
10394TIP3    H131143   3.261   7.655   6.330
10394TIP3    H231144   3.332   7.683   6.460
10395TIP3   OH231145   2.238   6.730   6.852
10395TIP3    H131146   2.311   6.712   6.913
10395TIP3    H231147   2.161   6.701   6.907
10396TIP3   OH231148   2.674   6.214   6.119
10396TIP3    H131149   2.748   6.176   6.070
10396TIP3    H231150   2.682   6.171   6.206
10397TIP3   OH231151   2.198   5.703   5.999
10397TIP3    H131152   2.162   5.624   6.046
10397TIP3    H231153   2.244   5.662   5.924
10398TIP3   OH231154   2.650   6.112   6.410
10398TIP3    H131155   2.560   6.148   6.422
10398TIP3    H231156   2.706   6.176   6.459
10399TIP3   OH231157   2.388   6.502   5.505
10399TIP3    H131158   2.316   6.436   5.493
10399TIP3    H231159   2.369   6.536   5.595
10400TIP3   OH231160   3.288   6.737   6.133
10400TIP3    H131161   3.311   6.789   6.053
10400TIP3    H231162   3.203   6.696   6.107
10401TIP3   OH231163   2.846   5.813   5.368
10401TIP3    H131164   2.750   5.796   5.375
10401TIP3    H231165   2.855   5.908   5.391
10402TIP3   OH231166   2.792   6.821   6.503
10402TIP3    H131167   2.809   6.798   6.595
10402TIP3    H231168   2.746   6.906   6.510
10403TIP3   OH231169   2.915   6.062   5.471
10403TIP3    H131170   3.011   6.069   5.486
10403TIP3    H231171   2.896   6.143   5.419
10404TIP3   OH231172   2.080   6.525   6.180
10404TIP3    H131173   2.119   6.495   6.096
10404TIP3    H231174   2.119   6.463   6.244
10405TIP3   OH231175   2.533   6.652   5.327
10405TIP3    H131176   2.485   6.738   5.330
10405TIP3    H231177   2.478   6.597   5.388
10406TIP3   OH231178   1.957   6.441   6.788
10406TIP3    H131179   1.951   6.437   6.885
10406TIP3    H231180   1.884   6.382   6.761
10407TIP3   OH231181   2.683   6.551   6.814
10407TIP3    H131182   2.624   6.489   6.770
10407TIP3    H231183   2.770   6.522   6.781
10408TIP3   OH231184   2.948   7.080   6.392
10408TIP3    H131185   2.852   7.079   6.408
10408TIP3    H231186   2.979   7.129   6.472
10409TIP3   OH231187   3.357   6.154   5.307
10409TIP3    H131188   3.295   6.110   5.244
10409TIP3    H231189   3.353   6.244   5.266
10410TIP3   OH231190   3.578   7.010   6.386
10410TIP3    H131191   3.480   7.006   6.379
10410TIP3    H231192   3.603   6.980   6.296
10411TIP3   OH231193   3.059   6.971   5.215
10411TIP3    H131194   3.031   6.901   5.275
10411TIP3    H231195   3.071   6.925   5.130
10412TIP3   OH231196   3.054   6.600   6.052
10412TIP3    H131197   2.960   6.577   6.065
10412TIP3    H231198   3.087   6.521   6.006
10413TIP3   OH231199   2.183   6.830   5.806
10413TIP3    H131200   2.181   6.910   5.750
10413TIP3    H231201   2.089   6.811   5.815
10414TIP3   OH231202   1.747   6.131   5.509
10414TIP3    H131203   1.790   6.216   5.528
10414TIP3    H231204   1.668   6.136   5.568
10415TIP3   OH231205   2.318   6.593   5.749
10415TIP3    H131206   2.284   6.683   5.767
10415TIP3    H231207   2.282   6.543   5.824
10416TIP3   OH231208   2.454   7.173   6.272
10416TIP3    H131209   2.496   7.252   6.232
10416TIP3    H231210   2.530   7.134   6.319
10417TIP3   OH231211   2.102   7.067   5.657
10417TIP3    H131212   2.015   7.079   5.700
10417TIP3    H231213   2.136   7.159   5.658
10418TIP3   OH231214   2.837   6.804   6.233
10418TIP3    H131215   2.828   6.805   6.331
10418TIP3    H231216   2.918   6.752   6.222
10419TIP3   OH231217   2.814   6.699   5.115
10419TIP3    H131218   2.866   6.673   5.195
10419TIP3    H231219   2.725   6.672   5.142
10420TIP3   OH231220   3.087   7.339   6.282
10420TIP3    H131221   3.007   7.283   6.276
10420TIP3    H231222   3.070   7.404   6.209
10421TIP3   OH231223   3.153   7.173   4.935
10421TIP3    H131224   3.189   7.245   4.881
10421TIP3    H231225   3.073   7.218   4.969
10422TIP3   OH231226   2.169   5.947   6.797
10422TIP3    H131227   2.073   5.954   6.812
10422TIP3    H231228   2.199   5.895   6.873
10423TIP3   OH231229   2.974   6.633   5.333
10423TIP3    H131230   2.964   6.567   5.404
10423TIP3    H231231   3.071   6.630   5.320
10424TIP3   OH231232   1.931   7.013   6.438
10424TIP3    H131233   1.984   6.938   6.467
10424TIP3    H231234   1.943   7.073   6.512
10425TIP3   OH231235   2.180   6.680   5.116
10425TIP3    H131236   2.191   6.587   5.086
10425TIP3    H231237   2.159   6.668   5.210
10426TIP3   OH231238   2.125   6.685   5.388
10426TIP3    H131239   2.198   6.659   5.445
10426TIP3    H231240   2.128   6.783   5.394
10427TIP3   OH231241   1.860   6.378   5.591
10427TIP3    H131242   1.793   6.423   5.647
10427TIP3    H231243   1.873   6.446   5.522
10428TIP3   OH231244   3.009   6.016   6.485
10428TIP3    H131245   3.093   6.049   6.520
10428TIP3    H231246   2.994   5.934   6.537
10429TIP3   OH231247   2.890   5.764   5.649
10429TIP3    H131248   2.876   5.786   5.555
10429TIP3    H231249   2.928   5.847   5.684
10430TIP3   OH231250   2.391   6.882   5.337
10430TIP3    H131251   2.304   6.907   5.372
10430TIP3    H231252   2.406   6.954   5.274
10431TIP3   OH231253   2.579   5.945   5.750
10431TIP3    H131254   2.643   6.018   5.733
10431TIP3    H231255   2.584   5.939   5.848
10432TIP3   OH231256   2.845   6.263   6.553
10432TIP3    H131257   2.867   6.318   6.632
10432TIP3    H231258   2.898   6.183   6.566
10433TIP3   OH231259   2.722   5.671   5.853
10433TIP3    H131260   2.711   5.750   5.909
10433TIP3    H231261   2.783   5.706   5.784
10434TIP3   OH231262   2.136   6.957   5.404
10434TIP3    H131263   2.104   7.026   5.341
10434TIP3    H231264   2.119   7.001   5.490
10435TIP3   OH231265   2.234   5.672   5.642
10435TIP3    H131266   2.232   5.763   5.678
10435TIP3    H231267   2.330   5.654   5.650
10436TIP3   OH231268   3.488   6.162   6.546
10436TIP3    H131269   3.389   6.161   6.545
10436TIP3    H231270   3.505   6.127   6.457
10437TIP3   OH231271   3.139   6.358   5.927
10437TIP3    H131272   3.063   6.299   5.938
10437TIP3    H231273   3.210   6.310   5.975
10438TIP3   OH231274   1.851   6.586   5.397
10438TIP3    H131275   1.918   6.656   5.404
10438TIP3    H231276   1.896   6.529   5.330
10439TIP3   OH231277   1.794   5.862   5.530
10439TIP3    H131278   1.797   5.960   5.528
10439TIP3    H231279   1.712   5.845   5.483
10440TIP3   OH231280   3.108   7.315   5.877
10440TIP3    H131281   3.065   7.363   5.802
10440TIP3    H231282   3.202   7.333   5.856
10441TIP3   OH231283   2.185   5.583   6.402
10441TIP3    H131284   2.153   5.549   6.316
10441TIP3    H231285   2.174   5.505   6.460
10442TIP3   OH231286   1.723   6.805   5.784
10442TIP3    H131287   1.646   6.831   5.836
10442TIP3    H231288   1.698   6.843   5.697
10443TIP3   OH231289   2.343   6.883   5.027
10443TIP3    H131290   2.287   6.811   5.065
10443TIP3    H231291   2.418   6.831   4.993
10444TIP3   OH231292   3.010   7.207   6.628
10444TIP3    H131293   2.991   7.154   6.708
10444TIP3    H231294   3.068   7.276   6.664
10445TIP3   OH231295   2.778   6.924   4.939
10445TIP3    H131296   2.823   6.860   4.998
10445TIP3    H231297   2.834   6.922   4.859
10446TIP3   OH231298   1.992   6.401   5.255
10446TIP3    H131299   2.051   6.369   5.325
10446TIP3    H231300   2.055   6.405   5.180
10447TIP3   OH231301   2.636   6.825   6.836
10447TIP3    H131302   2.583   6.853   6.759
10447TIP3    H231303   2.651   6.730   6.819
10448TIP3   OH231304   2.501   6.599   5.057
10448TIP3    H131305   2.501   6.611   5.154
10448TIP3    H231306   2.498   6.502   5.050
10449TIP3   OH231307   3.112   6.840   6.438
10449TIP3    H131308   3.185   6.888   6.393
10449TIP3    H231309   3.039   6.903   6.425
10450TIP3   OH231310   2.179   6.443   7.040
10450TIP3    H131311   2.258   6.388   7.042
10450TIP3    H231312   2.122   6.404   7.107
10451TIP3   OH231313   2.197   6.304   5.472
10451TIP3    H131314   2.167   6.262   5.554
10451TIP3    H231315   2.233   6.228   5.421
10452TIP3   OH231316   2.470   6.363   6.696
10452TIP3    H131317   2.387   6.415   6.695
10452TIP3    H231318   2.518   6.401   6.619
10453TIP3   OH231319   2.296   6.097   5.311
10453TIP3    H131320   2.270   6.104   5.217
10453TIP3    H231321   2.393   6.100   5.304
10454TIP3   OH231322   2.975   6.764   6.824
10454TIP3    H131323   3.063   6.749   6.788
10454TIP3    H231324   2.978   6.713   6.907
10455TIP3   OH231325   3.118   6.427   4.976
10455TIP3    H131326   3.097   6.383   4.891
10455TIP3    H231327   3.085   6.518   4.954
10456TIP3   OH231328   2.599   6.153   6.814
10456TIP3    H131329   2.590   6.074   6.757
10456TIP3    H231330   2.551   6.221   6.761
10457TIP3   OH231331   2.590   5.940   6.630
10457TIP3    H131332   2.617   5.985   6.548
10457TIP3    H231333   2.496   5.919   6.613
10458TIP3   OH231334   2.617   6.478   6.503
10458TIP3    H131335   2.701   6.493   6.458
10458TIP3    H231336   2.558   6.544   6.461
10459TIP3   OH231337   3.205   6.449   6.887
10459TIP3    H131338   3.252   6.367   6.867
10459TIP3    H231339   3.264   6.517   6.852
10460TIP3   OH231340   3.243   6.698   6.626
10460TIP3    H131341   3.182   6.750   6.568
10460TIP3    H231342   3.329   6.722   6.584
10461TIP3   OH231343   2.466   6.269   7.026
10461TIP3    H131344   2.401   6.204   7.057
10461TIP3    H231345   2.503   6.226   6.947
10462TIP3   OH231346   2.723   5.705   6.700
10462TIP3    H131347   2.672   5.786   6.677
10462TIP3    H231348   2.654   5.636   6.689
10463TIP3   OH231349   2.849   6.208   6.916
10463TIP3    H131350   2.828   6.195   7.010
10463TIP3    H231351   2.761   6.184   6.878
10464TIP3   OH231352   3.084   6.161   6.778
10464TIP3    H131353   3.000   6.180   6.825
10464TIP3    H231354   3.119   6.090   6.833
10465TIP3   OH231355   3.326   6.101   7.015
10465TIP3    H131356   3.338   6.007   6.989
10465TIP3    H231357   3.233   6.101   7.045
10466TIP3   OH231358   2.306   6.032   7.082
10466TIP3    H131359   2.315   5.935   7.067
10466TIP3    H231360   2.340   6.042   7.173
10467TIP3   OH231361   2.818   5.717   6.957
10467TIP3    H131362   2.882   5.643   6.951
10467TIP3    H231363   2.776   5.711   6.869
10468TIP3   OH231364   2.887   5.933   7.113
10468TIP3    H131365   2.863   5.861   7.050
10468TIP3    H231366   2.807   5.990   7.111
10469TIP3   OH231367   2.104   7.159   5.217
10469TIP3    H131368   2.199   7.154   5.197
10469TIP3    H231369   2.073   7.210   5.139
10470TIP3   OH231370   1.583   6.538   5.436
10470TIP3    H131371   1.677   6.561   5.417
10470TIP3    H231372   1.577   6.450   5.393
10471TIP3   OH231373   1.495   7.153   5.849
10471TIP3    H131374   1.443   7.085   5.800
10471TIP3    H231375   1.544   7.096   5.911
10472TIP3   OH231376   1.633   7.007   6.036
10472TIP3    H131377   1.620   6.933   6.097
10472TIP3    H231378   1.700   7.060   6.083
10473TIP3   OH231379   3.362   7.403   5.834
10473TIP3    H131380   3.388   7.443   5.919
10473TIP3    H231381   3.421   7.449   5.772
10474TIP3   OH231382   3.387   7.427   6.117
10474TIP3    H131383   3.345   7.339   6.112
10474TIP3    H231384   3.467   7.405   6.167
10475TIP3   OH231385   3.439   7.091   6.674
10475TIP3    H131386   3.357   7.106   6.725
10475TIP3    H231387   3.481   7.180   6.679
10476TIP3   OH231388   3.253   6.614   5.308
10476TIP3    H131389   3.319   6.679   5.277
10476TIP3    H231390   3.298   6.577   5.387
10477TIP3   OH231391   3.381   6.482   5.512
10477TIP3    H131392   3.314   6.441   5.571
10477TIP3    H231393   3.445   6.520   5.575
10478TIP3   OH231394   3.437   6.876   5.945
10478TIP3    H131395   3.487   6.809   5.894
10478TIP3    H231396   3.431   6.950   5.882
10479TIP3   OH231397   3.266   7.175   6.140
10479TIP3    H131398   3.194   7.218   6.190
10479TIP3    H231399   3.217   7.129   6.068
10480TIP3   OH231400   3.319   6.390   5.158
10480TIP3    H131401   3.248   6.392   5.090
10480TIP3    H231402   3.290   6.466   5.213
10481TIP3   OH231403   3.190   6.063   5.112
10481TIP3    H131404   3.146   6.102   5.036
10481TIP3    H231405   3.165   5.969   5.103
10482TIP3   OH231406   3.195   6.340   5.658
10482TIP3    H131407   3.201   6.244   5.650
10482TIP3    H231408   3.180   6.353   5.754
10483TIP3   OH231409   1.815   6.419   6.405
10483TIP3    H131410   1.814   6.385   6.313
10483TIP3    H231411   1.913   6.417   6.422
10484TIP3   OH231412   3.485   6.764   6.515
10484TIP3    H131413   3.558   6.700   6.503
10484TIP3    H231414   3.507   6.833   6.451
10485TIP3   OH231415   3.667   6.566   6.530
10485TIP3    H131416   3.593   6.516   6.571
10485TIP3    H231417   3.741   6.504   6.546
10486TIP3   OH231418   3.133   5.797   5.097
10486TIP3    H131419   3.206   5.766   5.153
10486TIP3    H231420   3.059   5.738   5.120
10487TIP3   OH231421   3.192   6.056   5.553
10487TIP3    H131422   3.232   5.967   5.567
10487TIP3    H231423   3.249   6.088   5.482
10488TIP3   OH231424   3.353   6.228   6.049
10488TIP3    H131425   3.438   6.254   6.008
10488TIP3    H231426   3.366   6.266   6.138
10489TIP3   OH231427   3.423   6.375   6.282
10489TIP3    H131428   3.343   6.409   6.326
10489TIP3    H231429   3.455   6.454   6.234
10490TIP3   OH231430   2.039   6.092   7.078
10490TIP3    H131431   2.136   6.085   7.069
10490TIP3    H231432   2.018   6.006   7.118
10491TIP3   OH231433   3.868   5.960   6.835
10491TIP3    H131434   3.931   5.896   6.795
10491TIP3    H231435   3.843   6.016   6.759
10492TIP3   OH231436   3.300   5.806   5.590
10492TIP3    H131437   3.348   5.789   5.674
10492TIP3    H231438   3.239   5.729   5.589
10493TIP3   OH231439   1.999   5.791   6.410
10493TIP3    H131440   2.061   5.717   6.420
10493TIP3    H231441   2.061   5.866   6.403
10494TIP3   OH231442   1.801   6.064   6.482
10494TIP3    H131443   1.851   6.061   6.398
10494TIP3    H231444   1.833   6.146   6.520
10495TIP3   OH231445   3.736   6.103   6.641
10495TIP3    H131446   3.646   6.142   6.630
10495TIP3    H231447   3.725   6.025   6.584
10496TIP3   OH231448   3.380   5.739   5.224
10496TIP3    H131449   3.419   5.668   5.169
10496TIP3    H231450   3.447   5.810   5.218
10497TIP3   OH231451   1.786   5.567   5.984
10497TIP3    H131452   1.693   5.564   6.011
10497TIP3    H231453   1.782   5.627   5.906
10498TIP3   OH231454   2.947   7.272   5.491
10498TIP3    H131455   2.995   7.259   5.407
10498TIP3    H231456   3.000   7.340   5.534
10499TIP3   OH231457   2.005   5.646   6.797
10499TIP3    H131458   1.955   5.644   6.880
10499TIP3    H231459   1.940   5.686   6.737
10500TIP3   OH231460   2.241   7.096   6.427
10500TIP3    H131461   2.181   7.160   6.385
10500TIP3    H231462   2.324   7.117   6.380
10501TIP3   OH231463   2.717   7.334   6.579
10501TIP3    H131464   2.742   7.350   6.671
10501TIP3    H231465   2.777   7.394   6.532
10502TIP3   OH231466   2.856   7.515   6.418
10502TIP3    H131467   2.922   7.461   6.373
10502TIP3    H231468   2.910   7.574   6.474
10503TIP3   OH231469   3.642   5.864   6.520
10503TIP3    H131470   3.553   5.856   6.483
10503TIP3    H231471   3.675   5.771   6.510
10504TIP3   OH231472   2.100   7.300   6.295
10504TIP3    H131473   2.023   7.254   6.258
10504TIP3    H231474   2.130   7.351   6.218
10505TIP3   OH231475   2.564   7.373   6.096
10505TIP3    H131476   2.497   7.391   6.027
10505TIP3    H231477   2.578   7.463   6.133
10506TIP3   OH231478   2.831   7.315   6.157
10506TIP3    H131479   2.737   7.330   6.136
10506TIP3    H231480   2.875   7.384   6.106
10507TIP3   OH231481   3.036   7.505   6.066
10507TIP3    H131482   3.021   7.589   6.017
10507TIP3    H231483   3.064   7.445   5.994
10508TIP3   OH231484   1.840   7.141   6.171
10508TIP3    H131485   1.866   7.100   6.256
10508TIP3    H231486   1.904   7.099   6.110
10509TIP3   OH231487   2.024   7.012   6.026
10509TIP3    H131488   2.037   6.931   6.080
10509TIP3    H231489   2.114   7.050   6.026
10510TIP3   OH231490   2.279   7.126   6.057
10510TIP3    H131491   2.310   7.036   6.037
10510TIP3    H231492   2.333   7.145   6.136
10511TIP3   OH231493   2.850   5.783   6.143
10511TIP3    H131494   2.804   5.713   6.192
10511TIP3    H231495   2.920   5.733   6.096
10512TIP3   OH231496   3.370   5.664   6.046
10512TIP3    H131497   3.406   5.714   5.970
10512TIP3    H231498   3.274   5.679   6.037
10513TIP3   OH231499   3.464   5.760   5.808
10513TIP3    H131500   3.538   5.709   5.767
10513TIP3    H231501   3.497   5.852   5.793
10514TIP3   OH231502   2.096   5.490   6.154
10514TIP3    H131503   2.003   5.458   6.157
10514TIP3    H231504   2.144   5.405   6.150
10515TIP3   OH231505   1.884   5.360   5.803
10515TIP3    H131506   1.912   5.418   5.729
10515TIP3    H231507   1.855   5.425   5.869
10516TIP3   OH231508   2.541   5.520   6.035
10516TIP3    H131509   2.597   5.570   5.975
10516TIP3    H231510   2.560   5.563   6.120
10517TIP3   OH231511   3.088   5.669   6.018
10517TIP3    H131512   3.084   5.631   5.929
10517TIP3    H231513   3.074   5.589   6.074
10518TIP3   OH231514   3.116   5.593   5.582
10518TIP3    H131515   3.029   5.636   5.594
10518TIP3    H231516   3.101   5.507   5.627
10519TIP3   OH231517   1.599   6.933   5.583
10519TIP3    H131518   1.513   6.899   5.550
10519TIP3    H231519   1.589   7.026   5.558
10520TIP3   OH231520   2.000   5.517   5.566
10520TIP3    H131521   2.049   5.456   5.508
10520TIP3    H231522   2.072   5.573   5.602
10521TIP3   OH231523   2.512   5.695   5.665
10521TIP3    H131524   2.572   5.648   5.725
10521TIP3    H231525   2.533   5.787   5.689
10522TIP3   OH231526   2.372   7.119   5.164
10522TIP3    H131527   2.460   7.142   5.128
10522TIP3    H231528   2.349   7.045   5.104
10523TIP3   OH231529   3.091   7.238   5.257
10523TIP3    H131530   3.083   7.141   5.246
10523TIP3    H231531   3.044   7.269   5.177
10524TIP3   OH231532   2.306   5.756   7.043
10524TIP3    H131533   2.269   5.690   7.104
10524TIP3    H231534   2.399   5.758   7.073
10525TIP3   OH231535   2.552   5.768   7.166
10525TIP3    H131536   2.637   5.744   7.126
10525TIP3    H231537   2.542   5.699   7.234
10526TIP3   OH231538   1.677   6.960   5.219
10526TIP3    H131539   1.677   6.982   5.313
10526TIP3    H231540   1.763   6.915   5.207
10527TIP3   OH231541   3.379   5.837   6.947
10527TIP3    H131542   3.397   5.801   7.037
10527TIP3    H231543   3.467   5.827   6.905
10528TIP3   OH231544   3.319   7.383   6.442
10528TIP3    H131545   3.241   7.347   6.395
10528TIP3    H231546   3.291   7.477   6.450
10529TIP3   OH231547   4.584   6.750   5.212
10529TIP3    H131548   4.559   6.844   5.197
10529TIP3    H231549   4.504   6.706   5.177
10530TIP3   OH231550   4.540   6.752   5.593
10530TIP3    H131551   4.612   6.736   5.656
10530TIP3    H231552   4.527   6.664   5.555
10531TIP3   OH231553   3.882   6.651   5.958
10531TIP3    H131554   3.914   6.582   6.019
10531TIP3    H231555   3.961   6.704   5.945
10532TIP3   OH231556   4.817   7.060   5.269
10532TIP3    H131557   4.819   6.987   5.331
10532TIP3    H231558   4.866   7.124   5.324
10533TIP3   OH231559   3.855   7.059   5.683
10533TIP3    H131560   3.847   6.962   5.685
10533TIP3    H231561   3.951   7.069   5.671
10534TIP3   OH231562   3.560   6.260   5.466
10534TIP3    H131563   3.513   6.344   5.482
10534TIP3    H231564   3.489   6.208   5.424
10535TIP3   OH231565   3.618   6.550   5.640
10535TIP3    H131566   3.668   6.472   5.674
10535TIP3    H231567   3.677   6.582   5.571
10536TIP3   OH231568   4.479   7.518   5.294
10536TIP3    H131569   4.520   7.448   5.239
10536TIP3    H231570   4.476   7.474   5.380
10537TIP3   OH231571   4.379   6.980   5.644
10537TIP3    H131572   4.421   6.901   5.603
10537TIP3    H231573   4.461   7.028   5.665
10538TIP3   OH231574   5.392   6.283   5.629
10538TIP3    H131575   5.412   6.367   5.675
10538TIP3    H231576   5.415   6.306   5.537
10539TIP3   OH231577   4.786   6.472   5.680
10539TIP3    H131578   4.835   6.388   5.687
10539TIP3    H231579   4.760   6.472   5.586
10540TIP3   OH231580   4.133   6.141   5.637
10540TIP3    H131581   4.112   6.213   5.575
10540TIP3    H231582   4.085   6.067   5.593
10541TIP3   OH231583   4.825   6.234   5.259
10541TIP3    H131584   4.897   6.220   5.325
10541TIP3    H231585   4.877   6.270   5.185
10542TIP3   OH231586   3.764   6.342   5.745
10542TIP3    H131587   3.847   6.324   5.792
10542TIP3    H231588   3.778   6.287   5.665
10543TIP3   OH231589   4.204   6.539   5.540
10543TIP3    H131590   4.299   6.516   5.550
10543TIP3    H231591   4.166   6.456   5.506
10544TIP3   OH231592   5.438   6.488   5.801
10544TIP3    H131593   5.367   6.551   5.778
10544TIP3    H231594   5.489   6.540   5.868
10545TIP3   OH231595   4.128   6.125   6.072
10545TIP3    H131596   4.068   6.162   6.004
10545TIP3    H231597   4.075   6.144   6.153
10546TIP3   OH231598   4.476   6.975   5.077
10546TIP3    H131599   4.431   6.960   4.992
10546TIP3    H231600   4.431   7.056   5.108
10547TIP3   OH231601   4.236   6.900   5.868
10547TIP3    H131602   4.175   6.970   5.901
10547TIP3    H231603   4.278   6.945   5.791
10548TIP3   OH231604   5.035   6.235   5.431
10548TIP3    H131605   5.035   6.181   5.511
10548TIP3    H231606   5.087   6.313   5.458
10549TIP3   OH231607   3.999   6.239   5.856
10549TIP3    H131608   4.062   6.312   5.879
10549TIP3    H231609   4.047   6.199   5.780
10550TIP3   OH231610   4.064   7.095   5.966
10550TIP3    H131611   4.039   7.180   5.924
10550TIP3    H231612   3.983   7.080   6.020
10551TIP3   OH231613   3.456   6.784   5.200
10551TIP3    H131614   3.415   6.812   5.116
10551TIP3    H231615   3.487   6.869   5.237
10552TIP3   OH231616   5.178   6.210   5.804
10552TIP3    H131617   5.092   6.224   5.761
10552TIP3    H231618   5.242   6.235   5.733
10553TIP3   OH231619   4.483   5.843   5.786
10553TIP3    H131620   4.469   5.748   5.802
10553TIP3    H231621   4.405   5.881   5.833
10554TIP3   OH231622   4.590   7.345   5.105
10554TIP3    H131623   4.643   7.264   5.091
10554TIP3    H231624   4.654   7.411   5.069
10555TIP3   OH231625   4.741   7.131   5.020
10555TIP3    H131626   4.696   7.051   4.990
10555TIP3    H231627   4.776   7.101   5.107
10556TIP3   OH231628   5.091   7.223   5.768
10556TIP3    H131629   5.057   7.168   5.692
10556TIP3    H231630   5.083   7.310   5.727
10557TIP3   OH231631   4.412   6.605   5.042
10557TIP3    H131632   4.333   6.659   5.021
10557TIP3    H231633   4.459   6.604   4.956
10558TIP3   OH231634   4.372   6.391   4.757
10558TIP3    H131635   4.437   6.443   4.806
10558TIP3    H231636   4.431   6.328   4.710
10559TIP3   OH231637   5.288   6.867   5.630
10559TIP3    H131638   5.207   6.918   5.608
10559TIP3    H231639   5.333   6.872   5.542
10560TIP3   OH231640   4.761   6.689   5.012
10560TIP3    H131641   4.707   6.711   5.092
10560TIP3    H231642   4.846   6.665   5.055
10561TIP3   OH231643   4.990   6.755   5.916
10561TIP3    H131644   4.970   6.850   5.917
10561TIP3    H231645   4.903   6.725   5.879
10562TIP3   OH231646   3.992   6.686   5.432
10562TIP3    H131647   3.952   6.628   5.364
10562TIP3    H231648   4.069   6.633   5.461
10563TIP3   OH231649   4.121   7.092   5.583
10563TIP3    H131650   4.105   7.059   5.493
10563TIP3    H231651   4.212   7.061   5.599
10564TIP3   OH231652   4.130   6.658   5.786
10564TIP3    H131653   4.162   6.634   5.697
10564TIP3    H231654   4.174   6.744   5.803
10565TIP3   OH231655   4.582   7.306   5.569
10565TIP3    H131656   4.639   7.380   5.597
10565TIP3    H231657   4.632   7.228   5.595
10566TIP3   OH231658   4.264   7.210   6.117
10566TIP3    H131659   4.201   7.275   6.156
10566TIP3    H231660   4.202   7.158   6.061
10567TIP3   OH231661   4.601   6.547   4.839
10567TIP3    H131662   4.659   6.608   4.890
10567TIP3    H231663   4.628   6.569   4.747
10568TIP3   OH231664   4.024   6.767   6.214
10568TIP3    H131665   4.028   6.855   6.255
10568TIP3    H231666   3.928   6.749   6.220
10569TIP3   OH231667   4.342   7.225   5.117
10569TIP3    H131668   4.426   7.274   5.126
10569TIP3    H231669   4.285   7.291   5.076
10570TIP3   OH231670   4.059   7.384   6.194
10570TIP3    H131671   4.026   7.386   6.102
10570TIP3    H231672   3.979   7.357   6.244
10571TIP3   OH231673   5.118   5.787   4.889
10571TIP3    H131674   5.036   5.808   4.937
10571TIP3    H231675   5.132   5.870   4.839
10572TIP3   OH231676   3.859   6.529   5.235
10572TIP3    H131677   3.794   6.575   5.179
10572TIP3    H231678   3.818   6.442   5.245
10573TIP3   OH231679   4.916   7.153   4.435
10573TIP3    H131680   4.924   7.250   4.422
10573TIP3    H231681   5.009   7.124   4.424
10574TIP3   OH231682   3.640   6.913   6.142
10574TIP3    H131683   3.574   6.894   6.073
10574TIP3    H231684   3.677   6.825   6.162
10575TIP3   OH231685   3.495   7.105   5.777
10575TIP3    H131686   3.591   7.101   5.766
10575TIP3    H231687   3.485   7.186   5.829
10576TIP3   OH231688   4.464   7.330   5.972
10576TIP3    H131689   4.458   7.423   6.003
10576TIP3    H231690   4.389   7.290   6.021
10577TIP3   OH231691   4.226   7.469   4.918
10577TIP3    H131692   4.181   7.455   4.833
10577TIP3    H231693   4.197   7.558   4.945
10578TIP3   OH231694   3.663   7.322   5.303
10578TIP3    H131695   3.712   7.313   5.388
10578TIP3    H231696   3.607   7.243   5.306
10579TIP3   OH231697   4.427   7.374   4.557
10579TIP3    H131698   4.486   7.304   4.521
10579TIP3    H231699   4.461   7.383   4.649
10580TIP3   OH231700   4.478   7.421   4.828
10580TIP3    H131701   4.389   7.429   4.869
10580TIP3    H231702   4.530   7.385   4.902
10581TIP3   OH231703   5.234   6.679   6.093
10581TIP3    H131704   5.160   6.711   6.038
10581TIP3    H231705   5.279   6.618   6.031
10582TIP3   OH231706   3.845   7.097   6.131
10582TIP3    H131707   3.894   7.078   6.213
10582TIP3    H231708   3.770   7.033   6.137
10583TIP3   OH231709   4.245   5.919   5.915
10583TIP3    H131710   4.157   5.888   5.887
10583TIP3    H231711   4.220   6.001   5.961
10584TIP3   OH231712   4.779   6.038   6.110
10584TIP3    H131713   4.848   6.001   6.169
10584TIP3    H231714   4.696   6.013   6.156
10585TIP3   OH231715   5.015   6.484   6.046
10585TIP3    H131716   4.939   6.467   6.106
10585TIP3    H231717   4.979   6.553   5.988
10586TIP3   OH231718   4.677   6.591   4.583
10586TIP3    H131719   4.644   6.567   4.495
10586TIP3    H231720   4.758   6.641   4.560
10587TIP3   OH231721   4.390   5.968   4.887
10587TIP3    H131722   4.355   5.964   4.978
10587TIP3    H231723   4.351   5.885   4.851
10588TIP3   OH231724   4.177   6.435   5.934
10588TIP3    H131725   4.126   6.457   6.014
10588TIP3    H231726   4.163   6.516   5.880
10589TIP3   OH231727   4.061   6.320   5.448
10589TIP3    H131728   3.968   6.296   5.465
10589TIP3    H231729   4.074   6.280   5.359
10590TIP3   OH231730   4.550   6.405   5.175
10590TIP3    H131731   4.499   6.478   5.133
10590TIP3    H231732   4.606   6.375   5.100
10591TIP3   OH231733   4.727   6.685   6.260
10591TIP3    H131734   4.702   6.615   6.324
10591TIP3    H231735   4.823   6.692   6.274
10592TIP3   OH231736   4.702   6.434   5.419
10592TIP3    H131737   4.647   6.470   5.347
10592TIP3    H231738   4.738   6.356   5.372
10593TIP3   OH231739   3.997   6.464   6.142
10593TIP3    H131740   4.020   6.530   6.209
10593TIP3    H231741   3.987   6.383   6.195
10594TIP3   OH231742   4.045   5.941   4.852
10594TIP3    H131743   4.036   5.940   4.949
10594TIP3    H231744   3.967   5.995   4.827
10595TIP3   OH231745   3.589   5.984   5.725
10595TIP3    H131746   3.665   6.017   5.777
10595TIP3    H231747   3.628   5.956   5.641
10596TIP3   OH231748   3.560   5.967   5.243
10596TIP3    H131749   3.606   6.003   5.164
10596TIP3    H231750   3.499   6.040   5.262
10597TIP3   OH231751   4.736   6.672   5.856
10597TIP3    H131752   4.757   6.613   5.780
10597TIP3    H231753   4.685   6.612   5.914
10598TIP3   OH231754   4.390   6.138   5.509
10598TIP3    H131755   4.306   6.140   5.559
10598TIP3    H231756   4.456   6.146   5.580
10599TIP3   OH231757   3.821   6.199   5.517
10599TIP3    H131758   3.727   6.207   5.489
10599TIP3    H231759   3.844   6.107   5.493
10600TIP3   OH231760   4.091   6.195   5.205
10600TIP3    H131761   4.184   6.210   5.183
10600TIP3    H231762   4.043   6.217   5.122
10601TIP3   OH231763   4.883   6.214   5.721
10601TIP3    H131764   4.833   6.231   5.803
10601TIP3    H231765   4.822   6.155   5.674
10602TIP3   OH231766   3.935   6.228   4.984
10602TIP3    H131767   3.863   6.184   4.935
10602TIP3    H231768   3.986   6.265   4.910
10603TIP3   OH231769   4.009   7.017   6.352
10603TIP3    H131770   4.088   7.050   6.399
10603TIP3    H231771   3.943   7.017   6.424
10604TIP3   OH231772   4.469   6.463   5.602
10604TIP3    H131773   4.547   6.433   5.552
10604TIP3    H231774   4.483   6.425   5.690
10605TIP3   OH231775   3.994   5.959   5.485
10605TIP3    H131776   3.959   5.880   5.532
10605TIP3    H231777   4.041   5.920   5.410
10606TIP3   OH231778   4.445   6.364   5.899
10606TIP3    H131779   4.355   6.402   5.906
10606TIP3    H231780   4.500   6.430   5.947
10607TIP3   OH231781   4.184   6.759   4.990
10607TIP3    H131782   4.111   6.693   4.979
10607TIP3    H231783   4.165   6.793   5.081
10608TIP3   OH231784   4.642   6.069   4.856
10608TIP3    H131785   4.545   6.052   4.862
10608TIP3    H231786   4.651   6.164   4.879
10609TIP3   OH231787   4.600   7.076   5.996
10609TIP3    H131788   4.585   7.063   6.090
10609TIP3    H231789   4.558   7.162   5.980
10610TIP3   OH231790   4.711   6.319   4.957
10610TIP3    H131791   4.807   6.326   4.973
10610TIP3    H231792   4.692   6.400   4.906
10611TIP3   OH231793   3.875   6.780   5.667
10611TIP3    H131794   3.913   6.754   5.580
10611TIP3    H231795   3.921   6.718   5.726
10612TIP3   OH231796   4.329   6.908   4.811
10612TIP3    H131797   4.280   6.993   4.815
10612TIP3    H231798   4.275   6.853   4.873
10613TIP3   OH231799   3.758   6.700   6.279
10613TIP3    H131800   3.776   6.686   6.374
10613TIP3    H231801   3.687   6.636   6.263
10614TIP3   OH231802   4.480   6.815   6.299
10614TIP3    H131803   4.417   6.757   6.253
10614TIP3    H231804   4.565   6.781   6.264
10615TIP3   OH231805   4.753   7.309   5.887
10615TIP3    H131806   4.657   7.320   5.874
10615TIP3    H231807   4.769   7.369   5.963
10616TIP3   OH231808   5.154   6.411   4.793
10616TIP3    H131809   5.092   6.366   4.730
10616TIP3    H231810   5.150   6.500   4.753
10617TIP3   OH231811   5.331   7.224   5.880
10617TIP3    H131812   5.251   7.238   5.824
10617TIP3    H231813   5.397   7.211   5.809
10618TIP3   OH231814   4.855   7.229   4.702
10618TIP3    H131815   4.826   7.162   4.765
10618TIP3    H231816   4.865   7.179   4.619
10619TIP3   OH231817   4.828   6.764   5.589
10619TIP3    H131818   4.757   6.825   5.568
10619TIP3    H231819   4.891   6.786   5.519
10620TIP3   OH231820   3.979   7.086   5.293
10620TIP3    H131821   3.980   7.167   5.238
10620TIP3    H231822   3.885   7.069   5.301
10621TIP3   OH231823   3.542   6.389   4.996
10621TIP3    H131824   3.587   6.474   5.016
10621TIP3    H231825   3.465   6.393   5.056
10622TIP3   OH231826   4.112   6.849   5.234
10622TIP3    H131827   4.080   6.939   5.253
10622TIP3    H231828   4.078   6.800   5.311
10623TIP3   OH231829   4.248   7.430   5.759
10623TIP3    H131830   4.289   7.501   5.705
10623TIP3    H231831   4.327   7.385   5.792
10624TIP3   OH231832   3.896   7.325   5.143
10624TIP3    H131833   3.811   7.334   5.190
10624TIP3    H231834   3.929   7.417   5.146
10625TIP3   OH231835   4.641   7.046   5.712
10625TIP3    H131836   4.645   7.047   5.809
10625TIP3    H231837   4.734   7.035   5.685
10626TIP3   OH231838   4.609   6.955   4.602
10626TIP3    H131839   4.663   6.929   4.680
10626TIP3    H231840   4.521   6.930   4.632
10627TIP3   OH231841   4.864   7.635   5.809
10627TIP3    H131842   4.834   7.548   5.780
10627TIP3    H231843   4.860   7.684   5.724
10628TIP3   OH231844   4.950   7.429   4.422
10628TIP3    H131845   4.985   7.501   4.368
10628TIP3    H231846   4.869   7.473   4.457
10629TIP3   OH231847   3.967   6.207   6.288
10629TIP3    H131848   3.870   6.207   6.299
10629TIP3    H231849   3.995   6.146   6.358
10630TIP3   OH231850   4.770   6.884   4.815
10630TIP3    H131851   4.760   6.822   4.890
10630TIP3    H231852   4.867   6.885   4.806
10631TIP3   OH231853   3.684   7.291   5.919
10631TIP3    H131854   3.739   7.219   5.954
10631TIP3    H231855   3.712   7.366   5.973
10632TIP3   OH231856   3.975   6.937   4.602
10632TIP3    H131857   3.989   6.844   4.575
10632TIP3    H231858   3.956   6.925   4.697
10633TIP3   OH231859   3.921   6.941   4.875
10633TIP3    H131860   3.995   6.915   4.931
10633TIP3    H231861   3.924   7.039   4.881
10634TIP3   OH231862   3.655   6.634   5.078
10634TIP3    H131863   3.589   6.679   5.134
10634TIP3    H231864   3.669   6.703   5.010
10635TIP3   OH231865   4.804   6.282   5.991
10635TIP3    H131866   4.899   6.281   6.001
10635TIP3    H231867   4.779   6.196   6.031
10636TIP3   OH231868   4.686   6.021   5.136
10636TIP3    H131869   4.672   6.043   5.042
10636TIP3    H231870   4.724   6.105   5.171
10637TIP3   OH231871   4.186   7.137   4.822
10637TIP3    H131872   4.100   7.163   4.859
10637TIP3    H231873   4.204   7.212   4.763
10638TIP3   OH231874   4.375   6.202   5.237
10638TIP3    H131875   4.438   6.274   5.219
10638TIP3    H231876   4.380   6.196   5.335
10639TIP3   OH231877   4.631   6.510   6.047
10639TIP3    H131878   4.662   6.567   6.120
10639TIP3    H231879   4.690   6.433   6.049
10640TIP3   OH231880   4.518   5.928   5.340
10640TIP3    H131881   4.504   6.008   5.394
10640TIP3    H231882   4.580   5.963   5.271
10641TIP3   OH231883   3.930   7.213   4.891
10641TIP3    H131884   3.900   7.283   4.828
10641TIP3    H231885   3.915   7.257   4.978
10642TIP3   OH231886   4.030   5.928   5.129
10642TIP3    H131887   4.029   6.019   5.165
10642TIP3    H231888   4.126   5.910   5.136
10643TIP3   OH231889   5.278   6.409   6.032
10643TIP3    H131890   5.185   6.405   6.002
10643TIP3    H231891   5.324   6.395   5.947
10644TIP3   OH231892   4.945   6.593   5.393
10644TIP3    H131893   4.861   6.559   5.427
10644TIP3    H231894   5.009   6.560   5.459
10645TIP3   OH231895   3.648   6.842   4.883
10645TIP3    H131896   3.714   6.913   4.892
10645TIP3    H231897   3.693   6.787   4.815
10646TIP3   OH231898   3.591   6.119   5.018
10646TIP3    H131899   3.592   6.217   5.014
10646TIP3    H231900   3.509   6.099   4.970
10647TIP3   OH231901   4.894   7.591   5.369
10647TIP3    H131902   4.862   7.636   5.288
10647TIP3    H231903   4.986   7.576   5.344
10648TIP3   OH231904   3.980   5.840   5.889
10648TIP3    H131905   3.950   5.806   5.802
10648TIP3    H231906   3.969   5.761   5.947
10649TIP3   OH231907   3.518   7.055   5.269
10649TIP3    H131908   3.448   7.087   5.327
10649TIP3    H231909   3.492   7.097   5.184
10650TIP3   OH231910   3.685   7.593   6.333
10650TIP3    H131911   3.770   7.593   6.382
10650TIP3    H231912   3.662   7.499   6.335
10651TIP3   OH231913   4.165   7.556   6.382
10651TIP3    H131914   4.248   7.505   6.380
10651TIP3    H231915   4.120   7.514   6.305
10652TIP3   OH231916   4.139   7.140   4.513
10652TIP3    H131917   4.083   7.068   4.552
10652TIP3    H231918   4.214   7.088   4.481
10653TIP3   OH231919   4.803   7.443   6.124
10653TIP3    H131920   4.773   7.378   6.190
10653TIP3    H231921   4.899   7.442   6.137
10654TIP3   OH231922   4.574   7.180   4.426
10654TIP3    H131923   4.619   7.117   4.485
10654TIP3    H231924   4.630   7.178   4.346
10655TIP3   OH231925   3.806   7.007   6.543
10655TIP3    H131926   3.821   6.911   6.549
10655TIP3    H231927   3.719   7.010   6.496
10656TIP3   OH231928   3.783   6.656   4.736
10656TIP3    H131929   3.840   6.625   4.809
10656TIP3    H231930   3.850   6.661   4.664
10657TIP3   OH231931   4.416   7.091   6.314
10657TIP3    H131932   4.367   7.110   6.231
10657TIP3    H231933   4.440   6.996   6.304
10658TIP3   OH231934   4.294   6.855   4.543
10658TIP3    H131935   4.297   6.867   4.640
10658TIP3    H231936   4.293   6.757   4.537
10659TIP3   OH231937   4.936   7.078   5.943
10659TIP3    H131938   4.962   7.121   5.859
10659TIP3    H231939   4.846   7.116   5.950
10660TIP3   OH231940   3.924   6.739   6.526
10660TIP3    H131941   4.001   6.687   6.501
10660TIP3    H231942   3.951   6.773   6.614
10661TIP3   OH231943   3.991   6.561   4.957
10661TIP3    H131944   3.964   6.519   5.040
10661TIP3    H231945   4.028   6.485   4.907
10662TIP3   OH231946   4.264   6.628   6.187
10662TIP3    H131947   4.184   6.683   6.187
10662TIP3    H231948   4.312   6.661   6.108
10663TIP3   OH231949   4.092   6.354   4.798
10663TIP3    H131950   4.067   6.361   4.704
10663TIP3    H231951   4.190   6.357   4.791
10664TIP3   OH231952   4.782   7.025   6.327
10664TIP3    H131953   4.834   6.976   6.262
10664TIP3    H231954   4.777   6.963   6.402
10665TIP3   OH231955   4.914   6.684   4.462
10665TIP3    H131956   4.893   6.640   4.378
10665TIP3    H231957   4.881   6.774   4.441
10666TIP3   OH231958   4.388   6.415   6.308
10666TIP3    H131959   4.385   6.335   6.251
10666TIP3    H231960   4.343   6.481   6.251
10667TIP3   OH231961   4.386   6.199   6.122
10667TIP3    H131962   4.413   6.243   6.038
10667TIP3    H231963   4.292   6.177   6.102
10668TIP3   OH231964   4.415   6.739   5.993
10668TIP3    H131965   4.497   6.753   5.944
10668TIP3    H231966   4.355   6.802   5.948
10669TIP3   OH231967   5.010   6.699   6.338
10669TIP3    H131968   5.018   6.649   6.424
10669TIP3    H231969   5.057   6.780   6.354
10670TIP3   OH231970   4.264   6.523   6.542
10670TIP3    H131971   4.195   6.456   6.557
10670TIP3    H231972   4.295   6.499   6.453
10671TIP3   OH231973   4.520   5.963   6.187
10671TIP3    H131974   4.468   6.043   6.164
10671TIP3    H231975   4.452   5.893   6.175
10672TIP3   OH231976   4.645   6.467   6.403
10672TIP3    H131977   4.621   6.450   6.496
10672TIP3    H231978   4.557   6.445   6.363
10673TIP3   OH231979   4.885   6.419   6.278
10673TIP3    H131980   4.799   6.431   6.323
10673TIP3    H231981   4.920   6.344   6.327
10674TIP3   OH231982   5.140   6.343   6.400
10674TIP3    H131983   5.146   6.245   6.413
10674TIP3    H231984   5.101   6.371   6.484
10675TIP3   OH231985   4.099   6.305   6.595
10675TIP3    H131986   4.105   6.213   6.562
10675TIP3    H231987   4.136   6.294   6.685
10676TIP3   OH231988   4.614   5.973   6.445
10676TIP3    H131989   4.680   5.901   6.439
10676TIP3    H231990   4.574   5.967   6.356
10677TIP3   OH231991   4.677   6.187   6.601
10677TIP3    H131992   4.657   6.115   6.537
10677TIP3    H231993   4.598   6.244   6.593
10678TIP3   OH231994   3.899   7.416   4.703
10678TIP3    H131995   3.995   7.410   4.685
10678TIP3    H231996   3.871   7.467   4.624
10679TIP3   OH231997   3.379   6.798   4.920
10679TIP3    H131998   3.474   6.820   4.905
10679TIP3    H231999   3.373   6.709   4.879
10680TIP3   OH232000   3.294   7.412   5.333
10680TIP3    H132001   3.228   7.350   5.295
10680TIP3    H232002   3.339   7.354   5.398
10681TIP3   OH232003   3.430   7.261   5.519
10681TIP3    H132004   3.417   7.189   5.582
10681TIP3    H232005   3.483   7.322   5.574
10682TIP3   OH232006   5.153   7.679   5.297
10682TIP3    H132007   5.181   7.663   5.388
10682TIP3    H232008   5.229   7.724   5.258
10683TIP3   OH232009   5.050   6.871   4.794
10683TIP3    H132010   5.116   6.936   4.765
10683TIP3    H232011   5.094   6.833   4.874
10684TIP3   OH232012   5.179   6.739   4.996
10684TIP3    H132013   5.111   6.697   5.053
10684TIP3    H232014   5.239   6.780   5.062
10685TIP3   OH232015   5.115   6.646   4.644
10685TIP3    H132016   5.044   6.649   4.576
10685TIP3    H232017   5.087   6.722   4.700
10686TIP3   OH232018   4.988   6.319   4.599
10686TIP3    H132019   4.942   6.359   4.524
10686TIP3    H232020   4.962   6.225   4.589
10687TIP3   OH232021   4.993   6.595   5.133
10687TIP3    H132022   4.997   6.498   5.129
10687TIP3    H232023   4.978   6.609   5.230
10688TIP3   OH232024   3.616   6.665   5.894
10688TIP3    H132025   3.614   6.636   5.800
10688TIP3    H232026   3.714   6.669   5.909
10689TIP3   OH232027   5.455   6.840   6.051
10689TIP3    H132028   5.374   6.793   6.079
10689TIP3    H232029   5.514   6.765   6.034
10690TIP3   OH232030   4.929   6.053   4.584
10690TIP3    H132031   5.001   6.022   4.642
10690TIP3    H232032   4.854   5.995   4.606
10691TIP3   OH232033   4.987   6.311   5.039
10691TIP3    H132034   5.027   6.223   5.054
10691TIP3    H232035   5.045   6.345   4.969
10692TIP3   OH232036   5.154   6.481   5.542
10692TIP3    H132037   5.236   6.511   5.497
10692TIP3    H232038   5.164   6.527   5.627
10693TIP3   OH232039   5.213   6.647   5.775
10693TIP3    H132040   5.127   6.682   5.806
10693TIP3    H232041   5.244   6.723   5.721
10694TIP3   OH232042   3.832   6.353   6.564
10694TIP3    H132043   3.930   6.351   6.566
10694TIP3    H232044   3.812   6.267   6.607
10695TIP3   OH232045   5.702   6.252   6.319
10695TIP3    H132046   5.742   6.175   6.275
10695TIP3    H232047   5.649   6.293   6.247
10696TIP3   OH232048   5.097   6.061   5.076
10696TIP3    H132049   5.144   6.045   5.160
10696TIP3    H232050   5.035   5.986   5.075
10697TIP3   OH232051   3.795   6.048   5.900
10697TIP3    H132052   3.857   5.973   5.906
10697TIP3    H232053   3.858   6.122   5.890
10698TIP3   OH232054   3.599   6.321   5.972
10698TIP3    H132055   3.647   6.315   5.887
10698TIP3    H232056   3.624   6.410   6.000
10699TIP3   OH232057   5.518   6.341   6.137
10699TIP3    H132058   5.427   6.373   6.118
10699TIP3    H232059   5.516   6.261   6.080
10700TIP3   OH232060   5.177   5.995   4.712
10700TIP3    H132061   5.215   5.925   4.655
10700TIP3    H232062   5.243   6.066   4.704
10701TIP3   OH232063   3.582   5.827   5.473
10701TIP3    H132064   3.488   5.821   5.497
10701TIP3    H232065   3.579   5.885   5.393
10702TIP3   OH232066   4.738   7.531   4.975
10702TIP3    H132067   4.794   7.520   4.895
10702TIP3    H232068   4.792   7.589   5.030
10703TIP3   OH232069   3.803   5.908   6.287
10703TIP3    H132070   3.748   5.899   6.367
10703TIP3    H232071   3.738   5.944   6.224
10704TIP3   OH232072   3.844   7.329   6.366
10704TIP3    H132073   3.753   7.305   6.340
10704TIP3    H232074   3.842   7.312   6.460
10705TIP3   OH232075   4.023   7.368   5.911
10705TIP3    H132076   3.974   7.443   5.870
10705TIP3    H232077   4.109   7.383   5.866
10706TIP3   OH232078   4.447   7.588   6.073
10706TIP3    H132079   4.494   7.608   6.155
10706TIP3    H232080   4.499   7.640   6.008
10707TIP3   OH232081   4.598   7.731   5.901
10707TIP3    H132082   4.649   7.679   5.835
10707TIP3    H232083   4.658   7.809   5.910
10708TIP3   OH232084   5.437   6.114   6.004
10708TIP3    H132085   5.346   6.097   5.972
10708TIP3    H232086   5.474   6.023   5.994
10709TIP3   OH232087   3.698   7.620   5.939
10709TIP3    H132088   3.607   7.648   5.915
10709TIP3    H232089   3.714   7.679   6.014
10710TIP3   OH232090   3.932   7.599   5.792
10710TIP3    H132091   3.845   7.612   5.836
10710TIP3    H232092   3.914   7.633   5.702
10711TIP3   OH232093   4.354   7.629   5.588
10711TIP3    H132094   4.288   7.650   5.520
10711TIP3    H232095   4.369   7.717   5.629
10712TIP3   OH232096   4.629   7.575   5.650
10712TIP3    H132097   4.540   7.585   5.613
10712TIP3    H232098   4.681   7.640   5.598
10713TIP3   OH232099   4.825   7.759   5.569
10713TIP3    H132100   4.822   7.847   5.528
10713TIP3    H232101   4.853   7.702   5.494
10714TIP3   OH232102   3.607   7.414   5.677
10714TIP3    H132103   3.632   7.389   5.768
10714TIP3    H232104   3.679   7.371   5.627
10715TIP3   OH232105   3.802   7.286   5.536
10715TIP3    H132106   3.819   7.203   5.585
10715TIP3    H232107   3.892   7.324   5.531
10716TIP3   OH232108   4.067   7.383   5.540
10716TIP3    H132109   4.102   7.293   5.524
10716TIP3    H232110   4.113   7.405   5.622
10717TIP3   OH232111   4.650   6.040   5.634
10717TIP3    H132112   4.600   5.969   5.679
10717TIP3    H232113   4.715   5.990   5.582
10718TIP3   OH232114   5.166   5.926   5.534
10718TIP3    H132115   5.201   5.973   5.455
10718TIP3    H232116   5.070   5.935   5.522
10719TIP3   OH232117   5.261   6.016   5.295
10719TIP3    H132118   5.334   5.966   5.254
10719TIP3    H232119   5.293   6.108   5.280
10720TIP3   OH232120   3.892   5.747   5.642
10720TIP3    H132121   3.799   5.715   5.644
10720TIP3    H232122   3.939   5.661   5.637
10721TIP3   OH232123   3.681   5.617   5.290
10721TIP3    H132124   3.709   5.673   5.216
10721TIP3    H232125   3.652   5.683   5.356
10722TIP3   OH232126   4.337   5.778   5.523
10722TIP3    H132127   4.393   5.827   5.461
10722TIP3    H232128   4.359   5.819   5.607
10723TIP3   OH232129   4.885   5.925   5.505
10723TIP3    H132130   4.879   5.887   5.417
10723TIP3    H232131   4.871   5.846   5.562
10724TIP3   OH232132   4.912   5.849   5.069
10724TIP3    H132133   4.826   5.892   5.080
10724TIP3    H232134   4.897   5.764   5.115
10725TIP3   OH232135   3.396   7.189   5.069
10725TIP3    H132136   3.310   7.156   5.036
10725TIP3    H232137   3.386   7.283   5.047
10726TIP3   OH232138   3.796   5.774   5.053
10726TIP3    H132139   3.844   5.712   4.995
10726TIP3    H232140   3.869   5.829   5.088
10727TIP3   OH232141   4.307   5.951   5.151
10727TIP3    H132142   4.367   5.903   5.211
10727TIP3    H232143   4.330   6.044   5.177
10728TIP3   OH232144   4.167   7.376   4.651
10728TIP3    H132145   4.256   7.398   4.615
10728TIP3    H232146   4.146   7.301   4.591
10729TIP3   OH232147   4.888   7.496   4.744
10729TIP3    H132148   4.881   7.398   4.734
10729TIP3    H232149   4.841   7.525   4.664
10730TIP3   OH232150   4.098   6.028   6.536
10730TIP3    H132151   4.066   5.954   6.591
10730TIP3    H232152   4.193   6.028   6.561
10731TIP3   OH232153   4.350   6.025   6.651
10731TIP3    H132154   4.434   5.996   6.610
10731TIP3    H232155   4.338   5.955   6.719
10732TIP3   OH232156   3.471   7.212   4.706
10732TIP3    H132157   3.473   7.238   4.799
10732TIP3    H232158   3.560   7.171   4.694
10733TIP3   OH232159   5.177   6.077   6.438
10733TIP3    H132160   5.192   6.043   6.529
10733TIP3    H232161   5.266   6.066   6.399
10734TIP3   OH232162   6.393   6.995   4.680
10734TIP3    H132163   6.361   7.086   4.690
10734TIP3    H232164   6.314   6.952   4.642
10735TIP3   OH232165   6.394   6.910   5.089
10735TIP3    H132166   6.368   6.996   5.128
10735TIP3    H232167   6.344   6.909   5.008
10736TIP3   OH232168   5.696   6.916   5.446
10736TIP3    H132169   5.716   6.845   5.510
10736TIP3    H232170   5.784   6.939   5.414
10737TIP3   OH232171   5.657   7.317   5.192
10737TIP3    H132172   5.647   7.219   5.188
10737TIP3    H232173   5.746   7.325   5.151
10738TIP3   OH232174   5.357   6.518   4.953
10738TIP3    H132175   5.309   6.601   4.972
10738TIP3    H232176   5.286   6.466   4.911
10739TIP3   OH232177   5.415   6.809   5.125
10739TIP3    H132178   5.462   6.732   5.163
10739TIP3    H232179   5.472   6.834   5.052
10740TIP3   OH232180   6.658   6.715   5.088
10740TIP3    H132181   6.662   6.621   5.117
10740TIP3    H232182   6.588   6.710   5.020
10741TIP3   OH232183   5.930   6.397   5.122
10741TIP3    H132184   5.908   6.471   5.062
10741TIP3    H232185   5.882   6.324   5.078
10742TIP3   OH232186   6.613   6.488   4.733
10742TIP3    H132187   6.686   6.469   4.797
10742TIP3    H232188   6.663   6.531   4.661
10743TIP3   OH232189   5.559   6.600   5.230
10743TIP3    H132190   5.641   6.578   5.278
10743TIP3    H232191   5.572   6.544   5.150
10744TIP3   OH232192   6.000   6.793   5.026
10744TIP3    H132193   6.089   6.755   5.041
10744TIP3    H232194   5.954   6.714   4.991
10745TIP3   OH232195   5.908   6.378   5.559
10745TIP3    H132196   5.850   6.416   5.490
10745TIP3    H232197   5.858   6.401   5.640
10746TIP3   OH232198   6.271   7.236   4.576
10746TIP3    H132199   6.233   7.209   4.491
10746TIP3    H232200   6.234   7.327   4.583
10747TIP3   OH232201   6.816   6.463   4.909
10747TIP3    H132202   6.786   6.478   5.001
10747TIP3    H232203   6.882   6.534   4.898
10748TIP3   OH232204   5.790   6.493   5.340
10748TIP3    H132205   5.851   6.567   5.364
10748TIP3    H232206   5.842   6.453   5.266
10749TIP3   OH232207   5.254   7.040   4.687
10749TIP3    H132208   5.211   7.068   4.604
10749TIP3    H232209   5.284   7.126   4.723
10750TIP3   OH232210   6.275   6.096   5.262
10750TIP3    H132211   6.261   6.003   5.287
10750TIP3    H232212   6.206   6.140   5.316
10751TIP3   OH232213   6.514   7.389   4.485
10751TIP3    H132214   6.508   7.316   4.422
10751TIP3    H232215   6.480   7.346   4.565
10752TIP3   OH232216   6.207   6.865   4.522
10752TIP3    H132217   6.124   6.914   4.504
10752TIP3    H232218   6.245   6.856   4.433
10753TIP3   OH232219   6.168   6.643   4.245
10753TIP3    H132220   6.235   6.699   4.288
10753TIP3    H232221   6.226   6.580   4.198
10754TIP3   OH232222   6.565   6.931   4.481
10754TIP3    H132223   6.506   6.950   4.557
10754TIP3    H232224   6.646   6.905   4.530
10755TIP3   OH232225   5.790   6.943   4.915
10755TIP3    H132226   5.746   6.885   4.849
10755TIP3    H232227   5.866   6.887   4.943
10756TIP3   OH232228   5.898   7.341   5.077
10756TIP3    H132229   5.922   7.309   4.989
10756TIP3    H232230   5.977   7.322   5.131
10757TIP3   OH232231   5.933   6.923   5.269
10757TIP3    H132232   5.956   6.889   5.180
10757TIP3    H232233   5.991   7.000   5.276
10758TIP3   OH232234   6.391   6.798   4.319
10758TIP3    H132235   6.454   6.855   4.368
10758TIP3    H232236   6.417   6.819   4.226
10759TIP3   OH232237   6.176   7.497   4.588
10759TIP3    H132238   6.192   7.560   4.660
10759TIP3    H232239   6.090   7.525   4.553
10760TIP3   OH232240   6.914   6.045   4.376
10760TIP3    H132241   6.832   6.069   4.422
10760TIP3    H232242   6.931   6.126   4.322
10761TIP3   OH232243   5.655   6.786   4.723
10761TIP3    H132244   5.590   6.832   4.666
10761TIP3    H232245   5.612   6.700   4.734
10762TIP3   OH232246   6.713   7.408   3.934
10762TIP3    H132247   6.697   7.503   3.911
10762TIP3    H232248   6.805   7.397   3.904
10763TIP3   OH232249   5.465   7.165   5.653
10763TIP3    H132250   5.421   7.216   5.582
10763TIP3    H232251   5.480   7.079   5.612
10764TIP3   OH232252   5.316   7.388   5.216
10764TIP3    H132253   5.390   7.334   5.245
10764TIP3    H232254   5.280   7.409   5.305
10765TIP3   OH232255   6.022   7.731   4.398
10765TIP3    H132256   5.984   7.685   4.321
10765TIP3    H232257   5.982   7.818   4.390
10766TIP3   OH232258   5.464   7.577   4.790
10766TIP3    H132259   5.506   7.567   4.878
10766TIP3    H232260   5.401   7.503   4.792
10767TIP3   OH232261   6.225   7.631   4.045
10767TIP3    H132262   6.280   7.560   4.004
10767TIP3    H232263   6.269   7.643   4.131
10768TIP3   OH232264   6.277   7.668   4.328
10768TIP3    H132265   6.189   7.689   4.364
10768TIP3    H232266   6.291   7.579   4.363
10769TIP3   OH232267   6.044   6.172   5.405
10769TIP3    H132268   5.954   6.147   5.376
10769TIP3    H232269   6.024   6.257   5.448
10770TIP3   OH232270   6.476   6.851   4.070
10770TIP3    H132271   6.438   6.825   3.984
10770TIP3    H232272   6.557   6.896   4.041
10771TIP3   OH232273   6.187   6.222   4.373
10771TIP3    H132274   6.150   6.219   4.463
10771TIP3    H232275   6.146   6.142   4.336
10772TIP3   OH232276   5.966   6.689   5.409
10772TIP3    H132277   5.936   6.717   5.498
10772TIP3    H232278   5.959   6.775   5.361
10773TIP3   OH232279   5.856   6.579   4.934
10773TIP3    H132280   5.763   6.552   4.952
10773TIP3    H232281   5.868   6.538   4.845
10774TIP3   OH232282   6.340   6.661   4.650
10774TIP3    H132283   6.289   6.732   4.606
10774TIP3    H232284   6.398   6.630   4.577
10775TIP3   OH232285   6.467   6.665   4.897
10775TIP3    H132286   6.415   6.705   4.825
10775TIP3    H232287   6.509   6.593   4.846
10776TIP3   OH232288   5.799   6.722   5.635
10776TIP3    H132289   5.819   6.782   5.708
10776TIP3    H232290   5.785   6.637   5.681
10777TIP3   OH232291   5.844   6.199   4.340
10777TIP3    H132292   5.830   6.197   4.436
10777TIP3    H232293   5.765   6.251   4.311
10778TIP3   OH232294   5.384   6.241   5.212
10778TIP3    H132295   5.461   6.272   5.263
10778TIP3    H232296   5.421   6.213   5.128
10779TIP3   OH232297   5.358   6.224   4.730
10779TIP3    H132298   5.402   6.262   4.651
10779TIP3    H232299   5.295   6.297   4.749
10780TIP3   OH232300   6.184   6.381   4.995
10780TIP3    H132301   6.098   6.387   5.041
10780TIP3    H232302   6.241   6.424   5.061
10781TIP3   OH232303   5.618   6.457   5.002
10781TIP3    H132304   5.523   6.467   4.975
10781TIP3    H232305   5.637   6.364   4.979
10782TIP3   OH232306   5.888   6.453   4.692
10782TIP3    H132307   5.980   6.468   4.664
10782TIP3    H232308   5.837   6.473   4.610
10783TIP3   OH232309   6.657   6.455   5.173
10783TIP3    H132310   6.650   6.474   5.268
10783TIP3    H232311   6.577   6.400   5.159
10784TIP3   OH232312   5.732   6.484   4.473
10784TIP3    H132313   5.660   6.440   4.425
10784TIP3    H232314   5.783   6.520   4.397
10785TIP3   OH232315   6.239   6.665   5.084
10785TIP3    H132316   6.324   6.684   5.041
10785TIP3    H232317   6.264   6.657   5.177
10786TIP3   OH232318   5.793   6.214   4.972
10786TIP3    H132319   5.755   6.137   5.019
10786TIP3    H232320   5.827   6.173   4.891
10787TIP3   OH232321   6.232   6.622   5.400
10787TIP3    H132322   6.137   6.646   5.396
10787TIP3    H232323   6.274   6.706   5.424
10788TIP3   OH232324   5.978   7.018   4.481
10788TIP3    H132325   5.907   6.951   4.468
10788TIP3    H232326   5.959   7.050   4.573
10789TIP3   OH232327   6.440   6.323   4.348
10789TIP3    H132328   6.342   6.306   4.349
10789TIP3    H232329   6.446   6.419   4.364
10790TIP3   OH232330   6.509   6.577   4.442
10790TIP3    H132331   6.606   6.586   4.455
10790TIP3    H232332   6.488   6.654   4.387
10791TIP3   OH232333   5.675   7.043   5.151
10791TIP3    H132334   5.711   7.012   5.066
10791TIP3    H232335   5.706   6.976   5.212
10792TIP3   OH232336   6.128   7.168   4.308
10792TIP3    H132337   6.081   7.254   4.311
10792TIP3    H232338   6.070   7.113   4.364
10793TIP3   OH232339   5.526   6.907   5.776
10793TIP3    H132340   5.480   6.957   5.844
10793TIP3    H232341   5.452   6.880   5.719
10794TIP3   OH232342   6.949   6.667   4.278
10794TIP3    H132343   6.887   6.620   4.218
10794TIP3    H232344   6.945   6.754   4.233
10795TIP3   OH232345   6.667   7.477   4.208
10795TIP3    H132346   6.609   7.408   4.240
10795TIP3    H232347   6.673   7.459   4.113
10796TIP3   OH232348   5.771   7.341   4.767
10796TIP3    H132349   5.761   7.424   4.718
10796TIP3    H232350   5.680   7.319   4.788
10797TIP3   OH232351   5.340   6.645   4.484
10797TIP3    H132352   5.382   6.731   4.503
10797TIP3    H232353   5.261   6.649   4.543
10798TIP3   OH232354   5.919   7.110   4.730
10798TIP3    H132355   5.874   7.196   4.742
10798TIP3    H232356   5.876   7.056   4.799
10799TIP3   OH232357   5.693   7.582   4.634
10799TIP3    H132358   5.606   7.584   4.678
10799TIP3    H232359   5.716   7.677   4.637
10800TIP3   OH232360   6.405   7.214   4.090
10800TIP3    H132361   6.451   7.184   4.171
10800TIP3    H232362   6.314   7.182   4.107
10801TIP3   OH232363   6.685   7.674   3.893
10801TIP3    H132364   6.775   7.705   3.870
10801TIP3    H232365   6.646   7.751   3.938
10802TIP3   OH232366   5.766   6.466   5.780
10802TIP3    H132367   5.670   6.451   5.788
10802TIP3    H232368   5.801   6.410   5.852
10803TIP3   OH232369   6.563   7.154   4.313
10803TIP3    H132370   6.552   7.079   4.376
10803TIP3    H232371   6.656   7.141   4.288
10804TIP3   OH232372   5.776   7.193   4.091
10804TIP3    H132373   5.781   7.103   4.056
10804TIP3    H232374   5.750   7.177   4.184
10805TIP3   OH232375   5.716   7.198   4.364
10805TIP3    H132376   5.788   7.172   4.423
10805TIP3    H232377   5.720   7.296   4.368
10806TIP3   OH232378   5.454   6.893   4.565
10806TIP3    H132379   5.386   6.936   4.621
10806TIP3    H232380   5.464   6.961   4.495
10807TIP3   OH232381   6.483   6.273   4.621
10807TIP3    H132382   6.463   6.292   4.527
10807TIP3    H232383   6.516   6.360   4.652
10808TIP3   OH232384   5.990   7.402   4.319
10808TIP3    H132385   5.899   7.425   4.346
10808TIP3    H232386   5.991   7.437   4.228
10809TIP3   OH232387   6.178   6.454   4.725
10809TIP3    H132388   6.236   6.530   4.704
10809TIP3    H232389   6.178   6.455   4.823
10810TIP3   OH232390   6.322   6.188   4.834
10810TIP3    H132391   6.290   6.269   4.880
10810TIP3    H232392   6.376   6.227   4.762
10811TIP3   OH232393   5.732   7.471   4.378
10811TIP3    H132394   5.698   7.538   4.314
10811TIP3    H232395   5.710   7.514   4.463
10812TIP3   OH232396   5.826   6.185   4.617
10812TIP3    H132397   5.823   6.276   4.651
10812TIP3    H232398   5.922   6.168   4.623
10813TIP3   OH232399   5.443   7.097   4.370
10813TIP3    H132400   5.507   7.170   4.376
10813TIP3    H232401   5.488   7.043   4.302
10814TIP3   OH232402   5.388   6.376   4.504
10814TIP3    H132403   5.387   6.473   4.502
10814TIP3    H232404   5.306   6.355   4.457
10815TIP3   OH232405   5.778   6.096   5.374
10815TIP3    H132406   5.746   6.063   5.288
10815TIP3    H232407   5.766   6.018   5.432
10816TIP3   OH232408   5.315   7.310   4.755
10816TIP3    H132409   5.253   7.341   4.822
10816TIP3    H232410   5.279   7.354   4.674
10817TIP3   OH232411   5.947   7.393   4.019
10817TIP3    H132412   5.884   7.320   4.040
10817TIP3    H232413   6.014   7.344   3.967
10818TIP3   OH232414   6.370   7.439   3.916
10818TIP3    H132415   6.418   7.374   3.970
10818TIP3    H232416   6.422   7.439   3.832
10819TIP3   OH232417   5.579   6.915   4.221
10819TIP3    H132418   5.635   6.881   4.292
10819TIP3    H232419   5.645   6.920   4.148
10820TIP3   OH232420   6.101   7.113   4.033
10820TIP3    H132421   6.092   7.122   4.130
10820TIP3    H232422   6.094   7.015   4.023
10821TIP3   OH232423   5.794   6.817   4.449
10821TIP3    H132424   5.758   6.772   4.527
10821TIP3    H232425   5.826   6.741   4.395
10822TIP3   OH232426   5.887   6.611   4.285
10822TIP3    H132427   5.860   6.617   4.191
10822TIP3    H232428   5.985   6.613   4.277
10823TIP3   OH232429   6.710   6.940   3.950
10823TIP3    H132430   6.692   6.895   3.865
10823TIP3    H232431   6.678   7.030   3.926
10824TIP3   OH232432   6.176   6.408   5.596
10824TIP3    H132433   6.207   6.479   5.538
10824TIP3    H232434   6.079   6.413   5.584
10825TIP3   OH232435   6.301   6.180   5.717
10825TIP3    H132436   6.322   6.268   5.682
10825TIP3    H232437   6.226   6.159   5.659
10826TIP3   OH232438   5.698   7.681   4.195
10826TIP3    H132439   5.792   7.673   4.170
10826TIP3    H232440   5.663   7.721   4.114
10827TIP3   OH232441   5.175   7.055   4.406
10827TIP3    H132442   5.269   7.076   4.391
10827TIP3    H232443   5.168   6.966   4.365
10828TIP3   OH232444   5.089   7.671   4.818
10828TIP3    H132445   5.023   7.608   4.781
10828TIP3    H232446   5.135   7.612   4.882
10829TIP3   OH232447   5.231   7.520   4.995
10829TIP3    H132448   5.241   7.447   5.060
10829TIP3    H232449   5.255   7.593   5.055
10830TIP3   OH232450   6.848   7.121   4.291
10830TIP3    H132451   6.887   7.207   4.270
10830TIP3    H232452   6.861   7.115   4.386
10831TIP3   OH232453   6.910   6.903   4.131
10831TIP3    H132454   6.840   6.900   4.061
10831TIP3    H232455   6.877   6.979   4.183
10832TIP3   OH232456   6.781   6.578   4.086
10832TIP3    H132457   6.739   6.614   4.007
10832TIP3    H232458   6.757   6.483   4.078
10833TIP3   OH232459   6.771   6.841   4.639
10833TIP3    H132460   6.794   6.750   4.617
10833TIP3    H232461   6.793   6.846   4.734
10834TIP3   OH232462   5.424   6.884   5.400
10834TIP3    H132463   5.402   6.892   5.305
10834TIP3    H232464   5.519   6.908   5.400
10835TIP3   OH232465   6.723   6.314   4.076
10835TIP3    H132466   6.797   6.277   4.128
10835TIP3    H232467   6.650   6.251   4.091
10836TIP3   OH232468   6.787   6.573   4.524
10836TIP3    H132469   6.824   6.483   4.539
10836TIP3    H232470   6.845   6.602   4.451
10837TIP3   OH232471   5.569   6.586   6.017
10837TIP3    H132472   5.654   6.627   6.043
10837TIP3    H232473   5.573   6.503   6.070
10838TIP3   OH232474   6.891   6.322   4.562
10838TIP3    H132475   6.941   6.308   4.645
10838TIP3    H232476   6.830   6.246   4.562
10839TIP3   OH232477   5.591   6.303   5.386
10839TIP3    H132478   5.654   6.228   5.393
10839TIP3    H232479   5.652   6.378   5.375
10840TIP3   OH232480   5.397   6.587   5.460
10840TIP3    H132481   5.443   6.570   5.375
10840TIP3    H232482   5.411   6.682   5.467
10841TIP3   OH232483   6.973   6.250   4.200
10841TIP3    H132484   7.011   6.182   4.140
10841TIP3    H232485   7.038   6.322   4.193
10842TIP3   OH232486   5.379   6.085   4.961
10842TIP3    H132487   5.285   6.078   4.984
10842TIP3    H232488   5.375   6.142   4.881
10843TIP3   OH232489   5.600   6.166   5.771
10843TIP3    H132490   5.545   6.153   5.850
10843TIP3    H232491   5.534   6.198   5.707
10844TIP3   OH232492   5.409   7.670   5.173
10844TIP3    H132493   5.392   7.601   5.240
10844TIP3    H232494   5.476   7.624   5.118
10845TIP3   OH232495   5.599   7.530   5.027
10845TIP3    H132496   5.595   7.448   5.082
10845TIP3    H232497   5.695   7.540   5.019
10846TIP3   OH232498   6.442   6.291   5.130
10846TIP3    H132499   6.385   6.227   5.176
10846TIP3    H232500   6.480   6.237   5.060
10847TIP3   OH232501   6.958   6.176   4.992
10847TIP3    H132502   6.981   6.238   4.919
10847TIP3    H232503   6.865   6.199   5.012
10848TIP3   OH232504   7.065   6.284   4.773
10848TIP3    H132505   7.136   6.225   4.740
10848TIP3    H232506   7.109   6.372   4.759
10849TIP3   OH232507   5.687   6.004   5.127
10849TIP3    H132508   5.594   5.973   5.130
10849TIP3    H232509   5.734   5.918   5.123
10850TIP3   OH232510   5.481   5.874   4.778
10850TIP3    H132511   5.506   5.930   4.703
10850TIP3    H232512   5.449   5.939   4.843
10851TIP3   OH232513   6.136   6.032   5.007
10851TIP3    H132514   6.191   6.090   4.951
10851TIP3    H232515   6.146   6.074   5.093
10852TIP3   OH232516   6.683   6.151   4.983
10852TIP3    H132517   6.656   6.195   4.901
10852TIP3    H232518   6.675   6.058   4.962
10853TIP3   OH232519   6.710   6.109   4.561
10853TIP3    H132520   6.623   6.153   4.565
10853TIP3    H232521   6.689   6.022   4.600
10854TIP3   OH232522   5.193   7.445   4.556
10854TIP3    H132523   5.108   7.411   4.522
10854TIP3    H232524   5.181   7.539   4.535
10855TIP3   OH232525   5.591   6.030   4.540
10855TIP3    H132526   5.639   5.968   4.481
10855TIP3    H232527   5.665   6.084   4.576
10856TIP3   OH232528   6.103   6.208   4.638
10856TIP3    H132529   6.160   6.156   4.697
10856TIP3    H232530   6.128   6.299   4.665
10857TIP3   OH232531   5.965   7.638   4.137
10857TIP3    H132532   6.053   7.657   4.100
10857TIP3    H232533   5.941   7.561   4.080
10858TIP3   OH232534   5.897   6.271   6.014
10858TIP3    H132535   5.886   6.211   6.090
10858TIP3    H232536   5.983   6.312   6.030
10859TIP3   OH232537   5.269   7.471   4.192
10859TIP3    H132538   5.268   7.491   4.286
10859TIP3    H232539   5.357   7.427   4.181
10860TIP3   OH232540   7.106   6.809   4.471
10860TIP3    H132541   7.050   6.878   4.435
10860TIP3    H232542   7.084   6.734   4.415
10861TIP3   OH232543   7.950   6.483   3.877
10861TIP3    H132544   8.017   6.464   3.943
10861TIP3    H232545   7.924   6.395   3.845
10862TIP3   OH232546   7.622   6.443   3.818
10862TIP3    H132547   7.625   6.450   3.915
10862TIP3    H232548   7.553   6.508   3.796
10863TIP3   OH232549   7.215   6.493   4.694
10863TIP3    H132550   7.270   6.575   4.697
10863TIP3    H232551   7.232   6.464   4.604
10864TIP3   OH232552   7.152   6.477   4.220
10864TIP3    H132553   7.198   6.511   4.140
10864TIP3    H232554   7.092   6.552   4.237
10865TIP3   OH232555   7.513   6.736   3.954
10865TIP3    H132556   7.440   6.690   3.908
10865TIP3    H232557   7.568   6.760   3.879
10866TIP3   OH232558   7.131   6.891   3.967
10866TIP3    H132559   7.177   6.974   3.985
10866TIP3    H232560   7.052   6.899   4.026
10867TIP3   OH232561   7.612   6.437   4.096
10867TIP3    H132562   7.604   6.525   4.135
10867TIP3    H232563   7.695   6.405   4.133
10868TIP3   OH232564   7.181   6.625   3.994
10868TIP3    H132565   7.185   6.722   3.988
10868TIP3    H232566   7.105   6.605   3.938
10869TIP3   OH232567   6.984   7.317   3.857
10869TIP3    H132568   7.053   7.301   3.922
10869TIP3    H232569   6.967   7.228   3.821
10870TIP3   OH232570   7.167   6.327   4.445
10870TIP3    H132571   7.071   6.330   4.463
10870TIP3    H232572   7.174   6.388   4.368
10871TIP3   OH232573   7.467   6.257   4.607
10871TIP3    H132574   7.373   6.239   4.595
10871TIP3    H232575   7.508   6.169   4.603
10872TIP3   OH232576   7.282   6.128   4.269
10872TIP3    H132577   7.307   6.182   4.191
10872TIP3    H232578   7.245   6.196   4.328
10873TIP3   OH232579   7.386   6.280   4.029
10873TIP3    H132580   7.432   6.222   3.966
10873TIP3    H232581   7.459   6.338   4.058
10874TIP3   OH232582   1.163   7.089   5.550
10874TIP3    H132583   1.081   7.107   5.600
10874TIP3    H232584   1.177   7.173   5.504
10875TIP3   OH232585   1.189   7.673   5.480
10875TIP3    H132586   1.128   7.639   5.411
10875TIP3    H232587   1.180   7.768   5.467
10876TIP3   OH232588   1.035   7.606   5.254
10876TIP3    H132589   0.996   7.614   5.165
10876TIP3    H232590   1.012   7.513   5.272
10877TIP3   OH232591   0.975   7.340   5.260
10877TIP3    H132592   1.067   7.325   5.294
10877TIP3    H232593   0.927   7.274   5.311
10878TIP3   OH232594   1.123   7.365   5.708
10878TIP3    H132595   1.159   7.312   5.783
10878TIP3    H232596   1.039   7.316   5.696
10879TIP3   OH232597   1.222   7.300   5.366
10879TIP3    H132598   1.267   7.227   5.319
10879TIP3    H232599   1.291   7.370   5.369
10880TIP3   OH232600   1.229   7.234   5.917
10880TIP3    H132601   1.313   7.204   5.878
10880TIP3    H232602   1.256   7.315   5.964
10881TIP3   OH232603   0.946   7.146   5.717
10881TIP3    H132604   0.850   7.164   5.720
10881TIP3    H232605   0.949   7.063   5.768
10882TIP3   OH232606   3.241   7.842   5.793
10882TIP3    H132607   3.270   7.927   5.831
10882TIP3    H232608   3.248   7.860   5.697
10883TIP3   OH232609   2.681   8.037   5.805
10883TIP3    H132610   2.708   7.955   5.848
10883TIP3    H232611   2.634   7.999   5.727
10884TIP3   OH232612   2.004   7.692   5.784
10884TIP3    H132613   1.961   7.770   5.743
10884TIP3    H232614   1.930   7.628   5.776
10885TIP3   OH232615   2.674   7.758   5.415
10885TIP3    H132616   2.757   7.763   5.468
10885TIP3    H232617   2.700   7.801   5.332
10886TIP3   OH232618   3.332   8.055   5.952
10886TIP3    H132619   3.315   8.148   5.924
10886TIP3    H232620   3.279   8.053   6.033
10887TIP3   OH232621   2.884   7.797   5.582
10887TIP3    H132622   2.880   7.742   5.660
10887TIP3    H232623   2.936   7.874   5.613
10888TIP3   OH232624   3.027   7.762   5.953
10888TIP3    H132625   2.939   7.788   5.919
10888TIP3    H232626   3.086   7.789   5.880
10889TIP3   OH232627   2.326   7.400   5.937
10889TIP3    H132628   2.313   7.305   5.950
10889TIP3    H232629   2.249   7.436   5.986
10890TIP3   OH232630   2.958   7.344   5.038
10890TIP3    H132631   2.876   7.366   5.088
10890TIP3    H232632   2.973   7.428   4.989
10891TIP3   OH232633   2.101   7.493   6.074
10891TIP3    H132634   2.010   7.457   6.059
10891TIP3    H232635   2.089   7.582   6.038
10892TIP3   OH232636   2.631   7.605   6.224
10892TIP3    H132637   2.717   7.586   6.264
10892TIP3    H232638   2.572   7.572   6.295
10893TIP3   OH232639   2.226   7.528   5.035
10893TIP3    H132640   2.198   7.520   5.128
10893TIP3    H232641   2.190   7.443   5.001
10894TIP3   OH232642   1.869   7.866   5.598
10894TIP3    H132643   1.780   7.831   5.617
10894TIP3    H232644   1.890   7.817   5.517
10895TIP3   OH232645   2.563   7.943   5.576
10895TIP3    H132646   2.566   7.997   5.498
10895TIP3    H232647   2.591   7.858   5.542
10896TIP3   OH232648   1.887   7.506   5.003
10896TIP3    H132649   1.881   7.498   5.100
10896TIP3    H232650   1.806   7.556   4.983
10897TIP3   OH232651   1.403   7.518   5.388
10897TIP3    H132652   1.468   7.564   5.332
10897TIP3    H232653   1.345   7.592   5.415
10898TIP3   OH232654   2.244   7.673   5.654
10898TIP3    H132655   2.157   7.681   5.700
10898TIP3    H232656   2.301   7.715   5.719
10899TIP3   OH232657   1.630   7.743   5.631
10899TIP3    H132658   1.542   7.706   5.636
10899TIP3    H232659   1.686   7.666   5.653
10900TIP3   OH232660   1.939   7.744   5.353
10900TIP3    H132661   2.037   7.747   5.346
10900TIP3    H232662   1.913   7.831   5.317
10901TIP3   OH232663   2.721   7.767   5.880
10901TIP3    H132664   2.680   7.749   5.966
10901TIP3    H232665   2.660   7.716   5.823
10902TIP3   OH232666   2.339   7.937   5.735
10902TIP3    H132667   2.433   7.949   5.675
10902TIP3    H232668   2.391   7.993   5.827
10903TIP3   OH232669   1.828   7.522   5.634
10903TIP3    H132670   1.794   7.446   5.684
10903TIP3    H232671   1.881   7.481   5.565
10904TIP3   OH232672   2.479   7.622   5.002
10904TIP3    H132673   2.384   7.600   5.011
10904TIP3    H232674   2.478   7.719   5.006
10905TIP3   OH232675   2.587   7.846   5.155
10905TIP3    H132676   2.683   7.854   5.141
10905TIP3    H232677   2.550   7.911   5.094
10906TIP3   OH232678   2.971   7.927   4.959
10906TIP3    H132679   2.919   7.903   4.879
10906TIP3    H232680   3.006   8.013   4.933
10907TIP3   OH232681   2.524   7.570   5.280
10907TIP3    H132682   2.514   7.599   5.188
10907TIP3    H232683   2.565   7.649   5.320
10908TIP3   OH232684   2.214   7.745   5.386
10908TIP3    H132685   2.253   7.829   5.357
10908TIP3    H232686   2.240   7.740   5.481
10909TIP3   OH232687   2.360   7.480   5.490
10909TIP3    H132688   2.336   7.560   5.543
10909TIP3    H232689   2.421   7.519   5.423
10910TIP3   OH232690   1.873   7.483   5.275
10910TIP3    H132691   1.877   7.575   5.311
10910TIP3    H232692   1.967   7.458   5.286
10911TIP3   OH232693   3.099   7.983   6.128
10911TIP3    H132694   3.012   8.028   6.126
10911TIP3    H232695   3.086   7.921   6.055
10912TIP3   OH232696   1.427   7.646   5.118
10912TIP3    H132697   1.443   7.741   5.113
10912TIP3    H232698   1.345   7.641   5.166
10913TIP3   OH232699   1.851   7.396   6.035
10913TIP3    H132700   1.804   7.396   5.950
10913TIP3    H232701   1.815   7.317   6.078
10914TIP3   OH232702   2.830   7.870   4.736
10914TIP3    H132703   2.792   7.865   4.646
10914TIP3    H232704   2.814   7.776   4.761
10915TIP3   OH232705   2.767   7.608   4.743
10915TIP3    H132706   2.842   7.569   4.793
10915TIP3    H232707   2.694   7.545   4.758
10916TIP3   OH232708   2.856   7.867   5.193
10916TIP3    H132709   2.889   7.778   5.221
10916TIP3    H232710   2.912   7.878   5.113
10917TIP3   OH232711   3.010   8.021   5.688
10917TIP3    H132712   3.053   8.080   5.625
10917TIP3    H232713   2.953   8.084   5.734
10918TIP3   OH232714   3.494   7.736   6.465
10918TIP3    H132715   3.567   7.698   6.412
10918TIP3    H232716   3.483   7.824   6.424
10919TIP3   OH232717   2.941   7.612   5.230
10919TIP3    H132718   2.987   7.595   5.315
10919TIP3    H232719   2.876   7.539   5.229
10920TIP3   OH232720   3.373   7.928   6.290
10920TIP3    H132721   3.296   7.984   6.270
10920TIP3    H232722   3.366   7.861   6.221
10921TIP3   OH232723   3.018   7.553   4.861
10921TIP3    H132724   3.059   7.482   4.807
10921TIP3    H232725   3.084   7.624   4.856
10922TIP3   OH232726   1.399   7.380   5.621
10922TIP3    H132727   1.303   7.385   5.635
10922TIP3    H232728   1.411   7.439   5.544
10923TIP3   OH232729   3.277   7.676   6.153
10923TIP3    H132730   3.189   7.668   6.113
10923TIP3    H232731   3.313   7.585   6.140
10924TIP3   OH232732   2.501   7.597   5.795
10924TIP3    H132733   2.444   7.528   5.831
10924TIP3    H232734   2.556   7.549   5.731
10925TIP3   OH232735   3.009   7.478   5.684
10925TIP3    H132736   3.044   7.529   5.607
10925TIP3    H232737   2.912   7.491   5.673
10926TIP3   OH232738   3.104   7.577   5.448
10926TIP3    H132739   3.177   7.526   5.407
10926TIP3    H232740   3.134   7.669   5.431
10927TIP3   OH232741   1.731   7.307   5.790
10927TIP3    H132742   1.639   7.274   5.788
10927TIP3    H232743   1.781   7.222   5.789
10928TIP3   OH232744   1.522   7.175   5.442
10928TIP3    H132745   1.550   7.231   5.367
10928TIP3    H232746   1.488   7.240   5.506
10929TIP3   OH232747   2.180   7.333   5.671
10929TIP3    H132748   2.236   7.383   5.609
10929TIP3    H232749   2.194   7.383   5.753
10930TIP3   OH232750   2.729   7.484   5.654
10930TIP3    H132751   2.717   7.447   5.565
10930TIP3    H232752   2.712   7.405   5.711
10931TIP3   OH232753   2.752   7.407   5.219
10931TIP3    H132754   2.666   7.451   5.231
10931TIP3    H232755   2.736   7.321   5.264
10932TIP3   OH232756   1.637   7.330   5.206
10932TIP3    H132757   1.684   7.270   5.145
10932TIP3    H232758   1.711   7.385   5.240
10933TIP3   OH232759   2.152   7.495   5.299
10933TIP3    H132760   2.210   7.446   5.359
10933TIP3    H232761   2.175   7.587   5.326
10934TIP3   OH232762   5.015   8.121   5.299
10934TIP3    H132763   4.988   8.214   5.298
10934TIP3    H232764   5.035   8.105   5.207
10935TIP3   OH232765   4.447   8.298   5.297
10935TIP3    H132766   4.486   8.221   5.341
10935TIP3    H232767   4.411   8.256   5.216
10936TIP3   OH232768   3.774   7.944   5.274
10936TIP3    H132769   3.755   8.004   5.199
10936TIP3    H232770   3.725   7.866   5.243
10937TIP3   OH232771   4.461   8.032   4.912
10937TIP3    H132772   4.546   8.028   4.961
10937TIP3    H232773   4.489   8.059   4.823
10938TIP3   OH232774   3.369   8.127   5.383
10938TIP3    H132775   3.439   8.153   5.445
10938TIP3    H232776   3.416   8.080   5.313
10939TIP3   OH232777   3.770   7.932   5.712
10939TIP3    H132778   3.713   7.969   5.641
10939TIP3    H232779   3.712   7.948   5.790
10940TIP3   OH232780   4.679   8.050   5.069
10940TIP3    H132781   4.671   7.993   5.146
10940TIP3    H232782   4.737   8.122   5.100
10941TIP3   OH232783   3.637   8.042   5.502
10941TIP3    H132784   3.645   8.139   5.505
10941TIP3    H232785   3.694   8.019   5.426
10942TIP3   OH232786   4.798   8.011   5.444
10942TIP3    H132787   4.720   8.026   5.389
10942TIP3    H232788   4.873   8.039   5.389
10943TIP3   OH232789   4.117   7.659   5.418
10943TIP3    H132790   4.107   7.564   5.438
10943TIP3    H232791   4.041   7.696   5.467
10944TIP3   OH232792   4.754   7.600   4.525
10944TIP3    H132793   4.672   7.621   4.575
10944TIP3    H232794   4.768   7.684   4.476
10945TIP3   OH232795   3.884   7.732   5.553
10945TIP3    H132796   3.795   7.702   5.525
10945TIP3    H232797   3.859   7.814   5.601
10946TIP3   OH232798   4.409   7.854   5.740
10946TIP3    H132799   4.477   7.815   5.798
10946TIP3    H232800   4.326   7.828   5.787
10947TIP3   OH232801   4.025   7.783   4.523
10947TIP3    H132802   3.995   7.776   4.615
10947TIP3    H232803   3.987   7.699   4.488
10948TIP3   OH232804   3.677   8.072   5.054
10948TIP3    H132805   3.585   8.040   5.056
10948TIP3    H232806   3.702   8.049   4.962
10949TIP3   OH232807   4.322   8.193   5.080
10949TIP3    H132808   4.317   8.251   5.003
10949TIP3    H232809   4.360   8.113   5.038
10950TIP3   OH232810   3.641   8.286   5.823
10950TIP3    H132811   3.668   8.298   5.914
10950TIP3    H232812   3.624   8.190   5.822
10951TIP3   OH232813   3.683   7.762   4.489
10951TIP3    H132814   3.677   7.754   4.586
10951TIP3    H232815   3.602   7.813   4.469
10952TIP3   OH232816   3.226   7.800   5.355
10952TIP3    H132817   3.298   7.833   5.413
10952TIP3    H232818   3.272   7.755   5.283
10953TIP3   OH232819   3.201   7.778   4.874
10953TIP3    H132820   3.252   7.812   4.799
10953TIP3    H232821   3.151   7.858   4.899
10954TIP3   OH232822   4.031   7.931   5.154
10954TIP3    H132823   3.952   7.933   5.211
10954TIP3    H232824   4.102   7.946   5.219
10955TIP3   OH232825   3.431   7.981   5.142
10955TIP3    H132826   3.341   7.946   5.144
10955TIP3    H232827   3.485   7.900   5.140
10956TIP3   OH232828   3.745   7.998   4.798
10956TIP3    H132829   3.842   8.005   4.808
10956TIP3    H232830   3.721   8.090   4.775
10957TIP3   OH232831   4.514   8.031   5.356
10957TIP3    H132832   4.469   8.038   5.442
10957TIP3    H232833   4.454   7.969   5.310
10958TIP3   OH232834   4.130   8.265   5.261
10958TIP3    H132835   4.210   8.235   5.214
10958TIP3    H232836   4.155   8.256   5.354
10959TIP3   OH232837   3.622   7.771   5.122
10959TIP3    H132838   3.591   7.690   5.169
10959TIP3    H232839   3.675   7.733   5.050
10960TIP3   OH232840   4.067   8.165   5.544
10960TIP3    H132841   4.021   8.239   5.498
10960TIP3    H232842   4.137   8.215   5.590
10961TIP3   OH232843   4.275   7.882   4.492
10961TIP3    H132844   4.181   7.853   4.501
10961TIP3    H232845   4.264   7.979   4.482
10962TIP3   OH232846   4.386   8.115   4.655
10962TIP3    H132847   4.479   8.112   4.627
10962TIP3    H232848   4.340   8.154   4.579
10963TIP3   OH232849   4.769   8.183   4.444
10963TIP3    H132850   4.716   8.158   4.365
10963TIP3    H232851   4.803   8.270   4.417
10964TIP3   OH232852   3.600   8.009   5.908
10964TIP3    H132853   3.504   8.020   5.925
10964TIP3    H232854   3.629   7.976   5.995
10965TIP3   OH232855   4.438   8.102   5.629
10965TIP3    H132856   4.535   8.101   5.630
10965TIP3    H232857   4.418   8.017   5.673
10966TIP3   OH232858   4.323   7.831   4.769
10966TIP3    H132859   4.310   7.857   4.676
10966TIP3    H232860   4.354   7.915   4.808
10967TIP3   OH232861   4.014   7.998   4.878
10967TIP3    H132862   4.042   8.087   4.852
10967TIP3    H232863   4.020   8.003   4.976
10968TIP3   OH232864   4.261   8.312   5.675
10968TIP3    H132865   4.302   8.323   5.763
10968TIP3    H232866   4.321   8.243   5.640
10969TIP3   OH232867   4.156   7.736   4.977
10969TIP3    H132868   4.136   7.814   5.031
10969TIP3    H232869   4.217   7.774   4.909
10970TIP3   OH232870   3.670   7.735   4.763
10970TIP3    H132871   3.680   7.831   4.782
10970TIP3    H232872   3.763   7.707   4.774
10971TIP3   OH232873   3.234   7.903   4.624
10971TIP3    H132874   3.244   7.997   4.600
10971TIP3    H232875   3.138   7.894   4.626
10972TIP3   OH232876   3.621   7.651   5.525
10972TIP3    H132877   3.587   7.618   5.439
10972TIP3    H232878   3.608   7.574   5.584
10973TIP3   OH232879   4.012   8.188   5.969
10973TIP3    H132880   4.032   8.106   5.919
10973TIP3    H232881   3.984   8.246   5.897
10974TIP3   OH232882   4.025   8.004   5.763
10974TIP3    H132883   4.043   8.052   5.680
10974TIP3    H232884   3.931   7.980   5.750
10975TIP3   OH232885   3.856   8.359   6.115
10975TIP3    H132886   3.806   8.291   6.163
10975TIP3    H232887   3.925   8.304   6.072
10976TIP3   OH232888   4.157   7.772   5.827
10976TIP3    H132889   4.106   7.853   5.804
10976TIP3    H232890   4.089   7.702   5.813
10977TIP3   OH232891   3.665   8.101   6.191
10977TIP3    H132892   3.693   8.008   6.191
10977TIP3    H232893   3.712   8.137   6.269
10978TIP3   OH232894   4.242   7.785   6.087
10978TIP3    H132895   4.305   7.710   6.085
10978TIP3    H232896   4.208   7.782   5.995
10979TIP3   OH232897  -0.218   3.503   1.747
10979TIP3    H132898  -0.212   3.426   1.688
10979TIP3    H232899  -0.280   3.559   1.699
10980TIP3   OH232900   4.625   8.128   4.223
10980TIP3    H132901   4.586   8.122   4.134
10980TIP3    H232902   4.610   8.034   4.249
10981TIP3   OH232903   4.562   7.866   4.234
10981TIP3    H132904   4.637   7.825   4.281
10981TIP3    H232905   4.490   7.802   4.246
10982TIP3   OH232906   4.656   8.126   4.680
10982TIP3    H132907   4.686   8.036   4.707
10982TIP3    H232908   4.711   8.137   4.600
10983TIP3   OH232909   4.802   8.283   5.165
10983TIP3    H132910   4.813   8.364   5.112
10983TIP3    H232911   4.727   8.311   5.219
10984TIP3   OH232912   4.734   7.869   4.715
10984TIP3    H132913   4.782   7.852   4.799
10984TIP3    H232914   4.670   7.794   4.715
10985TIP3   OH232915   3.429   7.853   5.534
10985TIP3    H132916   3.498   7.784   5.545
10985TIP3    H232917   3.485   7.933   5.527
10986TIP3   OH232918   4.815   7.809   4.348
10986TIP3    H132919   4.855   7.738   4.294
10986TIP3    H232920   4.881   7.880   4.342
10987TIP3   OH232921   3.219   7.642   5.108
10987TIP3    H132922   3.127   7.636   5.136
10987TIP3    H232923   3.212   7.697   5.027
10988TIP3   OH232924   3.441   7.707   5.923
10988TIP3    H132925   3.389   7.714   6.005
10988TIP3    H232926   3.380   7.750   5.860
10989TIP3   OH232927   4.291   7.855   5.273
10989TIP3    H132928   4.239   7.783   5.315
10989TIP3    H232929   4.356   7.805   5.220
10990TIP3   OH232930   4.803   7.733   5.156
10990TIP3    H132931   4.836   7.786   5.080
10990TIP3    H232932   4.707   7.749   5.153
10991TIP3   OH232933   4.902   7.842   4.928
10991TIP3    H132934   4.975   7.788   4.890
10991TIP3    H232935   4.936   7.933   4.909
10992TIP3   OH232936   3.528   7.562   5.276
10992TIP3    H132937   3.436   7.528   5.280
10992TIP3    H232938   3.577   7.477   5.273
10993TIP3   OH232939   3.318   7.431   4.927
10993TIP3    H132940   3.347   7.487   4.853
10993TIP3    H232941   3.290   7.497   4.993
10994TIP3   OH232942   3.971   7.594   5.161
10994TIP3    H132943   4.029   7.641   5.099
10994TIP3    H232944   3.999   7.632   5.246
10995TIP3   OH232945   4.519   7.739   5.143
10995TIP3    H132946   4.518   7.696   5.056
10995TIP3    H232947   4.507   7.662   5.203
10996TIP3   OH232948   4.548   7.662   4.705
10996TIP3    H132949   4.462   7.705   4.719
10996TIP3    H232950   4.534   7.577   4.752
10997TIP3   OH232951   3.433   7.586   4.693
10997TIP3    H132952   3.480   7.526   4.632
10997TIP3    H232953   3.507   7.640   4.727
10998TIP3   OH232954   3.949   7.751   4.787
10998TIP3    H132955   4.008   7.702   4.847
10998TIP3    H232956   3.971   7.842   4.815
10999TIP3   OH232957   3.739   7.822   6.161
10999TIP3    H132958   3.708   7.754   6.223
10999TIP3    H232959   3.832   7.831   6.188
11000TIP3   OH232960   3.990   7.827   6.280
11000TIP3    H132961   4.080   7.819   6.242
11000TIP3    H232962   3.987   7.751   6.341
11001TIP3   OH232963   6.545   7.893   4.001
11001TIP3    H132964   6.480   7.875   4.072
11001TIP3    H232965   6.546   7.988   4.002
11002TIP3   OH232966   5.829   8.036   4.009
11002TIP3    H132967   5.796   8.033   4.101
11002TIP3    H232968   5.786   7.956   3.973
11003TIP3   OH232969   5.500   8.378   4.569
11003TIP3    H132970   5.417   8.340   4.600
11003TIP3    H232971   5.517   8.324   4.490
11004TIP3   OH232972   5.480   8.022   3.974
11004TIP3    H132973   5.470   8.011   4.071
11004TIP3    H232974   5.398   8.068   3.952
11005TIP3   OH232975   5.021   8.068   4.829
11005TIP3    H132976   5.108   8.076   4.874
11005TIP3    H232977   5.041   8.015   4.750
11006TIP3   OH232978   4.997   8.032   4.361
11006TIP3    H132979   5.049   8.067   4.286
11006TIP3    H232980   4.948   8.112   4.388
11007TIP3   OH232981   5.255   8.255   4.619
11007TIP3    H132982   5.172   8.214   4.645
11007TIP3    H232983   5.312   8.175   4.608
11008TIP3   OH232984   5.557   8.254   4.319
11008TIP3    H132985   5.636   8.309   4.318
11008TIP3    H232986   5.494   8.319   4.282
11009TIP3   OH232987   5.410   8.034   4.599
11009TIP3    H132988   5.381   7.965   4.662
11009TIP3    H232989   5.481   7.987   4.552
11010TIP3   OH232990   6.086   8.128   3.990
11010TIP3    H132991   5.993   8.100   4.004
11010TIP3    H232992   6.076   8.225   3.983
11011TIP3   OH232993   5.465   7.991   4.246
11011TIP3    H132994   5.475   8.080   4.286
11011TIP3    H232995   5.557   7.960   4.251
11012TIP3   OH232996   5.033   8.163   4.115
11012TIP3    H132997   5.036   8.256   4.087
11012TIP3    H232998   4.939   8.142   4.105
11013TIP3   OH232999   5.438   7.907   5.020
11013TIP3    H133000   5.405   7.874   4.934
11013TIP3    H233001   5.424   7.831   5.079
11014TIP3   OH233002   6.358   8.142   3.734
11014TIP3    H133003   6.409   8.073   3.776
11014TIP3    H233004   6.273   8.097   3.721
11015TIP3   OH233005   5.246   8.098   4.969
11015TIP3    H133006   5.326   8.047   4.996
11015TIP3    H233007   5.256   8.182   5.016
11016TIP3   OH233008   5.010   7.908   4.602
11016TIP3    H133009   4.916   7.891   4.619
11016TIP3    H233010   5.007   7.957   4.517
11017TIP3   OH233011   5.330   7.820   4.768
11017TIP3    H133012   5.237   7.790   4.771
11017TIP3    H233013   5.376   7.734   4.761
11018TIP3   OH233014   5.114   7.688   4.413
11018TIP3    H133015   5.142   7.744   4.339
11018TIP3    H233016   5.087   7.754   4.480
11019TIP3   OH233017   5.737   7.856   4.661
11019TIP3    H133018   5.825   7.892   4.637
11019TIP3    H233019   5.714   7.913   4.738
11020TIP3   OH233020   6.350   7.905   4.192
11020TIP3    H133021   6.267   7.954   4.183
11020TIP3    H233022   6.324   7.830   4.249
11021TIP3   OH233023   5.228   7.843   4.177
11021TIP3    H133024   5.274   7.780   4.118
11021TIP3    H233025   5.302   7.896   4.212
11022TIP3   OH233026   5.747   8.023   4.277
11022TIP3    H133027   5.782   7.969   4.349
11022TIP3    H233028   5.726   8.106   4.322
11023TIP3   OH233029   5.763   2.486   7.762
11023TIP3    H133030   5.707   2.470   7.685
11023TIP3    H233031   5.727   2.571   7.798
11024TIP3   OH233032   5.959   2.392   7.431
11024TIP3    H133033   6.022   2.327   7.394
11024TIP3    H233034   5.986   2.392   7.525
11025TIP3   OH233035   6.014   2.413   7.707
11025TIP3    H133036   5.920   2.427   7.734
11025TIP3    H233037   6.059   2.422   7.792
11026TIP3   OH233038   5.832   1.921   7.671
11026TIP3    H133039   5.795   2.012   7.672
11026TIP3    H233040   5.824   1.899   7.767
11027TIP3   OH233041   6.484   2.483   7.308
11027TIP3    H133042   6.528   2.554   7.256
11027TIP3    H233043   6.395   2.522   7.317
11028TIP3   OH233044   5.511   1.936   7.464
11028TIP3    H133045   5.521   1.844   7.435
11028TIP3    H233046   5.497   1.925   7.561
11029TIP3   OH233047   5.471   1.945   7.735
11029TIP3    H133048   5.524   1.922   7.813
11029TIP3    H233049   5.471   2.043   7.740
11030TIP3   OH233050   5.726   2.165   7.683
11030TIP3    H133051   5.644   2.182   7.732
11030TIP3    H233052   5.723   2.239   7.620
11031TIP3   OH233053   5.460   2.215   7.748
11031TIP3    H133054   5.440   2.277   7.674
11031TIP3    H233055   5.397   2.245   7.815
11032TIP3   OH233056   5.189   1.877   7.721
11032TIP3    H133057   5.259   1.943   7.717
11032TIP3    H233058   5.229   1.808   7.664
11033TIP3   OH233059   5.672   2.141   7.378
11033TIP3    H133060   5.615   2.069   7.415
11033TIP3    H233061   5.746   2.089   7.342
11034TIP3   OH233062   6.122   2.217   7.297
11034TIP3    H133063   6.149   2.124   7.299
11034TIP3    H233064   6.153   2.240   7.208
11035TIP3   OH233065   5.318   1.674   7.585
11035TIP3    H133066   5.354   1.630   7.664
11035TIP3    H233067   5.396   1.672   7.526
11036TIP3   OH233068   5.821   1.872   7.404
11036TIP3    H133069   5.804   1.894   7.497
11036TIP3    H233070   5.832   1.776   7.412
11037TIP3   OH233071   5.430   2.417   7.570
11037TIP3    H133072   5.523   2.419   7.541
11037TIP3    H233073   5.390   2.465   7.495
11038TIP3   OH233074   5.694   2.381   7.505
11038TIP3    H133075   5.783   2.405   7.471
11038TIP3    H233076   5.674   2.305   7.445
11039TIP3   OH233077   5.045   2.160   7.642
11039TIP3    H133078   4.985   2.228   7.605
11039TIP3    H233079   5.114   2.156   7.574
11040TIP3   OH233080   4.299   3.727   7.433
11040TIP3    H133081   4.319   3.780   7.354
11040TIP3    H233082   4.388   3.687   7.447
11041TIP3   OH233083   3.469   4.027   7.866
11041TIP3    H133084   3.501   3.994   7.779
11041TIP3    H233085   3.553   4.066   7.900
11042TIP3   OH233086   3.826   3.933   7.550
11042TIP3    H133087   3.861   3.842   7.541
11042TIP3    H233088   3.843   3.953   7.644
11043TIP3   OH233089   3.873   3.991   7.807
11043TIP3    H133090   3.799   4.026   7.860
11043TIP3    H233091   3.884   3.904   7.852
11044TIP3   OH233092   4.075   3.118   7.558
11044TIP3    H133093   4.045   3.105   7.468
11044TIP3    H233094   4.151   3.177   7.548
11045TIP3   OH233095   4.544   2.966   7.782
11045TIP3    H133096   4.472   2.928   7.727
11045TIP3    H233097   4.537   3.059   7.756
11046TIP3   OH233098   4.198   3.777   7.712
11046TIP3    H133099   4.170   3.733   7.795
11046TIP3    H233100   4.252   3.707   7.674
11047TIP3   OH233101   3.974   3.509   7.603
11047TIP3    H133102   4.026   3.513   7.686
11047TIP3    H233103   3.908   3.442   7.636
11048TIP3   OH233104   4.346   4.018   7.435
11048TIP3    H133105   4.422   4.056   7.391
11048TIP3    H233106   4.298   4.099   7.457
11049TIP3   OH233107   4.150   3.476   7.820
11049TIP3    H133108   4.091   3.398   7.831
11049TIP3    H233109   4.238   3.438   7.805
11050TIP3   OH233110   3.341   3.492   7.610
11050TIP3    H133111   3.370   3.405   7.578
11050TIP3    H233112   3.270   3.468   7.672
11051TIP3   OH233113   3.505   3.690   7.824
11051TIP3    H133114   3.489   3.766   7.880
11051TIP3    H233115   3.584   3.716   7.775
11052TIP3   OH233116   3.516   3.689   7.523
11052TIP3    H133117   3.456   3.627   7.572
11052TIP3    H233118   3.584   3.626   7.494
11053TIP3   OH233119   3.989   3.733   7.451
11053TIP3    H133120   3.984   3.646   7.499
11053TIP3    H233121   4.004   3.706   7.358
11054TIP3   OH233122   3.652   3.409   7.566
11054TIP3    H133123   3.677   3.401   7.660
11054TIP3    H233124   3.656   3.313   7.543
11055TIP3   OH233125   4.301   3.245   7.455
11055TIP3    H133126   4.302   3.181   7.382
11055TIP3    H233127   4.256   3.324   7.419
11056TIP3   OH233128   3.257   3.939   7.700
11056TIP3    H133129   3.345   3.975   7.710
11056TIP3    H233130   3.222   4.000   7.633
11057TIP3   OH233131   4.432   3.449   7.793
11057TIP3    H133132   4.506   3.509   7.770
11057TIP3    H233133   4.472   3.394   7.864
11058TIP3   OH233134   4.487   3.213   7.654
11058TIP3    H133135   4.420   3.204   7.583
11058TIP3    H233136   4.454   3.294   7.698
11059TIP3   OH233137   4.357   2.878   7.607
11059TIP3    H133138   4.313   2.909   7.527
11059TIP3    H233139   4.327   2.785   7.611
11060TIP3   OH233140   4.303   2.612   7.643
11060TIP3    H133141   4.398   2.594   7.660
11060TIP3    H233142   4.267   2.523   7.637
11061TIP3   OH233143   4.569   2.571   7.703
11061TIP3    H133144   4.619   2.497   7.663
11061TIP3    H233145   4.637   2.641   7.709
11062TIP3   OH233146   4.182   4.120   7.974
11062TIP3    H133147   4.247   4.055   7.942
11062TIP3    H233148   4.234   4.202   7.981
11063TIP3   OH233149   3.560   3.933   7.636
11063TIP3    H133150   3.641   3.953   7.587
11063TIP3    H233151   3.531   3.850   7.593
11064TIP3   OH233152   4.297   4.034   7.726
11064TIP3    H133153   4.263   3.945   7.749
11064TIP3    H233154   4.216   4.082   7.700
11065TIP3   OH233155   5.754   3.573   7.712
11065TIP3    H133156   5.722   3.662   7.691
11065TIP3    H233157   5.679   3.519   7.682
11066TIP3   OH233158   5.754   3.587   8.095
11066TIP3    H133159   5.759   3.539   8.178
11066TIP3    H233160   5.715   3.521   8.037
11067TIP3   OH233161   5.994   3.864   7.768
11067TIP3    H133162   5.966   3.787   7.819
11067TIP3    H233163   5.991   3.935   7.832
11068TIP3   OH233164   5.641   4.334   7.787
11068TIP3    H133165   5.689   4.265   7.737
11068TIP3    H233166   5.647   4.302   7.877
11069TIP3   OH233167   5.995   3.047   7.768
11069TIP3    H133168   6.040   2.976   7.818
11069TIP3    H233169   6.063   3.077   7.705
11070TIP3   OH233170   5.362   3.356   7.986
11070TIP3    H133171   5.454   3.331   8.001
11070TIP3    H233172   5.321   3.271   7.962
11071TIP3   OH233173   5.644   3.794   7.586
11071TIP3    H133174   5.602   3.772   7.501
11071TIP3    H233175   5.597   3.877   7.609
11072TIP3   OH233176   4.635   3.608   7.699
11072TIP3    H133177   4.600   3.633   7.612
11072TIP3    H233178   4.663   3.694   7.737
11073TIP3   OH233179   5.771   4.157   7.624
11073TIP3    H133180   5.818   4.075   7.596
11073TIP3    H233181   5.830   4.223   7.581
11074TIP3   OH233182   5.910   3.946   7.520
11074TIP3    H133183   5.874   3.868   7.478
11074TIP3    H233184   5.950   3.908   7.601
11075TIP3   OH233185   5.584   3.423   7.545
11075TIP3    H133186   5.503   3.473   7.523
11075TIP3    H233187   5.628   3.419   7.458
11076TIP3   OH233188   5.543   3.207   7.259
11076TIP3    H133189   5.610   3.259   7.307
11076TIP3    H233190   5.599   3.143   7.213
11077TIP3   OH233191   5.932   3.506   7.514
11077TIP3    H133192   5.877   3.528   7.593
11077TIP3    H233193   6.016   3.479   7.558
11078TIP3   OH233194   5.157   3.522   7.911
11078TIP3    H133195   5.110   3.454   7.858
11078TIP3    H233196   5.227   3.468   7.953
11079TIP3   OH233197   5.293   3.934   8.075
11079TIP3    H133198   5.261   3.883   7.998
11079TIP3    H233199   5.371   3.883   8.101
11080TIP3   OH233200   5.771   3.362   7.342
11080TIP3    H133201   5.830   3.423   7.393
11080TIP3    H233202   5.798   3.384   7.250
11081TIP3   OH233203   5.513   4.045   7.622
11081TIP3    H133204   5.594   4.098   7.633
11081TIP3    H233205   5.454   4.106   7.575
11082TIP3   OH233206   6.260   2.619   7.386
11082TIP3    H133207   6.180   2.634   7.440
11082TIP3    H233208   6.260   2.698   7.328
11083TIP3   OH233209   5.030   3.339   7.732
11083TIP3    H133210   4.961   3.382   7.678
11083TIP3    H233211   4.992   3.252   7.746
11084TIP3   OH233212   6.086   3.970   6.939
11084TIP3    H133213   6.096   4.067   6.924
11084TIP3    H233214   6.179   3.940   6.927
11085TIP3   OH233215   5.397   4.285   7.422
11085TIP3    H133216   5.352   4.271   7.337
11085TIP3    H233217   5.365   4.374   7.448
11086TIP3   OH233218   4.835   4.136   7.802
11086TIP3    H133219   4.883   4.128   7.887
11086TIP3    H233220   4.764   4.072   7.819
11087TIP3   OH233221   5.597   4.189   7.059
11087TIP3    H133222   5.656   4.119   7.024
11087TIP3    H233223   5.631   4.199   7.151
11088TIP3   OH233224   5.647   4.237   7.328
11088TIP3    H133225   5.559   4.247   7.371
11088TIP3    H233226   5.700   4.201   7.401
11089TIP3   OH233227   5.849   3.409   7.088
11089TIP3    H133228   5.813   3.384   7.001
11089TIP3    H233229   5.931   3.455   7.062
11090TIP3   OH233230   5.564   2.782   7.387
11090TIP3    H133231   5.531   2.777   7.479
11090TIP3    H233232   5.519   2.703   7.351
11091TIP3   OH233233   5.226   3.122   7.936
11091TIP3    H133234   5.139   3.079   7.940
11091TIP3    H233235   5.258   3.082   7.852
11092TIP3   OH233236   5.723   3.227   7.676
11092TIP3    H133237   5.669   3.296   7.632
11092TIP3    H233238   5.777   3.192   7.602
11093TIP3   OH233239   5.881   3.263   7.901
11093TIP3    H133240   5.819   3.279   7.827
11093TIP3    H233241   5.920   3.179   7.869
11094TIP3   OH233242   5.221   2.761   7.364
11094TIP3    H133243   5.202   2.742   7.457
11094TIP3    H233244   5.134   2.794   7.336
11095TIP3   OH233245   4.742   2.776   7.763
11095TIP3    H133246   4.790   2.810   7.684
11095TIP3    H233247   4.677   2.848   7.774
11096TIP3   OH233248   5.562   2.968   7.999
11096TIP3    H133249   5.467   2.951   8.015
11096TIP3    H233250   5.595   2.977   8.090
11097TIP3   OH233251   5.268   3.008   7.695
11097TIP3    H133252   5.360   3.027   7.668
11097TIP3    H233253   5.215   3.033   7.616
11098TIP3   OH233254   5.099   3.052   7.489
11098TIP3    H133255   5.027   3.000   7.451
11098TIP3    H233256   5.147   3.079   7.409
11099TIP3   OH233257   5.704   3.302   8.107
11099TIP3    H133258   5.766   3.287   8.033
11099TIP3    H233259   5.718   3.223   8.163
11100TIP3   OH233260   5.255   2.792   7.961
11100TIP3    H133261   5.188   2.733   8.000
11100TIP3    H233262   5.240   2.775   7.867
11101TIP3   OH233263   5.353   3.575   7.492
11101TIP3    H133264   5.281   3.507   7.484
11101TIP3    H233265   5.335   3.611   7.582
11102TIP3   OH233266   5.812   2.887   7.355
11102TIP3    H133267   5.716   2.866   7.364
11102TIP3    H233268   5.818   2.981   7.380
11103TIP3   OH233269   5.882   3.135   7.461
11103TIP3    H133270   5.977   3.143   7.478
11103TIP3    H233271   5.862   3.215   7.409
11104TIP3   OH233272   5.499   3.724   7.316
11104TIP3    H133273   5.451   3.809   7.321
11104TIP3    H233274   5.445   3.669   7.376
11105TIP3   OH233275   6.320   3.220   7.297
11105TIP3    H133276   6.259   3.182   7.230
11105TIP3    H233277   6.323   3.312   7.263
11106TIP3   OH233278   6.027   4.042   7.205
11106TIP3    H133279   5.997   3.972   7.265
11106TIP3    H233280   6.037   3.996   7.120
11107TIP3   OH233281   5.142   3.909   7.807
11107TIP3    H133282   5.150   3.985   7.747
11107TIP3    H233283   5.054   3.877   7.784
11108TIP3   OH233284   4.708   3.205   7.494
11108TIP3    H133285   4.756   3.286   7.519
11108TIP3    H233286   4.633   3.206   7.558
11109TIP3   OH233287   5.289   3.678   7.732
11109TIP3    H133288   5.253   3.763   7.762
11109TIP3    H233289   5.251   3.617   7.799
11110TIP3   OH233290   5.070   4.141   7.646
11110TIP3    H133291   4.983   4.151   7.690
11110TIP3    H233292   5.103   4.234   7.648
11111TIP3   OH233293   5.781   3.772   7.106
11111TIP3    H133294   5.833   3.747   7.185
11111TIP3    H233295   5.692   3.744   7.134
11112TIP3   OH233296   6.120   4.245   6.926
11112TIP3    H133297   6.158   4.319   6.875
11112TIP3    H233298   6.040   4.289   6.959
11113TIP3   OH233299   5.940   3.708   7.324
11113TIP3    H133300   5.930   3.640   7.393
11113TIP3    H233301   6.037   3.703   7.309
11114TIP3   OH233302   5.144   3.751   7.107
11114TIP3    H133303   5.159   3.659   7.078
11114TIP3    H233304   5.123   3.738   7.201
11115TIP3   OH233305   5.087   3.757   7.381
11115TIP3    H133306   5.165   3.728   7.431
11115TIP3    H233307   5.094   3.855   7.387
11116TIP3   OH233308   4.827   3.449   7.580
11116TIP3    H133309   4.763   3.496   7.639
11116TIP3    H233310   4.843   3.518   7.513
11117TIP3   OH233311   5.862   2.839   7.633
11117TIP3    H133312   5.843   2.860   7.540
11117TIP3    H233313   5.892   2.925   7.669
11118TIP3   OH233314   5.356   3.953   7.327
11118TIP3    H133315   5.270   3.981   7.363
11118TIP3    H233316   5.373   4.026   7.265
11119TIP3   OH233317   5.549   3.022   7.732
11119TIP3    H133318   5.612   3.096   7.718
11119TIP3    H233319   5.555   3.012   7.830
11120TIP3   OH233320   5.693   2.743   7.832
11120TIP3    H133321   5.676   2.818   7.891
11120TIP3    H233322   5.760   2.781   7.771
11121TIP3   OH233323   5.100   4.030   7.394
11121TIP3    H133324   5.071   4.099   7.331
11121TIP3    H233325   5.086   4.075   7.480
11122TIP3   OH233326   5.218   2.743   7.664
11122TIP3    H133327   5.218   2.840   7.676
11122TIP3    H233328   5.315   2.728   7.657
11123TIP3   OH233329   6.128   3.409   7.914
11123TIP3    H133330   6.038   3.374   7.926
11123TIP3    H233331   6.146   3.452   8.000
11124TIP3   OH233332   4.817   3.661   7.383
11124TIP3    H133333   4.889   3.726   7.393
11124TIP3    H233334   4.861   3.601   7.319
11125TIP3   OH233335   4.762   2.935   7.524
11125TIP3    H133336   4.755   3.031   7.516
11125TIP3    H233337   4.680   2.904   7.484
11126TIP3   OH233338   4.687   3.862   7.786
11126TIP3    H133339   4.609   3.900   7.828
11126TIP3    H233340   4.686   3.910   7.700
11127TIP3   OH233341   5.309   3.954   7.018
11127TIP3    H133342   5.253   3.882   7.055
11127TIP3    H233343   5.384   3.903   6.985
11128TIP3   OH233344   5.745   3.995   6.930
11128TIP3    H133345   5.788   3.930   6.989
11128TIP3    H233346   5.801   3.992   6.850
11129TIP3   OH233347   4.953   3.474   7.242
11129TIP3    H133348   5.007   3.434   7.313
11129TIP3    H233349   5.021   3.478   7.170
11130TIP3   OH233350   5.464   3.671   7.047
11130TIP3    H133351   5.467   3.682   7.144
11130TIP3    H233352   5.465   3.574   7.040
11131TIP3   OH233353   5.162   3.376   7.462
11131TIP3    H133354   5.133   3.333   7.545
11131TIP3    H233355   5.198   3.300   7.411
11132TIP3   OH233356   5.262   3.172   7.300
11132TIP3    H133357   5.237   3.174   7.206
11132TIP3    H233358   5.360   3.174   7.293
11133TIP3   OH233359   6.083   3.500   6.965
11133TIP3    H133360   6.063   3.455   6.881
11133TIP3    H233361   6.050   3.591   6.943
11134TIP3   OH233362   5.069   4.229   7.205
11134TIP3    H133363   5.165   4.225   7.188
11134TIP3    H233364   5.041   4.282   7.128
11135TIP3   OH233365   4.550   3.613   7.426
11135TIP3    H133366   4.644   3.634   7.407
11135TIP3    H233367   4.544   3.523   7.386
11136TIP3   OH233368   4.464   4.230   7.823
11136TIP3    H133369   4.411   4.161   7.777
11136TIP3    H233370   4.521   4.174   7.880
11137TIP3   OH233371   4.612   4.090   7.997
11137TIP3    H133372   4.562   4.015   8.034
11137TIP3    H233373   4.630   4.143   8.077
11138TIP3   OH233374   6.216   3.691   7.293
11138TIP3    H133375   6.286   3.752   7.265
11138TIP3    H233376   6.256   3.653   7.375
11139TIP3   OH233377   6.333   3.564   7.502
11139TIP3    H133378   6.272   3.518   7.564
11139TIP3    H233379   6.405   3.595   7.561
11140TIP3   OH233380   6.284   3.463   7.148
11140TIP3    H133381   6.213   3.465   7.080
11140TIP3    H233382   6.256   3.538   7.203
11141TIP3   OH233383   6.156   3.136   7.098
11141TIP3    H133384   6.110   3.175   7.023
11141TIP3    H233385   6.128   3.042   7.090
11142TIP3   OH233386   6.159   3.408   7.644
11142TIP3    H133387   6.164   3.312   7.628
11142TIP3    H233388   6.154   3.412   7.742
11143TIP3   OH233389   6.087   2.873   7.078
11143TIP3    H133390   6.164   2.840   7.129
11143TIP3    H233391   6.015   2.812   7.102
11144TIP3   OH233392   6.164   3.133   7.543
11144TIP3    H133393   6.201   3.043   7.556
11144TIP3    H233394   6.221   3.165   7.471
11145TIP3   OH233395   6.257   2.877   7.582
11145TIP3    H133396   6.313   2.866   7.660
11145TIP3    H233397   6.191   2.805   7.593
11146TIP3   OH233398   6.329   2.812   7.196
11146TIP3    H133399   6.372   2.737   7.149
11146TIP3    H233400   6.401   2.878   7.196
11147TIP3   OH233401   5.909   4.338   7.481
11147TIP3    H133402   5.964   4.336   7.401
11147TIP3    H233403   5.952   4.406   7.536
11148TIP3   OH233404   4.974   4.102   8.033
11148TIP3    H133405   5.017   4.018   8.052
11148TIP3    H233406   5.050   4.161   8.027
11149TIP3   OH233407   5.235   4.204   8.039
11149TIP3    H133408   5.258   4.113   8.011
11149TIP3    H233409   5.273   4.201   8.128
11150TIP3   OH233410   4.880   2.429   7.842
11150TIP3    H133411   4.884   2.410   7.746
11150TIP3    H233412   4.826   2.509   7.841
11151TIP3   OH233413   6.074   2.667   7.590
11151TIP3    H133414   5.989   2.716   7.603
11151TIP3    H233415   6.051   2.581   7.629
11152TIP3   OH233416   4.584   4.012   7.585
11152TIP3    H133417   4.495   3.975   7.573
11152TIP3    H233418   4.568   4.104   7.554
11153TIP3   OH233419   4.988   2.668   7.522
11153TIP3    H133420   4.953   2.578   7.540
11153TIP3    H233421   5.057   2.677   7.590
11154TIP3   OH233422   5.490   2.769   7.652
11154TIP3    H133423   5.551   2.727   7.715
11154TIP3    H233424   5.508   2.863   7.674
11155TIP3   OH233425   5.338   4.191   7.155
11155TIP3    H133426   5.426   4.214   7.119
11155TIP3    H233427   5.316   4.116   7.094
11156TIP3   OH233428   6.056   4.309   7.248
11156TIP3    H133429   6.047   4.211   7.237
11156TIP3    H233430   6.010   4.340   7.168
11157TIP3   OH233431   4.643   4.024   7.221
11157TIP3    H133432   4.666   4.074   7.300
11157TIP3    H233433   4.728   3.980   7.199
11158TIP3   OH233434   6.526   3.363   7.449
11158TIP3    H133435   6.456   3.429   7.461
11158TIP3    H233436   6.478   3.280   7.447
11159TIP3   OH233437   6.569   3.626   7.621
11159TIP3    H133438   6.628   3.553   7.651
11159TIP3    H233439   6.616   3.656   7.542
11160TIP3   OH233440   6.423   3.853   7.189
11160TIP3    H133441   6.382   3.882   7.106
11160TIP3    H233442   6.453   3.938   7.227
11161TIP3   OH233443   7.375   3.702   6.886
11161TIP3    H133444   7.301   3.760   6.911
11161TIP3    H233445   7.399   3.665   6.973
11162TIP3   OH233446   7.328   3.456   6.736
11162TIP3    H133447   7.356   3.525   6.799
11162TIP3    H233448   7.410   3.404   6.725
11163TIP3   OH233449   6.946   3.806   7.381
11163TIP3    H133450   6.891   3.751   7.323
11163TIP3    H233451   6.991   3.736   7.432
11164TIP3   OH233452   6.815   3.605   7.237
11164TIP3    H133453   6.749   3.641   7.174
11164TIP3    H233454   6.787   3.514   7.245
11165TIP3   OH233455   6.625   4.385   7.296
11165TIP3    H133456   6.650   4.375   7.389
11165TIP3    H233457   6.560   4.313   7.287
11166TIP3   OH233458   7.386   4.424   6.527
11166TIP3    H133459   7.440   4.347   6.500
11166TIP3    H233460   7.418   4.445   6.616
11167TIP3   OH233461   7.647   3.663   6.575
11167TIP3    H133462   7.607   3.637   6.490
11167TIP3    H233463   7.729   3.705   6.542
11168TIP3   OH233464   6.994   3.014   6.819
11168TIP3    H133465   6.999   3.007   6.915
11168TIP3    H233466   6.927   3.085   6.807
11169TIP3   OH233467   6.537   3.051   7.221
11169TIP3    H133468   6.578   3.095   7.144
11169TIP3    H233469   6.478   3.123   7.252
11170TIP3   OH233470   6.901   3.280   6.974
11170TIP3    H133471   6.821   3.256   6.925
11170TIP3    H233472   6.951   3.330   6.906
11171TIP3   OH233473   7.133   3.848   6.972
11171TIP3    H133474   7.066   3.776   6.974
11171TIP3    H233475   7.129   3.880   7.065
11172TIP3   OH233476   7.301   3.995   6.781
11172TIP3    H133477   7.250   4.077   6.801
11172TIP3    H233478   7.269   3.938   6.852
11173TIP3   OH233479   6.912   4.125   7.218
11173TIP3    H133480   6.889   4.199   7.158
11173TIP3    H233481   6.826   4.097   7.250
11174TIP3   OH233482   6.508   3.462   6.988
11174TIP3    H133483   6.552   3.546   7.009
11174TIP3    H233484   6.431   3.466   7.049
11175TIP3   OH233485   7.118   3.947   7.227
11175TIP3    H133486   7.056   4.022   7.223
11175TIP3    H233487   7.072   3.892   7.294
11176TIP3   OH233488   6.851   4.369   7.124
11176TIP3    H133489   6.769   4.381   7.177
11176TIP3    H233490   6.904   4.442   7.160
11177TIP3   OH233491   7.578   4.021   6.599
11177TIP3    H133492   7.611   3.954   6.661
11177TIP3    H233493   7.482   4.014   6.615
11178TIP3   OH233494   6.942   4.006   6.594
11178TIP3    H133495   6.953   3.914   6.565
11178TIP3    H233496   6.920   3.994   6.688
11179TIP3   OH233497   6.888   4.008   6.866
11179TIP3    H133498   6.972   3.981   6.906
11179TIP3    H233499   6.894   4.106   6.871
11180TIP3   OH233500   6.621   3.706   7.066
11180TIP3    H133501   6.555   3.750   7.123
11180TIP3    H233502   6.636   3.776   7.000
11181TIP3   OH233503   7.155   4.221   6.821
11181TIP3    H133504   7.064   4.243   6.850
11181TIP3    H233505   7.169   4.291   6.756
11182TIP3   OH233506   6.893   4.282   6.871
11182TIP3    H133507   6.868   4.354   6.809
11182TIP3    H233508   6.876   4.325   6.957
11183TIP3   OH233509   6.615   3.915   6.873
11183TIP3    H133510   6.685   3.982   6.883
11183TIP3    H233511   6.657   3.859   6.805
11184TIP3   OH233512   6.562   3.194   6.990
11184TIP3    H133513   6.558   3.292   6.994
11184TIP3    H233514   6.471   3.172   6.966
11185TIP3   OH233515   6.479   4.120   7.258
11185TIP3    H133516   6.405   4.150   7.313
11185TIP3    H233517   6.455   4.161   7.172
11186TIP3   OH233518   7.106   4.206   6.503
11186TIP3    H133519   7.050   4.134   6.541
11186TIP3    H233520   7.177   4.156   6.461
11187TIP3   OH233521   7.530   4.230   6.408
11187TIP3    H133522   7.582   4.167   6.462
11187TIP3    H233523   7.574   4.226   6.320
11188TIP3   OH233524   6.748   3.729   6.726
11188TIP3    H133525   6.804   3.699   6.800
11188TIP3    H233526   6.815   3.734   6.654
11189TIP3   OH233527   7.265   3.917   6.525
11189TIP3    H133528   7.267   3.938   6.621
11189TIP3    H233529   7.254   3.820   6.527
11190TIP3   OH233530   6.958   3.629   6.955
11190TIP3    H133531   6.932   3.583   7.037
11190TIP3    H233532   6.996   3.556   6.902
11191TIP3   OH233533   7.055   3.426   6.790
11191TIP3    H133534   7.025   3.436   6.697
11191TIP3    H233535   7.152   3.435   6.778
11192TIP3   OH233536   7.858   3.755   6.435
11192TIP3    H133537   7.847   3.715   6.347
11192TIP3    H233538   7.865   3.849   6.410
11193TIP3   OH233539   6.869   4.496   6.702
11193TIP3    H133540   6.965   4.487   6.684
11193TIP3    H233541   6.841   4.538   6.618
11194TIP3   OH233542   6.345   3.871   6.909
11194TIP3    H133543   6.440   3.893   6.894
11194TIP3    H233544   6.339   3.782   6.869
11195TIP3   OH233545   6.256   4.478   7.321
11195TIP3    H133546   6.189   4.415   7.286
11195TIP3    H233547   6.305   4.423   7.384
11196TIP3   OH233548   6.411   4.340   7.501
11196TIP3    H133549   6.387   4.280   7.572
11196TIP3    H233550   6.459   4.411   7.549
11197TIP3   OH233551   6.517   2.869   7.411
11197TIP3    H133552   6.424   2.887   7.430
11197TIP3    H233553   6.540   2.942   7.350
11198TIP3   OH233554   6.625   2.699   7.217
11198TIP3    H133555   6.659   2.764   7.152
11198TIP3    H233556   6.604   2.755   7.295
11199TIP3   OH233557   6.363   4.264   7.062
11199TIP3    H133558   6.279   4.228   7.029
11199TIP3    H233559   6.351   4.357   7.039
11200TIP3   OH233560   6.767   2.853   7.031
11200TIP3    H133561   6.824   2.797   6.976
11200TIP3    H233562   6.830   2.911   7.075
11201TIP3   OH233563   7.125   4.446   6.627
11201TIP3    H133564   7.213   4.472   6.594
11201TIP3    H233565   7.109   4.367   6.571
11202TIP3   OH233566   6.438   4.284   6.697
11202TIP3    H133567   6.440   4.309   6.791
11202TIP3    H233568   6.526   4.243   6.685
11203TIP3   OH233569   2.125   5.276   7.602
11203TIP3    H133570   2.141   5.370   7.580
11203TIP3    H233571   2.215   5.240   7.589
11204TIP3   OH233572   1.613   5.486   7.689
11204TIP3    H133573   1.663   5.405   7.664
11204TIP3    H233574   1.669   5.523   7.759
11205TIP3   OH233575   1.952   4.672   7.702
11205TIP3    H133576   1.898   4.626   7.635
11205TIP3    H233577   2.014   4.723   7.647
11206TIP3   OH233578   2.091   5.293   7.883
11206TIP3    H133579   1.996   5.307   7.901
11206TIP3    H233580   2.092   5.288   7.786
11207TIP3   OH233581   2.172   5.541   7.581
11207TIP3    H133582   2.208   5.603   7.515
11207TIP3    H233583   2.097   5.595   7.614
11208TIP3   OH233584   1.387   5.190   7.654
11208TIP3    H133585   1.328   5.171   7.727
11208TIP3    H233586   1.469   5.218   7.703
11209TIP3   OH233587   1.802   5.308   7.575
11209TIP3    H133588   1.879   5.315   7.632
11209TIP3    H233589   1.842   5.305   7.486
11210TIP3   OH233590   2.162   4.826   7.609
11210TIP3    H133591   2.149   4.775   7.526
11210TIP3    H233592   2.111   4.907   7.587
11211TIP3   OH233593   2.351   4.830   7.802
11211TIP3    H133594   2.279   4.832   7.736
11211TIP3    H233595   2.305   4.838   7.887
11212TIP3   OH233596   2.125   5.623   7.907
11212TIP3    H133597   2.095   5.533   7.925
11212TIP3    H233598   2.085   5.640   7.820
11213TIP3   OH233599   3.593   5.136   7.868
11213TIP3    H133600   3.559   5.223   7.838
11213TIP3    H233601   3.519   5.079   7.844
11214TIP3   OH233602   3.829   5.424   7.925
11214TIP3    H133603   3.831   5.339   7.972
11214TIP3    H233604   3.850   5.485   7.996
11215TIP3   OH233605   3.486   5.890   7.948
11215TIP3    H133606   3.534   5.824   7.893
11215TIP3    H233607   3.471   5.842   8.030
11216TIP3   OH233608   3.832   4.588   7.912
11216TIP3    H133609   3.903   4.580   7.980
11216TIP3    H233610   3.875   4.644   7.846
11217TIP3   OH233611   3.486   5.353   7.732
11217TIP3    H133612   3.440   5.326   7.652
11217TIP3    H233613   3.438   5.435   7.756
11218TIP3   OH233614   4.048   4.600   8.087
11218TIP3    H133615   4.061   4.637   8.176
11218TIP3    H233616   4.095   4.669   8.038
11219TIP3   OH233617   2.446   5.175   7.830
11219TIP3    H133618   2.422   5.165   7.736
11219TIP3    H233619   2.525   5.232   7.826
11220TIP3   OH233620   3.613   5.720   7.775
11220TIP3    H133621   3.659   5.637   7.750
11220TIP3    H233622   3.672   5.785   7.730
11221TIP3   OH233623   3.752   5.507   7.674
11221TIP3    H133624   3.711   5.430   7.632
11221TIP3    H233625   3.785   5.468   7.758
11222TIP3   OH233626   3.427   4.982   7.695
11222TIP3    H133627   3.345   5.033   7.677
11222TIP3    H233628   3.470   4.980   7.608
11223TIP3   OH233629   3.384   4.766   7.409
11223TIP3    H133630   3.451   4.817   7.458
11223TIP3    H233631   3.441   4.702   7.362
11224TIP3   OH233632   3.770   5.064   7.669
11224TIP3    H133633   3.717   5.086   7.749
11224TIP3    H233634   3.854   5.037   7.712
11225TIP3   OH233635   3.615   4.920   7.493
11225TIP3    H133636   3.671   4.981   7.545
11225TIP3    H233637   3.641   4.944   7.401
11226TIP3   OH233638   3.354   5.601   7.771
11226TIP3    H133639   3.433   5.656   7.785
11226TIP3    H233640   3.296   5.658   7.720
11227TIP3   OH233641   4.109   4.142   7.538
11227TIP3    H133642   4.037   4.183   7.593
11227TIP3    H233643   4.134   4.221   7.485
11228TIP3   OH233644   2.901   4.902   7.847
11228TIP3    H133645   2.813   4.931   7.816
11228TIP3    H233646   2.878   4.837   7.917
11229TIP3   OH233647   3.928   5.527   7.090
11229TIP3    H133648   3.939   5.623   7.074
11229TIP3    H233649   4.021   5.496   7.078
11230TIP3   OH233650   3.236   5.843   7.572
11230TIP3    H133651   3.192   5.825   7.487
11230TIP3    H233652   3.206   5.933   7.593
11231TIP3   OH233653   2.691   5.704   7.972
11231TIP3    H133654   2.739   5.675   8.051
11231TIP3    H233655   2.645   5.620   7.949
11232TIP3   OH233656   3.445   5.761   7.206
11232TIP3    H133657   3.501   5.687   7.175
11232TIP3    H233658   3.470   5.766   7.301
11233TIP3   OH233659   3.484   5.780   7.475
11233TIP3    H133660   3.399   5.803   7.518
11233TIP3    H233661   3.537   5.750   7.550
11234TIP3   OH233662   3.690   4.967   7.238
11234TIP3    H133663   3.654   4.943   7.150
11234TIP3    H233664   3.772   5.013   7.212
11235TIP3   OH233665   3.408   4.338   7.513
11235TIP3    H133666   3.374   4.345   7.605
11235TIP3    H233667   3.365   4.254   7.487
11236TIP3   OH233668   3.557   4.768   7.805
11236TIP3    H133669   3.508   4.848   7.774
11236TIP3    H233670   3.617   4.750   7.730
11237TIP3   OH233671   3.733   4.849   8.008
11237TIP3    H133672   3.650   4.845   7.957
11237TIP3    H233673   3.749   4.754   8.022
11238TIP3   OH233674   3.060   4.313   7.482
11238TIP3    H133675   3.052   4.321   7.580
11238TIP3    H233676   2.982   4.365   7.455
11239TIP3   OH233677   3.108   4.577   7.860
11239TIP3    H133678   3.191   4.623   7.844
11239TIP3    H233679   3.050   4.611   7.788
11240TIP3   OH233680   2.942   4.608   7.640
11240TIP3    H133681   2.871   4.561   7.593
11240TIP3    H233682   2.996   4.639   7.565
11241TIP3   OH233683   3.197   5.134   7.644
11241TIP3    H133684   3.126   5.066   7.631
11241TIP3    H233685   3.178   5.163   7.736
11242TIP3   OH233686   3.654   4.451   7.490
11242TIP3    H133687   3.559   4.429   7.502
11242TIP3    H233688   3.661   4.543   7.524
11243TIP3   OH233689   3.728   4.691   7.602
11243TIP3    H133690   3.823   4.699   7.625
11243TIP3    H233691   3.711   4.774   7.553
11244TIP3   OH233692   3.339   5.281   7.466
11244TIP3    H133693   3.292   5.367   7.472
11244TIP3    H233694   3.285   5.226   7.526
11245TIP3   OH233695   4.162   4.784   7.447
11245TIP3    H133696   4.100   4.741   7.383
11245TIP3    H233697   4.160   4.873   7.408
11246TIP3   OH233698   3.869   5.598   7.357
11246TIP3    H133699   3.838   5.528   7.415
11246TIP3    H233700   3.878   5.553   7.271
11247TIP3   OH233701   2.975   5.446   7.914
11247TIP3    H133702   3.002   5.532   7.876
11247TIP3    H233703   2.880   5.448   7.896
11248TIP3   OH233704   2.557   4.773   7.639
11248TIP3    H133705   2.612   4.851   7.661
11248TIP3    H233706   2.486   4.785   7.705
11249TIP3   OH233707   3.137   5.221   7.892
11249TIP3    H133708   3.093   5.308   7.906
11249TIP3    H233709   3.091   5.165   7.955
11250TIP3   OH233710   2.904   5.703   7.793
11250TIP3    H133711   2.826   5.716   7.850
11250TIP3    H233712   2.937   5.796   7.786
11251TIP3   OH233713   3.621   5.333   7.256
11251TIP3    H133714   3.674   5.306   7.335
11251TIP3    H233715   3.533   5.302   7.283
11252TIP3   OH233716   3.966   5.801   7.072
11252TIP3    H133717   4.006   5.876   7.025
11252TIP3    H233718   3.885   5.845   7.104
11253TIP3   OH233719   3.781   5.264   7.473
11253TIP3    H133720   3.770   5.199   7.545
11253TIP3    H233721   3.878   5.259   7.461
11254TIP3   OH233722   2.986   5.310   7.256
11254TIP3    H133723   2.999   5.217   7.228
11254TIP3    H233724   2.965   5.298   7.351
11255TIP3   OH233725   2.928   5.316   7.528
11255TIP3    H133726   3.001   5.282   7.583
11255TIP3    H233727   2.938   5.413   7.538
11256TIP3   OH233728   2.668   5.007   7.729
11256TIP3    H133729   2.605   5.035   7.798
11256TIP3    H233730   2.673   5.086   7.671
11257TIP3   OH233731   3.709   4.387   7.770
11257TIP3    H133732   3.687   4.428   7.685
11257TIP3    H233733   3.738   4.464   7.825
11258TIP3   OH233734   3.198   5.512   7.478
11258TIP3    H133735   3.111   5.538   7.514
11258TIP3    H233736   3.212   5.582   7.413
11259TIP3   OH233737   3.402   4.579   7.909
11259TIP3    H133738   3.462   4.644   7.866
11259TIP3    H233739   3.463   4.533   7.969
11260TIP3   OH233740   2.944   5.589   7.546
11260TIP3    H133741   2.913   5.657   7.482
11260TIP3    H233742   2.925   5.633   7.631
11261TIP3   OH233743   3.042   4.327   7.747
11261TIP3    H133744   3.031   4.410   7.797
11261TIP3    H233745   3.139   4.316   7.757
11262TIP3   OH233746   3.977   4.961   8.062
11262TIP3    H133747   3.882   4.935   8.059
11262TIP3    H233748   4.000   4.941   8.153
11263TIP3   OH233749   2.659   5.219   7.536
11263TIP3    H133750   2.731   5.285   7.543
11263TIP3    H233751   2.702   5.158   7.472
11264TIP3   OH233752   2.599   4.506   7.605
11264TIP3    H133753   2.600   4.601   7.623
11264TIP3    H233754   2.564   4.471   7.688
11265TIP3   OH233755   2.572   5.470   7.910
11265TIP3    H133756   2.499   5.438   7.966
11265TIP3    H233757   2.520   5.498   7.831
11266TIP3   OH233758   3.151   5.512   7.169
11266TIP3    H133759   3.094   5.442   7.207
11266TIP3    H233760   3.225   5.458   7.136
11267TIP3   OH233761   3.586   5.556   7.082
11267TIP3    H133762   3.625   5.489   7.141
11267TIP3    H233763   3.642   5.550   7.003
11268TIP3   OH233764   2.794   5.032   7.391
11268TIP3    H133765   2.846   4.995   7.464
11268TIP3    H233766   2.863   5.036   7.321
11269TIP3   OH233767   3.307   5.230   7.196
11269TIP3    H133768   3.308   5.240   7.294
11269TIP3    H233769   3.306   5.132   7.190
11270TIP3   OH233770   3.007   4.941   7.601
11270TIP3    H133771   2.974   4.918   7.691
11270TIP3    H233772   3.035   4.853   7.568
11271TIP3   OH233773   3.104   4.721   7.450
11271TIP3    H133774   3.077   4.731   7.357
11271TIP3    H233775   3.201   4.730   7.443
11272TIP3   OH233776   3.924   5.059   7.116
11272TIP3    H133777   3.904   5.013   7.031
11272TIP3    H233778   3.890   5.148   7.094
11273TIP3   OH233779   2.911   5.790   7.357
11273TIP3    H133780   3.006   5.787   7.336
11273TIP3    H233781   2.879   5.840   7.280
11274TIP3   OH233782   2.389   5.173   7.561
11274TIP3    H133783   2.483   5.196   7.545
11274TIP3    H233784   2.385   5.083   7.522
11275TIP3   OH233785   4.058   5.246   7.447
11275TIP3    H133786   4.129   5.308   7.418
11275TIP3    H233787   4.100   5.206   7.527
11276TIP3   OH233788   4.180   5.113   7.647
11276TIP3    H133789   4.120   5.070   7.711
11276TIP3    H233790   4.254   5.144   7.704
11277TIP3   OH233791   4.126   5.020   7.298
11277TIP3    H133792   4.054   5.024   7.231
11277TIP3    H233793   4.098   5.095   7.355
11278TIP3   OH233794   3.998   4.692   7.251
11278TIP3    H133795   3.953   4.731   7.175
11278TIP3    H233796   3.973   4.598   7.242
11279TIP3   OH233797   4.000   4.968   7.793
11279TIP3    H133798   4.002   4.872   7.783
11279TIP3    H233799   3.997   4.977   7.891
11280TIP3   OH233800   3.944   4.424   7.238
11280TIP3    H133801   4.010   4.386   7.298
11280TIP3    H233802   3.864   4.371   7.256
11281TIP3   OH233803   3.999   4.689   7.690
11281TIP3    H133804   4.040   4.601   7.706
11281TIP3    H233805   4.057   4.722   7.619
11282TIP3   OH233806   4.119   4.444   7.730
11282TIP3    H133807   4.158   4.423   7.817
11282TIP3    H233808   4.050   4.375   7.723
11283TIP3   OH233809   4.196   4.345   7.371
11283TIP3    H133810   4.231   4.295   7.295
11283TIP3    H233811   4.250   4.427   7.368
11284TIP3   OH233812   3.749   5.909   7.632
11284TIP3    H133813   3.801   5.892   7.551
11284TIP3    H233814   3.807   5.968   7.682
11285TIP3   OH233815   4.275   4.376   7.956
11285TIP3    H133816   4.347   4.340   7.901
11285TIP3    H233817   4.298   4.471   7.952
11286TIP3   OH233818   3.929   4.245   7.711
11286TIP3    H133819   3.845   4.293   7.728
11286TIP3    H233820   3.908   4.158   7.752
11287TIP3   OH233821   2.415   5.562   7.712
11287TIP3    H133822   2.330   5.525   7.683
11287TIP3    H233823   2.402   5.655   7.686
11288TIP3   OH233824   2.815   4.182   7.668
11288TIP3    H133825   2.855   4.094   7.654
11288TIP3    H233826   2.891   4.231   7.706
11289TIP3   OH233827   3.315   4.355   7.771
11289TIP3    H133828   3.352   4.307   7.848
11289TIP3    H233829   3.327   4.446   7.804
11290TIP3   OH233830   3.181   5.749   7.303
11290TIP3    H133831   3.269   5.773   7.268
11290TIP3    H233832   3.159   5.675   7.243
11291TIP3   OH233833   3.899   5.863   7.402
11291TIP3    H133834   3.890   5.765   7.393
11291TIP3    H233835   3.862   5.892   7.316
11292TIP3   OH233836   2.484   5.586   7.362
11292TIP3    H133837   2.489   5.609   7.456
11292TIP3    H233838   2.571   5.543   7.347
11293TIP3   OH233839   5.410   5.375   7.325
11293TIP3    H133840   5.374   5.461   7.353
11293TIP3    H233841   5.328   5.326   7.308
11294TIP3   OH233842   4.367   4.884   7.606
11294TIP3    H133843   4.331   4.972   7.628
11294TIP3    H233844   4.290   4.842   7.565
11295TIP3   OH233845   4.418   5.169   7.761
11295TIP3    H133846   4.465   5.110   7.824
11295TIP3    H233847   4.491   5.217   7.722
11296TIP3   OH233848   4.943   4.767   7.782
11296TIP3    H133849   4.920   4.846   7.730
11296TIP3    H233850   4.886   4.701   7.738
11297TIP3   OH233851   5.616   4.861   7.383
11297TIP3    H133852   5.685   4.841   7.450
11297TIP3    H233853   5.670   4.905   7.316
11298TIP3   OH233854   4.582   4.989   7.883
11298TIP3    H133855   4.670   4.973   7.917
11298TIP3    H233856   4.578   4.925   7.809
11299TIP3   OH233857   5.013   5.168   7.659
11299TIP3    H133858   5.104   5.143   7.684
11299TIP3    H233859   4.974   5.081   7.638
11300TIP3   OH233860   5.276   5.621   7.231
11300TIP3    H133861   5.245   5.578   7.151
11300TIP3    H233862   5.251   5.714   7.214
11301TIP3   OH233863   5.828   4.849   7.544
11301TIP3    H133864   5.818   4.816   7.634
11301TIP3    H233865   5.900   4.912   7.554
11302TIP3   OH233866   4.263   5.413   7.340
11302TIP3    H133867   4.222   5.441   7.256
11302TIP3    H233868   4.294   5.497   7.377
11303TIP3   OH233869   5.280   4.469   7.903
11303TIP3    H133870   5.280   4.377   7.934
11303TIP3    H233871   5.231   4.515   7.973
11304TIP3   OH233872   5.525   5.761   7.119
11304TIP3    H133873   5.515   5.676   7.073
11304TIP3    H233874   5.511   5.734   7.211
11305TIP3   OH233875   5.217   5.233   7.174
11305TIP3    H133876   5.135   5.283   7.156
11305TIP3    H233877   5.258   5.228   7.086
11306TIP3   OH233878   5.178   5.016   6.898
11306TIP3    H133879   5.246   5.071   6.942
11306TIP3    H233880   5.236   4.954   6.850
11307TIP3   OH233881   5.578   5.298   7.132
11307TIP3    H133882   5.519   5.322   7.207
11307TIP3    H233883   5.660   5.278   7.182
11308TIP3   OH233884   4.806   5.320   7.566
11308TIP3    H133885   4.765   5.258   7.503
11308TIP3    H233886   4.881   5.267   7.601
11309TIP3   OH233887   4.897   5.735   7.741
11309TIP3    H133888   4.908   5.685   7.659
11309TIP3    H233889   4.977   5.711   7.791
11310TIP3   OH233890   5.404   5.172   6.964
11310TIP3    H133891   5.467   5.228   7.015
11310TIP3    H233892   5.429   5.194   6.872
11311TIP3   OH233893   5.192   5.890   7.213
11311TIP3    H133894   5.185   5.932   7.300
11311TIP3    H233895   5.101   5.894   7.181
11312TIP3   OH233896   5.924   4.417   7.029
11312TIP3    H133897   5.843   4.438   7.079
11312TIP3    H233898   5.938   4.500   6.980
11313TIP3   OH233899   4.670   5.158   7.370
11313TIP3    H133900   4.599   5.200   7.317
11313TIP3    H233901   4.630   5.073   7.393
11314TIP3   OH233902   5.725   5.777   6.576
11314TIP3    H133903   5.720   5.861   6.524
11314TIP3    H233904   5.818   5.747   6.558
11315TIP3   OH233905   5.015   6.103   7.056
11315TIP3    H133906   4.988   6.057   6.974
11315TIP3    H233907   4.993   6.194   7.034
11316TIP3   OH233908   4.473   5.951   7.442
11316TIP3    H133909   4.515   5.949   7.531
11316TIP3    H233910   4.418   5.871   7.446
11317TIP3   OH233911   5.233   6.003   6.695
11317TIP3    H133912   5.294   5.934   6.662
11317TIP3    H233913   5.268   6.020   6.785
11318TIP3   OH233914   5.274   6.051   6.963
11318TIP3    H133915   5.195   6.056   7.021
11318TIP3    H233916   5.325   5.983   7.007
11319TIP3   OH233917   5.483   5.221   6.705
11319TIP3    H133918   5.449   5.227   6.614
11319TIP3    H233919   5.570   5.265   6.694
11320TIP3   OH233920   5.198   4.598   7.028
11320TIP3    H133921   5.165   4.595   7.120
11320TIP3    H233922   5.158   4.515   6.994
11321TIP3   OH233923   4.865   4.946   7.590
11321TIP3    H133924   4.773   4.919   7.609
11321TIP3    H233925   4.878   4.904   7.502
11322TIP3   OH233926   5.356   5.038   7.310
11322TIP3    H133927   5.301   5.105   7.265
11322TIP3    H233928   5.411   5.003   7.237
11323TIP3   OH233929   5.493   5.065   7.552
11323TIP3    H133930   5.441   5.087   7.472
11323TIP3    H233931   5.538   4.986   7.519
11324TIP3   OH233932   4.851   4.570   6.992
11324TIP3    H133933   4.844   4.572   7.090
11324TIP3    H233934   4.775   4.626   6.967
11325TIP3   OH233935   4.395   4.602   7.874
11325TIP3    H133936   4.468   4.648   7.920
11325TIP3    H233937   4.432   4.588   7.785
11326TIP3   OH233938   4.363   4.594   7.382
11326TIP3    H133939   4.411   4.632   7.305
11326TIP3    H233940   4.306   4.670   7.403
11327TIP3   OH233941   5.185   4.767   7.638
11327TIP3    H133942   5.110   4.773   7.701
11327TIP3    H233943   5.262   4.769   7.698
11328TIP3   OH233944   4.627   4.828   7.661
11328TIP3    H133945   4.534   4.836   7.630
11328TIP3    H233946   4.652   4.738   7.635
11329TIP3   OH233947   4.897   4.820   7.346
11329TIP3    H133948   4.991   4.840   7.329
11329TIP3    H233949   4.852   4.847   7.263
11330TIP3   OH233950   4.741   4.859   7.124
11330TIP3    H133951   4.669   4.816   7.075
11330TIP3    H233952   4.793   4.897   7.050
11331TIP3   OH233953   5.274   5.081   7.727
11331TIP3    H133954   5.355   5.078   7.672
11331TIP3    H233955   5.311   5.082   7.815
11332TIP3   OH233956   4.793   4.594   7.623
11332TIP3    H133957   4.768   4.512   7.671
11332TIP3    H233958   4.854   4.561   7.555
11333TIP3   OH233959   4.988   5.392   7.132
11333TIP3    H133960   4.917   5.324   7.122
11333TIP3    H233961   4.971   5.423   7.224
11334TIP3   OH233962   5.448   4.702   6.990
11334TIP3    H133963   5.352   4.683   7.002
11334TIP3    H233964   5.456   4.795   7.019
11335TIP3   OH233965   5.519   4.949   7.094
11335TIP3    H133966   5.614   4.957   7.112
11335TIP3    H233967   5.500   5.029   7.042
11336TIP3   OH233968   4.683   5.403   7.804
11336TIP3    H133969   4.728   5.388   7.719
11336TIP3    H233970   4.720   5.335   7.860
11337TIP3   OH233971   5.139   5.540   6.960
11337TIP3    H133972   5.092   5.626   6.964
11337TIP3    H233973   5.082   5.484   7.017
11338TIP3   OH233974   5.957   5.030   6.932
11338TIP3    H133975   5.895   4.987   6.869
11338TIP3    H233976   5.961   5.117   6.888
11339TIP3   OH233977   5.624   5.806   6.825
11339TIP3    H133978   5.582   5.722   6.850
11339TIP3    H233979   5.647   5.790   6.732
11340TIP3   OH233980   4.779   5.712   7.421
11340TIP3    H133981   4.778   5.798   7.375
11340TIP3    H233982   4.685   5.693   7.428
11341TIP3   OH233983   4.349   5.018   7.137
11341TIP3    H133984   4.394   5.102   7.158
11341TIP3    H233985   4.272   5.022   7.198
11342TIP3   OH233986   4.932   5.486   7.380
11342TIP3    H133987   4.884   5.569   7.398
11342TIP3    H233988   4.897   5.428   7.451
11343TIP3   OH233989   4.704   5.957   7.284
11343TIP3    H133990   4.616   5.963   7.328
11343TIP3    H233991   4.731   6.051   7.289
11344TIP3   OH233992   5.413   5.593   6.742
11344TIP3    H133993   5.458   5.555   6.821
11344TIP3    H233994   5.323   5.559   6.757
11345TIP3   OH233995   5.680   6.035   6.507
11345TIP3    H133996   5.757   6.083   6.476
11345TIP3    H233997   5.685   6.047   6.603
11346TIP3   OH233998   5.565   5.520   6.961
11346TIP3    H133999   5.553   5.453   7.031
11346TIP3    H234000   5.658   5.498   6.938
11347TIP3   OH234001   4.781   5.568   6.743
11347TIP3    H134002   4.794   5.477   6.712
11347TIP3    H234003   4.759   5.552   6.837
11348TIP3   OH234004   4.726   5.572   7.017
11348TIP3    H134005   4.799   5.542   7.073
11348TIP3    H234006   4.732   5.669   7.025
11349TIP3   OH234007   4.462   5.263   7.217
11349TIP3    H134008   4.396   5.307   7.275
11349TIP3    H234009   4.476   5.333   7.150
11350TIP3   OH234010   5.495   4.643   7.271
11350TIP3    H134011   5.479   4.670   7.179
11350TIP3    H234012   5.528   4.728   7.311
11351TIP3   OH234013   4.998   5.772   6.973
11351TIP3    H134014   4.907   5.797   7.000
11351TIP3    H234015   5.005   5.817   6.888
11352TIP3   OH234016   5.180   4.834   7.374
11352TIP3    H134017   5.245   4.906   7.363
11352TIP3    H234018   5.183   4.820   7.472
11353TIP3   OH234019   5.325   4.551   7.476
11353TIP3    H134020   5.330   4.618   7.547
11353TIP3    H234021   5.384   4.592   7.409
11354TIP3   OH234022   4.741   5.845   7.031
11354TIP3    H134023   4.709   5.914   6.969
11354TIP3    H234024   4.723   5.888   7.118
11355TIP3   OH234025   4.838   4.558   7.268
11355TIP3    H134026   4.836   4.648   7.306
11355TIP3    H234027   4.934   4.540   7.277
11356TIP3   OH234028   4.456   5.473   7.023
11356TIP3    H134029   4.526   5.540   7.031
11356TIP3    H234030   4.498   5.415   6.956
11357TIP3   OH234031   4.398   4.747   7.157
11357TIP3    H134032   4.400   4.845   7.155
11357TIP3    H234033   4.316   4.728   7.111
11358TIP3   OH234034   4.759   4.452   8.045
11358TIP3    H134035   4.759   4.435   7.949
11358TIP3    H234036   4.814   4.381   8.079
11359TIP3   OH234037   4.328   5.692   7.414
11359TIP3    H134038   4.246   5.718   7.458
11359TIP3    H234039   4.310   5.728   7.324
11360TIP3   OH234040   4.949   5.771   6.664
11360TIP3    H134041   4.895   5.693   6.691
11360TIP3    H234042   5.023   5.726   6.617
11361TIP3   OH234043   5.388   5.816   6.572
11361TIP3    H134044   5.423   5.743   6.627
11361TIP3    H234045   5.439   5.809   6.489
11362TIP3   OH234046   4.589   5.287   6.877
11362TIP3    H134047   4.646   5.253   6.948
11362TIP3    H234048   4.655   5.291   6.804
11363TIP3   OH234049   5.100   5.485   6.690
11363TIP3    H134050   5.102   5.494   6.787
11363TIP3    H234051   5.099   5.387   6.681
11364TIP3   OH234052   4.801   5.191   7.100
11364TIP3    H134053   4.771   5.150   7.183
11364TIP3    H234054   4.836   5.115   7.050
11365TIP3   OH234055   4.899   4.985   6.939
11365TIP3    H134056   4.874   4.991   6.844
11365TIP3    H234057   4.996   4.987   6.932
11366TIP3   OH234058   5.722   5.321   6.617
11366TIP3    H134059   5.707   5.275   6.532
11366TIP3    H234060   5.691   5.410   6.589
11367TIP3   OH234061   4.708   6.051   6.846
11367TIP3    H134062   4.803   6.045   6.824
11367TIP3    H234063   4.675   6.096   6.766
11368TIP3   OH234064   4.187   5.429   7.059
11368TIP3    H134065   4.281   5.450   7.044
11368TIP3    H234066   4.180   5.339   7.019
11369TIP3   OH234067   4.100   6.038   7.469
11369TIP3    H134068   4.035   5.973   7.434
11369TIP3    H234069   4.149   5.982   7.533
11370TIP3   OH234070   4.235   5.895   7.657
11370TIP3    H134071   4.230   5.808   7.699
11370TIP3    H234072   4.262   5.952   7.730
11371TIP3   OH234073   5.833   5.459   6.930
11371TIP3    H134074   5.885   5.535   6.898
11371TIP3    H234075   5.882   5.430   7.008
11372TIP3   OH234076   5.923   5.253   6.778
11372TIP3    H134077   5.858   5.255   6.704
11372TIP3    H234078   5.881   5.324   6.831
11373TIP3   OH234079   5.796   4.948   6.733
11373TIP3    H134080   5.741   4.987   6.664
11373TIP3    H234081   5.769   4.853   6.727
11374TIP3   OH234082   5.797   5.212   7.287
11374TIP3    H134083   5.798   5.116   7.271
11374TIP3    H234084   5.799   5.217   7.384
11375TIP3   OH234085   5.737   4.682   6.722
11375TIP3    H134086   5.809   4.652   6.780
11375TIP3    H234087   5.662   4.626   6.748
11376TIP3   OH234088   5.797   4.946   7.178
11376TIP3    H134089   5.831   4.856   7.198
11376TIP3    H234090   5.853   4.967   7.101
11377TIP3   OH234091   5.900   4.695   7.213
11377TIP3    H134092   5.950   4.680   7.296
11377TIP3    H234093   5.839   4.618   7.215
11378TIP3   OH234094   4.617   4.688   8.022
11378TIP3    H134095   4.668   4.605   8.033
11378TIP3    H234096   4.687   4.754   8.025
11379TIP3   OH234097   5.983   4.626   6.851
11379TIP3    H134098   6.023   4.554   6.798
11379TIP3    H234099   6.052   4.695   6.847
11380TIP3   OH234100   4.389   4.454   7.611
11380TIP3    H134101   4.297   4.452   7.643
11380TIP3    H234102   4.383   4.512   7.533
11381TIP3   OH234103   4.617   5.900   7.677
11381TIP3    H134104   4.635   5.805   7.685
11381TIP3    H234105   4.707   5.934   7.668
11382TIP3   OH234106   5.425   4.659   7.741
11382TIP3    H134107   5.399   4.592   7.806
11382TIP3    H234108   5.520   4.640   7.726
11383TIP3   OH234109   5.958   4.555   7.644
11383TIP3    H134110   5.987   4.604   7.564
11383TIP3    H234111   5.862   4.572   7.647
11384TIP3   OH234112   6.070   4.654   7.420
11384TIP3    H134113   6.141   4.594   7.387
11384TIP3    H234114   6.116   4.741   7.407
11385TIP3   OH234115   4.706   4.379   7.780
11385TIP3    H134116   4.612   4.354   7.780
11385TIP3    H234117   4.749   4.291   7.774
11386TIP3   OH234118   4.520   4.256   7.452
11386TIP3    H134119   4.548   4.312   7.378
11386TIP3    H234120   4.489   4.324   7.516
11387TIP3   OH234121   5.145   4.408   7.663
11387TIP3    H134122   5.194   4.458   7.596
11387TIP3    H234123   5.182   4.446   7.745
11388TIP3   OH234124   5.678   4.560   7.644
11388TIP3    H134125   5.669   4.523   7.555
11388TIP3    H234126   5.664   4.480   7.700
11389TIP3   OH234127   5.719   4.480   7.208
11389TIP3    H134128   5.633   4.524   7.223
11389TIP3    H234129   5.703   4.394   7.254
11390TIP3   OH234130   4.203   5.819   7.212
11390TIP3    H134131   4.120   5.785   7.175
11390TIP3    H234132   4.193   5.914   7.192
11391TIP3   OH234133   4.606   4.402   7.196
11391TIP3    H134134   4.654   4.344   7.134
11391TIP3    H234135   4.678   4.461   7.227
11392TIP3   OH234136   5.116   4.582   7.293
11392TIP3    H134137   5.178   4.539   7.354
11392TIP3    H234138   5.134   4.676   7.317
11393TIP3   OH234139   4.976   6.008   6.792
11393TIP3    H134140   5.066   6.026   6.758
11393TIP3    H234141   4.953   5.933   6.733
11394TIP3   OH234142   4.281   5.844   6.846
11394TIP3    H134143   4.282   5.867   6.940
11394TIP3    H234144   4.369   5.800   6.834
11395TIP3   OH234145   6.105   5.179   7.112
11395TIP3    H134146   6.027   5.211   7.158
11395TIP3    H234147   6.074   5.093   7.078
11396TIP3   OH234148   6.959   4.849   6.485
11396TIP3    H134149   6.932   4.847   6.578
11396TIP3    H234150   6.931   4.759   6.459
11397TIP3   OH234151   6.638   4.821   6.470
11397TIP3    H134152   6.632   4.817   6.567
11397TIP3    H234153   6.569   4.886   6.450
11398TIP3   OH234154   6.223   4.862   7.344
11398TIP3    H134155   6.290   4.929   7.356
11398TIP3    H234156   6.239   4.829   7.254
11399TIP3   OH234157   6.164   4.852   6.867
11399TIP3    H134158   6.212   4.887   6.790
11399TIP3    H234159   6.104   4.927   6.887
11400TIP3   OH234160   6.534   5.106   6.626
11400TIP3    H134161   6.456   5.072   6.579
11400TIP3    H234162   6.585   5.142   6.550
11401TIP3   OH234163   6.140   5.270   6.615
11401TIP3    H134164   6.187   5.350   6.645
11401TIP3    H234165   6.068   5.267   6.681
11402TIP3   OH234166   6.624   4.811   6.743
11402TIP3    H134167   6.617   4.903   6.772
11402TIP3    H234168   6.720   4.793   6.753
11403TIP3   OH234169   6.193   5.001   6.639
11403TIP3    H134170   6.200   5.099   6.634
11403TIP3    H234171   6.102   4.989   6.610
11404TIP3   OH234172   6.401   5.467   6.329
11404TIP3    H134173   6.407   5.459   6.424
11404TIP3    H234174   6.434   5.559   6.317
11405TIP3   OH234175   6.673   5.208   6.419
11405TIP3    H134176   6.637   5.210   6.328
11405TIP3    H234177   6.754   5.259   6.409
11406TIP3   OH234178   5.974   5.683   6.542
11406TIP3    H134179   6.059   5.721   6.509
11406TIP3    H234180   5.979   5.595   6.501
11407TIP3   OH234181   6.180   4.710   7.097
11407TIP3    H134182   6.085   4.703   7.119
11407TIP3    H234183   6.178   4.768   7.017
11408TIP3   OH234184   6.481   4.627   7.256
11408TIP3    H134185   6.385   4.606   7.258
11408TIP3    H234186   6.518   4.538   7.264
11409TIP3   OH234187   6.281   4.503   6.919
11409TIP3    H134188   6.310   4.560   6.846
11409TIP3    H234189   6.255   4.568   6.987
11410TIP3   OH234190   6.395   4.661   6.674
11410TIP3    H134191   6.444   4.597   6.619
11410TIP3    H234192   6.469   4.714   6.710
11411TIP3   OH234193   1.986   5.714   7.681
11411TIP3    H134194   1.890   5.716   7.697
11411TIP3    H234195   1.998   5.793   7.623
11412TIP3   OH234196   1.803   5.978   7.374
11412TIP3    H134197   1.864   5.960   7.447
11412TIP3    H234198   1.731   5.914   7.386
11413TIP3   OH234199   2.044   5.928   7.521
11413TIP3    H134200   2.073   5.872   7.446
11413TIP3    H234201   2.087   6.014   7.502
11414TIP3   OH234202   3.479   6.354   7.542
11414TIP3    H134203   3.543   6.361   7.624
11414TIP3    H234204   3.512   6.434   7.490
11415TIP3   OH234205   3.681   6.398   7.730
11415TIP3    H134206   3.723   6.355   7.803
11415TIP3    H234207   3.731   6.479   7.719
11416TIP3   OH234208   3.150   5.996   7.996
11416TIP3    H134209   3.173   5.918   8.050
11416TIP3    H234210   3.090   6.044   8.056
11417TIP3   OH234211   3.049   6.750   7.373
11417TIP3    H134212   2.953   6.728   7.382
11417TIP3    H234213   3.047   6.784   7.279
11418TIP3   OH234214   3.023   6.571   7.050
11418TIP3    H134215   3.083   6.632   7.096
11418TIP3    H234216   3.087   6.511   7.007
11419TIP3   OH234217   3.462   6.890   7.227
11419TIP3    H134218   3.562   6.885   7.211
11419TIP3    H234219   3.466   6.861   7.323
11420TIP3   OH234220   3.274   6.709   7.135
11420TIP3    H134221   3.319   6.785   7.172
11420TIP3    H234222   3.279   6.734   7.039
11421TIP3   OH234223   3.775   5.969   7.179
11421TIP3    H134224   3.684   5.976   7.209
11421TIP3    H234225   3.789   6.054   7.132
11422TIP3   OH234226   3.570   7.325   6.715
11422TIP3    H134227   3.582   7.419   6.690
11422TIP3    H234228   3.663   7.292   6.712
11423TIP3   OH234229   3.322   6.779   6.876
11423TIP3    H134230   3.289   6.756   6.787
11423TIP3    H234231   3.405   6.825   6.854
11424TIP3   OH234232   3.077   6.126   7.161
11424TIP3    H134233   3.041   6.146   7.249
11424TIP3    H234234   3.015   6.054   7.136
11425TIP3   OH234235   3.229   6.561   7.437
11425TIP3    H134236   3.169   6.633   7.417
11425TIP3    H234237   3.274   6.550   7.352
11426TIP3   OH234238   3.521   6.632   7.647
11426TIP3    H134239   3.464   6.666   7.579
11426TIP3    H234240   3.488   6.538   7.661
11427TIP3   OH234241   2.693   6.124   7.142
11427TIP3    H134242   2.686   6.130   7.239
11427TIP3    H234243   2.627   6.191   7.118
11428TIP3   OH234244   2.198   6.161   7.501
11428TIP3    H134245   2.292   6.156   7.473
11428TIP3    H234246   2.205   6.203   7.587
11429TIP3   OH234247   2.766   6.364   7.487
11429TIP3    H134248   2.836   6.419   7.451
11429TIP3    H234249   2.691   6.390   7.429
11430TIP3   OH234250   2.612   6.368   7.263
11430TIP3    H134251   2.522   6.364   7.227
11430TIP3    H234252   2.653   6.431   7.200
11431TIP3   OH234253   2.691   6.113   7.762
11431TIP3    H134254   2.662   6.023   7.780
11431TIP3    H234255   2.729   6.106   7.673
11432TIP3   OH234256   3.379   6.468   7.205
11432TIP3    H134257   3.464   6.498   7.248
11432TIP3    H234258   3.341   6.551   7.172
11433TIP3   OH234259   3.786   6.584   7.090
11433TIP3    H134260   3.728   6.556   7.017
11433TIP3    H234261   3.807   6.675   7.059
11434TIP3   OH234262   3.499   7.391   6.973
11434TIP3    H134263   3.436   7.323   6.998
11434TIP3    H234264   3.507   7.375   6.877
11435TIP3   OH234265   3.248   7.144   6.858
11435TIP3    H134266   3.295   7.113   6.935
11435TIP3    H234267   3.156   7.110   6.874
11436TIP3   OH234268   3.597   7.592   6.674
11436TIP3    H134269   3.635   7.681   6.660
11436TIP3    H234270   3.516   7.605   6.621
11437TIP3   OH234271   3.426   7.121   7.077
11437TIP3    H134272   3.431   7.049   7.140
11437TIP3    H234273   3.525   7.125   7.057
11438TIP3   OH234274   3.330   6.228   7.363
11438TIP3    H134275   3.252   6.286   7.343
11438TIP3    H234276   3.372   6.269   7.434
11439TIP3   OH234277   3.059   6.373   7.538
11439TIP3    H134278   3.122   6.442   7.505
11439TIP3    H234279   3.041   6.406   7.626
11440TIP3   OH234280   3.172   6.110   7.636
11440TIP3    H134281   3.206   6.155   7.718
11440TIP3    H234282   3.204   6.170   7.568
11441TIP3   OH234283   2.679   6.107   7.426
11441TIP3    H134284   2.681   6.203   7.445
11441TIP3    H234285   2.776   6.089   7.426
11442TIP3   OH234286   2.293   6.269   7.250
11442TIP3    H134287   2.297   6.363   7.275
11442TIP3    H234288   2.202   6.245   7.267
11443TIP3   OH234289   3.222   7.381   6.709
11443TIP3    H134290   3.244   7.307   6.768
11443TIP3    H234291   3.277   7.364   6.630
11444TIP3   OH234292   2.959   7.042   6.844
11444TIP3    H134293   2.885   7.058   6.904
11444TIP3    H234294   2.951   6.945   6.830
11445TIP3   OH234295   2.743   6.544   7.095
11445TIP3    H134296   2.709   6.552   7.004
11445TIP3    H234297   2.839   6.546   7.081
11446TIP3   OH234298   3.561   6.868   6.755
11446TIP3    H134299   3.543   6.824   6.670
11446TIP3    H234300   3.528   6.958   6.731
11447TIP3   OH234301   3.708   7.060   7.082
11447TIP3    H134302   3.772   7.125   7.052
11447TIP3    H234303   3.752   7.029   7.166
11448TIP3   OH234304   3.822   6.948   7.306
11448TIP3    H134305   3.780   6.871   7.348
11448TIP3    H234306   3.889   6.971   7.372
11449TIP3   OH234307   3.765   6.833   6.934
11449TIP3    H134308   3.692   6.834   6.868
11449TIP3    H234309   3.739   6.911   6.987
11450TIP3   OH234310   3.630   6.512   6.880
11450TIP3    H134311   3.585   6.551   6.804
11450TIP3    H234312   3.595   6.421   6.881
11451TIP3   OH234313   3.638   6.768   7.413
11451TIP3    H134314   3.680   6.687   7.444
11451TIP3    H234315   3.633   6.818   7.496
11452TIP3   OH234316   3.561   6.243   6.930
11452TIP3    H134317   3.656   6.218   6.928
11452TIP3    H234318   3.520   6.170   6.883
11453TIP3   OH234319   3.628   6.480   7.312
11453TIP3    H134320   3.682   6.403   7.337
11453TIP3    H234321   3.688   6.530   7.254
11454TIP3   OH234322   3.730   6.222   7.376
11454TIP3    H134323   3.792   6.245   7.448
11454TIP3    H234324   3.698   6.139   7.412
11455TIP3   OH234325   3.822   6.182   7.000
11455TIP3    H134326   3.868   6.111   6.951
11455TIP3    H234327   3.889   6.254   7.000
11456TIP3   OH234328   3.272   6.210   7.873
11456TIP3    H134329   3.245   6.132   7.924
11456TIP3    H234330   3.369   6.200   7.869
11457TIP3   OH234331   3.814   6.121   7.821
11457TIP3    H134332   3.844   6.164   7.738
11457TIP3    H234333   3.717   6.124   7.814
11458TIP3   OH234334   3.912   6.204   7.578
11458TIP3    H134335   3.978   6.145   7.538
11458TIP3    H234336   3.962   6.289   7.572
11459TIP3   OH234337   2.511   5.901   7.884
11459TIP3    H134338   2.435   5.855   7.922
11459TIP3    H234339   2.582   5.835   7.903
11460TIP3   OH234340   2.334   5.805   7.574
11460TIP3    H134341   2.377   5.852   7.499
11460TIP3    H234342   2.263   5.866   7.595
11461TIP3   OH234343   2.988   5.963   7.786
11461TIP3    H134344   3.048   6.007   7.724
11461TIP3    H234345   3.042   5.968   7.868
11462TIP3   OH234346   3.532   6.109   7.799
11462TIP3    H134347   3.527   6.067   7.712
11462TIP3    H234348   3.514   6.034   7.859
11463TIP3   OH234349   2.448   5.955   7.358
11463TIP3    H134350   2.490   5.902   7.288
11463TIP3    H234351   2.522   6.014   7.383
11464TIP3   OH234352   2.960   6.135   7.433
11464TIP3    H134353   3.012   6.092   7.503
11464TIP3    H234354   2.963   6.228   7.464
11465TIP3   OH234355   4.019   6.718   7.214
11465TIP3    H134356   3.990   6.802   7.251
11465TIP3    H234357   3.949   6.659   7.245
11466TIP3   OH234358   3.896   7.230   6.966
11466TIP3    H134359   3.856   7.239   6.877
11466TIP3    H234360   3.914   7.322   6.989
11467TIP3   OH234361   4.810   6.844   6.547
11467TIP3    H134362   4.848   6.846   6.638
11467TIP3    H234363   4.858   6.770   6.509
11468TIP3   OH234364   4.318   6.960   6.977
11468TIP3    H134365   4.236   7.001   6.941
11468TIP3    H234366   4.283   6.902   7.046
11469TIP3   OH234367   4.839   6.393   6.666
11469TIP3    H134368   4.808   6.399   6.758
11469TIP3    H234369   4.787   6.315   6.636
11470TIP3   OH234370   4.505   6.787   7.196
11470TIP3    H134371   4.425   6.748   7.240
11470TIP3    H234372   4.522   6.716   7.132
11471TIP3   OH234373   4.493   6.390   6.625
11471TIP3    H134374   4.481   6.386   6.722
11471TIP3    H234375   4.414   6.442   6.600
11472TIP3   OH234376   4.060   6.416   7.507
11472TIP3    H134377   4.045   6.513   7.513
11472TIP3    H234378   4.103   6.404   7.423
11473TIP3   OH234379   4.000   6.409   7.016
11473TIP3    H134380   4.051   6.449   6.942
11473TIP3    H234381   3.944   6.486   7.040
11474TIP3   OH234382   4.285   6.654   7.282
11474TIP3    H134383   4.189   6.662   7.263
11474TIP3    H234384   4.305   6.560   7.268
11475TIP3   OH234385   4.568   6.630   6.964
11475TIP3    H134386   4.623   6.707   6.944
11475TIP3    H234387   4.495   6.643   6.899
11476TIP3   OH234388   4.386   6.662   6.768
11476TIP3    H134389   4.306   6.628   6.725
11476TIP3    H234390   4.432   6.703   6.693
11477TIP3   OH234391   4.414   6.400   7.242
11477TIP3    H134392   4.389   6.332   7.308
11477TIP3    H234393   4.497   6.365   7.208
11478TIP3   OH234394   5.020   6.557   6.568
11478TIP3    H134395   4.952   6.491   6.593
11478TIP3    H234396   5.012   6.616   6.645
11479TIP3   OH234397   3.987   6.832   6.773
11479TIP3    H134398   4.034   6.914   6.798
11479TIP3    H234399   3.911   6.835   6.836
11480TIP3   OH234400   4.404   7.379   6.392
11480TIP3    H134401   4.411   7.302   6.333
11480TIP3    H234402   4.456   7.349   6.468
11481TIP3   OH234403   4.098   7.078   6.857
11481TIP3    H134404   4.029   7.122   6.911
11481TIP3    H234405   4.109   7.144   6.785
11482TIP3   OH234406   4.473   6.364   6.898
11482TIP3    H134407   4.469   6.451   6.942
11482TIP3    H234408   4.568   6.344   6.907
11483TIP3   OH234409   4.096   7.288   6.667
11483TIP3    H134410   4.131   7.377   6.651
11483TIP3    H234411   4.147   7.236   6.600
11484TIP3   OH234412   4.039   6.563   6.792
11484TIP3    H134413   4.041   6.661   6.791
11484TIP3    H234414   3.952   6.546   6.753
11485TIP3   OH234415   4.455   6.245   7.678
11485TIP3    H134416   4.428   6.267   7.588
11485TIP3    H234417   4.370   6.230   7.721
11486TIP3   OH234418   4.234   7.107   6.518
11486TIP3    H134419   4.289   7.066   6.589
11486TIP3    H234420   4.300   7.109   6.445
11487TIP3   OH234421   4.719   7.287   6.332
11487TIP3    H134422   4.693   7.286   6.425
11487TIP3    H234423   4.737   7.191   6.318
11488TIP3   OH234424   4.410   7.003   6.718
11488TIP3    H134425   4.394   6.980   6.812
11488TIP3    H234426   4.460   6.925   6.686
11489TIP3   OH234427   4.534   6.794   6.574
11489TIP3    H134428   4.503   6.800   6.482
11489TIP3    H234429   4.629   6.815   6.564
11490TIP3   OH234430   3.829   7.234   6.699
11490TIP3    H134431   3.923   7.258   6.683
11490TIP3    H234432   3.823   7.147   6.653
11491TIP3   OH234433   5.385   6.487   6.396
11491TIP3    H134434   5.467   6.448   6.362
11491TIP3    H234435   5.337   6.410   6.430
11492TIP3   OH234436   4.027   6.260   7.237
11492TIP3    H134437   3.934   6.267   7.265
11492TIP3    H234438   4.029   6.323   7.161
11493TIP3   OH234439   4.339   6.196   7.418
11493TIP3    H134440   4.245   6.167   7.421
11493TIP3    H234441   4.385   6.111   7.417
11494TIP3   OH234442   4.119   6.060   7.064
11494TIP3    H134443   4.153   6.117   6.993
11494TIP3    H234444   4.095   6.125   7.133
11495TIP3   OH234445   4.756   6.232   7.317
11495TIP3    H134446   4.840   6.272   7.291
11495TIP3    H234447   4.732   6.287   7.394
11496TIP3   OH234448   5.381   6.280   6.823
11496TIP3    H134449   5.303   6.325   6.858
11496TIP3    H234450   5.378   6.197   6.874
11497TIP3   OH234451   3.849   7.596   6.799
11497TIP3    H134452   3.766   7.580   6.750
11497TIP3    H234453   3.847   7.691   6.812
11498TIP3   OH234454   4.238   6.217   6.831
11498TIP3    H134455   4.288   6.156   6.773
11498TIP3    H234456   4.311   6.272   6.867
11499TIP3   OH234457   4.752   6.400   6.930
11499TIP3    H134458   4.795   6.356   7.004
11499TIP3    H234459   4.729   6.487   6.968
11500TIP3   OH234460   3.918   7.647   6.480
11500TIP3    H134461   3.916   7.682   6.570
11500TIP3    H234462   4.008   7.608   6.474
11501TIP3   OH234463   3.830   7.976   6.453
11501TIP3    H134464   3.886   7.921   6.394
11501TIP3    H234465   3.894   8.011   6.515
   7.80000   7.35391   6.36867   0.00000   0.00000  -2.60000   0.00000  -2.60000  -3.67696
