* SET NIONTYPES = 1
* SET NPOSTOT = 45
* SET NNEGTOT = 42
* SET NIONTOT = 87
*  DATE:     6/13/26      6:34:39      CREATED BY USER: charmm-gui
*
        87  EXT
         1         1  LIT       LIT           -17.1770215071      -18.5957128913       -0.4251254919  IONS      1               1.0000000000
         2         2  LIT       LIT           -42.5576467264       17.5875024356      -21.5680778538  IONS      2               1.0000000000
         3         3  LIT       LIT            -3.2704544592        6.6571929762       40.7466950868  IONS      3               1.0000000000
         4         4  LIT       LIT            23.7324428075        6.4813622687       25.5422017876  IONS      4               1.0000000000
         5         5  LIT       LIT            -6.3079500507      -20.5833475343       11.4817701421  IONS      5               1.0000000000
         6         6  LIT       LIT             2.2604994657      -28.0465219959       16.8954950010  IONS      6               1.0000000000
         7         7  LIT       LIT             0.5275234495      -17.6447854276      -20.2196878833  IONS      7               1.0000000000
         8         8  LIT       LIT             7.3397826600       29.1566567957       20.0325633650  IONS      8               1.0000000000
         9         9  LIT       LIT            20.3241287940      -22.3441525000      -35.9217649093  IONS      9               1.0000000000
        10        10  LIT       LIT            14.0771215466        2.6417272170       14.5328102207  IONS      10              1.0000000000
        11        11  LIT       LIT            11.1920436438       41.7895116095      -20.5791651701  IONS      11              1.0000000000
        12        12  LIT       LIT             6.6005430453        4.0439339699       32.6027228926  IONS      12              1.0000000000
        13        13  LIT       LIT            14.5470137799      -15.6388473687       42.4867642129  IONS      13              1.0000000000
        14        14  LIT       LIT            22.4300161271      -12.1988062141      -32.6176116923  IONS      14              1.0000000000
        15        15  LIT       LIT           -35.1115481941        9.4242249908       35.5207948303  IONS      15              1.0000000000
        16        16  LIT       LIT             7.1527653067       29.3291239387      -18.8655916840  IONS      16              1.0000000000
        17        17  LIT       LIT             0.7473908663      -31.0872869286      -33.1970595857  IONS      17              1.0000000000
        18        18  LIT       LIT           -35.4287707522      -26.8210379068       13.0178545887  IONS      18              1.0000000000
        19        19  LIT       LIT            12.2931876955      -17.7962001469      -28.9844268241  IONS      19              1.0000000000
        20        20  LIT       LIT            -1.6180037472       37.1086372757       18.1659392530  IONS      20              1.0000000000
        21        21  LIT       LIT            21.9842988461       14.7451456632       29.0566964905  IONS      21              1.0000000000
        22        22  LIT       LIT           -19.6842752260      -21.2209838016      -25.7405786024  IONS      22              1.0000000000
        23        23  LIT       LIT            16.6600058374      -37.3562219833       13.0181795181  IONS      23              1.0000000000
        24        24  LIT       LIT            33.4730846133       -4.5199946102       32.1420917689  IONS      24              1.0000000000
        25        25  LIT       LIT            -5.6692816981       -9.1812973433      -42.0350703345  IONS      25              1.0000000000
        26        26  LIT       LIT            29.9826278215        0.9534425538       35.4486969111  IONS      26              1.0000000000
        27        27  LIT       LIT            -0.6423452637        9.6808431806      -40.3198526811  IONS      27              1.0000000000
        28        28  LIT       LIT           -22.1778300165      -19.6109673795       14.1818803383  IONS      28              1.0000000000
        29        29  LIT       LIT            17.2974430076       -1.7811562676      -32.8090244775  IONS      29              1.0000000000
        30        30  LIT       LIT            23.1814315979       -7.3463616509       38.9041053210  IONS      30              1.0000000000
        31        31  LIT       LIT            -4.4094534207      -30.3331543556      -26.9587622790  IONS      31              1.0000000000
        32        32  LIT       LIT            23.3958223922        5.6526667674       37.4853517902  IONS      32              1.0000000000
        33        33  LIT       LIT            13.7735775730       21.5740419781       20.7638270310  IONS      33              1.0000000000
        34        34  LIT       LIT           -39.6657804531      -24.4790391113       -8.1603315122  IONS      34              1.0000000000
        35        35  LIT       LIT           -29.6458839214        4.3927561080        0.3808485121  IONS      35              1.0000000000
        36        36  LIT       LIT           -15.0582440148       12.4280684007      -20.0005961151  IONS      36              1.0000000000
        37        37  LIT       LIT           -18.8794627846       28.6884887627      -13.6334604863  IONS      37              1.0000000000
        38        38  LIT       LIT           -31.8618109969      -25.2780254095       -0.3951661867  IONS      38              1.0000000000
        39        39  LIT       LIT           -43.9724773838       -6.1250291583        0.3047430256  IONS      39              1.0000000000
        40        40  LIT       LIT            -0.0037863133       29.2161289610       -5.8589865979  IONS      40              1.0000000000
        41        41  LIT       LIT           -36.6001261270      -19.7563735744       12.2427151641  IONS      41              1.0000000000
        42        42  LIT       LIT            29.2961938208      -40.2104547560      -15.4516306793  IONS      42              1.0000000000
        43        43  LIT       LIT            10.5913771146       19.0405828943       28.3562824570  IONS      43              1.0000000000
        44        44  LIT       LIT            31.7739968522       24.1832333579       17.1439562779  IONS      44              1.0000000000
        45        45  LIT       LIT            32.1752780341        4.3469113419        9.0533240987  IONS      45              1.0000000000
        46        46  CLA       CLA           -22.6715952054       35.6938480292       10.0682191204  IONS      46             -1.0000000000
        47        47  CLA       CLA            15.1923611703      -35.4145095899       18.0445870121  IONS      47             -1.0000000000
        48        48  CLA       CLA            23.7703301535      -24.9936907966       -0.7340070466  IONS      48             -1.0000000000
        49        49  CLA       CLA            -9.7671081757      -17.7570974346      -10.9237114791  IONS      49             -1.0000000000
        50        50  CLA       CLA           -20.9615851224       15.8086661786      -32.7903538102  IONS      50             -1.0000000000
        51        51  CLA       CLA             5.5562124872      -12.2741040945      -23.8513580610  IONS      51             -1.0000000000
        52        52  CLA       CLA            20.9638499661      -19.6184201401      -31.7461989730  IONS      52             -1.0000000000
        53        53  CLA       CLA           -21.5230345294      -17.5183031753       28.4488373483  IONS      53             -1.0000000000
        54        54  CLA       CLA            38.4733583477       13.0486335770      -29.2194308872  IONS      54             -1.0000000000
        55        55  CLA       CLA             6.6492965392      -22.2465438892       10.1806317907  IONS      55             -1.0000000000
        56        56  CLA       CLA           -12.9086993146        2.2949272813       40.5218176788  IONS      56             -1.0000000000
        57        57  CLA       CLA            -0.7595642268       31.6848522855      -10.1551245542  IONS      57             -1.0000000000
        58        58  CLA       CLA            -5.4620919336      -28.0329396916      -36.9916575976  IONS      58             -1.0000000000
        59        59  CLA       CLA            24.6587094202      -33.4254952752      -13.5465895091  IONS      59             -1.0000000000
        60        60  CLA       CLA             4.4519592524      -10.4353209500      -38.6580485430  IONS      60             -1.0000000000
        61        61  CLA       CLA             0.3644172668      -30.5695481940       11.5849083186  IONS      61             -1.0000000000
        62        62  CLA       CLA             9.3268707892      -39.1947619622        4.6023819092  IONS      62             -1.0000000000
        63        63  CLA       CLA            24.9776540404        4.5120440302      -33.8238175955  IONS      63             -1.0000000000
        64        64  CLA       CLA            10.9781760633        7.0511146881        8.9201618646  IONS      64             -1.0000000000
        65        65  CLA       CLA            40.9323983019      -16.6593983651        7.6620823545  IONS      65             -1.0000000000
        66        66  CLA       CLA           -36.0347616817       20.3430925523      -11.0270881211  IONS      66             -1.0000000000
        67        67  CLA       CLA            11.9562443207       28.7177265014       13.8119231330  IONS      67             -1.0000000000
        68        68  CLA       CLA            -9.0378860860       -7.9170042046      -35.7681786846  IONS      68             -1.0000000000
        69        69  CLA       CLA            31.7309904799       -3.4899092692       26.2968960019  IONS      69             -1.0000000000
        70        70  CLA       CLA            28.7978991261       32.3498200548      -24.4573292094  IONS      70             -1.0000000000
        71        71  CLA       CLA            -1.9502282674       -9.2993432128       40.4513670569  IONS      71             -1.0000000000
        72        72  CLA       CLA            21.3806054995        6.3503779649       21.1365812967  IONS      72             -1.0000000000
        73        73  CLA       CLA           -14.4143847309        9.4109334905       28.7404357346  IONS      73             -1.0000000000
        74        74  CLA       CLA            32.2532172768       23.9481975304      -12.7850015744  IONS      74             -1.0000000000
        75        75  CLA       CLA           -37.2384546453        3.5382982915       -3.9669785773  IONS      75             -1.0000000000
        76        76  CLA       CLA            11.4439279036       35.3714676886       25.7335199315  IONS      76             -1.0000000000
        77        77  CLA       CLA            10.3435128517       36.0520076457       13.8954515494  IONS      77             -1.0000000000
        78        78  CLA       CLA            16.2326112633      -10.3403886436      -27.0373292783  IONS      78             -1.0000000000
        79        79  CLA       CLA           -12.9232260038       27.4191696054       29.0654059045  IONS      79             -1.0000000000
        80        80  CLA       CLA            33.6345259134        2.3032103362       37.3302366921  IONS      80             -1.0000000000
        81        81  CLA       CLA            14.2761280213       16.5475881650       22.5599715037  IONS      81             -1.0000000000
        82        82  CLA       CLA           -11.8839212604      -13.2635902927      -34.6417203977  IONS      82             -1.0000000000
        83        83  CLA       CLA            -4.1729707331      -28.7516030015      -19.0863147799  IONS      83             -1.0000000000
        84        84  CLA       CLA             4.6977415754      -28.5313310819      -33.3087678020  IONS      84             -1.0000000000
        85        85  CLA       CLA            27.8241146299      -26.0110465808       15.0073032153  IONS      85             -1.0000000000
        86        86  CLA       CLA            20.1833680703       16.0374664197       -1.7068461996  IONS      86             -1.0000000000
        87        87  CLA       CLA           -36.4745393944       -0.0290053253        7.1139760618  IONS      87             -1.0000000000
